/*--------------------------------*- C++ -*----------------------------------*\
  =========                 |
  \\      /  F ield         | OpenFOAM: The Open Source CFD Toolbox
   \\    /   O peration     | Website:  https://openfoam.org
    \\  /    A nd           | Version:  6
     \\/     M anipulation  |
\*---------------------------------------------------------------------------*/
FoamFile
{
    version     2.0;
    format      ascii;
    class       volScalarField;
    location    "200";
    object      nut;
}
// * * * * * * * * * * * * * * * * * * * * * * * * * * * * * * * * * * * * * //

dimensions      [0 2 -1 0 0 0 0];

internalField   nonuniform List<scalar> 
458
(
0.00074016
0.000763266
0.00074077
0.000770218
0.000796551
0.000819155
0.000838693
0.000855983
0.000871874
0.00088732
0.000902483
0.000915995
0.000928517
0.000941853
0.000956214
0.000808452
0.000816964
0.000826185
0.000831282
0.000824538
0.000796842
0.000763679
0.000732423
0.000702781
0.000674558
0.000647606
0.000621737
0.000596647
0.000571795
0.00054636
0.000518659
0.000492417
0.000444748
0.00118771
0.00174353
0.00130342
0.00150412
0.00157018
0.00164616
0.00172421
0.0017978
0.00185872
0.00189685
0.00191021
0.00188447
0.00179661
0.00161015
0.00130636
0.00102369
0.00101965
0.000730834
0.000973146
0.00211737
0.00285664
0.00313456
0.00304272
0.00241308
0.00216076
0.00196752
0.00180259
0.00165454
0.00151947
0.00139291
0.00126736
0.00113593
0.00101652
0.000918264
0.00102257
0.000536975
0.00157754
0.00266883
0.00140604
0.00210751
0.00221608
0.00230859
0.00239361
0.00246741
0.0025267
0.00256668
0.00258408
0.00256278
0.00248387
0.00232959
0.0021016
0.0018305
0.0014978
0.00112944
0.00113291
0.00319858
0.00381085
0.00386601
0.00338857
0.000972421
0.000840559
0.000744638
0.000675399
0.000624313
0.000585164
0.000554339
0.000530566
0.000515439
0.000613908
0.000744713
0.00115966
0.000605113
0.00196322
0.00400946
0.00140808
0.00248611
0.00270553
0.00281447
0.00290334
0.00297525
0.00302928
0.0030634
0.00307273
0.00305889
0.00300802
0.00290645
0.00273217
0.00245766
0.00206865
0.00162007
0.00124238
0.00329514
0.00351533
0.00374512
0.00380645
0.00337946
0.000904241
0.000861725
0.000849409
0.000843909
0.000835635
0.000818569
0.00078856
0.00075643
0.000718612
0.000696841
0.000735848
0.00125613
0.000674203
0.00234105
0.00571111
0.00164138
0.00255144
0.00301917
0.00315738
0.00325598
0.00333105
0.00338006
0.00340247
0.00339833
0.00337665
0.00334536
0.00330312
0.00323665
0.00313796
0.00302155
0.00292201
0.0028625
0.00293011
0.00308917
0.0035025
0.00372711
0.00371327
0.00340131
0.00338406
0.0033923
0.00338307
0.00333449
0.00323268
0.00306008
0.00268744
0.0021979
0.00167705
0.00128685
0.00125337
0.00101676
0.000803906
0.000866004
0.00085551
0.00270807
0.0074697
0.00244166
0.0022981
0.00312818
0.00336249
0.00350351
0.00360679
0.00365915
0.00365271
0.0035977
0.00352407
0.003472
0.00343475
0.00338492
0.00329373
0.00313688
0.00290374
0.00264959
0.00250742
0.00269874
0.00336644
0.00372774
0.00378399
0.00377675
0.00380022
0.00382726
0.00383471
0.00380898
0.00375076
0.00365615
0.00344258
0.00305323
0.00250455
0.00195469
0.00152091
0.00122154
0.00133991
0.00195901
0.00104666
0.00309199
0.00888856
0.00441277
0.00213119
0.00247309
0.00313102
0.00352146
0.00377774
0.00392693
0.00392532
0.00372813
0.00356125
0.00347641
0.00344234
0.00342
0.00336946
0.00324167
0.00298565
0.00263069
0.00230685
0.00239351
0.00329433
0.00379043
0.00383242
0.00378822
0.00376342
0.00375565
0.00374317
0.00372013
0.00370183
0.00369994
0.00369947
0.00348257
0.00304455
0.00252749
0.00204792
0.00168532
0.00163158
0.00210288
0.00128825
0.00321039
0.0095485
0.00685143
0.00421488
0.00253899
0.00230828
0.00288199
0.00342878
0.00379889
0.00392134
0.00364363
0.00344866
0.00335527
0.00332725
0.0033281
0.00332347
0.00326926
0.00308913
0.00275126
0.00224819
0.00212254
0.00323253
0.0039169
0.00395715
0.00384926
0.00375004
0.00366469
0.00358332
0.00352032
0.00350584
0.00356959
0.00372029
0.00384793
0.00351722
0.00313228
0.00291255
0.00297697
0.00326661
0.00443385
0.00169157
0.00316505
0.00390327
0.00435994
0.00423269
0.0036246
0.00302724
0.00268943
0.00261814
0.00271665
0.00285748
0.00295647
0.00301563
0.00305752
0.00309652
0.00313336
0.00315797
0.00315134
0.00308067
0.00286355
0.00226436
0.00188162
0.00313778
0.00409163
0.00417859
0.00401272
0.00383827
0.00365455
0.00345287
0.00325149
0.00307764
0.00294806
0.00285518
0.00277058
0.00268394
0.0026321
0.00263887
0.00263795
0.00255098
0.00240025
0.00162617
0.00168259
0.00274629
0.00313912
0.00307967
0.00290695
0.0027771
0.0027139
0.00269364
0.00271083
0.0027547
0.00280903
0.00286038
0.0028989
0.00291862
0.00291631
0.00288166
0.00273146
0.00221729
0.00168305
0.00296646
0.00427745
0.00448161
0.00430201
0.00413065
0.0039274
0.00366588
0.00337008
0.00308154
0.00284334
0.00268958
0.00262154
0.00259014
0.00256791
0.00252076
0.00239096
0.00213664
0.00179937
0.00134756
0.00230011
0.00392701
0.00383661
0.00358084
0.00334486
0.00315429
0.0030165
0.00291793
0.00283075
0.00272477
0.00260953
0.00249346
0.00238405
0.0022878
0.00221005
0.00214881
0.00205887
0.00181405
0.00148962
0.00260221
0.00390529
0.00405587
0.00394755
0.00385861
0.00375218
0.00361767
0.00347503
0.00333878
0.00320817
0.00308573
0.003014
0.0029824
0.00296506
0.00292755
0.00285798
0.00277028
0.00220697
0.00136763
0.00258563
0.00259484
0.00262099
0.00299384
0.00271656
0.00234851
0.00216919
0.00203243
0.00192147
0.00182727
0.00174487
0.00167163
0.0016037
0.00153876
0.00147544
0.00141302
0.00135139
0.00129084
0.00123142
0.0011716
0.00110806
0.00113342
0.00118056
0.00118562
0.00118206
0.00118061
0.00118212
0.00118803
0.00120026
0.00122061
0.00125135
0.0012937
0.00134348
0.00140082
0.00146405
0.00153118
0.00159252
0.00157255
0.00145636
0.00135203
)
;

boundaryField
{
    floor
    {
        type            nutkWallFunction;
        Cmu             0.09;
        kappa           0.41;
        E               9.8;
        value           nonuniform List<scalar> 
36
(
0.00011554
9.79061e-05
9.8935e-05
0.000100048
0.000100663
9.9853e-05
9.65158e-05
9.25021e-05
8.87002e-05
8.50768e-05
8.161e-05
7.8283e-05
7.50741e-05
7.19464e-05
6.88326e-05
6.56285e-05
6.21183e-05
5.87717e-05
5.26341e-05
5.2634e-05
6.44427e-05
7.30044e-05
8.15669e-05
9.73668e-05
0.00010482
0.000103565
0.00011554
0.000123482
0.000123009
8.85088e-05
9.79061e-05
8.85088e-05
0.000117534
0.000135811
0.00013621
0.00014884
)
;
    }
    ceiling
    {
        type            nutkWallFunction;
        Cmu             0.09;
        kappa           0.41;
        E               9.8;
        value           nonuniform List<scalar> 
43
(
0.000296066
0.000297039
0.000299806
0.000339025
0.000309973
0.000270902
0.000251634
0.000236825
0.00022473
0.000214404
0.000205324
0.000197214
0.000189658
0.000182402
0.000175293
0.000168254
0.00016127
0.000154374
0.000147571
0.000140686
0.000133329
0.000136267
0.000141723
0.000142308
0.000141897
0.000141729
0.000141903
0.000142585
0.000143994
0.000146334
0.000149863
0.000154707
0.000160379
0.000166884
0.000174023
0.000181566
0.000188425
0.000186197
0.000173158
0.000161354
0.000357126
0.000432914
0.000265598
)
;
    }
    sWall
    {
        type            nutkWallFunction;
        Cmu             0.09;
        kappa           0.41;
        E               9.8;
        value           uniform 0.000296141;
    }
    nWall
    {
        type            nutkWallFunction;
        Cmu             0.09;
        kappa           0.41;
        E               9.8;
        value           nonuniform List<scalar> 6(0.000103567 0.000126177 0.000154094 0.000160861 0.00016314 0.000161369);
    }
    sideWalls
    {
        type            empty;
    }
    glass1
    {
        type            nutkWallFunction;
        Cmu             0.09;
        kappa           0.41;
        E               9.8;
        value           nonuniform List<scalar> 9(8.96172e-05 0.000142718 0.000187056 0.000229726 0.000270648 0.000309728 0.000350016 0.000362346 0.000357654);
    }
    glass2
    {
        type            nutkWallFunction;
        Cmu             0.09;
        kappa           0.41;
        E               9.8;
        value           nonuniform List<scalar> 2(0.000199585 0.000192315);
    }
    sun
    {
        type            nutkWallFunction;
        Cmu             0.09;
        kappa           0.41;
        E               9.8;
        value           nonuniform List<scalar> 
14
(
8.96399e-05
9.24487e-05
8.9714e-05
9.32911e-05
9.6476e-05
9.92001e-05
0.000101548
0.00010362
0.00010552
0.000107363
0.000109169
0.000110775
0.000112261
0.000113841
)
;
    }
    Table_master
    {
        type            nutkWallFunction;
        Cmu             0.09;
        kappa           0.41;
        E               9.8;
        value           nonuniform List<scalar> 9(0.00011745 0.000101771 9.01865e-05 8.17154e-05 7.53992e-05 7.05169e-05 6.66448e-05 6.36407e-05 6.17206e-05);
    }
    Table_slave
    {
        type            nutkWallFunction;
        Cmu             0.09;
        kappa           0.41;
        E               9.8;
        value           nonuniform List<scalar> 9(0.000109375 0.000104307 0.000102833 0.000102174 0.000101182 9.91319e-05 9.55143e-05 9.16227e-05 8.70172e-05);
    }
    inlet
    {
        type            calculated;
        value           uniform 0.000234787;
    }
    outlet
    {
        type            calculated;
        value           nonuniform List<scalar> 2(0.00258563 0.00259484);
    }
}


// ************************************************************************* //
