/*--------------------------------*- C++ -*----------------------------------*\
  =========                 |
  \\      /  F ield         | OpenFOAM: The Open Source CFD Toolbox
   \\    /   O peration     | Website:  https://openfoam.org
    \\  /    A nd           | Version:  6
     \\/     M anipulation  |
\*---------------------------------------------------------------------------*/
FoamFile
{
    version     2.0;
    format      ascii;
    class       surfaceScalarField;
    location    "200";
    object      phi;
}
// * * * * * * * * * * * * * * * * * * * * * * * * * * * * * * * * * * * * * //

dimensions      [1 0 -1 0 0 0 0];

internalField   nonuniform List<scalar> 
850
(
-0.00272505
0.00280151
-0.00301491
0.000289929
-0.00353886
0.000524024
-0.00410854
0.000569748
-0.00464718
0.000538709
-0.00511754
0.000470436
-0.00549296
0.000375486
-0.00574853
0.000255641
-0.00585784
0.000109384
-0.00578994
-6.78379e-05
-0.0055081
-0.000281769
-0.00497827
-0.000529759
-0.00412868
-0.000849526
-0.00268323
-0.00144538
-0.00267893
0.001003
-0.000998142
0.00171282
-0.000709733
0.00218736
-0.000474455
0.00258411
-0.000396673
0.00290803
-0.000323831
0.00303876
-0.00013064
0.003044
-5.15633e-06
0.00300896
3.5127e-05
0.00295991
4.91452e-05
0.0029017
5.82981e-05
0.00283597
6.58155e-05
0.00275916
7.6906e-05
0.0026562
0.000103043
0.00249016
0.000166131
0.00220027
0.000289992
0.00175616
0.000444202
0.001176
0.000580249
0.00118343
-0.00206445
0.00506646
-0.00282137
0.00104692
-0.00356948
0.0012722
-0.00422551
0.00122585
-0.0048132
0.00112647
-0.00532283
0.000980136
-0.00573735
0.000790076
-0.00603748
0.00055584
-0.00620381
0.000275786
-0.00622014
-5.14378e-05
-0.00607597
-0.000425875
-0.00574773
-0.00085793
-0.00521166
-0.00138552
-0.00462738
-0.00202959
-0.00487585
-0.00243039
-0.00264533
-0.00222248
5.60456e-05
-0.00269328
8.15154e-05
0.000661744
-0.00164726
0.00108959
-0.00113749
0.00150619
-0.000890968
0.0019104
-0.000800798
0.00226585
-0.000679199
0.0023418
-0.000206506
0.00234887
-1.21351e-05
0.00235164
3.24431e-05
0.00235156
4.9323e-05
0.00234875
6.11983e-05
0.0023445
7.01577e-05
0.00233824
8.32526e-05
0.00232425
0.000117129
0.00225853
0.000231941
0.00199763
0.00055099
0.0015461
0.000895834
0.000959306
0.00116714
0.0021623
-0.00157132
0.00693801
-0.0024996
0.00197527
-0.00330689
0.00207956
-0.0039632
0.00188222
-0.00454071
0.00170406
-0.00504009
0.00147958
-0.00545089
0.00120094
-0.00575978
0.000864806
-0.00595272
0.000468792
-0.00601822
1.41265e-05
-0.00594811
-0.000495917
-0.00574448
-0.00106149
-0.00545222
-0.00167772
-0.00521157
-0.00227018
-0.00499446
-0.00264744
-0.00433141
-0.00288547
-0.00375126
-0.00327336
-0.00365102
-0.000386145
-0.00124238
0.000100497
-0.00162405
0.000642762
-0.00143315
0.00107385
-0.0012318
0.00167884
-0.0012841
0.00147258
0.00146069
0.00149338
0.00154295
0.0016044
0.00167481
0.00175832
0.0018757
0.00210789
0.00180559
0.000853391
0.00139413
0.0013074
0.000799466
0.00176189
0.0029918
-0.00119841
0.00851798
-0.00215013
0.00292706
-0.00284456
0.00277406
-0.00341148
0.00244922
-0.00391877
0.00221141
-0.00436085
0.00192174
-0.00473005
0.00157021
-0.0050178
0.00115262
-0.00521365
0.000664714
-0.00530561
0.000106152
-0.00528494
-0.00051652
-0.00516728
-0.00117907
-0.00500726
-0.00183767
-0.00486674
-0.00241063
-0.00468805
-0.00282606
-0.00442717
-0.00314629
-0.00431755
-0.00338291
-0.00491371
-0.00305479
-0.00266426
-0.00222878
-0.00154605
-0.00236052
-0.000693437
-0.00247658
-9.41087e-05
-0.00203239
0.000242503
-0.00156833
0.00021373
-0.00125523
0.00090578
-0.000692114
0.00143934
-0.000533626
0.00190977
-0.00047049
0.00232289
-0.000413185
0.00265396
-0.000331131
0.00285921
-0.000205312
0.00288036
-2.12151e-05
0.00266557
0.000214721
0.00214283
0.000522683
0.00190434
0.00109197
0.0014773
0.00173453
0.000856776
0.00238252
0.00388755
-0.000889388
0.0098568
-0.00180138
0.00383912
-0.00224789
0.00322064
-0.00267667
0.00287807
-0.00307348
0.00260829
-0.00341552
0.00226385
-0.00369896
0.00185372
-0.00392314
0.00137686
-0.00408436
0.000826005
-0.00417198
0.000193847
-0.00417168
-0.00051675
-0.00409934
-0.00125135
-0.00400059
-0.00193635
-0.00390465
-0.0025065
-0.00379397
-0.00293667
-0.00368741
-0.00325279
-0.00365738
-0.00341288
-0.00344752
-0.00326457
-0.00258972
-0.00308651
-0.0017466
-0.00320356
-0.000967784
-0.00325531
-0.000460685
-0.0025394
-0.000153416
-0.00187551
8.75365e-05
-0.0014961
0.0005444
-0.00114889
0.000978532
-0.000967666
0.00137798
-0.000869844
0.00174326
-0.00077838
0.00205831
-0.000646084
0.00229047
-0.000437386
0.0023925
-0.000123149
0.00233206
0.000275246
0.00213857
0.000716269
0.00196466
0.00126597
0.0018124
0.00188688
0.00163078
0.00256423
0.00277228
0.00274614
0.00183303
0.000978527
0.00203881
-0.000168544
0.00215875
-0.000741559
0.011106
-0.00154741
0.00464504
-0.00154176
0.00321506
-0.00182192
0.0031583
-0.00210312
0.00288956
-0.00231483
0.00247564
-0.00246741
0.00200637
-0.00257778
0.0014873
-0.00265674
0.000905037
-0.00270118
0.00023836
-0.00268877
-0.000529095
-0.00263669
-0.00130336
-0.00258525
-0.00198771
-0.00255418
-0.00253751
-0.00254465
-0.00294614
-0.00256793
-0.00322944
-0.00260398
-0.00337677
-0.0024747
-0.00339379
-0.00210676
-0.00345439
-0.00160483
-0.00370542
-0.00100275
-0.00385731
-0.000623638
-0.00291843
-0.000398674
-0.00210038
-0.000195996
-0.00169868
9.13352e-05
-0.00143613
0.00040004
-0.00127628
0.000704489
-0.0011742
0.00100283
-0.00107663
0.00128886
-0.000932025
0.00154772
-0.000696152
0.00174747
-0.000322807
0.00184362
0.000179181
0.00186482
0.000695161
0.00191027
0.00122061
0.00207737
0.00171987
0.00240587
0.00223583
0.00278714
0.00236497
0.00226425
0.00150152
0.00125606
0.000839746
0.0035027
-0.00109411
0.0127575
-0.00123612
0.00478711
-0.000574893
0.0025539
-0.00079066
0.00337413
-0.00105354
0.00315251
-0.00114786
0.00257002
-0.00113869
0.00199728
-0.00108255
0.00143122
-0.00101166
0.000834223
-0.000934099
0.000160865
-0.000862569
-0.000600554
-0.000822113
-0.00134375
-0.000834238
-0.00197552
-0.000904347
-0.00246734
-0.00102737
-0.00282306
-0.00119409
-0.00306266
-0.00136593
-0.00320487
-0.00146288
-0.00329678
-0.00145241
-0.0034648
-0.00129107
-0.00386668
-0.00089444
-0.00425384
-0.000680252
-0.00313253
-0.000599403
-0.00218114
-0.000529468
-0.00176853
-0.000421598
-0.00154391
-0.000286648
-0.00141114
-0.000132464
-0.0013283
4.28483e-05
-0.00125186
0.00024313
-0.00113222
0.000474903
-0.000927837
0.000745689
-0.000593505
0.00100528
-8.03262e-05
0.00122917
0.000471369
0.00147102
0.000978847
0.00179548
0.0013955
0.00223562
0.00179578
0.00276031
0.00184037
0.00305407
0.00120785
0.00233721
0.0015567
0.00592892
0.00224781
0.0111275
0.00264691
0.00438808
0.00197619
0.00322468
0.00113402
0.00421637
0.000566707
0.0037199
0.000396281
0.00274051
0.000495835
0.00189779
0.000701168
0.00122596
0.000932403
0.000603057
0.00116528
-7.1944e-05
0.00131417
-0.00074937
0.00132425
-0.00135376
0.00120865
-0.00185985
0.000990507
-0.00224913
0.000692791
-0.00252528
0.000339166
-0.00270897
-3.56292e-05
-0.00283002
-0.000387158
-0.0029452
-0.000694339
-0.00315756
-0.000864453
-0.0036965
-0.000675397
-0.00444279
-0.000647495
-0.00316035
-0.000764069
-0.00206448
-0.000885854
-0.00164665
-0.000977669
-0.001452
-0.00104554
-0.00134318
-0.00109373
-0.00128001
-0.00111887
-0.00122662
-0.00110774
-0.00114327
-0.00103885
-0.000996642
-0.000870071
-0.000762193
-0.000529101
-0.00042121
-0.000123882
6.62384e-05
0.000277901
0.000577153
0.000703227
0.000970269
0.00117569
0.00132341
0.00160507
0.00141109
0.00169245
0.00112057
0.000612819
0.00263642
0.00697391
0.0118172
0.01621
0.0119034
0.00753134
0.00899975
0.00712007
0.00693151
0.0057882
0.00554755
0.00412454
0.0047672
0.00267821
0.00440501
0.00158822
0.00425451
0.000753623
0.0041539
2.874e-05
0.00401354
-0.000608945
0.00378604
-0.0011262
0.00344821
-0.00152195
0.00300777
-0.00180862
0.00248827
-0.00200572
0.00191738
-0.00213802
0.00132273
-0.00223532
0.000718894
-0.00234131
0.00011648
-0.00255509
-0.000373108
-0.00320685
-0.000362266
-0.00445352
-0.000521289
-0.00300125
-0.000899955
-0.00168573
-0.00124743
-0.00129908
-0.00154029
-0.00115905
-0.00181691
-0.00106647
-0.00209564
-0.00100119
-0.00237875
-0.000943429
-0.00266371
-0.000858217
-0.00295161
-0.000708647
-0.00325023
-0.000463485
-0.00357639
-9.49598e-05
-0.00391268
0.000402614
-0.00435911
0.00102367
-0.00515642
0.00176767
-0.00641994
0.00258701
-0.00829481
0.00328605
-0.0106541
0.0034799
-0.0102684
0.00225083
-0.00281905
0.0119796
0.0119253
0.00947935
0.0096204
0.00823719
0.00703041
0.00762906
0.00473272
0.00735084
0.0029565
0.00723624
0.00170288
0.00715558
0.000834341
0.00697782
0.000206565
0.00662856
-0.000259624
0.00613627
-0.000633849
0.00553617
-0.00092179
0.0048605
-0.00113291
0.00413747
-0.00128263
0.00338721
-0.0013877
0.00261839
-0.00146645
0.00182331
-0.00154617
0.000988534
-0.00172027
0.000213325
-0.00243158
-8.32613e-05
-0.0041568
-0.000479353
-0.00260507
-0.00114904
-0.00101594
-0.00164724
-0.000800791
-0.0020283
-0.000777896
-0.00240385
-0.000690829
-0.00280624
-0.000598707
-0.00323589
-0.000513686
-0.0036764
-0.000417623
-0.00409442
-0.000290533
-0.0044389
-0.000118916
-0.00465752
0.000123749
-0.00478291
0.000528095
-0.00487127
0.00111213
-0.00497601
0.0018725
-0.00511291
0.002724
-0.00521706
0.0033903
-0.00503993
0.00330286
-0.00317246
0.000383458
-0.00587337
0.000118429
0.011853
0.002773
0.00696587
0.00440645
0.005397
0.00576295
0.00337627
0.00675295
0.00196655
0.00734375
0.00111214
0.00760346
0.000574686
0.00759966
0.000210421
0.00739515
-5.50609e-05
0.00703178
-0.000270424
0.00654194
-0.000431902
0.00595948
-0.00055039
0.00531101
-0.000634101
0.00461427
-0.000690912
0.00387658
-0.000728714
0.00309066
-0.000760191
0.00222216
-0.000851716
0.00117119
-0.00138055
-0.000188789
-0.00279668
-0.0012039
-0.00158988
-0.00183948
-0.000380273
-0.00227775
-0.000362427
-0.00261681
-0.000438744
-0.0029106
-0.000396949
-0.00317679
-0.000332426
-0.00342262
-0.000267761
-0.00364771
-0.000192436
-0.00384263
-9.55249e-05
-0.00399034
2.88834e-05
-0.00404002
0.000173528
-0.00390945
0.000397617
-0.00355132
0.000754088
-0.00295268
0.00127395
-0.00216508
0.0019365
-0.000995413
0.00222072
0.000930581
0.00137696
0.00167265
-0.000358518
-0.00407109
-0.0193711
-0.0237605
-0.0118673
-0.0048706
0.000557275
0.00396611
0.00596657
0.00711399
0.00772531
0.00797372
0.00795798
0.00772815
0.00733813
0.00683095
0.00624147
0.00559667
0.00491565
0.00420484
0.00340428
0.00207677
-0.000665592
-0.00220532
-0.00253717
-0.00285142
-0.00324196
-0.00359073
-0.00387509
-0.00409503
-0.00424005
-0.00428878
-0.004214
-0.00399575
-0.0035547
-0.00275859
-0.00144407
0.000531485
0.00278969
0.00420422
0.00388553
)
;

boundaryField
{
    floor
    {
        type            calculated;
        value           nonuniform List<scalar> 
36
(
0
0
0
0
0
0
0
0
0
0
0
0
0
0
0
0
0
0
0
-7.32941e-06
-1.94691e-05
-2.99412e-05
-3.88686e-05
-3.91739e-05
-3.71376e-05
-3.69572e-05
-4.23429e-06
-7.96994e-06
-8.02922e-06
-1.01234e-05
-4.78361e-06
-1.52628e-05
-1.25478e-05
-1.86585e-05
-1.86549e-05
-2.06083e-05
)
;
    }
    ceiling
    {
        type            calculated;
        value           nonuniform List<scalar> 
43
(
-4.07594e-05
-4.04828e-05
-4.01433e-05
-3.07742e-05
-3.08339e-05
-3.25167e-05
-3.38632e-05
-3.52334e-05
-3.65905e-05
-3.7939e-05
-3.92684e-05
-4.0543e-05
-4.18293e-05
-4.31621e-05
-4.45669e-05
-4.60604e-05
-4.76493e-05
-4.93292e-05
-5.11009e-05
-5.29905e-05
-5.41677e-05
-5.00549e-05
-4.83288e-05
-4.80886e-05
-4.81111e-05
-4.80807e-05
-4.79702e-05
-4.77359e-05
-4.73246e-05
-4.6696e-05
-4.58036e-05
-4.46371e-05
-4.33391e-05
-4.19319e-05
-4.04745e-05
-3.8965e-05
-3.73952e-05
-3.74767e-05
-3.97411e-05
-4.14451e-05
-3.05107e-06
-4.68372e-06
-4.61717e-05
)
;
    }
    sWall
    {
        type            calculated;
        value           uniform -0.000211347;
    }
    nWall
    {
        type            calculated;
        value           nonuniform List<scalar> 6(-8.28888e-05 -8.77964e-05 -8.89072e-05 -0.000118046 -0.000129539 -0.00014402);
    }
    sideWalls
    {
        type            empty;
        value           nonuniform 0();
    }
    glass1
    {
        type            calculated;
        value           nonuniform List<scalar> 9(-7.63977e-05 -0.000200431 -0.00030016 -0.000381504 -0.00044936 -0.000507582 -0.000557365 -0.000617721 -0.000686538);
    }
    glass2
    {
        type            calculated;
        value           nonuniform List<scalar> 2(-0.000432082 -0.000475321);
    }
    sun
    {
        type            calculated;
        value           uniform 0;
    }
    Table_master
    {
        type            calculated;
        value           nonuniform List<scalar> 9(-1.55968e-07 -1.56118e-07 -1.56143e-07 -1.56155e-07 -1.56159e-07 -1.56157e-07 -1.56149e-07 -1.56128e-07 -1.56063e-07);
    }
    Table_slave
    {
        type            calculated;
        value           nonuniform List<scalar> 9(1.56197e-07 1.56081e-07 1.55935e-07 1.55806e-07 1.55705e-07 1.55649e-07 1.55656e-07 1.55676e-07 1.55771e-07);
    }
    inlet
    {
        type            calculated;
        value           uniform -0.0163735;
    }
    outlet
    {
        type            calculated;
        value           nonuniform List<scalar> 2(0.0196232 0.00442993);
    }
}


// ************************************************************************* //
