/*--------------------------------*- C++ -*----------------------------------*\
  =========                 |
  \\      /  F ield         | OpenFOAM: The Open Source CFD Toolbox
   \\    /   O peration     | Website:  https://openfoam.org
    \\  /    A nd           | Version:  6
     \\/     M anipulation  |
\*---------------------------------------------------------------------------*/
FoamFile
{
    version     2.0;
    format      ascii;
    class       volScalarField;
    location    "2000";
    object      alphat;
}
// * * * * * * * * * * * * * * * * * * * * * * * * * * * * * * * * * * * * * //

dimensions      [1 -1 -1 0 0 0 0];

internalField   nonuniform List<scalar> 
458
(
0.0018685
0.00254807
0.00246264
0.00235321
0.00225497
0.00216906
0.00209208
0.00202161
0.00195598
0.00189215
0.0018274
0.00175865
0.00168133
0.00158623
0.00146635
0.000390412
0.000401465
0.000285714
0.000214468
0.000188513
0.00018263
0.000188826
0.000198713
0.000208495
0.000216697
0.000223186
0.000227628
0.000230375
0.000239693
0.000266774
0.000316479
0.000418417
0.000401173
0.00272729
0.0035863
0.00379019
0.00371646
0.00359786
0.00350771
0.00344031
0.00337522
0.00328268
0.00316247
0.00301398
0.00283325
0.00260728
0.00230414
0.00189264
0.00142432
0.00127397
0.000963253
0.000559646
0.0015742
0.000970948
0.000639252
0.000489301
0.000388454
0.000421108
0.000484969
0.00054761
0.000602015
0.000649532
0.000688352
0.000723352
0.000797179
0.00104282
0.00121367
0.00158749
0.000586787
0.00317176
0.00448292
0.00430485
0.0039136
0.00367954
0.00359836
0.00360542
0.00363385
0.00363697
0.00359884
0.00350562
0.00334476
0.0031036
0.00276624
0.00235142
0.00196868
0.00169176
0.00110116
0.000652568
0.00168489
0.00112053
0.000731755
0.000421202
0.000218295
0.00023287
0.000253464
0.00027626
0.000302176
0.000333143
0.000372759
0.000428644
0.000518475
0.00136839
0.00168243
0.0023041
0.000738679
0.00335889
0.00536119
0.00440092
0.00350796
0.00321997
0.0032768
0.00349079
0.00369683
0.00380679
0.00382407
0.00375764
0.00360929
0.00337432
0.00304442
0.00264849
0.00227465
0.00194234
0.00146648
0.00097481
0.00108904
0.00136244
0.00140775
0.000996072
0.00062442
0.000409586
0.000420317
0.00042869
0.000436406
0.000446714
0.000463924
0.000493696
0.000542328
0.000619196
0.00152059
0.00170813
0.00198706
0.000822985
0.00349599
0.00576204
0.00382955
0.00281202
0.00311247
0.00376097
0.00425519
0.00447397
0.00431133
0.00411931
0.0039411
0.0037434
0.00349049
0.00316021
0.00278039
0.00241684
0.00207736
0.00169025
0.00130878
0.00124581
0.00160266
0.00210513
0.00200611
0.00187484
0.00188968
0.00206625
0.00219429
0.00224558
0.00222081
0.00212661
0.00198003
0.00182574
0.00171602
0.00169385
0.00165296
0.00165861
0.00171335
0.000903631
0.000901595
0.000777738
0.00362677
0.00555313
0.00298209
0.00286425
0.00408737
0.00453537
0.00462679
0.00457945
0.00437206
0.00413667
0.00393444
0.00372309
0.00346422
0.00313756
0.00278353
0.0024415
0.00211913
0.00180143
0.00152846
0.00154856
0.00209141
0.00269334
0.0027471
0.0027861
0.00292335
0.00310066
0.00323155
0.00330282
0.00331948
0.00328382
0.00318865
0.00302031
0.0027774
0.00249042
0.00223645
0.0020528
0.00194635
0.00188596
0.00180624
0.000801963
0.00378506
0.00487802
0.00267243
0.00258739
0.00389761
0.00423089
0.00417685
0.00407949
0.00399883
0.00387601
0.00372666
0.00354158
0.00330801
0.00302413
0.00271951
0.0024109
0.00213125
0.00190056
0.00177106
0.00200362
0.00267308
0.0030927
0.0031913
0.00331836
0.00349483
0.00367279
0.00381479
0.00391122
0.0039644
0.00398063
0.00396309
0.00390053
0.00376029
0.00349575
0.00307198
0.00258511
0.00222321
0.00201405
0.00181582
0.00122656
0.00400286
0.00456325
0.00343147
0.00217193
0.003236
0.00371405
0.00372501
0.00363879
0.00357479
0.00351973
0.00342705
0.00328967
0.00310731
0.00288678
0.00264629
0.00239985
0.00220056
0.00208121
0.00219765
0.0026464
0.00305134
0.00323556
0.00339684
0.0036054
0.00383595
0.00405805
0.00424902
0.00439617
0.00449451
0.00454609
0.00455998
0.00454793
0.00451723
0.00447187
0.00438699
0.00414624
0.0035435
0.00295618
0.00275752
0.00144279
0.00436707
0.00506004
0.00618801
0.00345963
0.00318156
0.00364372
0.00365884
0.00358423
0.00345732
0.00335996
0.00327287
0.00317071
0.00304519
0.00289945
0.00274627
0.00260983
0.00255275
0.00261449
0.00289409
0.00307112
0.00325116
0.00347726
0.00373917
0.00401825
0.00429849
0.00456516
0.0048042
0.00500404
0.00515629
0.00525621
0.00530391
0.00530604
0.00527585
0.00523435
0.00520498
0.00518044
0.00508904
0.00488503
0.00451972
0.00159905
0.0091942
0.00524806
0.00436406
0.00449224
0.00438146
0.00429877
0.00419095
0.00400888
0.0038508
0.00373202
0.00363701
0.00356182
0.00351634
0.00352569
0.00362787
0.00380055
0.00395574
0.00414706
0.00443506
0.00472363
0.00499809
0.00526062
0.00551229
0.00575001
0.00596812
0.00616025
0.00632029
0.00644286
0.00652395
0.00656186
0.00655807
0.00651642
0.00645246
0.0063752
0.00626103
0.00600555
0.00511708
0.00180761
0.00380519
0.00437792
0.00584177
0.0056366
0.00543089
0.00513949
0.00480366
0.00443594
0.00412556
0.0039251
0.00381032
0.00376528
0.0037931
0.0039221
0.00420749
0.00470005
0.00533493
0.00585373
0.00620216
0.00644342
0.00663898
0.00681843
0.00699278
0.00716295
0.00732516
0.00747421
0.00760468
0.00771113
0.00778834
0.00783135
0.0078337
0.00777508
0.00766229
0.007498
0.00725772
0.00686979
0.00617669
0.00217766
0.00168056
0.00175626
0.00234108
0.00160334
0.00156899
0.00148796
0.00144433
0.00141547
0.00140008
0.0013981
0.00139973
0.0014033
0.00141204
0.00142817
0.00145431
0.00149412
0.00155102
0.00162214
0.00169112
0.0017414
0.00177039
0.00178912
0.00180326
0.00181564
0.0018273
0.00183843
0.00184882
0.00185801
0.00186545
0.00187054
0.00187257
0.0018708
0.00186431
0.00185404
0.0018395
0.0018193
0.00179149
0.00175439
0.00172438
0.00155882
)
;

boundaryField
{
    floor
    {
        type            compressible::alphatWallFunction;
        Prt             0.85;
        value           nonuniform List<scalar> 
36
(
0.000206677
5.23492e-05
5.40843e-05
3.54704e-05
2.35048e-05
1.90155e-05
1.7989e-05
1.90745e-05
2.0794e-05
2.24827e-05
2.38895e-05
2.49968e-05
2.57515e-05
2.62173e-05
2.77955e-05
3.23338e-05
4.0505e-05
5.67643e-05
5.4055e-05
5.40543e-05
8.25682e-05
0.000105052
0.000117288
0.000128852
0.000128563
0.000110752
0.000206675
0.000200997
0.000180519
0.000137236
5.23485e-05
0.000137234
7.84495e-05
0.000156638
9.23682e-05
0.00013893
)
;
    }
    ceiling
    {
        type            compressible::alphatWallFunction;
        Prt             0.85;
        value           nonuniform List<scalar> 
43
(
0.000235604
0.000245637
0.000321663
0.000225215
0.00022062
0.000209739
0.000203855
0.000199952
0.000197868
0.000197602
0.000197824
0.000198311
0.000199498
0.000201685
0.000205223
0.000210593
0.000218236
0.000227732
0.000236884
0.000243529
0.000247355
0.000249826
0.000251691
0.000253324
0.00025486
0.000256327
0.000257693
0.0002589
0.000259877
0.000260543
0.000260809
0.000260574
0.000259718
0.000258368
0.000256456
0.000253797
0.000250133
0.000245234
0.000241264
0.000219218
0.000571955
0.000654551
0.00050411
)
;
    }
    sWall
    {
        type            compressible::alphatWallFunction;
        Prt             0.85;
        value           uniform 0.00023471;
    }
    nWall
    {
        type            compressible::alphatWallFunction;
        Prt             0.85;
        value           nonuniform List<scalar> 6(0.00011063 0.000114142 0.0001739 0.000252 0.00030024 0.000218962);
    }
    sideWalls
    {
        type            empty;
    }
    glass1
    {
        type            compressible::alphatWallFunction;
        Prt             0.85;
        value           nonuniform List<scalar> 9(0.000256378 0.000365786 0.000420922 0.000443882 0.00046061 0.000476498 0.000495651 0.000521893 0.000565516);
    }
    glass2
    {
        type            compressible::alphatWallFunction;
        Prt             0.85;
        value           nonuniform List<scalar> 2(0.000203201 0.000224166);
    }
    sun
    {
        type            compressible::alphatWallFunction;
        Prt             0.85;
        value           nonuniform List<scalar> 
14
(
0.000260198
0.000347817
0.000336949
0.000322969
0.000310361
0.000299287
0.000289324
0.000280169
0.000271611
0.000263258
0.000254754
0.000245687
0.000235443
0.000222771
)
;
    }
    Table_master
    {
        type            compressible::alphatWallFunction;
        Prt             0.85;
        value           nonuniform List<scalar> 9(2.41297e-05 2.66097e-05 3.00778e-05 3.38727e-05 3.81368e-05 4.31687e-05 4.95172e-05 5.83253e-05 7.21826e-05);
    }
    Table_slave
    {
        type            compressible::alphatWallFunction;
        Prt             0.85;
        value           nonuniform List<scalar> 9(5.53423e-05 5.70235e-05 5.83306e-05 5.95325e-05 6.11345e-05 6.38002e-05 6.83835e-05 7.57981e-05 8.73545e-05);
    }
    inlet
    {
        type            fixedValue;
        value           uniform 1.94e-05;
    }
    outlet
    {
        type            zeroGradient;
    }
}


// ************************************************************************* //
