/*--------------------------------*- C++ -*----------------------------------*\
  =========                 |
  \\      /  F ield         | OpenFOAM: The Open Source CFD Toolbox
   \\    /   O peration     | Website:  https://openfoam.org
    \\  /    A nd           | Version:  6
     \\/     M anipulation  |
\*---------------------------------------------------------------------------*/
FoamFile
{
    version     2.0;
    format      ascii;
    class       volScalarField;
    location    "2000";
    object      k;
}
// * * * * * * * * * * * * * * * * * * * * * * * * * * * * * * * * * * * * * //

dimensions      [0 2 -2 0 0 0 0];

internalField   nonuniform List<scalar> 
458
(
0.00527614
0.00978769
0.00913925
0.00834377
0.00766101
0.007088
0.0065936
0.00615675
0.00576332
0.00539321
0.00503033
0.00465883
0.00425806
0.00378986
0.00323852
0.000228395
0.000241413
0.000122309
6.89e-05
5.32278e-05
4.99668e-05
5.34215e-05
5.91639e-05
6.51304e-05
7.03512e-05
7.46223e-05
7.76154e-05
7.94953e-05
8.60613e-05
0.000106617
0.00015006
0.000262373
0.000241285
0.0112281
0.0130193
0.0121218
0.0105462
0.00917361
0.0081555
0.00738397
0.00676463
0.0062389
0.00577971
0.00536556
0.00497247
0.00456228
0.00406464
0.00340093
0.00305525
0.00244378
0.00139516
0.000469366
0.000976891
0.000359329
0.000145616
9.72153e-05
8.54044e-05
9.67239e-05
0.000116783
0.000138734
0.000160022
0.000180524
0.000202836
0.000233999
0.000284648
0.000400358
0.000616248
0.00115224
0.00051663
0.0151706
0.0179261
0.0144679
0.0111791
0.00912065
0.00791778
0.00718755
0.00667256
0.00622158
0.00580204
0.00539416
0.00498327
0.00455144
0.00405983
0.00351727
0.00317648
0.00264168
0.00182509
0.000638932
0.00102502
0.000374902
0.000174866
0.000113073
7.14995e-05
8.13696e-05
9.6405e-05
0.000114538
0.000137056
0.000166611
0.000208621
0.000275889
0.000403647
0.000680603
0.00105079
0.00201906
0.000819494
0.0170041
0.0225859
0.0147451
0.00930209
0.00685333
0.00579299
0.00538486
0.00528014
0.00521476
0.0051062
0.004922
0.00465903
0.00432351
0.00391099
0.00347451
0.00314776
0.00265534
0.00203642
0.00143009
0.000863812
0.000656586
0.000420787
0.000293863
0.000256281
0.000252325
0.000265708
0.00027638
0.0002864
0.00030007
0.000323612
0.000366446
0.00044215
0.00057631
0.000814093
0.00110497
0.00173189
0.00101831
0.0184112
0.025709
0.0126262
0.00624766
0.00447907
0.00409854
0.00416403
0.00432382
0.00442772
0.00444546
0.00438051
0.00422519
0.00397834
0.00364301
0.00328942
0.00299159
0.00255506
0.00208268
0.00156005
0.0010329
0.00079239
0.000601974
0.000512095
0.000506895
0.00053751
0.000577878
0.00060744
0.000624858
0.00063379
0.000640115
0.000652522
0.000684596
0.000753437
0.000880592
0.0010845
0.00141167
0.00193324
0.00122817
0.00122271
0.000909986
0.0198035
0.0267758
0.0101065
0.00425133
0.00379246
0.00356159
0.0035612
0.00365745
0.00379225
0.00386098
0.00386144
0.00376956
0.00358122
0.00330493
0.00302793
0.00276879
0.00238094
0.0020107
0.00154298
0.00107256
0.000857012
0.00073818
0.000703918
0.000734628
0.000795206
0.000861118
0.000915919
0.000954466
0.000977224
0.000987495
0.000990621
0.000993828
0.00100741
0.00104701
0.00113875
0.00128792
0.00151161
0.00180398
0.00209491
0.000967564
0.0215551
0.0258115
0.0111998
0.00408472
0.0036502
0.00316317
0.0030166
0.00305818
0.00319119
0.00329031
0.0033273
0.00328123
0.00315203
0.00295774
0.00275447
0.00252218
0.00219884
0.00192591
0.00147447
0.0010725
0.00092703
0.000893118
0.000930309
0.00101354
0.00111954
0.00122939
0.00132758
0.00140484
0.00145725
0.00148523
0.00149315
0.00148915
0.0014858
0.00150066
0.00154462
0.00163661
0.00183247
0.00215605
0.00249717
0.00226303
0.0240884
0.027657
0.0194705
0.00536517
0.00378816
0.0029504
0.0026384
0.0025868
0.00266802
0.00277456
0.00283407
0.00283013
0.00276349
0.00264807
0.00250583
0.00231398
0.00207368
0.00186586
0.00147242
0.00117797
0.00114037
0.00120584
0.00132728
0.00148165
0.00165385
0.00182999
0.0019948
0.00213515
0.00224158
0.00230896
0.0023375
0.00233461
0.00231785
0.00231737
0.0023739
0.00251053
0.00268614
0.00309124
0.00392336
0.00313131
0.0286462
0.0383931
0.0470904
0.0151689
0.00532804
0.00361925
0.00291622
0.00258033
0.0024518
0.00248079
0.00252674
0.00254973
0.0025382
0.00249268
0.00241629
0.00230066
0.00217037
0.00205148
0.00182256
0.00175602
0.00189646
0.00210039
0.00233028
0.00257577
0.00283128
0.00308806
0.00333344
0.0035539
0.00373669
0.00387079
0.00394838
0.00396795
0.00393926
0.00388692
0.00384969
0.00385816
0.003917
0.00410137
0.00525479
0.0038462
0.0842038
0.0290356
0.00933946
0.00595125
0.00470698
0.00400132
0.00359005
0.00337183
0.00327528
0.00324338
0.00324064
0.00325135
0.00327323
0.00331656
0.00342149
0.00359415
0.0037909
0.00412791
0.00452758
0.00489029
0.00522562
0.0055504
0.00587348
0.00619388
0.00650416
0.00679388
0.00705106
0.00726282
0.00741636
0.00750112
0.0075119
0.00744843
0.00734135
0.00721606
0.00706797
0.00687338
0.00670602
0.00491471
0.021711
0.0121382
0.0134326
0.00993255
0.00829273
0.00694309
0.00581445
0.00490575
0.0043082
0.00398848
0.00385454
0.00386122
0.00401247
0.00437533
0.00510306
0.00640311
0.00818893
0.00956305
0.0103307
0.0107937
0.0111507
0.0114882
0.0118382
0.0122034
0.0125727
0.0129305
0.0132598
0.0135419
0.0137565
0.0138838
0.0139044
0.0137709
0.0135178
0.0131738
0.0127339
0.0122262
0.0123949
0.00713296
0.00431275
0.00469537
0.00824719
0.00386985
0.00370624
0.00333326
0.00314069
0.00301648
0.0029513
0.00294309
0.00294999
0.00296513
0.00300222
0.00307119
0.00318465
0.0033613
0.00362194
0.0039611
0.00430425
0.00456359
0.00471683
0.00481735
0.00489401
0.00496163
0.0050257
0.00508721
0.00514481
0.00519596
0.00523745
0.00526569
0.00527674
0.00526624
0.0052292
0.0051713
0.00509008
0.00497855
0.00482725
0.00462912
0.00447184
0.00365403
)
;

boundaryField
{
    floor
    {
        type            kqRWallFunction;
        value           nonuniform List<scalar> 
36
(
0.00323852
0.000228395
0.000241413
0.000122309
6.89e-05
5.32278e-05
4.99668e-05
5.34215e-05
5.91639e-05
6.51304e-05
7.03512e-05
7.46223e-05
7.76154e-05
7.94953e-05
8.60613e-05
0.000106617
0.00015006
0.000262373
0.000241285
0.000241285
0.00051663
0.000819494
0.00101831
0.00122817
0.00122271
0.000909986
0.00323852
0.00305525
0.00244378
0.00139516
0.000228395
0.00139516
0.000469366
0.00182509
0.000638932
0.00143009
)
;
    }
    ceiling
    {
        type            kqRWallFunction;
        value           nonuniform List<scalar> 
43
(
0.00431275
0.00469537
0.00824719
0.00386985
0.00370624
0.00333326
0.00314069
0.00301648
0.0029513
0.00294309
0.00294999
0.00296513
0.00300222
0.00307119
0.00318465
0.0033613
0.00362194
0.0039611
0.00430425
0.00456359
0.00471683
0.00481735
0.00489401
0.00496163
0.0050257
0.00508721
0.00514481
0.00519596
0.00523745
0.00526569
0.00527674
0.00526624
0.0052292
0.0051713
0.00509008
0.00497855
0.00482725
0.00462912
0.00447184
0.00365403
0.0286462
0.0383931
0.021711
)
;
    }
    sWall
    {
        type            kqRWallFunction;
        value           uniform 0.00431275;
    }
    nWall
    {
        type            kqRWallFunction;
        value           nonuniform List<scalar> 6(0.000909986 0.000967564 0.00226303 0.00491471 0.00713296 0.00365403);
    }
    sideWalls
    {
        type            empty;
    }
    glass1
    {
        type            kqRWallFunction;
        value           nonuniform List<scalar> 9(0.00527614 0.0112281 0.0151706 0.0170041 0.0184112 0.0198035 0.0215551 0.0240884 0.0286462);
    }
    glass2
    {
        type            kqRWallFunction;
        value           nonuniform List<scalar> 2(0.00313131 0.0038462);
    }
    sun
    {
        type            kqRWallFunction;
        value           nonuniform List<scalar> 
14
(
0.00527614
0.00978769
0.00913925
0.00834377
0.00766101
0.007088
0.0065936
0.00615675
0.00576332
0.00539321
0.00503033
0.00465883
0.00425806
0.00378986
)
;
    }
    Table_master
    {
        type            kqRWallFunction;
        value           nonuniform List<scalar> 9(7.14995e-05 8.13696e-05 9.6405e-05 0.000114538 0.000137056 0.000166611 0.000208621 0.000275889 0.000403647);
    }
    Table_slave
    {
        type            kqRWallFunction;
        value           nonuniform List<scalar> 9(0.000252325 0.000265708 0.00027638 0.0002864 0.00030007 0.000323612 0.000366446 0.00044215 0.00057631);
    }
    inlet
    {
        type            turbulentIntensityKineticEnergyInlet;
        intensity       0.05;
        value           uniform 3.75e-05;
    }
    outlet
    {
        type            zeroGradient;
    }
}


// ************************************************************************* //
