/*--------------------------------*- C++ -*----------------------------------*\
  =========                 |
  \\      /  F ield         | OpenFOAM: The Open Source CFD Toolbox
   \\    /   O peration     | Website:  https://openfoam.org
    \\  /    A nd           | Version:  6
     \\/     M anipulation  |
\*---------------------------------------------------------------------------*/
FoamFile
{
    version     2.0;
    format      ascii;
    class       volScalarField;
    location    "2000";
    object      nut;
}
// * * * * * * * * * * * * * * * * * * * * * * * * * * * * * * * * * * * * * //

dimensions      [0 2 -1 0 0 0 0];

internalField   nonuniform List<scalar> 
458
(
0.00163116
0.00222172
0.00214687
0.00205132
0.00196561
0.00189067
0.00182355
0.00176211
0.00170489
0.00164925
0.00159281
0.00153288
0.00146548
0.00138258
0.00127809
0.000339382
0.000348967
0.000248326
0.00018639
0.000163832
0.000158723
0.000164109
0.000172702
0.000181203
0.000188329
0.000193967
0.000197825
0.000200209
0.000208307
0.000231849
0.000275061
0.000363712
0.000348804
0.00237961
0.00312689
0.00330358
0.00323887
0.0031353
0.00305665
0.0029979
0.00294118
0.00286057
0.00275586
0.00262652
0.0024691
0.00227225
0.00200815
0.0016496
0.00124142
0.00111037
0.000839374
0.000486646
0.00136886
0.000844238
0.00055579
0.000425412
0.000337742
0.000366131
0.000421651
0.000476113
0.000523417
0.000564736
0.000598504
0.000628968
0.000693191
0.00090682
0.00105538
0.0013805
0.000510405
0.00276594
0.00390628
0.00375018
0.00340914
0.00320526
0.00313461
0.00314083
0.00316569
0.00316854
0.00313547
0.00305442
0.00291445
0.0027045
0.0024107
0.00204934
0.00171584
0.00147451
0.000959669
0.000567704
0.00146584
0.000974777
0.000636507
0.000366351
0.000189846
0.000202527
0.000220448
0.000240288
0.000262847
0.000289801
0.000324281
0.000372919
0.000451097
0.00119064
0.0014639
0.00200498
0.000642861
0.0029283
0.00466894
0.00383234
0.00305518
0.00280472
0.00285447
0.00304102
0.00322058
0.00331645
0.00333161
0.00327388
0.00314481
0.00294028
0.00265302
0.00230818
0.0019825
0.00169293
0.0012781
0.000849429
0.000947941
0.00118583
0.00122524
0.000867004
0.000543595
0.000356628
0.000365977
0.000373269
0.000379988
0.000388963
0.000403947
0.000429865
0.000472201
0.000539112
0.00132386
0.0014872
0.00173014
0.000716622
0.00304705
0.0050158
0.00333442
0.00244942
0.00271169
0.00327694
0.00370762
0.00389819
0.00375638
0.00358905
0.00343383
0.00326172
0.00304154
0.00275394
0.00242315
0.00210645
0.00181064
0.00147315
0.00114042
0.00108494
0.0013953
0.00183268
0.00174658
0.00163243
0.00164546
0.00179925
0.00191076
0.00195544
0.00193388
0.00185186
0.00172424
0.0015899
0.00149437
0.00147508
0.00143951
0.00144448
0.00149218
0.000787001
0.000785243
0.000677427
0.00316014
0.00483271
0.00259668
0.00249559
0.00356169
0.00395214
0.00403178
0.00399042
0.00380959
0.00360442
0.00342824
0.00324419
0.00301878
0.00273431
0.00242597
0.00212801
0.00184708
0.00157002
0.0013317
0.00134858
0.00182097
0.00234507
0.00239201
0.00242612
0.00254573
0.00270018
0.00281419
0.00287627
0.00289079
0.00285975
0.00277689
0.00263032
0.00241881
0.00216892
0.00194777
0.00178784
0.00169515
0.00164256
0.00157314
0.000698498
0.00329693
0.00424472
0.00232706
0.00225454
0.0033965
0.003687
0.00363992
0.00355503
0.00348467
0.00337761
0.00324749
0.00308629
0.00288288
0.00263562
0.00237028
0.00210139
0.00185762
0.0016563
0.00154279
0.00174479
0.00232759
0.00269308
0.00277909
0.00288987
0.00304364
0.00319868
0.00332237
0.00340635
0.00345266
0.00346678
0.0034515
0.00339702
0.00327491
0.00304454
0.0026755
0.00225148
0.0019363
0.00175414
0.00158151
0.00106829
0.00348526
0.00397003
0.0029871
0.00189249
0.00281996
0.00323667
0.0032463
0.00317119
0.00311542
0.00306743
0.00298668
0.00286701
0.00270816
0.00251604
0.00230651
0.00209171
0.00191788
0.00181347
0.00191414
0.00230457
0.00265721
0.00281778
0.00295839
0.00314015
0.00334104
0.00353454
0.00370088
0.00382904
0.00391467
0.00395955
0.00397159
0.00396106
0.00393429
0.00389477
0.00382085
0.00361117
0.00308623
0.00257471
0.00240169
0.00125663
0.00380065
0.00439992
0.00538049
0.00301385
0.00277236
0.00317529
0.0031886
0.00312368
0.00301314
0.00292832
0.00285244
0.00276343
0.00265407
0.00252707
0.00239353
0.00227451
0.00222449
0.00227776
0.00252063
0.00267464
0.00283155
0.00302863
0.00325689
0.0035001
0.00374428
0.00397662
0.00418485
0.0043589
0.00449147
0.00457842
0.00461987
0.00462163
0.00459524
0.00455902
0.00453339
0.00451198
0.00443236
0.00425465
0.00393646
0.00139271
0.00797674
0.00457089
0.00380246
0.00391443
0.00381807
0.00374615
0.00365229
0.00349369
0.00335597
0.00325246
0.00316966
0.00310408
0.00306431
0.00307222
0.00316084
0.00331069
0.00344543
0.00361209
0.00386312
0.00411466
0.00435389
0.00458271
0.00480203
0.00500916
0.00519916
0.00536649
0.00550582
0.00561247
0.00568295
0.0057158
0.00571234
0.00567592
0.00562008
0.00555269
0.00545318
0.0052306
0.00445672
0.00157433
0.00330791
0.00381346
0.00508973
0.00491124
0.00473215
0.00447835
0.00418581
0.00386544
0.00359499
0.00342031
0.00332024
0.00328091
0.00330499
0.00341714
0.00366544
0.00409418
0.00464708
0.00509914
0.00540287
0.00561323
0.00578375
0.0059402
0.00609216
0.00624044
0.00638174
0.00651152
0.00662505
0.00671762
0.00678466
0.00682189
0.0068237
0.00677241
0.00667397
0.0065307
0.00632128
0.00598328
0.00537952
0.00189662
0.00147469
0.00153848
0.00203836
0.00139674
0.00136692
0.00129634
0.00125834
0.00123321
0.00121981
0.00121809
0.00121951
0.00122263
0.00123023
0.00124425
0.00126699
0.00130161
0.00135112
0.00141304
0.00147315
0.001517
0.0015423
0.00155865
0.00157099
0.0015818
0.00159197
0.00160167
0.00161071
0.0016187
0.00162515
0.00162953
0.00163124
0.00162963
0.00162391
0.00161489
0.00160217
0.00158452
0.00156025
0.0015279
0.00150171
0.00135747
)
;

boundaryField
{
    floor
    {
        type            nutkWallFunction;
        Cmu             0.09;
        kappa           0.41;
        E               9.8;
        value           nonuniform List<scalar> 
36
(
0.000153036
3.86519e-05
3.99315e-05
2.61824e-05
1.73469e-05
1.40327e-05
1.32752e-05
1.40766e-05
1.5346e-05
1.65925e-05
1.7631e-05
1.84483e-05
1.90053e-05
1.9349e-05
2.05142e-05
2.38652e-05
2.98997e-05
4.19118e-05
3.99178e-05
3.99177e-05
6.10061e-05
7.76605e-05
8.67509e-05
9.5324e-05
9.51118e-05
8.19347e-05
0.000153037
0.000148825
0.000133655
0.000101575
3.86518e-05
0.000101575
5.79471e-05
0.000115959
6.82584e-05
0.000102829
)
;
    }
    ceiling
    {
        type            nutkWallFunction;
        Cmu             0.09;
        kappa           0.41;
        E               9.8;
        value           nonuniform List<scalar> 
43
(
0.000175457
0.00018265
0.000237892
0.000166599
0.000163209
0.000155155
0.000150799
0.000147911
0.000146369
0.000146173
0.000146338
0.000146698
0.000147575
0.000149191
0.000151806
0.000155777
0.000161429
0.000168455
0.000175232
0.000180157
0.000182995
0.000184828
0.000186212
0.000187423
0.000188562
0.000189648
0.000190658
0.00019155
0.00019227
0.000192758
0.000192948
0.000192766
0.000192125
0.000191119
0.000189696
0.000187722
0.000185005
0.000181374
0.00017843
0.000162106
0.000422936
0.00048363
0.000372344
)
;
    }
    sWall
    {
        type            nutkWallFunction;
        Cmu             0.09;
        kappa           0.41;
        E               9.8;
        value           uniform 0.000175493;
    }
    nWall
    {
        type            nutkWallFunction;
        Cmu             0.09;
        kappa           0.41;
        E               9.8;
        value           nonuniform List<scalar> 6(8.19329e-05 8.45309e-05 0.000128773 0.000186592 0.000222306 0.000162116);
    }
    sideWalls
    {
        type            empty;
    }
    glass1
    {
        type            nutkWallFunction;
        Cmu             0.09;
        kappa           0.41;
        E               9.8;
        value           nonuniform List<scalar> 9(0.000193135 0.000274939 0.000316036 0.000333121 0.000345553 0.000357346 0.000371551 0.000391011 0.000423367);
    }
    glass2
    {
        type            nutkWallFunction;
        Cmu             0.09;
        kappa           0.41;
        E               9.8;
        value           nonuniform List<scalar> 2(0.000150595 0.000166129);
    }
    sun
    {
        type            nutkWallFunction;
        Cmu             0.09;
        kappa           0.41;
        E               9.8;
        value           nonuniform List<scalar> 
14
(
0.000192964
0.000257681
0.000249586
0.000239212
0.000229862
0.000221653
0.000214269
0.000207485
0.000201144
0.000194955
0.000188654
0.000181936
0.000174347
0.00016496
)
;
    }
    Table_master
    {
        type            nutkWallFunction;
        Cmu             0.09;
        kappa           0.41;
        E               9.8;
        value           nonuniform List<scalar> 9(1.78375e-05 1.96713e-05 2.22362e-05 2.50432e-05 2.81974e-05 3.19199e-05 3.66162e-05 4.31318e-05 5.33824e-05);
    }
    Table_slave
    {
        type            nutkWallFunction;
        Cmu             0.09;
        kappa           0.41;
        E               9.8;
        value           nonuniform List<scalar> 9(4.09582e-05 4.22031e-05 4.31707e-05 4.40603e-05 4.52459e-05 4.72186e-05 5.06102e-05 5.60967e-05 6.46473e-05);
    }
    inlet
    {
        type            calculated;
        value           uniform 3.3541e-05;
    }
    outlet
    {
        type            calculated;
        value           nonuniform List<scalar> 2(0.00147469 0.00153848);
    }
}


// ************************************************************************* //
