/*--------------------------------*- C++ -*----------------------------------*\
  =========                 |
  \\      /  F ield         | OpenFOAM: The Open Source CFD Toolbox
   \\    /   O peration     | Website:  https://openfoam.org
    \\  /    A nd           | Version:  6
     \\/     M anipulation  |
\*---------------------------------------------------------------------------*/
FoamFile
{
    version     2.0;
    format      ascii;
    class       volVectorField;
    location    "2000";
    object      U;
}
// * * * * * * * * * * * * * * * * * * * * * * * * * * * * * * * * * * * * * //

dimensions      [0 1 -1 0 0 0 0];

internalField   nonuniform List<vector> 
458
(
(0.0392632 0.123191 0)
(0.1081 -0.183865 0)
(0.218248 -0.132058 0)
(0.318289 -0.085245 0)
(0.379687 -0.0568965 0)
(0.40919 -0.0397624 0)
(0.421192 -0.0278119 0)
(0.422859 -0.0185142 0)
(0.415562 -0.0103872 0)
(0.399618 -0.00274865 0)
(0.374724 0.00510091 0)
(0.339847 0.0141925 0)
(0.292257 0.0268742 0)
(0.222337 0.0514645 0)
(0.168483 0.119957 0)
(-0.0687053 -0.00367751 0)
(0.0213698 -0.000615553 0)
(0.00627354 -0.000516642 0)
(0.000153642 -0.00156129 0)
(0.00312947 -0.00163468 0)
(0.0069391 -0.00158445 0)
(0.0099005 -0.00140836 0)
(0.0122666 -0.00129318 0)
(0.0142257 -0.00119272 0)
(0.0158593 -0.00111007 0)
(0.0171887 -0.00107934 0)
(0.0182122 -0.00100212 0)
(0.0188898 -0.000722887 0)
(0.0188284 -0.000261585 0)
(0.0177215 0.000921423 0)
(0.0143963 0.00361896 0)
(-0.0174525 0.00808446 0)
(0.0664846 -0.00227488 0)
(0.464993 -0.0884792 0)
(0.23257 -0.197322 0)
(0.280316 -0.145632 0)
(0.339395 -0.0814103 0)
(0.367041 -0.0422892 0)
(0.378429 -0.0189058 0)
(0.383338 -0.00153777 0)
(0.382513 0.0131351 0)
(0.374353 0.0257267 0)
(0.358924 0.0373788 0)
(0.336155 0.0492447 0)
(0.306167 0.0627265 0)
(0.27032 0.080081 0)
(0.232499 0.105857 0)
(0.212029 0.154599 0)
(0.203699 0.127316 0)
(0.105742 0.0892633 0)
(0.0301063 0.0168704 0)
(-0.0968621 0.00144475 0)
(0.0197619 -0.00085969 0)
(5.0553e-05 -0.00091257 0)
(-0.00252714 -0.00175793 0)
(-0.00194361 -0.00228723 0)
(-0.00119172 -0.00405733 0)
(0.000471343 -0.00291776 0)
(0.00159247 -0.00193871 0)
(0.00196168 -0.00119442 0)
(0.00197149 -0.000506337 0)
(0.00168695 0.000198237 0)
(0.000746834 0.000988735 0)
(-0.000861171 0.00161948 0)
(-0.00145972 0.00208409 0)
(-0.00155797 0.00469211 0)
(-0.00440976 0.00780208 0)
(-0.0311487 0.00892989 0)
(0.104091 0.000319694 0)
(0.593076 -0.340801 0)
(0.141823 -0.295992 0)
(0.220102 -0.183143 0)
(0.264518 -0.106312 0)
(0.269519 -0.0646592 0)
(0.271261 -0.0383434 0)
(0.275102 -0.017293 0)
(0.277938 0.00258396 0)
(0.275918 0.0225747 0)
(0.268614 0.0427033 0)
(0.255971 0.0632747 0)
(0.238432 0.0848326 0)
(0.217538 0.108109 0)
(0.195348 0.133512 0)
(0.179328 0.16021 0)
(0.16102 0.131719 0)
(0.105766 0.108882 0)
(0.0810029 0.0888953 0)
(-0.106229 0.0114896 0)
(0.00758302 -0.00410371 0)
(-0.00509108 -0.00495087 0)
(-0.00382874 -0.00341166 0)
(-0.00402202 -0.00329687 0)
(-0.00687922 -0.00982861 0)
(-0.0117477 -0.00940813 0)
(-0.014822 -0.00843061 0)
(-0.0171146 -0.00762886 0)
(-0.0187842 -0.00686907 0)
(-0.0198399 -0.00604465 0)
(-0.0200127 -0.00500949 0)
(-0.0189428 -0.00367478 0)
(-0.0166234 -0.00183343 0)
(-0.0151144 0.00348694 0)
(-0.0158003 0.00482382 0)
(-0.0333412 0.00260234 0)
(0.122491 0.00639252 0)
(0.636639 -0.470493 0)
(-0.0506815 -0.313552 0)
(0.127291 -0.167877 0)
(0.156727 -0.0978238 0)
(0.144556 -0.0623197 0)
(0.144027 -0.0369885 0)
(0.149864 -0.015541 0)
(0.158986 0.00615348 0)
(0.164831 0.0286344 0)
(0.166218 0.0518295 0)
(0.163335 0.0757194 0)
(0.156582 0.100149 0)
(0.146801 0.124727 0)
(0.134444 0.148443 0)
(0.124494 0.16917 0)
(0.113614 0.158631 0)
(0.0861769 0.143699 0)
(0.0731331 0.12626 0)
(0.0476064 0.0503369 0)
(-0.0362642 0.0103096 0)
(0.00470698 -0.00971328 0)
(-0.00619308 -0.0058256 0)
(-0.00986388 -0.00077495 0)
(-0.0156503 0.00159201 0)
(-0.0227942 0.000983783 0)
(-0.0274986 -0.00056505 0)
(-0.0306896 -0.00173741 0)
(-0.032599 -0.00252531 0)
(-0.0335918 -0.00302568 0)
(-0.0340001 -0.00326093 0)
(-0.0340793 -0.00317145 0)
(-0.0338522 -0.00259078 0)
(-0.0325597 -0.00123505 0)
(-0.0292258 0.000271691 0)
(-0.0280171 -0.00249748 0)
(-0.0269586 -0.00467054 0)
(0.0961869 0.0100795 0)
(0.653488 -0.533306 0)
(-0.20232 -0.321471 0)
(0.0855362 -0.171731 0)
(0.0701803 -0.0962637 0)
(0.0391393 -0.0647069 0)
(0.0413621 -0.0431593 0)
(0.0487103 -0.0246658 0)
(0.0563625 -0.00320695 0)
(0.0668536 0.0224825 0)
(0.0722122 0.0497303 0)
(0.074647 0.077504 0)
(0.0745493 0.10494 0)
(0.0724039 0.1313 0)
(0.0682669 0.15568 0)
(0.06625 0.176535 0)
(0.063385 0.175284 0)
(0.050709 0.162931 0)
(0.0447354 0.140913 0)
(0.0331004 0.0734384 0)
(0.0154883 0.0306566 0)
(0.0102789 0.00228775 0)
(-0.00402416 0.000954441 0)
(-0.0108631 0.00546319 0)
(-0.016457 0.00829711 0)
(-0.0208511 0.00849608 0)
(-0.0240103 0.00644534 0)
(-0.0266016 0.00445662 0)
(-0.0285584 0.00295885 0)
(-0.0299937 0.00192881 0)
(-0.0311557 0.00121997 0)
(-0.0323158 0.000581729 0)
(-0.0335822 -0.000331985 0)
(-0.0347928 -0.00198586 0)
(-0.03618 -0.00521524 0)
(-0.0394483 -0.0119914 0)
(-0.0430521 -0.0230183 0)
(-0.0354477 -0.0415873 0)
(-0.0257398 -0.11738 0)
(0.023798 -0.135484 0)
(-0.0912213 -0.211573 0)
(0.624078 -0.543239 0)
(-0.252381 -0.326471 0)
(0.0478596 -0.173011 0)
(-0.00694933 -0.0694711 0)
(-0.0423564 -0.0592449 0)
(-0.0368227 -0.0470935 0)
(-0.0322936 -0.0319388 0)
(-0.0274815 -0.0114188 0)
(-0.0188548 0.0150471 0)
(-0.0131995 0.0445469 0)
(-0.00792643 0.0744664 0)
(-0.00349516 0.103591 0)
(0.000309182 0.131192 0)
(0.00328156 0.156496 0)
(0.00917057 0.17741 0)
(0.0139663 0.178741 0)
(0.0120162 0.16733 0)
(0.016098 0.142673 0)
(0.0149249 0.0819565 0)
(0.014465 0.0363302 0)
(0.00938388 0.0127072 0)
(-0.00166939 0.00939741 0)
(-0.00839193 0.0112577 0)
(-0.0129448 0.0121805 0)
(-0.0160236 0.0110907 0)
(-0.0183061 0.00846747 0)
(-0.0202269 0.00587829 0)
(-0.0217298 0.00384622 0)
(-0.0228104 0.0024753 0)
(-0.0235801 0.00174005 0)
(-0.0242407 0.00152853 0)
(-0.0250111 0.00160567 0)
(-0.0260694 0.00150325 0)
(-0.027819 0.000460312 0)
(-0.0306754 -0.00173402 0)
(-0.0339913 -0.00390011 0)
(-0.0338371 -0.0056201 0)
(-0.0257383 -0.0105022 0)
(-0.00906807 0.00226749 0)
(-0.100368 0.0907148 0)
(0.527638 -0.49927 0)
(-0.225232 -0.302017 0)
(-0.0452292 -0.150163 0)
(-0.0691073 -0.0404305 0)
(-0.114302 -0.0540677 0)
(-0.109222 -0.0494028 0)
(-0.106414 -0.0358008 0)
(-0.102739 -0.0154046 0)
(-0.0966481 0.0103878 0)
(-0.0903915 0.0391398 0)
(-0.0830727 0.0685851 0)
(-0.0749576 0.0974629 0)
(-0.0660393 0.124776 0)
(-0.0562151 0.149265 0)
(-0.043191 0.16816 0)
(-0.0304219 0.171083 0)
(-0.0213518 0.160766 0)
(-0.00709152 0.135386 0)
(0.00150424 0.0751664 0)
(0.0082028 0.0370178 0)
(0.00613084 0.0201452 0)
(-0.000243286 0.0163158 0)
(-0.00464805 0.0158998 0)
(-0.00736744 0.0150548 0)
(-0.0090119 0.0129491 0)
(-0.0102386 0.00999197 0)
(-0.0113497 0.00710631 0)
(-0.0122884 0.00471901 0)
(-0.0129826 0.00299589 0)
(-0.0134291 0.00200788 0)
(-0.0137306 0.00175153 0)
(-0.0141283 0.00208524 0)
(-0.0150732 0.00254888 0)
(-0.0175119 0.00210972 0)
(-0.0233807 -0.000710498 0)
(-0.0336059 -0.00709902 0)
(-0.0436669 -0.0171777 0)
(-0.0476754 -0.0301213 0)
(-0.0608287 -0.0431039 0)
(-0.147062 -0.0574739 0)
(0.368044 -0.388901 0)
(-0.273658 -0.237522 0)
(-0.216558 -0.137879 0)
(-0.143488 -0.0173331 0)
(-0.19581 -0.0588009 0)
(-0.178603 -0.056248 0)
(-0.172402 -0.0413493 0)
(-0.168163 -0.0201887 0)
(-0.162824 0.00522922 0)
(-0.155883 0.0324492 0)
(-0.146956 0.0601115 0)
(-0.135695 0.0872635 0)
(-0.122056 0.112792 0)
(-0.105829 0.135106 0)
(-0.0860727 0.151206 0)
(-0.0652319 0.154283 0)
(-0.0455395 0.143884 0)
(-0.0224824 0.117383 0)
(-0.00594169 0.0647297 0)
(0.00316372 0.0356046 0)
(0.00350072 0.0244333 0)
(0.00147294 0.0206596 0)
(0.000248373 0.0188207 0)
(-9.7388e-05 0.0168536 0)
(1.10371e-05 0.0142372 0)
(0.000107083 0.0112244 0)
(3.52424e-06 0.00832813 0)
(-0.000226215 0.00584363 0)
(-0.00045415 0.00393766 0)
(-0.00056082 0.00273756 0)
(-0.000464315 0.0023519 0)
(-0.000147774 0.00284439 0)
(0.000299913 0.00414964 0)
(0.0005125 0.00591673 0)
(-0.000560992 0.00745767 0)
(-0.00455126 0.00774689 0)
(-0.0124623 0.00393362 0)
(-0.0208201 -0.0112145 0)
(-0.0422867 -0.0431072 0)
(-0.182664 -0.100351 0)
(0.140139 -0.268217 0)
(-0.49576 -0.232802 0)
(-0.62714 -0.224513 0)
(-0.174302 -0.101362 0)
(-0.258962 -0.0856911 0)
(-0.225038 -0.0666668 0)
(-0.216921 -0.0466603 0)
(-0.214401 -0.0264073 0)
(-0.211838 -0.00425744 0)
(-0.205417 0.0210832 0)
(-0.19552 0.0467738 0)
(-0.181569 0.0715672 0)
(-0.163617 0.0944044 0)
(-0.141628 0.113742 0)
(-0.115605 0.126841 0)
(-0.0873746 0.128946 0)
(-0.0589657 0.118106 0)
(-0.0297223 0.0926142 0)
(-0.0088989 0.0529125 0)
(0.000310334 0.0337121 0)
(0.00320359 0.026198 0)
(0.00494108 0.022904 0)
(0.0068429 0.0206505 0)
(0.00883092 0.0184057 0)
(0.0106476 0.0159103 0)
(0.012045 0.0132886 0)
(0.0129469 0.0107826 0)
(0.0134372 0.00856611 0)
(0.0136623 0.0067638 0)
(0.0137969 0.00548916 0)
(0.0140327 0.00485504 0)
(0.0145651 0.00495494 0)
(0.0155777 0.00581076 0)
(0.0171429 0.00731449 0)
(0.019104 0.00919666 0)
(0.0211311 0.0113007 0)
(0.0231977 0.0133468 0)
(0.0264687 0.0119629 0)
(0.0260033 -0.0131616 0)
(-0.110944 -0.0978583 0)
(-1.34289 -0.224022 0)
(-0.0640473 -0.185403 0)
(-0.240061 -0.113134 0)
(-0.234099 -0.0670836 0)
(-0.237249 -0.0312631 0)
(-0.239719 -0.00170946 0)
(-0.238973 0.0221735 0)
(-0.233578 0.0389788 0)
(-0.223502 0.0543358 0)
(-0.208018 0.0697159 0)
(-0.186916 0.084178 0)
(-0.160436 0.0961651 0)
(-0.12932 0.103182 0)
(-0.0954858 0.101579 0)
(-0.0615799 0.0890787 0)
(-0.0300483 0.0656532 0)
(-0.00888277 0.0376154 0)
(0.000933873 0.0242997 0)
(0.0064313 0.0193056 0)
(0.010926 0.0172466 0)
(0.0150432 0.0158742 0)
(0.0186741 0.0144842 0)
(0.021698 0.0128904 0)
(0.0240185 0.0111371 0)
(0.025627 0.00934854 0)
(0.026606 0.00763998 0)
(0.0270937 0.00611573 0)
(0.0272709 0.00488421 0)
(0.0273633 0.00406157 0)
(0.027646 0.00374886 0)
(0.0284513 0.00397354 0)
(0.0300823 0.0046652 0)
(0.0327758 0.0055911 0)
(0.0367142 0.00650799 0)
(0.0418039 0.00693612 0)
(0.0464427 0.00455269 0)
(0.045502 -0.0133723 0)
(0.00152254 -0.0850948 0)
(-0.300677 0.00406612 0)
(0.0171904 -0.170413 0)
(-0.166493 -0.143236 0)
(-0.205637 -0.134814 0)
(-0.233608 -0.130099 0)
(-0.2502 -0.123029 0)
(-0.256701 -0.109612 0)
(-0.253993 -0.0865357 0)
(-0.243606 -0.0615254 0)
(-0.226013 -0.0400136 0)
(-0.201492 -0.0220039 0)
(-0.170812 -0.0081976 0)
(-0.135452 -0.000427989 0)
(-0.0979582 -0.00148854 0)
(-0.0618322 -0.0130871 0)
(-0.0310994 -0.0332403 0)
(-0.0105452 -0.0531616 0)
(0.00214449 -0.0621553 0)
(0.0106781 -0.0656654 0)
(0.0171509 -0.0671924 0)
(0.0224417 -0.0681518 0)
(0.0268253 -0.0690882 0)
(0.0303666 -0.070146 0)
(0.0330742 -0.0713028 0)
(0.0349864 -0.0724932 0)
(0.0361896 -0.0736723 0)
(0.0368093 -0.0748182 0)
(0.0370055 -0.0759172 0)
(0.0369737 -0.0769596 0)
(0.0369382 -0.0779539 0)
(0.0371631 -0.0789046 0)
(0.037955 -0.0793926 0)
(0.0396437 -0.079734 0)
(0.0425802 -0.0802535 0)
(0.0472696 -0.0808539 0)
(0.0538247 -0.0815438 0)
(0.067691 -0.0909781 0)
(0.0278211 -0.160394 0)
(0.622857 0.213466 0)
(0.183117 -0.250436 0)
(-0.239619 0.233725 0)
(-0.0198044 0.18532 0)
(-0.145326 0.222105 0)
(-0.183475 0.251212 0)
(-0.212175 0.266912 0)
(-0.231247 0.274312 0)
(-0.241692 0.27348 0)
(-0.243074 0.264064 0)
(-0.234657 0.254608 0)
(-0.216809 0.250019 0)
(-0.190599 0.249398 0)
(-0.157596 0.252257 0)
(-0.120266 0.258448 0)
(-0.0821068 0.268103 0)
(-0.0473768 0.281427 0)
(-0.0203914 0.2975 0)
(-0.00347111 0.311105 0)
(0.00685843 0.312987 0)
(0.0139235 0.308066 0)
(0.0203108 0.302866 0)
(0.0260699 0.298448 0)
(0.0311561 0.294726 0)
(0.035509 0.291606 0)
(0.0390654 0.28902 0)
(0.0417861 0.286927 0)
(0.0436662 0.285316 0)
(0.0447267 0.284203 0)
(0.0450088 0.283613 0)
(0.0445738 0.283578 0)
(0.0435042 0.284144 0)
(0.041879 0.28535 0)
(0.0397413 0.28625 0)
(0.0370266 0.287126 0)
(0.0333294 0.288213 0)
(0.0278711 0.289161 0)
(0.0217425 0.28944 0)
(0.0442615 0.301173 0)
(-0.15468 0.44039 0)
)
;

boundaryField
{
    floor
    {
        type            noSlip;
    }
    ceiling
    {
        type            noSlip;
    }
    sWall
    {
        type            noSlip;
    }
    nWall
    {
        type            noSlip;
    }
    sideWalls
    {
        type            empty;
    }
    glass1
    {
        type            noSlip;
    }
    glass2
    {
        type            noSlip;
    }
    sun
    {
        type            noSlip;
    }
    Table_master
    {
        type            noSlip;
    }
    Table_slave
    {
        type            noSlip;
    }
    inlet
    {
        type            fixedValue;
        value           uniform (0.1 0 0);
    }
    outlet
    {
        type            zeroGradient;
    }
}


// ************************************************************************* //
