/*--------------------------------*- C++ -*----------------------------------*=========                 |
  \      /  F ield         | OpenFOAM: The Open Source CFD Toolbox
   \    /   O peration     | Website:  https://openfoam.org
    \  /    A nd           | Version:  6
     \/     M anipulation  |
\*---------------------------------------------------------------------------*/
FoamFile
{
    version     2.0;
    format      ascii;
    class       volScalarField;
    location    "1700";
    object      PMV;
}
// * * * * * * * * * * * * * * * * * * * * * * * * * * * * * * * * * * * * * //

dimensions      [0 0 0 0 0 0 0];

internalField   nonuniform List<scalar> 
458
(
2.875893841573427
2.764214671372823
2.7626155286698357
2.7609647366694525
2.7593913788122553
2.757859473502317
2.7568808679083703
2.7559280232735928
2.755555139037344
2.7558542051449106
2.7554408533082815
2.755319136171141
2.755537247816543
2.755248398904327
2.7460525662765627
2.348379967816841
2.3287595360337128
2.313438118931528
2.311043536922182
2.31487478967163
2.321578469424122
2.3268447325392536
2.331631538615236
2.3354604948553943
2.339289013049118
2.3407245937313235
2.343595568096278
2.3493367636298146
2.360816099734984
2.381372785060783
2.401437964984327
2.4324624038908924
2.4644055517113053
2.948091850016947
2.7896301591913875
2.7878915904745507
2.7882688583130157
2.7904022030991107
2.79159343397356
2.7927754494691555
2.793908535893707
2.793938516586156
2.7934342884014147
2.7908707894798352
2.7863751325987884
2.7783261219118827
2.765186793966536
2.744947407047315
2.729316779189002
2.7160107753703686
2.667714221940957
2.3971394308954967
2.408600770555651
2.409555676188845
2.411465391394865
2.4157617798908273
2.416239115963715
2.4176710754525246
2.4210120289194372
2.4267371789580543
2.435801560242452
2.4491540042695
2.4629761069997342
2.4791716741221026
2.499163015298816
2.520087805867505
2.519612459632704
2.5215137828836838
2.535127068940667
3.0
2.8106056534803394
2.80897624757872
2.8118085686444316
2.8174872530332395
2.8231207113567267
2.828654346159779
2.8324859028803573
2.835629231661115
2.8370601799722377
2.835738969377342
2.830055265741627
2.819312190605718
2.8010387724523946
2.776087737182032
2.7474687026326965
2.7158315598578753
2.687382268912558
2.5020088473238418
2.526741569091144
2.532884861218674
2.537804180136852
2.5318883839963706
2.5015418034051127
2.5096624087422037
2.519926294185833
2.531983950568613
2.545719159064643
2.5615350184658423
2.5803727913644026
2.6026728307450675
2.6310638177485
2.6612244378975114
2.6621677235490253
2.6631109495194587
2.632196755979013
3.0
2.836735950055579
2.826621687124456
2.830592589952754
2.8405256883533707
2.850203957122181
2.8601118465558506
2.868714426140675
2.8759933697153985
2.8799112229292074
2.880946492504459
2.8768956956214895
2.8655472267631303
2.846753052198721
2.8191946150518747
2.783208230721375
2.7374021802054576
2.6810922516399502
2.6317038210094927
2.6062086954974726
2.6450680148082752
2.671876198352071
2.6890684240631306
2.6971664309875445
2.703401385745932
2.704399367821999
2.7053704050272733
2.7068847874440207
2.708952819476828
2.7116072267294125
2.714598451633791
2.718362808819431
2.722134220402026
2.721187942761019
2.726110830366411
2.7341387039562175
2.732378327578103
3.0
2.8693865934724347
2.844612913822732
2.845735984886348
2.857981584867214
2.870833088534614
2.884205035225779
2.897097155466405
2.9084808525505945
2.916388806796635
2.920741671806867
2.9189022542896783
2.9103644853863906
2.8941685607184997
2.8719751786091066
2.843364760296386
2.8102191264512846
2.776294929019072
2.749691028963236
2.731979022766994
2.7296426500136612
2.7310795707291105
2.731254579304837
2.7300991253224796
2.7278702273518354
2.726292954295905
2.7252108098576566
2.7250550146984613
2.7258185380419726
2.727492829157495
2.7301210149463153
2.733762372870214
2.7376299387140657
2.741251585676961
2.7449693978811847
2.7495166083246785
2.753924433130151
2.74376733229905
2.738502849707506
2.7341997139572594
3.0
2.9127490828944067
2.87508440473829
2.864204755899365
2.8727483167888095
2.8861142447528834
2.9013851777981623
2.916525911489262
2.930811561787186
2.9430565890262943
2.9493490910027536
2.9494383808180724
2.9429132134841782
2.930779542380775
2.9125372376558087
2.890165407287773
2.8637580410113683
2.837366677288651
2.8142038845584443
2.7964128025039514
2.7843361399583886
2.775737344295493
2.7685869526286497
2.762144435851263
2.75637341665609
2.7514927585768225
2.747976558485227
2.7453452671365506
2.7440350219296303
2.7435323229280333
2.7437717478516377
2.7455725798509674
2.7477755969947104
2.7501582486587077
2.7530520404597727
2.7552378886049618
2.7582035444458253
2.7628370548348493
2.773939027908998
2.7281004061195793
3.0
2.9823778082965395
2.9465112849290906
2.9135594466128993
2.901383542574293
2.9061252341263306
2.918386874057396
2.933129781764231
2.9476456808211133
2.9592042312827203
2.964390236656957
2.9648886240168055
2.960025987920219
2.9503436751098104
2.9372185842446497
2.9207220684120827
2.901098430934578
2.881655012621416
2.863802549845448
2.8479716095590963
2.833104833713631
2.8182343708941837
2.806132551473967
2.7954132398328544
2.786548763668168
2.7795458405783346
2.7730042551114353
2.7678614747487265
2.7641196643403223
2.761312431465845
2.7594405304580216
2.7594405304580216
2.760637954330059
2.7595995134183746
2.7582614406052848
2.756760623929945
2.7563520735041673
2.7578010785945004
2.7567291671704073
2.7397484822728253
3.0
3.0
3.0
3.0
2.99064686967434
2.9670044432932405
2.9581204391874953
2.957226896856905
2.9614946664092723
2.9688138698035313
2.972462065955402
2.97085120366833
2.964456708246713
2.9543519291960045
2.9426564092747785
2.930509601242902
2.917109304643882
2.903655339254595
2.890719193015342
2.8779349241782333
2.8646080241774947
2.8498001801677195
2.8363540431535577
2.82474355816477
2.814047210256453
2.804735104199971
2.7968121269147668
2.789348969465314
2.7832819555167014
2.7776772525368645
2.773471652284756
2.77019942165997
2.7683291064797033
2.7683291064797033
2.7692643064924267
2.7716019346762124
2.767753714081444
2.7638754227152247
2.755024450444147
2.7355520380405838
3.0
3.0
3.0
3.0
3.0
3.0
3.0
3.0
3.0
2.9999550004215556
2.986590214905363
2.9724078618926497
2.958509835201354
2.945981380321392
2.933825353121336
2.9236097417103646
2.9138235752397255
2.9049371601505087
2.8958122188018627
2.8861873786447383
2.875425834013248
2.8649673039962025
2.8539537396723618
2.8438644721354795
2.834734505280237
2.8261115530905476
2.8184473336257705
2.8117220177770683
2.805200944411527
2.7982108015129366
2.7916818445562024
2.786081983142424
2.781414075755439
2.778144432489908
2.7758083141508596
2.774406381946005
2.7729397411479333
2.770175149084457
2.762782501602944
2.7362657313729035
0.9687019265420854
2.56965389114506
2.8117456093672586
2.893266531910692
2.9258410999180904
2.937907035615284
2.9403619946809134
2.937546849682806
2.9333004602820316
2.9271311733168988
2.9201594415879506
2.913481267544089
2.9071047783708424
2.9020453743633174
2.897216473671194
2.892529507502587
2.8878281751165145
2.8824472169005833
2.875824395836387
2.8684795078231913
2.8604987217082565
2.8524551706274544
2.8444081733334423
2.836382922370027
2.8283904863093223
2.820898593206973
2.813883713862504
2.8068355334452506
2.8001633379335664
2.793772816393058
2.787088618174801
2.780945307547701
2.7752081489471303
2.7698317148585176
2.7643965546564018
2.7595397143016496
2.7535253370796857
2.744927369052574
1.3763211212484876
2.3758042318392967
2.6364089784438485
2.755473992174875
2.8148047598220187
2.844068235711455
2.85808216789369
2.8642223346719216
2.8670870186671533
2.8689123448545346
2.870699667588086
2.8717980268363217
2.872087960271425
2.8724911118179577
2.872354451118252
2.8715564232355506
2.869512393011906
2.8672174430502557
2.8632857098684465
2.858668745922634
2.853416615399429
2.847050021835477
2.840604571412255
2.8336196469619668
2.826127453065122
2.818647205562521
2.8111845999470884
2.803731747682714
2.796777725394716
2.789294399954532
2.7818301708771265
2.775338523650629
2.7687404744242357
2.762500416325367
2.7561331907734967
2.7498682753971355
2.7402244847151165
2.733442411555664
3.0
2.586474944253304
1.874665919024683
2.508441554443359
2.6439206670305895
2.7361570978929106
2.777340140935739
2.796017598165785
2.8042344054564974
2.8085602266171983
2.8106004883799556
2.812785210690776
2.8154764244799
2.818499185172094
2.8217286529746812
2.823963208166977
2.826207939146473
2.8273161531633346
2.827819229585964
2.827736838616861
2.8266748872768064
2.8245290033418446
2.821835092605444
2.818019022105683
2.81308343221233
2.808133693172225
2.802089411046823
2.7955051987823354
2.788385029760542
2.7812746812574805
2.773625284275727
2.7659701887935895
2.757837170073343
2.749785984389343
2.7423584632502824
2.7339402543830165
2.7262232039266534
2.717113892973905
2.7026314577297224
2.667615755186502
)
;

boundaryField
{
    ".*"
    {
        type            zeroGradient;
    }
}


// ************************************************************************* //
