/*--------------------------------*- C++ -*----------------------------------*\
  =========                 |
  \\      /  F ield         | OpenFOAM: The Open Source CFD Toolbox
   \\    /   O peration     | Website:  https://openfoam.org
    \\  /    A nd           | Version:  6
     \\/     M anipulation  |
\*---------------------------------------------------------------------------*/
FoamFile
{
    version     2.0;
    format      ascii;
    class       volScalarField;
    location    "1100";
    object      nut;
}
// * * * * * * * * * * * * * * * * * * * * * * * * * * * * * * * * * * * * * //

dimensions      [0 2 -1 0 0 0 0];

internalField   nonuniform List<scalar> 
458
(
0.000731106
0.000750847
0.000697901
0.000723052
0.000748906
0.000772778
0.000794864
0.000815785
0.000836391
0.000857898
0.000876265
0.000890312
0.00090017
0.000907616
0.000912797
0.000467214
0.000588522
0.000590189
0.000544636
0.000471749
0.00039771
0.000270193
0.000162346
0.000161871
0.000173972
0.000184011
0.000182578
0.000180643
0.0002089
0.000275183
0.000347211
0.000398562
0.000375653
0.00123658
0.00208971
0.0015759
0.0020356
0.00219557
0.00235563
0.00251702
0.00266629
0.00278478
0.0028477
0.0028655
0.00280194
0.00260938
0.00221868
0.00159032
0.000982145
0.000939348
0.000709275
0.000681628
0.00138486
0.00159986
0.00157201
0.00133322
0.000882337
0.000569972
0.000446543
0.000435814
0.000479018
0.000472896
0.000387826
0.000288118
0.000278071
0.000528292
0.00103119
0.00148024
0.000566585
0.0016827
0.0034333
0.00167849
0.0029516
0.00332385
0.00351524
0.00367584
0.0038107
0.00391586
0.00398306
0.00401735
0.00399239
0.00386843
0.00359262
0.00312769
0.00251089
0.00177643
0.0010268
0.000901908
0.00249295
0.00225105
0.00182973
0.00144697
0.000476792
0.000386778
0.000338858
0.000307876
0.000284865
0.000264549
0.000244292
0.000224703
0.000281691
0.000920065
0.00154487
0.00203397
0.000654592
0.00211189
0.00520605
0.00186402
0.00318634
0.00396537
0.00417697
0.00430531
0.00440485
0.00448527
0.0045479
0.0046011
0.00464696
0.00466198
0.00459426
0.00435176
0.00381941
0.00293694
0.00186436
0.00110225
0.00273188
0.0028034
0.00233293
0.00177382
0.00123304
0.000831028
0.000847357
0.000879035
0.000921993
0.000974772
0.00104732
0.00110112
0.00112438
0.00110928
0.0013047
0.0015917
0.00218562
0.000964872
0.00251896
0.00723468
0.00256126
0.00291818
0.00416216
0.00446485
0.00457485
0.00463693
0.00467927
0.00471711
0.00476524
0.00486411
0.00501456
0.00519924
0.00537713
0.00549169
0.00549362
0.00533796
0.0050091
0.00481603
0.00445785
0.00409374
0.00384478
0.00369394
0.00362026
0.00367385
0.00380294
0.00398379
0.00418161
0.00435573
0.00444585
0.0044171
0.00428328
0.00405351
0.00347009
0.00297591
0.00215908
0.00110668
0.000999577
0.0010059
0.00291019
0.00917586
0.00423563
0.00275638
0.00371324
0.00428619
0.0045343
0.0046457
0.00467495
0.00465885
0.00465091
0.00473085
0.00489045
0.00512358
0.00541406
0.00572418
0.00598437
0.00608329
0.00594572
0.00564317
0.00528719
0.00498654
0.00478273
0.00465206
0.00457201
0.0045567
0.00461856
0.00473624
0.00486231
0.00494925
0.00496981
0.00490335
0.00481149
0.00472501
0.00445694
0.00395937
0.00331285
0.002552
0.00196892
0.00107184
0.00327375
0.0106715
0.00716272
0.00414948
0.0031606
0.00335442
0.0038915
0.00433207
0.0045698
0.00455174
0.00448812
0.00451352
0.00460562
0.00476531
0.00499708
0.00529163
0.00559559
0.00579996
0.00581893
0.00566663
0.00544095
0.00523083
0.00507006
0.00495081
0.00486564
0.00483211
0.00486744
0.00495084
0.00502341
0.00502748
0.00495417
0.00484347
0.00475436
0.00477152
0.00494875
0.00480104
0.00436967
0.00366972
0.00289434
0.00126918
0.00334815
0.0104821
0.00864464
0.00714312
0.00540957
0.00423682
0.00387408
0.00403519
0.00433785
0.00439462
0.00433493
0.00429899
0.00430895
0.00436445
0.00446836
0.0046307
0.00484757
0.00506421
0.00519883
0.00520624
0.00513551
0.0050447
0.0049643
0.00490939
0.0048983
0.00494946
0.00505696
0.00517932
0.00523867
0.00516489
0.00497681
0.0047606
0.00459846
0.00458553
0.00483015
0.00511326
0.00480747
0.00392397
0.00342847
0.00136092
0.0032506
0.00386673
0.00448183
0.00476711
0.00475719
0.0044645
0.0041472
0.00394326
0.00386064
0.00383519
0.00384971
0.00388089
0.00391364
0.00394203
0.00396999
0.00401196
0.00408665
0.00419766
0.004321
0.00442558
0.00450138
0.00455053
0.00457983
0.00460873
0.00468256
0.00486274
0.00514283
0.0054335
0.00559593
0.00549513
0.00516292
0.00474824
0.00429288
0.00372876
0.00316901
0.00275875
0.00244793
0.00213427
0.0018904
0.00140113
0.00293649
0.00529488
0.00503746
0.00478493
0.00452132
0.00429239
0.00411649
0.00398307
0.00387878
0.00379288
0.00371364
0.00363436
0.00355634
0.00348984
0.00345278
0.00346488
0.00353751
0.00366557
0.00382665
0.00398785
0.00412284
0.00422975
0.00433983
0.00451714
0.00483728
0.00533067
0.00584884
0.00602607
0.00580402
0.00552502
0.005546
0.0056886
0.0053379
0.00466593
0.00397037
0.00341045
0.00297924
0.00140655
0.00272553
0.00578815
0.00541627
0.00505576
0.00475776
0.00448028
0.00421759
0.00397505
0.00375156
0.00351169
0.00326493
0.00303097
0.00282491
0.00266071
0.00255371
0.00252128
0.00257834
0.00272574
0.00293904
0.00317302
0.00338435
0.00355356
0.00369043
0.00382792
0.00402472
0.00436696
0.00485576
0.00522085
0.00520913
0.00486828
0.0046814
0.0052956
0.0052761
0.0050949
0.004795
0.00447656
0.00349021
0.00145047
0.00218578
0.00235199
0.00249878
0.00262935
0.00242076
0.00223545
0.002049
0.00189275
0.00175185
0.00162436
0.00150862
0.00140868
0.00132057
0.00124044
0.00116659
0.00109863
0.00103712
0.000983368
0.000939194
0.000906568
0.0008868
0.000879501
0.000882208
0.000891381
0.000904073
0.000919271
0.000939073
0.000969214
0.00101287
0.0010708
0.00110604
0.00108927
0.00110673
0.00130458
0.00147835
0.00158013
0.00160874
0.00154993
0.00144268
0.00131295
)
;

boundaryField
{
    floor
    {
        type            nutkWallFunction;
        Cmu             0.09;
        kappa           0.41;
        E               9.8;
        value           nonuniform List<scalar> 
36
(
0.000110405
5.55172e-05
7.09151e-05
7.1123e-05
6.53902e-05
5.60943e-05
4.64653e-05
2.93012e-05
1.39101e-05
1.38404e-05
1.56266e-05
1.70948e-05
1.68859e-05
1.66059e-05
2.06998e-05
3.00069e-05
3.97901e-05
4.66034e-05
4.35805e-05
4.35805e-05
6.81786e-05
7.915e-05
0.000116582
0.000133193
0.000120667
0.000121409
0.000110405
0.000118614
0.000113556
8.58672e-05
5.55171e-05
8.58672e-05
8.24708e-05
0.000123862
0.000109107
0.000132671
)
;
    }
    ceiling
    {
        type            nutkWallFunction;
        Cmu             0.09;
        kappa           0.41;
        E               9.8;
        value           nonuniform List<scalar> 
43
(
0.000253407
0.000271255
0.000286911
0.000300862
0.000278727
0.000258879
0.000238722
0.000221675
0.000206172
0.000192027
0.000179081
0.000167814
0.000157807
0.000148642
0.000140136
0.000132254
0.000125074
0.000118759
0.00011354
0.000109667
0.000107313
0.000106442
0.000106766
0.00010786
0.000109371
0.000111178
0.000113527
0.000117092
0.000122232
0.000129013
0.000133107
0.000131145
0.000133173
0.000155984
0.000175676
0.000187089
0.000190282
0.000183709
0.000171652
0.000156936
0.000366128
0.000429368
0.000310797
)
;
    }
    sWall
    {
        type            nutkWallFunction;
        Cmu             0.09;
        kappa           0.41;
        E               9.8;
        value           uniform 0.000253474;
    }
    nWall
    {
        type            nutkWallFunction;
        Cmu             0.09;
        kappa           0.41;
        E               9.8;
        value           nonuniform List<scalar> 6(0.000121414 0.000129138 0.000151946 0.000167581 0.000172544 0.000156949);
    }
    sideWalls
    {
        type            empty;
    }
    glass1
    {
        type            nutkWallFunction;
        Cmu             0.09;
        kappa           0.41;
        E               9.8;
        value           nonuniform List<scalar> 9(8.8509e-05 0.000148369 0.000198817 0.000245956 0.000289714 0.000331068 0.00036898 0.000376696 0.000366609);
    }
    glass2
    {
        type            nutkWallFunction;
        Cmu             0.09;
        kappa           0.41;
        E               9.8;
        value           nonuniform List<scalar> 2(0.000162489 0.000167047);
    }
    sun
    {
        type            nutkWallFunction;
        Cmu             0.09;
        kappa           0.41;
        E               9.8;
        value           nonuniform List<scalar> 
14
(
8.85345e-05
9.094e-05
8.4472e-05
8.75512e-05
9.07033e-05
9.36023e-05
9.6275e-05
9.87987e-05
0.000101277
0.000103856
0.000106053
0.000107729
0.000108903
0.000109789
)
;
    }
    Table_master
    {
        type            nutkWallFunction;
        Cmu             0.09;
        kappa           0.41;
        E               9.8;
        value           nonuniform List<scalar> 9(5.67501e-05 4.50407e-05 3.86687e-05 3.44877e-05 3.1347e-05 2.85461e-05 2.57247e-05 2.29678e-05 3.0937e-05);
    }
    Table_slave
    {
        type            nutkWallFunction;
        Cmu             0.09;
        kappa           0.41;
        E               9.8;
        value           nonuniform List<scalar> 9(0.000100626 0.000102587 0.000106377 0.000111492 0.000117738 0.00012626 0.000132543 0.00013525 0.000133498);
    }
    inlet
    {
        type            calculated;
        value           uniform 0.000100623;
    }
    outlet
    {
        type            calculated;
        value           nonuniform List<scalar> 2(0.00218578 0.00235199);
    }
}


// ************************************************************************* //
