/*--------------------------------*- C++ -*----------------------------------*\
  =========                 |
  \\      /  F ield         | OpenFOAM: The Open Source CFD Toolbox
   \\    /   O peration     | Website:  https://openfoam.org
    \\  /    A nd           | Version:  6
     \\/     M anipulation  |
\*---------------------------------------------------------------------------*/
FoamFile
{
    version     2.0;
    format      ascii;
    class       volScalarField;
    location    "200";
    object      epsilon;
}
// * * * * * * * * * * * * * * * * * * * * * * * * * * * * * * * * * * * * * //

dimensions      [0 2 -3 0 0 0 0];

internalField   nonuniform List<scalar> 
458
(
0.000633311
0.000845579
0.000942671
0.00110136
0.00126577
0.00144246
0.0016456
0.00185939
0.00205525
0.00219528
0.00223188
0.00212202
0.00154952
0.000976079
0.000586833
6.29275e-05
0.000102294
0.000164012
0.000204812
0.000201701
0.00016295
0.00012646
9.92846e-05
7.94944e-05
6.48475e-05
5.38152e-05
4.53311e-05
3.86659e-05
3.3279e-05
2.86964e-05
2.45098e-05
2.09487e-05
1.56696e-05
0.00136538
0.00185699
0.00078465
0.000782423
0.00081837
0.000887129
0.00100441
0.00116529
0.00133878
0.00147192
0.00150948
0.00143266
0.00120663
0.000951238
0.000721755
0.00119618
0.000750796
0.000411962
5.94635e-05
0.000104458
0.000156739
0.000173101
0.000174921
0.000180471
0.00013932
0.000103664
7.77961e-05
5.93865e-05
4.62369e-05
3.66937e-05
2.96104e-05
2.42851e-05
2.08205e-05
1.90694e-05
3.08053e-05
2.44424e-05
0.00228289
0.00399898
0.000829607
0.000683961
0.000705517
0.000782548
0.000916064
0.00110178
0.00129806
0.00145004
0.00151408
0.00146827
0.00128966
0.0010512
0.000823121
0.000692647
0.000597087
0.000681346
0.000149904
0.000197161
0.000211185
0.000208801
0.00020795
0.000406248
0.000260283
0.000170364
0.00011546
8.1224e-05
5.92427e-05
4.46935e-05
3.49608e-05
2.88401e-05
2.19148e-05
1.8652e-05
4.9631e-05
3.30988e-05
0.00346527
0.00789998
0.00111081
0.000629455
0.000626607
0.000712522
0.000876039
0.00111174
0.00133429
0.00150191
0.00158722
0.00154372
0.00135594
0.00109757
0.000853954
0.00067754
0.000575623
0.000579137
0.000921477
0.000591625
0.000417932
0.000330084
0.000280017
0.000260795
0.000624027
0.000466412
0.000366622
0.000296245
0.000243961
0.000201477
0.000164555
0.000131038
9.92608e-05
5.448e-05
3.16155e-05
8.17503e-05
4.41772e-05
0.00503362
0.0140515
0.00197994
0.000652484
0.00056786
0.000664577
0.000923294
0.00126239
0.00150968
0.00168588
0.00177393
0.00169669
0.00145117
0.00112445
0.000837049
0.000642479
0.00052956
0.000503412
0.000545041
0.000477578
0.000415904
0.000367194
0.000320904
0.000276171
0.000258271
0.000231354
0.000208046
0.00018602
0.000164239
0.00014186
0.000119245
9.73434e-05
7.69788e-05
5.48007e-05
3.74533e-05
6.04029e-05
7.8712e-05
9.4359e-05
0.000122644
0.000160567
0.00720529
0.021286
0.00441367
0.00106303
0.000669602
0.000695293
0.00122256
0.00163595
0.00186416
0.00202289
0.00208284
0.00194821
0.00160266
0.00116368
0.00079668
0.000569186
0.000465435
0.000451149
0.000472603
0.000470339
0.000447152
0.00040469
0.000348443
0.000288201
0.00024022
0.000209081
0.000187979
0.000168868
0.000149012
0.000128212
0.000107373
8.77255e-05
7.04505e-05
5.50521e-05
4.44084e-05
4.98015e-05
6.99612e-05
8.61374e-05
0.000180481
0.000179953
0.00981558
0.0258507
0.00932029
0.00349796
0.00199035
0.00167337
0.00214359
0.00234703
0.00245187
0.00254491
0.0025414
0.00229705
0.00180056
0.00120937
0.000747883
0.000496529
0.000413568
0.000426634
0.000464016
0.000476037
0.000450762
0.000398359
0.000333501
0.000270007
0.000221586
0.000192763
0.000175865
0.000162217
0.0001486
0.000134707
0.000120734
0.000106935
9.45284e-05
8.3803e-05
7.89765e-05
8.5242e-05
0.000111262
0.000162299
0.000299783
0.000313912
0.0105344
0.0285296
0.0160599
0.0101626
0.00668061
0.00506335
0.00408487
0.00354227
0.00334134
0.00329688
0.00316094
0.00271614
0.00198788
0.0011926
0.00064955
0.000422888
0.00038457
0.000409846
0.000437962
0.000432892
0.000394282
0.000336564
0.000276278
0.000225957
0.00019223
0.000174295
0.000166428
0.000164369
0.000167082
0.000174723
0.000186273
0.000200115
0.000218531
0.000249699
0.00030351
0.000438832
0.000734838
0.00124079
0.00370238
0.00113272
0.0099123
0.0171872
0.0134926
0.0103094
0.00789878
0.0062127
0.00507625
0.00452517
0.00436221
0.00425557
0.00389266
0.0030664
0.0019767
0.000918461
0.000501959
0.00037504
0.00035421
0.00036191
0.000361722
0.000338198
0.000296559
0.000249307
0.000206949
0.000175376
0.000156377
0.000148254
0.00014837
0.000155697
0.000171095
0.000196677
0.000235483
0.000291549
0.000370036
0.000482508
0.000638245
0.000841168
0.00107282
0.00129036
0.00147738
0.000930154
0.00326161
0.0044124
0.00503627
0.00541974
0.00575493
0.00608026
0.00602062
0.0054512
0.00435867
0.00262893
0.00116533
0.000564394
0.000375386
0.00031832
0.000301228
0.00029046
0.000271419
0.000241588
0.00020704
0.000175161
0.000150284
0.000133407
0.000123647
0.000119704
0.000121035
0.000128134
0.000142255
0.000165347
0.000200266
0.000251058
0.000322979
0.000421791
0.000549351
0.000694348
0.000822028
0.000886916
0.000846632
0.000529502
0.00348702
0.017283
0.0154284
0.0144298
0.0129441
0.0100027
0.0068151
0.00429923
0.00239519
0.00118905
0.000615388
0.000400157
0.00032076
0.000288433
0.000270934
0.000256009
0.000239338
0.000221028
0.00020343
0.000188634
0.000177439
0.000169648
0.000164713
0.000162195
0.000162062
0.000164899
0.000172044
0.000185639
0.000208685
0.000245143
0.000299784
0.000376884
0.000476358
0.000591873
0.000674542
0.000764384
0.000749576
0.000562736
0.00576153
0.00609011
0.00646061
0.00954757
0.00815263
0.00614359
0.00407406
0.00266404
0.00196585
0.00139904
0.00100016
0.000716297
0.00055346
0.000470063
0.000423717
0.000391775
0.000362537
0.000330422
0.000294629
0.000258022
0.000224572
0.000196981
0.000175934
0.000160758
0.000150418
0.000144206
0.00014199
0.000144177
0.000151567
0.000165245
0.000186524
0.000217049
0.000258972
0.000314848
0.000386222
0.000487181
0.000515866
0.000471351
0.000388881
0.000316463
)
;

boundaryField
{
    floor
    {
        Cmu             0.09;
        kappa           0.41;
        E               9.8;
        type            epsilonWallFunction;
        value           nonuniform List<scalar> 
36
(
0.000586833
6.29275e-05
0.000102294
0.000164012
0.000204812
0.000201701
0.00016295
0.00012646
9.92846e-05
7.94944e-05
6.48475e-05
5.38152e-05
4.53311e-05
3.86659e-05
3.3279e-05
2.86964e-05
2.45098e-05
2.09487e-05
1.56696e-05
1.56696e-05
2.44424e-05
3.30988e-05
4.41772e-05
9.4359e-05
0.000122644
0.000160567
0.000586833
0.00119618
0.000750796
0.000411962
6.29275e-05
0.000411962
5.94635e-05
0.000681346
0.000149904
0.000921477
)
;
    }
    ceiling
    {
        Cmu             0.09;
        kappa           0.41;
        E               9.8;
        type            epsilonWallFunction;
        value           nonuniform List<scalar> 
43
(
0.00576153
0.00609011
0.00646061
0.00954757
0.00815263
0.00614359
0.00407406
0.00266404
0.00196585
0.00139904
0.00100016
0.000716297
0.00055346
0.000470063
0.000423717
0.000391775
0.000362537
0.000330422
0.000294629
0.000258022
0.000224572
0.000196981
0.000175934
0.000160758
0.000150418
0.000144206
0.00014199
0.000144177
0.000151567
0.000165245
0.000186524
0.000217049
0.000258972
0.000314848
0.000386222
0.000487181
0.000515866
0.000471351
0.000388881
0.000316463
0.0099123
0.0171872
0.00348702
)
;
    }
    sWall
    {
        Cmu             0.09;
        kappa           0.41;
        E               9.8;
        type            epsilonWallFunction;
        value           uniform 0.00576153;
    }
    nWall
    {
        Cmu             0.09;
        kappa           0.41;
        E               9.8;
        type            epsilonWallFunction;
        value           nonuniform List<scalar> 6(0.000160567 0.000179953 0.000313912 0.000529502 0.000562736 0.000316463);
    }
    sideWalls
    {
        type            empty;
    }
    glass1
    {
        Cmu             0.09;
        kappa           0.41;
        E               9.8;
        type            epsilonWallFunction;
        value           nonuniform List<scalar> 9(0.000633311 0.00136538 0.00228289 0.00346527 0.00503362 0.00720529 0.00981558 0.0105344 0.0099123);
    }
    glass2
    {
        Cmu             0.09;
        kappa           0.41;
        E               9.8;
        type            epsilonWallFunction;
        value           nonuniform List<scalar> 2(0.00113272 0.000930154);
    }
    sun
    {
        Cmu             0.09;
        kappa           0.41;
        E               9.8;
        type            epsilonWallFunction;
        value           nonuniform List<scalar> 
14
(
0.000633311
0.000845579
0.000942671
0.00110136
0.00126577
0.00144246
0.0016456
0.00185939
0.00205525
0.00219528
0.00223188
0.00212202
0.00154952
0.000976079
)
;
    }
    Table_master
    {
        Cmu             0.09;
        kappa           0.41;
        E               9.8;
        type            epsilonWallFunction;
        value           nonuniform List<scalar> 9(0.000406248 0.000260283 0.000170364 0.00011546 8.1224e-05 5.92427e-05 4.46935e-05 3.49608e-05 2.88401e-05);
    }
    Table_slave
    {
        Cmu             0.09;
        kappa           0.41;
        E               9.8;
        type            epsilonWallFunction;
        value           nonuniform List<scalar> 9(0.000624027 0.000466412 0.000366622 0.000296245 0.000243961 0.000201477 0.000164555 0.000131038 9.92608e-05);
    }
    inlet
    {
        type            turbulentMixingLengthDissipationRateInlet;
        mixingLength    0.01;
        phi             phi;
        k               k;
        value           uniform 0.00129426;
    }
    outlet
    {
        type            zeroGradient;
    }
}


// ************************************************************************* //
