/*--------------------------------*- C++ -*----------------------------------*\
  =========                 |
  \\      /  F ield         | OpenFOAM: The Open Source CFD Toolbox
   \\    /   O peration     | Website:  https://openfoam.org
    \\  /    A nd           | Version:  6
     \\/     M anipulation  |
\*---------------------------------------------------------------------------*/
FoamFile
{
    version     2.0;
    format      ascii;
    class       volScalarField;
    location    "1200";
    object      nut;
}
// * * * * * * * * * * * * * * * * * * * * * * * * * * * * * * * * * * * * * //

dimensions      [0 2 -1 0 0 0 0];

internalField   nonuniform List<scalar> 
458
(
0.000691608
0.000716326
0.000692386
0.000716697
0.000738905
0.000758351
0.000775571
0.000791247
0.000806132
0.000821175
0.000833812
0.00084277
0.000848213
0.000851846
0.000854007
0.000488656
0.000630855
0.000600066
0.000577816
0.000554062
0.000522801
0.000495606
0.000472404
0.000451849
0.000432913
0.000415057
0.000397965
0.000381392
0.000365006
0.000348362
0.00033076
0.000317395
0.000290535
0.0011072
0.00176968
0.0014443
0.00175106
0.00187804
0.00200909
0.00213893
0.00225759
0.00235084
0.00239952
0.00241001
0.00235424
0.00219483
0.00187856
0.00137326
0.000896066
0.000861645
0.000582969
0.000540829
0.00215157
0.00206729
0.00180038
0.00139231
0.0010683
0.000979875
0.000962053
0.000929766
0.000883279
0.000830885
0.000775235
0.000714882
0.000647133
0.000585157
0.000538515
0.000656266
0.000357574
0.00148803
0.00280482
0.00156232
0.00254832
0.00279537
0.00295382
0.00308223
0.00318447
0.00326173
0.00331002
0.00333161
0.00330663
0.0032067
0.0029967
0.00264617
0.00215929
0.00154289
0.000931426
0.000680598
0.00246765
0.00220667
0.00176897
0.00107639
0.000495643
0.000394175
0.000340577
0.000328614
0.000323779
0.000316719
0.000308125
0.000300151
0.000298088
0.000421068
0.000511556
0.000863151
0.000429305
0.00187462
0.00432827
0.00162211
0.00285163
0.00334077
0.00350473
0.00360433
0.00367083
0.0037171
0.00374874
0.0037703
0.00377682
0.00375209
0.00366909
0.00347872
0.00310241
0.0024684
0.00163649
0.000963278
0.0020392
0.0022407
0.00199579
0.00147336
0.000930064
0.000549202
0.000553469
0.000571522
0.000591159
0.000609509
0.000621931
0.000622982
0.000607493
0.00058795
0.000601764
0.000623928
0.000981981
0.000536898
0.00226161
0.00626132
0.00219589
0.00265958
0.0035602
0.00379108
0.00388397
0.00392647
0.00394344
0.00395294
0.00396253
0.00398953
0.00402172
0.00403949
0.004018
0.00393339
0.003774
0.00352092
0.00312453
0.00272981
0.00233323
0.00193036
0.00164053
0.00153721
0.00162565
0.00178519
0.00195075
0.00208138
0.00218684
0.00225025
0.00225472
0.00218255
0.00191551
0.00157792
0.0012754
0.00112186
0.000917393
0.000657086
0.000663307
0.000661067
0.00265064
0.00828314
0.00394927
0.00249887
0.00320758
0.0036969
0.00393076
0.00404064
0.0040636
0.00403161
0.00399883
0.0040291
0.00407949
0.00412391
0.00414187
0.00411637
0.00402411
0.00381252
0.00342066
0.0028888
0.00234834
0.00193828
0.00167557
0.00154057
0.00161167
0.00179972
0.00203258
0.00223187
0.00240017
0.00252473
0.0025957
0.00260621
0.00249607
0.00223373
0.00189214
0.00152315
0.00122334
0.00116218
0.00156722
0.000841472
0.00302507
0.00993069
0.00707492
0.00410507
0.00298531
0.00292836
0.00333249
0.00374287
0.00402327
0.00400979
0.00396503
0.00399292
0.00403234
0.00406364
0.00407124
0.00403947
0.00394529
0.00374633
0.003399
0.00292186
0.00241813
0.00202094
0.00172889
0.00151298
0.00154274
0.00173837
0.00196335
0.00217833
0.0023757
0.00253862
0.00266284
0.00276033
0.00282613
0.00270003
0.00242046
0.00208412
0.00176552
0.00161557
0.001875
0.00103015
0.00311127
0.00976978
0.00830445
0.00707083
0.00543733
0.00421811
0.00369044
0.00364928
0.00383564
0.0039298
0.00392845
0.00392195
0.00392189
0.00391604
0.00388715
0.00382028
0.00370169
0.0035097
0.00322232
0.00284953
0.00245111
0.00210215
0.00180091
0.00150398
0.00150266
0.00171111
0.00193236
0.00213343
0.00231236
0.00247029
0.00261677
0.00277403
0.00297439
0.00320453
0.00308768
0.0029545
0.00293879
0.00291497
0.00344009
0.00139705
0.00303623
0.00363755
0.00427774
0.00458227
0.00463693
0.0044015
0.00410469
0.00388558
0.00377586
0.00372198
0.00371388
0.00372311
0.00372442
0.00369875
0.00363373
0.0035234
0.00336615
0.00316105
0.00290898
0.00262214
0.00233136
0.00208078
0.00184225
0.00147486
0.00143263
0.0016515
0.00186468
0.00204034
0.002182
0.00229244
0.00237504
0.00243304
0.0024658
0.0024665
0.00243677
0.00239767
0.00233278
0.00221499
0.00208665
0.00136815
0.00273446
0.00538489
0.00501324
0.00476042
0.00451491
0.00430052
0.00413351
0.00400377
0.00388606
0.00377102
0.00364716
0.003505
0.00333921
0.00314894
0.00293705
0.00270912
0.00247369
0.00224443
0.00204229
0.001893
0.00177295
0.00138369
0.00127351
0.00149564
0.00169913
0.00185668
0.00197907
0.00207091
0.00213525
0.0021777
0.00220713
0.00223301
0.00223653
0.00219403
0.0020803
0.00187942
0.00162775
0.00110502
0.00256433
0.0058294
0.00539569
0.0050469
0.00475957
0.00450408
0.00425802
0.00402733
0.00380717
0.00354543
0.00327114
0.0029993
0.00273756
0.00248946
0.00225673
0.00204153
0.00184932
0.00169303
0.00159701
0.00158427
0.00158969
0.00121786
0.00097294
0.00118072
0.00136722
0.00152019
0.00166146
0.00179974
0.00193592
0.00206527
0.00217284
0.00225851
0.00232223
0.00233597
0.00229598
0.00221119
0.00200753
0.00111625
0.0020275
0.00220304
0.00235297
0.00251096
0.00235322
0.00221586
0.00202353
0.00186636
0.00172112
0.0015855
0.00145844
0.00135094
0.00125345
0.00116095
0.00107055
0.000980565
0.000890118
0.000799129
0.000708653
0.000621774
0.000544574
0.000484202
0.0004405
0.000386066
0.000419449
0.000502295
0.000569201
0.000628877
0.000685439
0.000741001
0.000797381
0.000857096
0.000924729
0.000998746
0.00107327
0.00114548
0.00122056
0.00119992
0.00110017
0.001012
)
;

boundaryField
{
    floor
    {
        type            nutkWallFunction;
        Cmu             0.09;
        kappa           0.41;
        E               9.8;
        value           nonuniform List<scalar> 
36
(
0.000103392
5.82533e-05
7.61856e-05
7.23511e-05
6.95653e-05
6.65754e-05
6.2616e-05
5.91479e-05
5.61703e-05
5.35172e-05
5.10596e-05
4.87297e-05
4.64876e-05
4.43019e-05
4.21287e-05
3.99084e-05
3.75453e-05
3.57402e-05
3.20813e-05
3.20812e-05
4.1139e-05
5.05904e-05
6.44063e-05
7.9441e-05
8.02095e-05
7.99324e-05
0.000103392
0.000108418
0.000104307
7.02119e-05
5.82533e-05
7.02119e-05
6.48945e-05
0.000112622
8.23435e-05
0.000116392
)
;
    }
    ceiling
    {
        type            nutkWallFunction;
        Cmu             0.09;
        kappa           0.41;
        E               9.8;
        value           nonuniform List<scalar> 
43
(
0.000236294
0.000255288
0.000271386
0.000288357
0.000271558
0.000256819
0.000236
0.000218824
0.000202811
0.000187725
0.000173463
0.000161288
0.000150154
0.000139499
0.000128994
0.000118436
0.000107711
9.67921e-05
8.5789e-05
7.50643e-05
6.53808e-05
5.76896e-05
5.20468e-05
4.49215e-05
4.93057e-05
6.00055e-05
6.84851e-05
7.59456e-05
8.2938e-05
8.97397e-05
9.65798e-05
0.000103763
0.000111828
0.000120578
0.000129312
0.000137709
0.000146377
0.000144001
0.000132447
0.000122136
0.000343932
0.000406085
0.000293757
)
;
    }
    sWall
    {
        type            nutkWallFunction;
        Cmu             0.09;
        kappa           0.41;
        E               9.8;
        value           uniform 0.000236357;
    }
    nWall
    {
        type            nutkWallFunction;
        Cmu             0.09;
        kappa           0.41;
        E               9.8;
        value           nonuniform List<scalar> 6(7.99293e-05 0.00010189 0.000124271 0.00013302 0.000134326 0.000122143);
    }
    sideWalls
    {
        type            empty;
    }
    glass1
    {
        type            nutkWallFunction;
        Cmu             0.09;
        kappa           0.41;
        E               9.8;
        value           nonuniform List<scalar> 9(8.36522e-05 0.00013338 0.000177027 0.000220064 0.000262181 0.00030375 0.000343156 0.000352163 0.000344346);
    }
    glass2
    {
        type            nutkWallFunction;
        Cmu             0.09;
        kappa           0.41;
        E               9.8;
        value           nonuniform List<scalar> 2(0.000166589 0.000163309);
    }
    sun
    {
        type            nutkWallFunction;
        Cmu             0.09;
        kappa           0.41;
        E               9.8;
        value           nonuniform List<scalar> 
14
(
8.36923e-05
8.67242e-05
8.37887e-05
8.67695e-05
8.94817e-05
9.18489e-05
9.3939e-05
9.58368e-05
9.7635e-05
9.94482e-05
0.000100968
0.000102044
0.000102697
0.000103133
)
;
    }
    Table_master
    {
        type            nutkWallFunction;
        Cmu             0.09;
        kappa           0.41;
        E               9.8;
        value           nonuniform List<scalar> 9(5.91562e-05 4.59949e-05 3.88746e-05 3.72672e-05 3.66155e-05 3.56611e-05 3.44954e-05 3.341e-05 3.31286e-05);
    }
    Table_slave
    {
        type            nutkWallFunction;
        Cmu             0.09;
        kappa           0.41;
        E               9.8;
        value           nonuniform List<scalar> 9(6.59654e-05 6.65048e-05 6.87789e-05 7.12423e-05 7.35352e-05 7.50826e-05 7.52133e-05 7.32833e-05 7.08398e-05);
    }
    inlet
    {
        type            calculated;
        value           uniform 0.000100623;
    }
    outlet
    {
        type            calculated;
        value           nonuniform List<scalar> 2(0.0020275 0.00220304);
    }
}


// ************************************************************************* //
