/*--------------------------------*- C++ -*----------------------------------*\
  =========                 |
  \\      /  F ield         | OpenFOAM: The Open Source CFD Toolbox
   \\    /   O peration     | Website:  https://openfoam.org
    \\  /    A nd           | Version:  6
     \\/     M anipulation  |
\*---------------------------------------------------------------------------*/
FoamFile
{
    version     2.0;
    format      ascii;
    class       volScalarField;
    location    "400";
    object      T;
}
// * * * * * * * * * * * * * * * * * * * * * * * * * * * * * * * * * * * * * //

dimensions      [0 0 0 1 0 0 0];

internalField   nonuniform List<scalar> 
458
(
301.678
301.358
301.341
301.335
301.33
301.325
301.32
301.316
301.312
301.307
301.302
301.298
301.298
301.306
301.329
301.718
301.686
301.68
301.687
301.693
301.697
301.701
301.706
301.71
301.715
301.721
301.726
301.732
301.736
301.73
301.694
301.589
301.493
301.895
301.374
301.341
301.335
301.332
301.328
301.325
301.321
301.316
301.309
301.296
301.28
301.267
301.272
301.31
301.381
301.418
301.458
301.719
301.667
301.667
301.679
301.689
301.689
301.688
301.686
301.685
301.685
301.685
301.687
301.69
301.695
301.696
301.678
301.62
301.534
302.126
301.409
301.356
301.356
301.36
301.364
301.367
301.368
301.366
301.355
301.329
301.29
301.253
301.245
301.295
301.383
301.439
301.471
301.622
301.636
301.665
301.695
301.719
301.713
301.707
301.701
301.696
301.693
301.69
301.689
301.688
301.689
301.691
301.679
301.64
301.567
302.358
301.463
301.377
301.382
301.397
301.415
301.433
301.446
301.45
301.437
301.394
301.323
301.248
301.217
301.278
301.395
301.472
301.489
301.531
301.581
301.644
301.7
301.744
301.776
301.797
301.812
301.826
301.84
301.853
301.863
301.869
301.874
301.877
301.816
301.754
301.687
301.604
302.584
301.54
301.404
301.404
301.429
301.462
301.497
301.53
301.547
301.537
301.478
301.369
301.25
301.191
301.261
301.408
301.519
301.565
301.613
301.668
301.726
301.778
301.82
301.85
301.873
301.89
301.904
301.915
301.923
301.928
301.929
301.926
301.916
301.88
301.82
301.744
301.653
301.658
301.668
301.723
302.784
301.648
301.459
301.429
301.449
301.486
301.533
301.584
301.624
301.626
301.553
301.41
301.25
301.169
301.25
301.42
301.572
301.656
301.714
301.77
301.821
301.863
301.893
301.915
301.931
301.942
301.951
301.956
301.96
301.961
301.959
301.953
301.941
301.915
301.868
301.802
301.733
301.717
301.718
301.745
302.945
301.835
301.629
301.543
301.512
301.518
301.55
301.596
301.658
301.675
301.586
301.42
301.239
301.154
301.245
301.44
301.635
301.751
301.819
301.869
301.906
301.931
301.948
301.96
301.968
301.973
301.977
301.979
301.979
301.977
301.973
301.966
301.954
301.933
301.898
301.849
301.799
301.777
301.766
301.772
303.202
302.4
302.177
301.971
301.808
301.712
301.676
301.682
301.721
301.695
301.568
301.38
301.191
301.127
301.252
301.48
301.719
301.846
301.906
301.941
301.962
301.974
301.981
301.985
301.988
301.99
301.99
301.989
301.987
301.984
301.979
301.972
301.961
301.944
301.918
301.885
301.857
301.848
301.843
301.975
303.566
303.213
302.978
302.68
302.387
302.158
302.006
301.919
301.852
301.676
301.461
301.252
301.083
301.088
301.286
301.559
301.817
301.919
301.965
301.986
301.994
301.997
301.998
301.999
301.999
301.999
301.998
301.996
301.994
301.991
301.987
301.983
301.981
301.981
301.985
302
302.026
302.059
302.089
302.165
296.28
298.037
299.479
300.351
300.797
300.989
301.022
301.033
301.009
300.959
300.909
301.077
301.391
301.703
301.9
301.975
302.004
302.014
302.013
302.011
302.009
302.009
302.008
302.007
302.007
302.007
302.007
302.007
302.007
302.009
302.011
302.015
302.024
302.04
302.063
302.09
302.116
302.143
296.947
298.14
299.465
300.104
300.469
300.648
300.715
300.743
300.761
300.77
300.798
301.2
301.663
301.889
301.972
302.012
302.03
302.034
302.028
302.023
302.021
302.021
302.019
302.018
302.017
302.017
302.018
302.019
302.02
302.023
302.025
302.029
302.037
302.048
302.064
302.083
302.087
302.123
298.489
298.463
298.461
299.287
299.858
300.204
300.469
300.586
300.631
300.656
300.677
300.701
300.763
301.572
301.94
301.983
302.021
302.05
302.065
302.065
302.06
302.055
302.052
302.05
302.048
302.046
302.044
302.043
302.042
302.041
302.04
302.04
302.04
302.041
302.044
302.049
302.061
302.069
302.072
302.111
)
;

boundaryField
{
    floor
    {
        type            wallHeatTransfer;
        Tinf            uniform 305.2;
        alphaWall       uniform 0.24;
        value           nonuniform List<scalar> 
36
(
301.68
302.338
302.238
302.203
302.218
302.239
302.266
302.295
302.324
302.352
302.379
302.405
302.431
302.457
302.483
302.509
302.525
302.462
302.374
302.374
302.224
302.194
302.188
302.161
302.153
302.202
301.68
301.711
301.793
301.889
302.338
301.889
302.311
301.86
302.016
301.86
)
;
    }
    ceiling
    {
        type            wallHeatTransfer;
        Tinf            uniform 303.2;
        alphaWall       uniform 0.24;
        value           nonuniform List<scalar> 
43
(
298.736
298.71
298.705
299.476
300.026
300.362
300.624
300.747
300.802
300.838
300.871
300.907
300.98
301.75
302.085
302.116
302.15
302.18
302.198
302.198
302.193
302.189
302.187
302.186
302.184
302.182
302.179
302.175
302.172
302.167
302.163
302.158
302.153
302.149
302.147
302.148
302.156
302.165
302.174
302.216
303.549
303.213
297.298
)
;
    }
    sWall
    {
        type            wallHeatTransfer;
        Tinf            uniform 315.2;
        alphaWall       uniform 0.36;
        value           uniform 299.772;
    }
    nWall
    {
        type            wallHeatTransfer;
        Tinf            uniform 307.2;
        alphaWall       uniform 0.36;
        value           nonuniform List<scalar> 6(302.782 302.631 302.512 302.83 302.807 302.816);
    }
    sideWalls
    {
        type            empty;
    }
    glass1
    {
        type            wallHeatTransfer;
        Tinf            uniform 315.2;
        alphaWall       uniform 4.3;
        value           nonuniform List<scalar> 9(311.234 310.519 310.042 309.658 309.328 309.022 308.743 308.797 309.029);
    }
    glass2
    {
        type            wallHeatTransfer;
        Tinf            uniform 307.2;
        alphaWall       uniform 4.3;
        value           nonuniform List<scalar> 2(305.118 305.237);
    }
    sun
    {
        type            wallHeatTransfer;
        Tinf            uniform 305.2;
        alphaWall       uniform 0.24;
        value           nonuniform List<scalar> 
14
(
302.086
301.779
301.758
301.739
301.724
301.71
301.698
301.687
301.675
301.664
301.654
301.646
301.644
301.653
)
;
    }
    Table_master
    {
        type            zeroGradient;
    }
    Table_slave
    {
        type            zeroGradient;
    }
    inlet
    {
        type            fixedValue;
        value           uniform 295.15;
    }
    outlet
    {
        type            zeroGradient;
    }
}


// ************************************************************************* //
