/*--------------------------------*- C++ -*----------------------------------*\
  =========                 |
  \\      /  F ield         | OpenFOAM: The Open Source CFD Toolbox
   \\    /   O peration     | Website:  https://openfoam.org
    \\  /    A nd           | Version:  6
     \\/     M anipulation  |
\*---------------------------------------------------------------------------*/
FoamFile
{
    version     2.0;
    format      ascii;
    class       volScalarField;
    location    "1700";
    object      T;
}
// * * * * * * * * * * * * * * * * * * * * * * * * * * * * * * * * * * * * * //

dimensions      [0 0 0 1 0 0 0];

internalField   nonuniform List<scalar> 
458
(
304.089
303.816
303.807
303.806
303.804
303.803
303.801
303.799
303.797
303.794
303.79
303.784
303.775
303.766
303.756
303.714
303.707
303.704
303.702
303.701
303.7
303.699
303.698
303.697
303.695
303.694
303.692
303.691
303.689
303.687
303.685
303.683
303.687
304.286
303.851
303.83
303.834
303.838
303.841
303.844
303.844
303.844
303.841
303.834
303.82
303.801
303.776
303.75
303.732
303.721
303.717
303.703
303.699
303.697
303.696
303.694
303.691
303.688
303.684
303.681
303.677
303.674
303.67
303.667
303.664
303.663
303.662
303.663
303.675
304.482
303.895
303.857
303.867
303.88
303.892
303.902
303.91
303.914
303.914
303.905
303.885
303.855
303.817
303.777
303.744
303.721
303.707
303.701
303.7
303.701
303.702
303.702
303.697
303.691
303.685
303.68
303.674
303.669
303.664
303.659
303.655
303.653
303.652
303.652
303.668
304.671
303.953
303.883
303.896
303.918
303.94
303.961
303.978
303.991
303.994
303.985
303.959
303.917
303.863
303.808
303.76
303.724
303.703
303.697
303.698
303.703
303.708
303.71
303.711
303.711
303.71
303.709
303.707
303.705
303.703
303.7
303.696
303.692
303.675
303.661
303.652
303.664
304.846
304.026
303.913
303.919
303.945
303.974
304.005
304.034
304.056
304.067
304.06
304.029
303.975
303.907
303.836
303.773
303.727
303.702
303.694
303.699
303.708
303.716
303.72
303.722
303.723
303.722
303.721
303.719
303.716
303.713
303.708
303.703
303.696
303.684
303.668
303.655
303.659
303.706
303.75
303.755
304.997
304.123
303.973
303.945
303.964
303.993
304.027
304.062
304.096
304.118
304.115
304.08
304.017
303.937
303.853
303.779
303.727
303.699
303.693
303.702
303.714
303.724
303.73
303.733
303.734
303.733
303.732
303.729
303.725
303.72
303.714
303.706
303.698
303.688
303.674
303.66
303.657
303.68
303.693
303.724
305.12
304.282
304.133
304.052
304.025
304.028
304.049
304.079
304.116
304.147
304.143
304.101
304.029
303.942
303.853
303.776
303.721
303.693
303.691
303.705
303.722
303.733
303.74
303.743
303.744
303.743
303.741
303.738
303.733
303.727
303.719
303.709
303.7
303.69
303.678
303.665
303.659
303.667
303.674
303.696
305.323
304.701
304.539
304.388
304.269
304.198
304.167
304.164
304.18
304.184
304.155
304.092
304.007
303.913
303.823
303.75
303.702
303.682
303.688
303.71
303.73
303.741
303.748
303.751
303.752
303.752
303.751
303.748
303.743
303.737
303.729
303.719
303.708
303.699
303.69
303.682
303.679
303.685
303.7
303.825
305.606
305.334
305.037
304.802
304.617
304.481
304.388
304.328
304.283
304.214
304.124
304.024
303.925
303.833
303.755
303.699
303.669
303.667
303.688
303.718
303.737
303.748
303.755
303.759
303.762
303.763
303.762
303.761
303.759
303.756
303.754
303.755
303.758
303.766
303.781
303.803
303.832
303.862
303.886
303.937
297.007
301.457
302.949
303.485
303.715
303.811
303.834
303.834
303.812
303.776
303.732
303.686
303.647
303.63
303.634
303.658
303.697
303.725
303.742
303.753
303.76
303.766
303.771
303.774
303.777
303.779
303.781
303.783
303.786
303.79
303.794
303.803
303.815
303.833
303.853
303.873
303.888
303.898
297.927
301.305
302.408
303.001
303.31
303.457
303.52
303.545
303.559
303.563
303.56
303.553
303.554
303.584
303.622
303.671
303.705
303.728
303.742
303.753
303.761
303.769
303.775
303.781
303.786
303.79
303.794
303.798
303.802
303.805
303.809
303.816
303.825
303.837
303.85
303.865
303.858
303.881
300.318
300.239
300.233
302.132
302.677
303.003
303.281
303.362
303.4
303.419
303.434
303.448
303.461
303.475
303.518
303.619
303.661
303.688
303.706
303.719
303.729
303.737
303.745
303.752
303.759
303.766
303.772
303.778
303.783
303.789
303.794
303.8
303.805
303.811
303.817
303.826
303.836
303.84
303.838
303.874
)
;

boundaryField
{
    floor
    {
        type            wallHeatTransfer;
        Tinf            uniform 305.2;
        alphaWall       uniform 0.24;
        value           nonuniform List<scalar> 
36
(
303.925
303.971
303.974
303.979
303.983
303.988
303.994
304
304.006
304.013
304.018
304.024
304.029
304.035
304.041
304.047
304.054
304.062
304.086
304.086
304.034
304.003
303.979
303.957
303.973
303.964
303.925
303.9
303.901
303.908
303.971
303.908
303.929
303.875
303.905
303.878
)
;
    }
    ceiling
    {
        type            wallHeatTransfer;
        Tinf            uniform 303.2;
        alphaWall       uniform 0.24;
        value           nonuniform List<scalar> 
43
(
300.509
300.421
300.407
302.191
302.707
303.015
303.276
303.35
303.385
303.401
303.413
303.424
303.434
303.443
303.477
303.564
303.603
303.627
303.641
303.65
303.658
303.664
303.67
303.675
303.68
303.685
303.69
303.695
303.701
303.707
303.714
303.721
303.729
303.737
303.746
303.757
303.767
303.77
303.765
303.794
305.491
305.247
298.213
)
;
    }
    sWall
    {
        type            wallHeatTransfer;
        Tinf            uniform 315.2;
        alphaWall       uniform 0.36;
        value           uniform 301.753;
    }
    nWall
    {
        type            wallHeatTransfer;
        Tinf            uniform 307.2;
        alphaWall       uniform 0.36;
        value           nonuniform List<scalar> 6(304.454 304.419 304.357 304.391 304.368 304.434);
    }
    sideWalls
    {
        type            empty;
    }
    glass1
    {
        type            wallHeatTransfer;
        Tinf            uniform 315.2;
        alphaWall       uniform 4.3;
        value           nonuniform List<scalar> 9(312.364 311.644 311.162 310.771 310.446 310.164 309.929 309.972 310.169);
    }
    glass2
    {
        type            wallHeatTransfer;
        Tinf            uniform 307.2;
        alphaWall       uniform 4.3;
        value           nonuniform List<scalar> 2(306.007 306.066);
    }
    sun
    {
        type            wallHeatTransfer;
        Tinf            uniform 305.2;
        alphaWall       uniform 0.24;
        value           nonuniform List<scalar> 
14
(
304.242
303.999
303.993
303.987
303.982
303.977
303.973
303.969
303.965
303.96
303.955
303.948
303.941
303.933
)
;
    }
    Table_master
    {
        type            zeroGradient;
    }
    Table_slave
    {
        type            zeroGradient;
    }
    inlet
    {
        type            fixedValue;
        value           uniform 292.15;
    }
    outlet
    {
        type            zeroGradient;
    }
}


// ************************************************************************* //
