/*--------------------------------*- C++ -*----------------------------------*\
  =========                 |
  \\      /  F ield         | OpenFOAM: The Open Source CFD Toolbox
   \\    /   O peration     | Website:  https://openfoam.org
    \\  /    A nd           | Version:  6
     \\/     M anipulation  |
\*---------------------------------------------------------------------------*/
FoamFile
{
    version     2.0;
    format      ascii;
    class       volScalarField;
    location    "1800";
    object      nut;
}
// * * * * * * * * * * * * * * * * * * * * * * * * * * * * * * * * * * * * * //

dimensions      [0 2 -1 0 0 0 0];

internalField   nonuniform List<scalar> 
458
(
0.00234101
0.00219908
0.00181576
0.00173895
0.00157047
0.00141099
0.00132443
0.00126668
0.0012231
0.00118442
0.00115303
0.00111908
0.00107708
0.00103213
0.00110548
0.000984438
0.00100381
0.000938557
0.000877255
0.000851009
0.000844895
0.000861093
0.000883814
0.000904065
0.000915265
0.000905827
0.000883459
0.000874455
0.000887284
0.000933697
0.000985812
0.00116654
0.000977907
0.003297
0.00834313
0.00803272
0.00734112
0.00766452
0.00806077
0.00806451
0.00787533
0.00761565
0.00730658
0.00683781
0.00626635
0.00565135
0.00500107
0.00457845
0.00174149
0.00154117
0.001273
0.00137448
0.00394861
0.00376223
0.00335288
0.00315053
0.00310141
0.00324161
0.0033971
0.00348355
0.00347786
0.00337305
0.00324644
0.00320862
0.00338155
0.00387347
0.00384661
0.00455273
0.00159418
0.00426715
0.0139091
0.011453
0.00963434
0.0101958
0.0111873
0.0113216
0.0110096
0.0105273
0.0099093
0.00921257
0.00849097
0.00778814
0.00711709
0.00650484
0.0056545
0.00487718
0.00173613
0.00188899
0.00407837
0.00307381
0.00217012
0.00157613
0.00116182
0.00122741
0.00130634
0.00139667
0.00150458
0.00163897
0.00181129
0.00204068
0.00235656
0.0052802
0.00555354
0.00610004
0.00222257
0.00519303
0.0180101
0.014108
0.011342
0.0122591
0.0134544
0.0133048
0.012647
0.0118365
0.0109293
0.00994452
0.00890215
0.00782372
0.00674072
0.00569688
0.0047126
0.0038727
0.00326591
0.00216597
0.00407916
0.00456485
0.00371998
0.00306575
0.00256509
0.00216605
0.00219617
0.00221933
0.00224497
0.00228266
0.00234076
0.00242823
0.00255714
0.00274664
0.00590562
0.00559816
0.004758
0.00334516
0.00613188
0.0213592
0.0161424
0.0125565
0.0139064
0.0151209
0.014762
0.0140319
0.0133563
0.0128083
0.0124141
0.012189
0.0121232
0.012167
0.0122202
0.0121358
0.011822
0.0114757
0.0111607
0.0114127
0.0116257
0.0117892
0.0120073
0.0121787
0.0122027
0.0119867
0.0116371
0.0111875
0.0106681
0.0101117
0.00955297
0.00902813
0.00856359
0.0081507
0.00747898
0.00676197
0.00580985
0.00438207
0.0044773
0.00434064
0.00711994
0.0246533
0.0179159
0.0130732
0.014394
0.0157692
0.0154381
0.0149082
0.0146573
0.014698
0.0149887
0.0154801
0.0161091
0.0167977
0.0174594
0.0180075
0.0183678
0.0185193
0.0184815
0.0184035
0.0184175
0.0184995
0.0185901
0.0185842
0.0183802
0.0180409
0.0175827
0.0170137
0.0163451
0.0155896
0.0147605
0.0138753
0.0129639
0.0120806
0.0113358
0.0109916
0.0113638
0.0123861
0.0132105
0.00542518
0.00799632
0.0260027
0.0187948
0.0127405
0.0138544
0.0152721
0.0149944
0.0148666
0.0152097
0.015896
0.0168137
0.0178731
0.0189947
0.0201062
0.0211368
0.0220085
0.0226585
0.0230654
0.0232533
0.0232422
0.0231419
0.023012
0.0228298
0.0225885
0.0222684
0.021856
0.0213365
0.0207018
0.0199518
0.0190938
0.0181425
0.0171221
0.0160704
0.0150326
0.0140513
0.0132092
0.0128765
0.0142518
0.0185279
0.00640114
0.0086609
0.0178659
0.0164635
0.0106958
0.0126274
0.0135764
0.0137195
0.0145212
0.015758
0.0171971
0.0187248
0.0202446
0.0216737
0.0229638
0.0240851
0.0249357
0.0255709
0.0259913
0.026191
0.0261773
0.0260098
0.0257566
0.025454
0.025116
0.0247335
0.0242837
0.0237409
0.0230831
0.0222944
0.0213662
0.0202994
0.0191107
0.01784
0.0165567
0.0153642
0.014397
0.013702
0.0137357
0.0194256
0.00735462
0.0102379
0.0148106
0.0296445
0.00939819
0.010405
0.0126083
0.014419
0.0164672
0.0184778
0.0203033
0.0219687
0.0234357
0.0246163
0.0254725
0.0261527
0.0266426
0.026989
0.0272044
0.0272772
0.0271951
0.0269805
0.0266787
0.0263276
0.0259482
0.0255413
0.0250922
0.0245775
0.0239702
0.0232436
0.0223736
0.0213423
0.020144
0.0187947
0.0173424
0.0158828
0.0145907
0.0137316
0.0135858
0.0167424
0.00690996
0.0412988
0.0249028
0.0143421
0.0188321
0.0215542
0.0235821
0.025154
0.0260895
0.0267062
0.0270751
0.0272122
0.0271554
0.0270103
0.0268274
0.0266394
0.0264525
0.0262516
0.026015
0.025732
0.0254077
0.0250544
0.024683
0.0242974
0.0238921
0.0234528
0.0229575
0.0223796
0.0216894
0.0208588
0.0198671
0.0187112
0.0174179
0.0160588
0.0147715
0.0138063
0.0135828
0.0124289
0.00404184
0.0200282
0.0335551
0.0304193
0.02974
0.0293531
0.0290217
0.0286279
0.0280773
0.0274135
0.0266815
0.0259223
0.0251678
0.0244427
0.0237688
0.0231601
0.0226219
0.0221506
0.0217356
0.0213649
0.0210295
0.0207238
0.0204444
0.0201874
0.0199461
0.0197098
0.0194624
0.0191832
0.0188481
0.0184318
0.0179132
0.017282
0.0165458
0.0157372
0.0149195
0.0141926
0.0139018
0.0110817
0.0038422
0.00453738
0.00593034
0.0095633
0.00999325
0.010022
0.00991007
0.0097315
0.00951821
0.00928395
0.00903392
0.00877231
0.008503
0.0082297
0.00795593
0.00768472
0.00741875
0.0071603
0.00691119
0.0066728
0.00644598
0.00623122
0.00602869
0.00583838
0.00566016
0.00549379
0.00533888
0.00519481
0.00506066
0.00493513
0.00481649
0.00470255
0.00459081
0.00447866
0.00436375
0.00424455
0.00412146
0.00400068
0.00392638
0.00366692
0.00337822
)
;

boundaryField
{
    floor
    {
        type            nutkWallFunction;
        Cmu             0.09;
        kappa           0.41;
        E               9.8;
        value           nonuniform List<scalar> 
36
(
0.000133234
0.000118993
0.000121304
0.000113532
0.000106179
0.000103
0.000102256
0.000104208
0.000106943
0.000109376
0.000110723
0.0001096
0.000106923
0.000105838
0.000107369
0.000112913
0.000119107
0.000140323
0.000118198
0.000118198
0.000189343
0.000259206
0.000379354
0.000486543
0.000496304
0.00048251
0.000133234
0.000205763
0.000183334
0.000152757
0.000118993
0.000152757
0.000164361
0.000205267
0.0002222
0.000252884
)
;
    }
    ceiling
    {
        type            nutkWallFunction;
        Cmu             0.09;
        kappa           0.41;
        E               9.8;
        value           nonuniform List<scalar> 
43
(
0.000504049
0.000644553
0.000999239
0.00103989
0.00104236
0.0010315
0.00101432
0.000993828
0.000971315
0.000947263
0.000922061
0.000896066
0.000869629
0.000843079
0.000816707
0.00079077
0.00076549
0.000741048
0.000717584
0.00069519
0.000673918
0.000653795
0.000634828
0.000617014
0.000600335
0.000584761
0.000570237
0.000556678
0.000543958
0.000531906
0.000520305
0.000508903
0.000497435
0.000485659
0.000473417
0.000460743
0.000448271
0.00044056
0.000413614
0.000383393
0.00105908
0.00148181
0.00197994
)
;
    }
    sWall
    {
        type            nutkWallFunction;
        Cmu             0.09;
        kappa           0.41;
        E               9.8;
        value           uniform 0.000504004;
    }
    nWall
    {
        type            nutkWallFunction;
        Cmu             0.09;
        kappa           0.41;
        E               9.8;
        value           nonuniform List<scalar> 6(0.000482433 0.000591932 0.000688696 0.000452001 0.000431461 0.000383327);
    }
    sideWalls
    {
        type            empty;
    }
    glass1
    {
        type            nutkWallFunction;
        Cmu             0.09;
        kappa           0.41;
        E               9.8;
        value           nonuniform List<scalar> 9(0.00027139 0.000372766 0.000472743 0.000566252 0.000659671 0.000756807 0.000842213 0.000906598 0.00105635);
    }
    glass2
    {
        type            nutkWallFunction;
        Cmu             0.09;
        kappa           0.41;
        E               9.8;
        value           nonuniform List<scalar> 2(0.000779582 0.000736549);
    }
    sun
    {
        type            nutkWallFunction;
        Cmu             0.09;
        kappa           0.41;
        E               9.8;
        value           nonuniform List<scalar> 
14
(
0.000271796
0.000256238
0.000214067
0.000205506
0.000186628
0.000168547
0.000158634
0.000151981
0.000146936
0.000142441
0.000138775
0.000134807
0.000129883
0.000124595
)
;
    }
    Table_master
    {
        type            nutkWallFunction;
        Cmu             0.09;
        kappa           0.41;
        E               9.8;
        value           nonuniform List<scalar> 9(0.000139875 0.000147518 0.000156656 0.000167043 0.000179356 0.000194561 0.00021387 0.000239287 0.00027382);
    }
    Table_slave
    {
        type            nutkWallFunction;
        Cmu             0.09;
        kappa           0.41;
        E               9.8;
        value           nonuniform List<scalar> 9(0.00025332 0.000256626 0.000259167 0.000261977 0.000266095 0.000272423 0.000281915 0.000295832 0.000316154);
    }
    inlet
    {
        type            calculated;
        value           uniform 0.0412988;
    }
    outlet
    {
        type            calculated;
        value           nonuniform List<scalar> 2(0.00453738 0.00593034);
    }
}


// ************************************************************************* //
