/*--------------------------------*- C++ -*----------------------------------*\
  =========                 |
  \\      /  F ield         | OpenFOAM: The Open Source CFD Toolbox
   \\    /   O peration     | Website:  https://openfoam.org
    \\  /    A nd           | Version:  6
     \\/     M anipulation  |
\*---------------------------------------------------------------------------*/
FoamFile
{
    version     2.0;
    format      ascii;
    class       surfaceScalarField;
    location    "1800";
    object      phi;
}
// * * * * * * * * * * * * * * * * * * * * * * * * * * * * * * * * * * * * * //

dimensions      [1 0 -1 0 0 0 0];

internalField   nonuniform List<scalar> 
850
(
0.000955512
-0.00100801
-0.000954596
0.00191449
-0.00119825
0.000247464
-0.000601521
-0.00059288
4.37077e-06
-0.000602103
0.000420956
-0.000413053
0.00068135
-0.000256868
0.000831666
-0.000146855
0.000905505
-7.04454e-05
0.000917382
-8.54098e-06
0.000876098
4.4615e-05
0.000792883
8.65008e-05
0.000671805
0.000124299
0.000499125
0.000175811
0.000489475
0.000414032
-0.00042361
0.00043449
-1.77524e-05
0.000481018
-4.38673e-05
0.000577443
-9.37122e-05
0.000708179
-0.000127834
0.000837105
-0.000125861
0.000952663
-0.00011236
0.00105079
-9.48234e-05
0.0011365
-8.23121e-05
0.0012107
-7.07246e-05
0.00125084
-3.66441e-05
0.00123752
1.68085e-05
0.00116524
7.5919e-05
0.00105759
0.0001116
0.000841141
0.000220846
0.000465287
0.000380551
-0.000156031
0.000626086
-0.000164647
0.000160584
-0.00132648
0.000111673
0.00196796
-0.000294482
0.000657932
-0.000179317
-0.000703991
0.000107861
-0.000885423
0.000318433
-0.00061988
0.00041599
-0.000350742
0.000426513
-0.000153704
0.000364353
-4.62218e-06
0.000262941
9.66599e-05
0.000168481
0.000142888
0.000118018
0.000140826
0.000153169
9.30787e-05
0.000377312
-4.42433e-05
0.000936355
-6.55065e-05
0.000807949
0.000111846
0.000237755
0.000551041
0.000177991
-0.000434458
-1.86307e-05
-0.00070458
0.000255806
-0.000962317
0.000217605
-0.00114031
8.82196e-05
-0.00125909
-5.1102e-06
-0.0012882
-9.25108e-05
-0.00129736
-9.86286e-05
-0.00131228
-7.50793e-05
-0.00134175
-4.77347e-05
-0.00139691
-1.00962e-05
-0.00146894
4.13472e-05
-0.00154298
9.74204e-05
-0.00160413
0.000144435
-0.00160044
0.000116358
-0.00124332
-0.000126536
-0.000627972
-0.000224762
2.79779e-05
-2.10465e-05
-0.000165422
1.35826e-07
-0.00158864
0.000135398
0.00183754
-0.000110208
0.00090811
-0.000228353
-0.000581605
-0.000289468
-0.000820262
-0.000425328
-0.000480007
-0.000674425
-9.75998e-05
-0.00101216
0.000188386
-0.00137717
0.000364914
-0.00171812
0.000442272
-0.00200939
0.000439036
-0.00222662
0.000363173
-0.0023509
0.000222742
-0.00242365
3.41044e-05
-0.00232218
-0.000161084
-0.00172133
-0.000483213
-0.000182369
-0.000982957
-5.64914e-05
-0.00285999
0.00279388
-0.00365347
0.00105384
-0.00401759
0.00058695
-0.00424554
0.000322075
-0.00435655
0.000112511
-0.00444187
-0.00453289
-0.00459992
-0.00463915
-0.00464027
-0.00458945
-0.00448202
-0.00432702
-0.00419949
-0.00334771
-0.000966835
-0.00217519
-0.00138546
2.38982e-05
-0.00220797
-0.000193943
-0.000164125
-0.00179978
-0.000236404
0.00191493
-0.000482791
0.00115923
-0.000847286
-0.000212685
-0.00138507
-0.000278068
-0.00206698
0.000206683
-0.00280491
0.000645372
-0.00354039
0.000929127
-0.00426579
0.00109596
-0.00498544
0.00116797
-0.00568962
0.00114964
-0.00636013
0.00104041
-0.00697405
0.000843565
-0.00750913
0.000576125
-0.00793022
0.000266843
-0.00834398
-6.26929e-05
-0.00906498
-0.000255455
-0.008984
-0.000131273
-0.00955937
0.000510827
-0.00795437
0.0011947
-0.00791642
0.00102271
-0.008104
0.000782115
-0.00825876
0.000485034
-0.00833381
0.000196254
-0.00831572
-9.11346e-06
-0.0081648
-0.000141826
-0.00792562
-0.000229974
-0.00763149
-0.000284793
-0.00729363
-0.000328387
-0.0069095
-0.00037451
-0.00646351
-0.00043619
-0.0059101
-0.000543421
-0.0051198
-0.000780089
-0.00470571
-0.00137032
-0.00407199
-0.00200846
-0.00356919
-0.00269999
-0.00382988
-0.00032141
-0.00198402
-0.000454805
0.00205358
-0.00099266
0.00170186
-0.0019102
0.000709612
-0.00299322
0.000810075
-0.00404342
0.00126224
-0.00498763
0.00159537
-0.00584147
0.00178921
-0.00661282
0.00187404
-0.00730336
0.00186569
-0.00791329
0.00176716
-0.00844316
0.00157818
-0.00889534
0.00130388
-0.00927197
0.000961021
-0.00957455
0.000577731
-0.00983684
0.000207831
-0.0100523
-3.17605e-05
-0.0101323
-4.31289e-05
-0.00986475
0.000251342
-0.00924358
0.000581578
-0.00880754
0.00059513
-0.00848138
0.000464753
-0.00822764
0.000240349
-0.00801777
-4.37099e-06
-0.00781033
-0.000207189
-0.00759089
-0.000351809
-0.00735756
-0.000453772
-0.00710577
-0.000526945
-0.00683723
-0.000587196
-0.00655312
-0.000648764
-0.00625077
-0.00072856
-0.00592522
-0.000858831
-0.00560026
-0.00109476
-0.00549584
-0.0014643
-0.00558301
-0.00191071
-0.00583842
-0.0024339
-0.00679278
-0.0028648
-0.00488783
-0.0019671
-0.00379628
-0.00115338
-0.00398113
-0.000332563
-0.00230868
-6.72469e-05
0.00179377
-0.000983571
0.00262279
-0.00274479
0.00247551
-0.00436085
0.00243163
-0.00563532
0.00254275
-0.00661921
0.00258583
-0.0073785
0.0025556
-0.00795896
0.00246209
-0.0083927
0.00230748
-0.008708
0.00209092
-0.00893143
0.00181042
-0.00908583
0.00146738
-0.00918824
0.00107275
-0.00925389
0.000652847
-0.00929631
0.000259765
-0.009294
-2.45505e-05
-0.00920191
-0.000125749
-0.00889724
-4.39297e-05
-0.00839543
8.91151e-05
-0.00789527
0.00010441
-0.00744013
1.91722e-05
-0.00705713
-0.000132984
-0.00675047
-0.00030129
-0.00649486
-0.000453
-0.00625987
-0.000576964
-0.00602886
-0.000674892
-0.00579065
-0.000755219
-0.00553858
-0.000829265
-0.00526755
-0.000909707
-0.00497268
-0.00101324
-0.00465516
-0.00116603
-0.00433999
-0.00139946
-0.00407456
-0.0017191
-0.00387959
-0.0020949
-0.00382638
-0.00247619
-0.00394706
-0.00273311
-0.00313771
-0.00276535
-0.00198675
-0.00229314
-0.00607941
-0.000296183
-0.0028423
0.00178398
-0.000280082
0.00019988
0.00421192
-0.003215
0.00589417
-0.00548814
0.00471076
-0.00686111
0.00392246
-0.00768533
0.00341738
-0.0081625
0.00304062
-0.00839835
0.00270629
-0.0084591
0.00237706
-0.00839817
0.00203925
-0.008261
0.00168291
-0.00808242
0.00129883
-0.00788424
0.000884916
-0.00768009
0.000459281
-0.00747159
6.19817e-05
-0.00725234
-0.000233039
-0.00699395
-0.000373435
-0.00664301
-0.000384239
-0.00619694
-0.000346381
-0.00573673
-0.000345264
-0.00531451
-0.00039254
-0.00495955
-0.000477462
-0.00467046
-0.00057991
-0.00443135
-0.000681644
-0.00422419
-0.000773687
-0.00403342
-0.000855223
-0.00384688
-0.000931324
-0.00365512
-0.00101057
-0.00345008
-0.00110426
-0.00322511
-0.00122765
-0.00297886
-0.00140164
-0.00271867
-0.00164889
-0.00244663
-0.00198024
-0.00214954
-0.00238092
-0.00182442
-0.00279011
-0.00145439
-0.00309181
-0.000883405
-0.00332489
0.000142068
-0.00330709
-0.00605387
-0.000869611
-0.00297739
0.00298223
-0.0041213
0.000400535
0.00680156
-0.00461775
0.0109164
-0.00690182
0.00700153
-0.00784459
0.00487277
-0.00812815
0.00370907
-0.00806507
0.00298619
-0.00778908
0.00243944
-0.00736981
0.00196742
-0.00686531
0.00154484
-0.00632484
0.00115301
-0.00578566
0.000770668
-0.00526645
0.000377151
-0.00477311
-2.22123e-05
-0.00434279
-0.00035628
-0.00399135
-0.000572453
-0.0036689
-0.000683893
-0.00332773
-0.000713503
-0.00295868
-0.00070363
-0.00259481
-0.000697427
-0.00226506
-0.000710669
-0.00198646
-0.000744537
-0.00176232
-0.0007926
-0.00158563
-0.000846966
-0.00144515
-0.000902882
-0.00132924
-0.000959908
-0.00122777
-0.00102164
-0.00113215
-0.00109507
-0.00103486
-0.00119047
-0.00092942
-0.001322
-0.000811547
-0.00150839
-0.000677844
-0.0017714
-0.000515943
-0.00213084
-0.000286801
-0.00259865
0.000111224
-0.00317659
0.000887735
-0.00385662
0.00217521
-0.00460055
0.00368309
-0.00480312
-0.00355438
-0.00413418
-0.0083143
-0.00608371
0.00458524
-0.00822785
0.0130669
-0.00866951
0.00745109
-0.0080956
0.00430764
-0.00719238
0.00281521
-0.00624628
0.00204995
-0.00529083
0.00149433
-0.00432253
0.00100993
-0.00336858
0.00060219
-0.00244512
0.00024132
-0.00156214
-0.000100037
-0.000776706
-0.000395497
-0.000167427
-0.00061839
0.000266719
-0.000777136
0.000587383
-0.000879775
0.00084801
-0.000931191
0.00108775
-0.000939976
0.00132068
-0.00092341
0.0015379
-0.000901601
0.00172627
-0.000886136
0.00187617
-0.00088167
0.00198426
-0.000888057
0.00205301
-0.000903223
0.00208821
-0.00092572
0.00209664
-0.000956103
0.00208463
-0.000997517
0.00205753
-0.00105597
0.00201964
-0.00114066
0.00197408
-0.0012646
0.00192255
-0.00144505
0.00186621
-0.00170326
0.00181014
-0.00206293
0.00177197
-0.00254858
0.00179412
-0.00318674
0.0019775
-0.0040279
0.00260334
-0.00521421
0.00442317
-0.00661079
-0.000549408
-0.0217226
0.00626723
-0.0134037
0.00476166
-0.00814826
0.00220662
-0.0047087
0.000879618
-0.00237334
0.000491831
-0.000534973
0.000223903
0.00106991
-9.79138e-05
0.00247588
-0.000382927
0.00365812
-0.000566531
0.00461595
-0.000702618
0.00534087
-0.000810754
0.00585701
-0.000897186
0.00621174
-0.000958504
0.00644293
-0.000993599
0.00658297
-0.00100505
0.00666197
-0.000995442
0.00670526
-0.000968578
0.00672783
-0.000931397
0.00673292
-0.00089224
0.00671812
-0.000857026
0.00667957
-0.000828986
0.00661475
-0.000809268
0.00652333
-0.000798005
0.0064067
-0.000795478
0.00626703
-0.000802996
0.00610628
-0.000823506
0.00592547
-0.000862057
0.00572399
-0.000926239
0.00549879
-0.00102659
0.00524323
-0.00117678
0.00494564
-0.00139305
0.00458799
-0.00169271
0.00414381
-0.00209185
0.00357331
-0.00260368
0.00280184
-0.00324384
0.00161753
-0.0040173
-0.00081361
-0.00416711
-0.00162375
6.24813e-05
0.00613385
0.00570289
-0.000855775
0.00812822
-0.000199498
0.0095485
-0.000522827
0.0109967
-0.000939149
0.0122879
-0.00105031
0.0132468
-0.00103999
0.013892
-0.00101134
0.0143261
-0.000983975
0.0145949
-0.000954712
0.0147245
-0.000923675
0.0147351
-0.000891186
0.0146493
-0.000856022
0.0144891
-0.000816911
0.0142743
-0.000773742
0.0140224
-0.000727169
0.0137486
-0.00067852
0.0134634
-0.000630048
0.0131715
-0.000584349
0.0128736
-0.000543335
0.0125683
-0.000508055
0.0122534
-0.000478983
0.011927
-0.000456415
0.0115875
-0.0004409
0.0112329
-0.000433608
0.0108606
-0.00043661
0.010466
-0.000453115
0.0100416
-0.00048764
0.00957503
-0.000546058
0.00904744
-0.000635386
0.00843114
-0.000763114
0.00768794
-0.000936009
0.00676792
-0.00115845
0.0056079
-0.00143037
0.0041277
-0.00175044
0.00231083
-0.00218732
0.000658162
-0.00250149
-0.0012713
-0.000588571
0.0336246
0.0396172
0.0386274
0.0382951
0.0376389
0.0365649
0.0353774
0.0341975
0.0330431
0.0319125
0.0308074
0.029729
0.0286787
0.0276589
0.0266732
0.0257257
0.0248196
0.023957
0.0231378
0.022359
0.0216163
0.020904
0.0202159
0.0195459
0.018887
0.0182312
0.0175685
0.0168856
0.0161645
0.0153815
0.0145054
0.0134978
0.0123131
0.0109012
0.00921225
0.00719798
0.00474459
0.00196385
)
;

boundaryField
{
    floor
    {
        type            calculated;
        value           nonuniform List<scalar> 
36
(
0
0
0
0
0
0
0
0
0
0
0
0
0
0
0
0
0
0
0
1.34329e-05
3.62089e-05
6.34074e-05
7.74341e-05
7.29118e-05
7.26904e-05
7.60333e-05
1.2609e-05
2.04881e-05
2.27019e-05
2.50957e-05
1.23828e-05
3.75752e-05
3.20779e-05
5.70588e-05
5.19767e-05
7.04511e-05
)
;
    }
    ceiling
    {
        type            calculated;
        value           nonuniform List<scalar> 
43
(
0.000288209
0.000241324
0.000163354
0.000156125
0.000154806
0.000155006
0.000156259
0.000158241
0.000160706
0.000163577
0.000166826
0.000170429
0.000174355
0.000178566
0.000183022
0.000187676
0.000192479
0.000197377
0.000202317
0.000207252
0.000212139
0.00021694
0.00022162
0.000226146
0.000230488
0.000234623
0.000238538
0.000242235
0.000245742
0.000249114
0.000252442
0.000255848
0.000259477
0.000263475
0.000267953
0.000272898
0.000277869
0.000279836
0.000292677
0.000308029
0.000102401
7.22389e-05
0.00012067
)
;
    }
    sWall
    {
        type            calculated;
        value           uniform 0.000324431;
    }
    nWall
    {
        type            calculated;
        value           nonuniform List<scalar> 6(0.000119915 0.000123062 0.000128428 0.000272533 0.000318123 0.000397341);
    }
    sideWalls
    {
        type            empty;
        value           nonuniform 0();
    }
    glass1
    {
        type            calculated;
        value           nonuniform List<scalar> 9(5.71149e-05 0.000162903 0.000267385 0.000380899 0.000511723 0.000664311 0.000839044 0.0010167 0.00106759);
    }
    glass2
    {
        type            calculated;
        value           nonuniform List<scalar> 2(0.00119586 0.00143044);
    }
    sun
    {
        type            calculated;
        value           uniform 0;
    }
    Table_master
    {
        type            calculated;
        value           nonuniform List<scalar> 9(-1.29664e-07 -1.29024e-07 -1.28336e-07 -1.27609e-07 -1.26843e-07 -1.26026e-07 -1.25108e-07 -1.24044e-07 -1.22752e-07);
    }
    Table_slave
    {
        type            calculated;
        value           nonuniform List<scalar> 9(1.187e-07 1.18516e-07 1.18379e-07 1.18266e-07 1.18162e-07 1.18058e-07 1.17955e-07 1.17854e-07 1.1773e-07);
    }
    inlet
    {
        type            calculated;
        value           uniform 0.0201006;
    }
    outlet
    {
        type            calculated;
        value           nonuniform List<scalar> 2(-1.00968e-05 -0.0344382);
    }
}


// ************************************************************************* //
