/*--------------------------------*- C++ -*----------------------------------*\
  =========                 |
  \\      /  F ield         | OpenFOAM: The Open Source CFD Toolbox
   \\    /   O peration     | Website:  https://openfoam.org
    \\  /    A nd           | Version:  6
     \\/     M anipulation  |
\*---------------------------------------------------------------------------*/
FoamFile
{
    version     2.0;
    format      ascii;
    class       volScalarField;
    location    "2500";
    object      k;
}
// * * * * * * * * * * * * * * * * * * * * * * * * * * * * * * * * * * * * * //

dimensions      [0 2 -2 0 0 0 0];

internalField   nonuniform List<scalar> 
458
(
0.00185861
0.00216674
0.0021853
0.0023809
0.00256867
0.00274662
0.00292013
0.00309731
0.00326677
0.00338559
0.00342849
0.00337386
0.00321849
0.00299167
0.00274004
0.000346904
0.00052801
0.000620538
0.000592082
0.000548156
0.000489296
0.000432054
0.000382608
0.000340872
0.000305646
0.000276004
0.000250665
0.000228607
0.00020888
0.000190429
0.000171932
0.000160806
0.000134931
0.00371656
0.00703703
0.00350512
0.00365036
0.00392824
0.00424106
0.00457967
0.00494413
0.0053222
0.0056645
0.00588271
0.0058846
0.00560443
0.00502682
0.00415202
0.00285736
0.00190237
0.00131752
0.000599794
0.000913465
0.00100073
0.00100166
0.000940263
0.000811102
0.000686055
0.000582208
0.00049852
0.000430915
0.000375386
0.000329307
0.000290677
0.000259288
0.000238354
0.000226876
0.000401079
0.000240055
0.00579997
0.0135926
0.00453701
0.00424452
0.00448745
0.0048168
0.00518813
0.00561581
0.00609157
0.00654437
0.00686668
0.00697608
0.00683978
0.00649912
0.0060767
0.00549181
0.00432796
0.00244876
0.00169727
0.00155916
0.00143516
0.00131946
0.00119412
0.000941218
0.000744358
0.000601191
0.000496572
0.000418864
0.000360091
0.000314874
0.000279794
0.000252992
0.000233205
0.000231931
0.000572441
0.0003263
0.00828253
0.0229694
0.00606915
0.00454612
0.00466504
0.00498924
0.00537753
0.00586903
0.00645666
0.00699104
0.00735193
0.00749271
0.00740341
0.00710035
0.00665247
0.00600743
0.00510869
0.00442831
0.00294317
0.00243542
0.00207238
0.00180751
0.00159986
0.00141916
0.0011218
0.000950598
0.000850249
0.000785392
0.000734566
0.000683218
0.000631086
0.000577734
0.000516576
0.000397559
0.000322837
0.000740145
0.00041391
0.0112655
0.0353097
0.00954753
0.00508035
0.00483795
0.00511112
0.00553105
0.00619271
0.0069833
0.00757271
0.00790233
0.00800139
0.00787549
0.00749289
0.00688145
0.0060558
0.00509954
0.00422083
0.00343695
0.00285092
0.0023928
0.00203801
0.00177432
0.00158001
0.00143947
0.00136818
0.00133433
0.00130702
0.00126579
0.00119649
0.00108942
0.000962063
0.000823675
0.000656218
0.000503267
0.00064189
0.00070347
0.000719323
0.000881519
0.00105349
0.0148763
0.0480945
0.0177209
0.00751549
0.00598185
0.00589545
0.00623866
0.00722401
0.00812116
0.0085776
0.0087445
0.00871463
0.00848129
0.00799096
0.00721887
0.00620652
0.00510068
0.00410604
0.00333585
0.00279871
0.00238338
0.00204995
0.0018062
0.00165001
0.00158029
0.00157906
0.00160012
0.00161284
0.00159922
0.00154288
0.00142398
0.00125747
0.00107293
0.000880204
0.000713756
0.000664092
0.000718682
0.000751553
0.00131779
0.00111394
0.0186216
0.0561805
0.0312572
0.0165913
0.0118562
0.00993907
0.0095175
0.0100654
0.0102421
0.0101547
0.00996722
0.00970774
0.00930232
0.00864783
0.0076892
0.00647846
0.00519039
0.00405049
0.00320747
0.00264626
0.0022522
0.00195984
0.00176648
0.00166892
0.00165685
0.00170177
0.00176419
0.00182211
0.00186332
0.00187364
0.00183223
0.00168618
0.00149122
0.00128327
0.00111623
0.00102895
0.00106585
0.00122177
0.00167171
0.00148086
0.0193823
0.056106
0.0398492
0.0323134
0.0255842
0.0203796
0.0173052
0.0149567
0.0132893
0.0122113
0.0115075
0.0109374
0.0102827
0.00937808
0.00815432
0.00668369
0.00517477
0.00387651
0.00296995
0.00239609
0.00205122
0.0018293
0.00170763
0.00166851
0.00169185
0.00175537
0.0018399
0.00193744
0.00204749
0.00217167
0.00230919
0.00243852
0.00246113
0.00244856
0.00253771
0.00292752
0.003795
0.00498764
0.00960052
0.00370976
0.0183369
0.0257172
0.0257834
0.0231993
0.0208229
0.0184927
0.0165177
0.015048
0.0141202
0.0134837
0.0129024
0.0121989
0.0112393
0.00993727
0.0082921
0.00645215
0.00471554
0.00335061
0.00258454
0.00213997
0.00187836
0.00173012
0.00166129
0.00164689
0.00166962
0.00171866
0.00178886
0.00188058
0.00199724
0.00214255
0.00231812
0.00252216
0.00276415
0.00307198
0.0034984
0.00402992
0.00455711
0.00493044
0.00513844
0.00341427
0.0107168
0.0243621
0.02204
0.0204966
0.0194941
0.0186721
0.0175594
0.0162087
0.0147418
0.0131807
0.0114374
0.00944695
0.00721932
0.00499158
0.00354616
0.00269329
0.00224304
0.00199999
0.00186066
0.00177545
0.00172047
0.00168193
0.00165482
0.00163977
0.00164109
0.0016656
0.00172175
0.00181912
0.00196855
0.00218125
0.00245954
0.00279912
0.00319415
0.00359018
0.00386339
0.00389099
0.00369608
0.00246046
0.00940957
0.0221489
0.021666
0.0198539
0.0189595
0.0179983
0.0166995
0.0149609
0.0132437
0.0115164
0.00950749
0.0074516
0.00562235
0.00423413
0.00341749
0.00300541
0.00282108
0.0027269
0.00264939
0.00256785
0.00248123
0.0023852
0.00228227
0.00218033
0.00209017
0.00202335
0.00199104
0.00200358
0.00206991
0.00220886
0.00243069
0.00273391
0.00309768
0.00346511
0.00371975
0.0040099
0.00415416
0.00257512
0.00624667
0.00731982
0.00816893
0.00926617
0.00871291
0.00810586
0.00716171
0.0059282
0.00483131
0.00422694
0.00374194
0.00325625
0.00276422
0.00230428
0.00186969
0.00152801
0.00130272
0.00116802
0.00108708
0.00103485
0.00100091
0.000977519
0.000958709
0.000945713
0.000941078
0.000947779
0.000968646
0.00100624
0.00106321
0.00114322
0.00125271
0.00138899
0.00155121
0.00174361
0.00196867
0.00223594
0.00238519
0.00229468
0.0020224
0.00178222
)
;

boundaryField
{
    floor
    {
        type            kqRWallFunction;
        value           nonuniform List<scalar> 
36
(
0.00274004
0.000346904
0.00052801
0.000620538
0.000592082
0.000548156
0.000489296
0.000432054
0.000382608
0.000340872
0.000305646
0.000276004
0.000250665
0.000228607
0.00020888
0.000190429
0.000171932
0.000160806
0.000134931
0.000134931
0.000240055
0.0003263
0.00041391
0.000719323
0.000881519
0.00105349
0.00274004
0.00285736
0.00190237
0.00131752
0.000346904
0.00131752
0.000599794
0.00244876
0.00169727
0.00294317
)
;
    }
    ceiling
    {
        type            kqRWallFunction;
        value           nonuniform List<scalar> 
43
(
0.00624667
0.00731982
0.00816893
0.00926617
0.00871291
0.00810586
0.00716171
0.0059282
0.00483131
0.00422694
0.00374194
0.00325625
0.00276422
0.00230428
0.00186969
0.00152801
0.00130272
0.00116802
0.00108708
0.00103485
0.00100091
0.000977519
0.000958709
0.000945713
0.000941078
0.000947779
0.000968646
0.00100624
0.00106321
0.00114322
0.00125271
0.00138899
0.00155121
0.00174361
0.00196867
0.00223594
0.00238519
0.00229468
0.0020224
0.00178222
0.0183369
0.0257172
0.00940957
)
;
    }
    sWall
    {
        type            kqRWallFunction;
        value           uniform 0.00624667;
    }
    nWall
    {
        type            kqRWallFunction;
        value           nonuniform List<scalar> 6(0.00105349 0.00111394 0.00148086 0.00246046 0.00257512 0.00178222);
    }
    sideWalls
    {
        type            empty;
    }
    glass1
    {
        type            kqRWallFunction;
        value           nonuniform List<scalar> 9(0.00185861 0.00371656 0.00579997 0.00828253 0.0112655 0.0148763 0.0186216 0.0193823 0.0183369);
    }
    glass2
    {
        type            kqRWallFunction;
        value           nonuniform List<scalar> 2(0.00370976 0.00341427);
    }
    sun
    {
        type            kqRWallFunction;
        value           nonuniform List<scalar> 
14
(
0.00185861
0.00216674
0.0021853
0.0023809
0.00256867
0.00274662
0.00292013
0.00309731
0.00326677
0.00338559
0.00342849
0.00337386
0.00321849
0.00299167
)
;
    }
    Table_master
    {
        type            kqRWallFunction;
        value           nonuniform List<scalar> 9(0.000941218 0.000744358 0.000601191 0.000496572 0.000418864 0.000360091 0.000314874 0.000279794 0.000252992);
    }
    Table_slave
    {
        type            kqRWallFunction;
        value           nonuniform List<scalar> 9(0.0011218 0.000950598 0.000850249 0.000785392 0.000734566 0.000683218 0.000631086 0.000577734 0.000516576);
    }
    inlet
    {
        type            turbulentIntensityKineticEnergyInlet;
        intensity       0.05;
        value           uniform 0.0003375;
    }
    outlet
    {
        type            zeroGradient;
    }
}


// ************************************************************************* //
