/*--------------------------------*- C++ -*----------------------------------*\
  =========                 |
  \\      /  F ield         | OpenFOAM: The Open Source CFD Toolbox
   \\    /   O peration     | Website:  https://openfoam.org
    \\  /    A nd           | Version:  6
     \\/     M anipulation  |
\*---------------------------------------------------------------------------*/
FoamFile
{
    version     2.0;
    format      ascii;
    class       volVectorField;
    location    "2500";
    object      U;
}
// * * * * * * * * * * * * * * * * * * * * * * * * * * * * * * * * * * * * * //

dimensions      [0 1 -1 0 0 0 0];

internalField   nonuniform List<vector> 
458
(
(0.0456693 0.0803034 0)
(-0.15615 0.0206104 0)
(-0.172434 0.0156831 0)
(-0.199881 0.0120429 0)
(-0.221744 0.00771536 0)
(-0.237489 0.0031115 0)
(-0.246301 -0.00185328 0)
(-0.246989 -0.00731806 0)
(-0.238487 -0.0134258 0)
(-0.22063 -0.0199214 0)
(-0.193837 -0.0261591 0)
(-0.159292 -0.0317566 0)
(-0.118946 -0.037224 0)
(-0.0793909 -0.044354 0)
(-0.062165 -0.0535305 0)
(0.0127062 0.00768477 0)
(-0.011109 -0.0180366 0)
(0.0151497 -0.02313 0)
(0.0311701 -0.0163849 0)
(0.0450116 -0.0105785 0)
(0.0535927 -0.00598516 0)
(0.0575476 -0.00361849 0)
(0.05882 -0.00270782 0)
(0.059101 -0.0023384 0)
(0.059097 -0.0021141 0)
(0.0588935 -0.00191325 0)
(0.0584045 -0.00166484 0)
(0.0574384 -0.00121171 0)
(0.055484 -0.000190219 0)
(0.0514556 0.00189479 0)
(0.0441776 0.00408984 0)
(0.0377531 0.00554022 0)
(-0.0140924 0.0182661 0)
(0.222686 0.165656 0)
(-0.151263 0.0558073 0)
(-0.140159 0.0455836 0)
(-0.169052 0.0379718 0)
(-0.190555 0.0292483 0)
(-0.206237 0.0197088 0)
(-0.215523 0.00897156 0)
(-0.217237 -0.00334958 0)
(-0.210177 -0.0171069 0)
(-0.19465 -0.0309202 0)
(-0.171585 -0.0428297 0)
(-0.143129 -0.0513181 0)
(-0.112477 -0.0560403 0)
(-0.0851759 -0.0573133 0)
(-0.0682617 -0.0504008 0)
(-0.0501378 -0.0125883 0)
(-0.0256238 0.0168524 0)
(-0.0688619 0.0238792 0)
(0.0741884 0.011407 0)
(0.0368672 -0.0195819 0)
(0.0403677 -0.0257319 0)
(0.0504221 -0.0204655 0)
(0.0581916 -0.0132703 0)
(0.061781 -0.00481973 0)
(0.0621597 1.4517e-05 0)
(0.0617566 0.0019063 0)
(0.0616592 0.00265718 0)
(0.061773 0.00309176 0)
(0.061836 0.00339305 0)
(0.061794 0.00374831 0)
(0.0616222 0.00449371 0)
(0.060828 0.00645767 0)
(0.0571773 0.012066 0)
(0.0479895 0.0166821 0)
(0.0431605 0.0193362 0)
(-0.046387 0.0401467 0)
(0.382839 0.248527 0)
(-0.174201 0.0912721 0)
(-0.106118 0.0745823 0)
(-0.134897 0.059816 0)
(-0.153587 0.0452249 0)
(-0.167764 0.0297825 0)
(-0.176785 0.0124445 0)
(-0.178937 -0.00742344 0)
(-0.172246 -0.0293058 0)
(-0.157543 -0.0507845 0)
(-0.136324 -0.0684517 0)
(-0.11127 -0.0799086 0)
(-0.0854999 -0.0844463 0)
(-0.0624383 -0.0821413 0)
(-0.0436315 -0.071148 0)
(-0.0244048 -0.0469348 0)
(-0.00517033 -0.0277421 0)
(-0.0309028 -0.0201781 0)
(0.0911108 -0.0507352 0)
(0.0560103 -0.0440139 0)
(0.054676 -0.0356713 0)
(0.0597303 -0.0273963 0)
(0.0637711 -0.0208655 0)
(0.0652467 -0.0156364 0)
(0.0609713 -0.0107396 0)
(0.0577739 -0.00819172 0)
(0.0568243 -0.00679833 0)
(0.0568889 -0.00591022 0)
(0.0572432 -0.0052454 0)
(0.0578383 -0.00463489 0)
(0.0591238 -0.00373591 0)
(0.0621996 -0.000615635 0)
(0.0609417 0.0160598 0)
(0.0490585 0.0275633 0)
(0.049937 0.035337 0)
(-0.0739551 0.0640377 0)
(0.523609 0.315561 0)
(-0.212374 0.124409 0)
(-0.0696709 0.0991381 0)
(-0.0981589 0.0780515 0)
(-0.111433 0.0596309 0)
(-0.121938 0.0402967 0)
(-0.129323 0.0177923 0)
(-0.130758 -0.00925092 0)
(-0.123167 -0.039548 0)
(-0.108616 -0.0684893 0)
(-0.0894731 -0.0910297 0)
(-0.0685444 -0.104333 0)
(-0.0482403 -0.107856 0)
(-0.0303116 -0.102014 0)
(-0.0150222 -0.0871986 0)
(0.00115144 -0.0637006 0)
(0.0198188 -0.0418767 0)
(0.0358235 -0.0284634 0)
(0.0636567 -0.00779125 0)
(0.0722663 -0.0376883 0)
(0.0605905 -0.0388788 0)
(0.0557607 -0.0325306 0)
(0.0551981 -0.0262434 0)
(0.0546478 -0.0193951 0)
(0.0573649 -0.0124476 0)
(0.0653463 -0.00937755 0)
(0.072491 -0.00770722 0)
(0.0779379 -0.00657464 0)
(0.0820976 -0.0053983 0)
(0.0846569 -0.00382778 0)
(0.0843262 -0.0015908 0)
(0.0796084 0.00165985 0)
(0.0684386 0.00639812 0)
(0.0563084 0.025337 0)
(0.0449358 0.041525 0)
(0.0559338 0.0549526 0)
(-0.0932312 0.0873089 0)
(0.641264 0.368358 0)
(-0.25421 0.153234 0)
(-0.0337348 0.112898 0)
(-0.0590412 0.0885111 0)
(-0.0650271 0.0682452 0)
(-0.069532 0.0468613 0)
(-0.0732891 0.0210652 0)
(-0.0712868 -0.0119217 0)
(-0.0609279 -0.0500386 0)
(-0.0467068 -0.0847488 0)
(-0.0312936 -0.109785 0)
(-0.0166968 -0.122925 0)
(-0.00414323 -0.12457 0)
(0.00612785 -0.115888 0)
(0.0143615 -0.0995011 0)
(0.0229498 -0.0781175 0)
(0.0332596 -0.057485 0)
(0.0433449 -0.0430233 0)
(0.0526006 -0.0355107 0)
(0.0548657 -0.0396337 0)
(0.0503467 -0.0367038 0)
(0.0454249 -0.0307816 0)
(0.0428284 -0.0250478 0)
(0.0420498 -0.0191342 0)
(0.044289 -0.0122485 0)
(0.049329 -0.00878485 0)
(0.0546064 -0.0074583 0)
(0.0594994 -0.00646658 0)
(0.0639466 -0.00469497 0)
(0.0675063 -0.00138685 0)
(0.0693946 0.00374343 0)
(0.0682862 0.0106128 0)
(0.0638518 0.0196395 0)
(0.0576159 0.0346456 0)
(0.0492505 0.0518537 0)
(0.067647 0.0710594 0)
(0.00664772 0.0967195 0)
(0.0540529 0.130099 0)
(-0.0739129 0.0548839 0)
(-0.263015 -0.00822777 0)
(0.722273 0.413326 0)
(-0.29147 0.174032 0)
(-0.00758137 0.107959 0)
(-0.0171854 0.0894233 0)
(-0.0143219 0.0716677 0)
(-0.0117188 0.0496306 0)
(-0.0104895 0.0218122 0)
(0.000761762 -0.0177145 0)
(0.0148533 -0.0624148 0)
(0.0265903 -0.0985712 0)
(0.035375 -0.122037 0)
(0.0408555 -0.132396 0)
(0.0431491 -0.131173 0)
(0.0430371 -0.120671 0)
(0.0417234 -0.103633 0)
(0.040674 -0.083093 0)
(0.0408502 -0.0630791 0)
(0.0415588 -0.0474168 0)
(0.0415607 -0.0375518 0)
(0.0388002 -0.0340675 0)
(0.0333923 -0.0309469 0)
(0.0280705 -0.0268538 0)
(0.0247604 -0.022843 0)
(0.0236837 -0.0189552 0)
(0.0250881 -0.0152588 0)
(0.0285436 -0.0135085 0)
(0.0328299 -0.0128869 0)
(0.037413 -0.0120935 0)
(0.0421411 -0.0101178 0)
(0.0467932 -0.00601326 0)
(0.0513229 0.00105111 0)
(0.0540961 0.0105829 0)
(0.0550018 0.0220431 0)
(0.0557161 0.0364584 0)
(0.0556374 0.053075 0)
(0.0733874 0.0731432 0)
(0.064655 0.0862609 0)
(0.0935792 0.0912326 0)
(0.110579 0.0554432 0)
(-0.12986 -0.0235361 0)
(0.765243 0.454406 0)
(-0.307464 0.161788 0)
(0.0164298 0.0572672 0)
(0.0406345 0.0695276 0)
(0.0506164 0.0685193 0)
(0.0580431 0.0472662 0)
(0.0667789 0.0137279 0)
(0.0872009 -0.0313557 0)
(0.100732 -0.0737821 0)
(0.10652 -0.105727 0)
(0.105582 -0.124583 0)
(0.0992294 -0.130846 0)
(0.0889702 -0.126515 0)
(0.0765174 -0.114223 0)
(0.0635688 -0.0968054 0)
(0.0515337 -0.0770878 0)
(0.0412803 -0.0582149 0)
(0.0327766 -0.0429782 0)
(0.0255395 -0.0328762 0)
(0.018567 -0.0277976 0)
(0.0118357 -0.0249452 0)
(0.00628051 -0.0225286 0)
(0.00269211 -0.0204945 0)
(0.00115402 -0.018802 0)
(0.00162065 -0.0174949 0)
(0.00362371 -0.0170881 0)
(0.0064212 -0.0170968 0)
(0.00969047 -0.016739 0)
(0.0134664 -0.0152191 0)
(0.0179422 -0.011542 0)
(0.0234631 -0.0044418 0)
(0.0312486 0.00648353 0)
(0.0374459 0.0186152 0)
(0.0443035 0.0317072 0)
(0.0520047 0.0454571 0)
(0.0697699 0.0613443 0)
(0.0830072 0.0680084 0)
(0.111096 0.0628318 0)
(0.151818 0.0513696 0)
(-0.028741 0.0909403 0)
(0.866932 0.460061 0)
(-0.0780435 0.141343 0)
(0.102973 -0.0252344 0)
(0.168658 -0.012798 0)
(0.170965 0.00787301 0)
(0.169138 -0.00258885 0)
(0.181189 -0.0316161 0)
(0.196272 -0.0609756 0)
(0.199387 -0.0866624 0)
(0.190648 -0.105215 0)
(0.173195 -0.114742 0)
(0.150106 -0.115178 0)
(0.124107 -0.107791 0)
(0.0975853 -0.0946791 0)
(0.0724372 -0.0781319 0)
(0.0499101 -0.0603511 0)
(0.0307325 -0.0439095 0)
(0.0151668 -0.0310548 0)
(0.00339337 -0.0231645 0)
(-0.00583015 -0.0197057 0)
(-0.0127546 -0.0185965 0)
(-0.0181059 -0.0181535 0)
(-0.0218759 -0.0180518 0)
(-0.0242206 -0.0181658 0)
(-0.0253417 -0.0184542 0)
(-0.0256137 -0.0189686 0)
(-0.0254493 -0.0195059 0)
(-0.0250219 -0.0197161 0)
(-0.0242363 -0.0191549 0)
(-0.0227482 -0.0172509 0)
(-0.0198226 -0.0133088 0)
(-0.0130248 -0.00649608 0)
(-0.000707364 0.00343344 0)
(0.00993208 0.0132601 0)
(0.021631 0.020327 0)
(0.0389092 0.0265284 0)
(0.0558235 0.0218193 0)
(0.0796491 0.00588384 0)
(0.143522 0.0424207 0)
(-0.384533 0.194361 0)
(1.00911 0.419487 0)
(0.476313 0.275414 0)
(0.496116 0.180235 0)
(0.515002 0.139256 0)
(0.469359 0.109357 0)
(0.420219 0.0735986 0)
(0.386241 0.0340041 0)
(0.350724 -0.00620538 0)
(0.308153 -0.0400076 0)
(0.262375 -0.063408 0)
(0.2162 -0.0755986 0)
(0.171428 -0.0778883 0)
(0.129341 -0.0725055 0)
(0.091026 -0.0620907 0)
(0.0572746 -0.0489647 0)
(0.0284657 -0.0349894 0)
(0.00508569 -0.0227585 0)
(-0.0125848 -0.0147054 0)
(-0.0235761 -0.011669 0)
(-0.0316333 -0.0111975 0)
(-0.0380006 -0.0118149 0)
(-0.0433218 -0.0127192 0)
(-0.0477973 -0.0137148 0)
(-0.0516112 -0.0147134 0)
(-0.0549841 -0.0156776 0)
(-0.0582121 -0.0165812 0)
(-0.0616226 -0.0172798 0)
(-0.065515 -0.0174911 0)
(-0.0701938 -0.0167549 0)
(-0.07605 -0.0143771 0)
(-0.0835956 -0.00946267 0)
(-0.0932499 -0.0011624 0)
(-0.103582 0.0103419 0)
(-0.115661 0.0242827 0)
(-0.136133 0.0409358 0)
(-0.167581 0.0602114 0)
(-0.2119 0.079441 0)
(-0.261754 0.0959932 0)
(-0.332157 0.108124 0)
(-0.600629 0.114689 0)
(-0.425584 -0.0519291 0)
(0.154829 0.0460645 0)
(0.241859 0.0571835 0)
(0.23641 0.0456695 0)
(0.225206 0.0230981 0)
(0.210153 -0.00113734 0)
(0.191991 -0.0200768 0)
(0.16605 -0.0320135 0)
(0.135323 -0.0377938 0)
(0.102079 -0.0381976 0)
(0.068437 -0.0339876 0)
(0.0366542 -0.0265947 0)
(0.00787299 -0.0172076 0)
(-0.0167507 -0.00731408 0)
(-0.0325865 -0.0013447 0)
(-0.0432165 0.00119098 0)
(-0.0504384 0.00135749 0)
(-0.0562123 0.000559539 0)
(-0.061431 -0.000551863 0)
(-0.066549 -0.00167709 0)
(-0.0717218 -0.00272573 0)
(-0.0770088 -0.00357956 0)
(-0.0824705 -0.00415635 0)
(-0.0881778 -0.00436866 0)
(-0.0941908 -0.00406121 0)
(-0.100521 -0.00301428 0)
(-0.107114 -0.000977868 0)
(-0.113854 0.00228787 0)
(-0.120481 0.00697857 0)
(-0.126044 0.0136788 0)
(-0.13007 0.0239269 0)
(-0.13315 0.0384195 0)
(-0.13623 0.0564762 0)
(-0.139888 0.0754089 0)
(-0.141079 0.0869368 0)
(-0.12675 0.0707407 0)
(-0.101199 -0.0137395 0)
(-0.269259 -0.188484 0)
(-0.106491 0.158797 0)
(0.0793767 0.0684247 0)
(0.0292697 0.0348342 0)
(0.0406547 0.040173 0)
(0.0520654 0.030274 0)
(0.05454 0.0119159 0)
(0.0514651 -0.0038449 0)
(0.0419285 -0.0135071 0)
(0.0256778 -0.0179051 0)
(0.00562684 -0.0182408 0)
(-0.0158038 -0.0162248 0)
(-0.0338475 -0.0147027 0)
(-0.0474192 -0.0154292 0)
(-0.0559981 -0.0187221 0)
(-0.0607418 -0.0241774 0)
(-0.0639678 -0.0301399 0)
(-0.0668758 -0.0355011 0)
(-0.0701548 -0.039583 0)
(-0.0740074 -0.0422291 0)
(-0.0784617 -0.0438819 0)
(-0.083516 -0.0451109 0)
(-0.0891288 -0.0459308 0)
(-0.095174 -0.0462738 0)
(-0.101461 -0.0460258 0)
(-0.107733 -0.0450068 0)
(-0.113645 -0.0429302 0)
(-0.11872 -0.039344 0)
(-0.122328 -0.0335502 0)
(-0.123722 -0.0244735 0)
(-0.122362 -0.0124508 0)
(-0.117247 0.00213813 0)
(-0.106998 0.0198348 0)
(-0.0908758 0.0404144 0)
(-0.0693972 0.0612097 0)
(-0.0445416 0.0756761 0)
(-0.0105771 0.0671209 0)
(0.143352 -0.00608796 0)
(-0.203383 -0.102374 0)
(0.0940846 -0.253542 0)
(-0.348394 -0.11685 0)
(-0.27331 0.0364193 0)
(-0.204428 -0.0187429 0)
(-0.176171 -0.0132537 0)
(-0.139758 -0.000486442 0)
(-0.111509 0.00163558 0)
(-0.0948665 0.00177244 0)
(-0.0893805 0.00806383 0)
(-0.0894534 0.0186659 0)
(-0.0936636 0.0306502 0)
(-0.0973965 0.0425594 0)
(-0.0984931 0.0533956 0)
(-0.0965667 0.0633298 0)
(-0.0930494 0.0740868 0)
(-0.0886162 0.0852296 0)
(-0.0844738 0.0958267 0)
(-0.0814263 0.104914 0)
(-0.0796826 0.111833 0)
(-0.0791454 0.116503 0)
(-0.0795539 0.119002 0)
(-0.0806874 0.120058 0)
(-0.0823987 0.120491 0)
(-0.0845856 0.120255 0)
(-0.0871737 0.119224 0)
(-0.0900887 0.117271 0)
(-0.0932182 0.114314 0)
(-0.0963708 0.11031 0)
(-0.0992249 0.105212 0)
(-0.101218 0.0988929 0)
(-0.101334 0.0911451 0)
(-0.0975958 0.084126 0)
(-0.0875156 0.0798569 0)
(-0.068985 0.0793593 0)
(-0.0415852 0.0833105 0)
(-0.00284009 0.0911859 0)
(0.0431492 0.0947605 0)
(0.0830194 0.0840311 0)
(0.158894 0.0609043 0)
(-0.251277 0.0142644 0)
)
;

boundaryField
{
    floor
    {
        type            noSlip;
    }
    ceiling
    {
        type            noSlip;
    }
    sWall
    {
        type            noSlip;
    }
    nWall
    {
        type            noSlip;
    }
    sideWalls
    {
        type            empty;
    }
    glass1
    {
        type            noSlip;
    }
    glass2
    {
        type            noSlip;
    }
    sun
    {
        type            noSlip;
    }
    Table_master
    {
        type            noSlip;
    }
    Table_slave
    {
        type            noSlip;
    }
    inlet
    {
        type            fixedValue;
        value           uniform (0.212132 -0.212132 0);
    }
    outlet
    {
        type            zeroGradient;
    }
}


// ************************************************************************* //
