/*--------------------------------*- C++ -*----------------------------------*\
  =========                 |
  \\      /  F ield         | OpenFOAM: The Open Source CFD Toolbox
   \\    /   O peration     | Website:  https://openfoam.org
    \\  /    A nd           | Version:  6
     \\/     M anipulation  |
\*---------------------------------------------------------------------------*/
FoamFile
{
    version     2.0;
    format      ascii;
    class       volScalarField;
    location    "100";
    object      k;
}
// * * * * * * * * * * * * * * * * * * * * * * * * * * * * * * * * * * * * * //

dimensions      [0 2 -2 0 0 0 0];

internalField   nonuniform List<scalar> 
458
(
0.000949414
0.000991702
0.000858145
0.000922048
0.000988253
0.00105031
0.00110839
0.00116396
0.00121923
0.00127762
0.00132875
0.0013671
0.0013913
0.00140439
0.00140489
0.000492212
0.000768509
0.000772393
0.000666783
0.000553794
0.000453342
0.000373206
0.000311017
0.000264269
0.000229629
0.000204189
0.000185346
0.000171325
0.00016104
0.00017832
0.000271954
0.00029056
0.000223426
0.0027541
0.00539345
0.00138324
0.00132441
0.00138578
0.00146533
0.00155251
0.00164857
0.00175347
0.0018632
0.00196901
0.00204866
0.00206876
0.00197885
0.0017559
0.0015714
0.00139998
0.000869106
0.000721759
0.00156866
0.00134562
0.00107808
0.000873779
0.000557361
0.00044947
0.000373475
0.000321357
0.000285343
0.00025945
0.000237714
0.000219053
0.00023639
0.000408766
0.000818163
0.00102753
0.00047062
0.00510469
0.0125332
0.00212561
0.00168832
0.00170756
0.00178533
0.00187781
0.00198347
0.00210101
0.00222544
0.00234683
0.00243755
0.00247156
0.00242556
0.00229985
0.00212967
0.0018707
0.00153278
0.00150713
0.00219517
0.00143984
0.00109407
0.000878708
0.00034121
0.000233867
0.000205873
0.000180644
0.000156993
0.000139804
0.000126536
0.000119646
0.000199598
0.00109157
0.00175117
0.00171147
0.000600947
0.00803229
0.0229496
0.00336671
0.00200226
0.00196229
0.00205356
0.00216693
0.00229487
0.0024349
0.00258279
0.00273231
0.00284746
0.00290718
0.00289627
0.00279918
0.00260426
0.00231051
0.00195128
0.00167111
0.00162101
0.00129571
0.00106597
0.00100108
0.000998186
0.00104486
0.00109978
0.00118711
0.00130824
0.00148506
0.00161116
0.00169265
0.00173011
0.00168807
0.00158721
0.00171635
0.00232773
0.00167009
0.0113934
0.0357323
0.00561698
0.00229151
0.00214264
0.00226208
0.00242512
0.00261191
0.0028164
0.0030308
0.0032424
0.00341025
0.00352649
0.00359263
0.00359637
0.00351668
0.00333823
0.00303635
0.00252505
0.00180668
0.00140939
0.00125603
0.00124718
0.0013027
0.00138769
0.00150836
0.00169629
0.0019597
0.00232322
0.0026876
0.00290564
0.00303844
0.00300261
0.00275922
0.00240751
0.00227934
0.00209148
0.00185611
0.00169332
0.00148158
0.0151032
0.0476582
0.00983217
0.00279484
0.0023245
0.00244863
0.00267305
0.0029366
0.00322152
0.00351808
0.00377953
0.00395194
0.00406208
0.00414228
0.0041968
0.00419858
0.0040812
0.0037379
0.00313325
0.00242284
0.00185564
0.00153961
0.00140008
0.00134257
0.00133693
0.00139925
0.00155011
0.00180444
0.00218951
0.00269079
0.00312576
0.00349428
0.00371687
0.00370966
0.00327968
0.00282212
0.00247662
0.0023336
0.00333311
0.00206052
0.0192177
0.0546957
0.0185198
0.00527626
0.00309345
0.00293956
0.00319506
0.00354085
0.00390081
0.00426348
0.00445029
0.0044926
0.00447272
0.0044475
0.00443722
0.00442956
0.00435892
0.00410173
0.00359258
0.00294021
0.00234132
0.0019211
0.00166187
0.00149411
0.00139069
0.00136822
0.00144023
0.00164475
0.00205648
0.00265739
0.003261
0.00385539
0.00435856
0.00478385
0.00487911
0.00441066
0.00404834
0.00384408
0.00535588
0.00296677
0.0204664
0.0651548
0.0360778
0.0192438
0.00983156
0.0061565
0.00542106
0.00545229
0.00561802
0.00560046
0.0053462
0.0050606
0.00480504
0.00459537
0.00443329
0.00431363
0.00420461
0.0040171
0.00365289
0.00315611
0.00265063
0.00223805
0.0019462
0.00174566
0.00161096
0.0015358
0.00149769
0.00157632
0.00199224
0.00276391
0.00356919
0.00428956
0.0050091
0.00589028
0.00713174
0.00845818
0.00933317
0.00954601
0.0151359
0.00443834
0.0195299
0.0287933
0.0262542
0.0218602
0.0168285
0.0126117
0.00974248
0.00799244
0.00696952
0.00624339
0.00567663
0.00521775
0.00483542
0.00451067
0.00423226
0.00399275
0.0037797
0.00356176
0.00329663
0.00297438
0.00263163
0.00231972
0.00207684
0.00192105
0.00185387
0.00184483
0.00172814
0.00154652
0.00186349
0.00280831
0.00386157
0.00461515
0.00518554
0.00570744
0.00620141
0.00666614
0.00708222
0.00729513
0.00746889
0.00427767
0.0115921
0.014858
0.0141146
0.0119694
0.00990279
0.00829277
0.00710386
0.00621085
0.00552639
0.00498368
0.00453712
0.00415619
0.00382136
0.00352123
0.00324917
0.0029985
0.00276008
0.00252797
0.00230687
0.00211215
0.00196714
0.00190435
0.00196134
0.00212512
0.00211709
0.00153812
0.00153463
0.00248227
0.00375985
0.00459451
0.00508435
0.00548221
0.00581871
0.00598533
0.00582294
0.00534849
0.00466619
0.00289788
0.00979422
0.0150893
0.0138505
0.0117706
0.00987815
0.00833763
0.00712519
0.00616626
0.0053857
0.00473039
0.00417623
0.00370202
0.003291
0.0029313
0.00261578
0.00234088
0.00210503
0.00190745
0.00174827
0.00162982
0.00155937
0.00155302
0.00162776
0.00173804
0.00167277
0.00127771
0.00105876
0.00181235
0.00282273
0.0034722
0.00413084
0.00487461
0.00573653
0.00642758
0.00665313
0.00651131
0.00453833
0.00297647
0.00792542
0.00859942
0.00925289
0.0105079
0.00923409
0.00774545
0.00671864
0.00589639
0.00521728
0.00464248
0.00415417
0.00373912
0.00337257
0.00304087
0.00273658
0.00245606
0.00219807
0.00196282
0.00175111
0.00156364
0.00140059
0.00126156
0.00114606
0.00105445
0.000988312
0.000945164
0.000905352
0.00084862
0.000809058
0.00106131
0.00145332
0.00168161
0.00196482
0.00240943
0.00294048
0.00358817
0.00393467
0.00377222
0.00316468
0.00265174
)
;

boundaryField
{
    floor
    {
        type            kqRWallFunction;
        value           nonuniform List<scalar> 
36
(
0.00140489
0.000492212
0.000768509
0.000772393
0.000666783
0.000553794
0.000453342
0.000373206
0.000311017
0.000264269
0.000229629
0.000204189
0.000185346
0.000171325
0.00016104
0.00017832
0.000271954
0.00029056
0.000223426
0.000223426
0.00047062
0.000600947
0.00167009
0.00185611
0.00169332
0.00148158
0.00140489
0.0015714
0.00139998
0.000869106
0.000492212
0.000869106
0.000721759
0.00153278
0.00150713
0.00167111
)
;
    }
    ceiling
    {
        type            kqRWallFunction;
        value           nonuniform List<scalar> 
43
(
0.00792542
0.00859942
0.00925289
0.0105079
0.00923409
0.00774545
0.00671864
0.00589639
0.00521728
0.00464248
0.00415417
0.00373912
0.00337257
0.00304087
0.00273658
0.00245606
0.00219807
0.00196282
0.00175111
0.00156364
0.00140059
0.00126156
0.00114606
0.00105445
0.000988312
0.000945164
0.000905352
0.00084862
0.000809058
0.00106131
0.00145332
0.00168161
0.00196482
0.00240943
0.00294048
0.00358817
0.00393467
0.00377222
0.00316468
0.00265174
0.0195299
0.0287933
0.00979422
)
;
    }
    sWall
    {
        type            kqRWallFunction;
        value           uniform 0.00792542;
    }
    nWall
    {
        type            kqRWallFunction;
        value           nonuniform List<scalar> 6(0.00148158 0.00206052 0.00296677 0.00289788 0.00297647 0.00265174);
    }
    sideWalls
    {
        type            empty;
    }
    glass1
    {
        type            kqRWallFunction;
        value           nonuniform List<scalar> 9(0.000949414 0.0027541 0.00510469 0.00803229 0.0113934 0.0151032 0.0192177 0.0204664 0.0195299);
    }
    glass2
    {
        type            kqRWallFunction;
        value           nonuniform List<scalar> 2(0.00443834 0.00427767);
    }
    sun
    {
        type            kqRWallFunction;
        value           nonuniform List<scalar> 
14
(
0.000949414
0.000991702
0.000858145
0.000922048
0.000988253
0.00105031
0.00110839
0.00116396
0.00121923
0.00127762
0.00132875
0.0013671
0.0013913
0.00140439
)
;
    }
    Table_master
    {
        type            kqRWallFunction;
        value           nonuniform List<scalar> 9(0.00034121 0.000233867 0.000205873 0.000180644 0.000156993 0.000139804 0.000126536 0.000119646 0.000199598);
    }
    Table_slave
    {
        type            kqRWallFunction;
        value           nonuniform List<scalar> 9(0.00104486 0.00109978 0.00118711 0.00130824 0.00148506 0.00161116 0.00169265 0.00173011 0.00168807);
    }
    inlet
    {
        type            turbulentIntensityKineticEnergyInlet;
        intensity       0.05;
        value           uniform 0.000337501;
    }
    outlet
    {
        type            zeroGradient;
    }
}


// ************************************************************************* //
