/*--------------------------------*- C++ -*----------------------------------*\
  =========                 |
  \\      /  F ield         | OpenFOAM: The Open Source CFD Toolbox
   \\    /   O peration     | Website:  https://openfoam.org
    \\  /    A nd           | Version:  6
     \\/     M anipulation  |
\*---------------------------------------------------------------------------*/
FoamFile
{
    version     2.0;
    format      ascii;
    class       surfaceScalarField;
    location    "300";
    object      phi;
}
// * * * * * * * * * * * * * * * * * * * * * * * * * * * * * * * * * * * * * //

dimensions      [1 0 -1 0 0 0 0];

internalField   nonuniform List<scalar> 
850
(
-0.00380955
0.00386528
-0.00525971
0.00145007
-0.00499484
-0.000264955
-0.00340499
-0.00158994
-0.00140232
-0.00200275
0.000456148
-0.00185854
0.00184958
-0.00139352
0.00274635
-0.000896846
0.00324176
-0.000495501
0.00343112
-0.000189441
0.00338252
4.85244e-05
0.00313159
0.000250845
0.00266382
0.000467691
0.00183376
0.000829979
0.00183634
-0.00100388
0.0010073
-0.00120297
0.000198974
-0.000630902
-0.000572183
0.000221463
-0.000852478
0.00101856
-0.000797206
0.00149082
-0.000472374
0.00170224
-0.000211541
0.00182004
-0.000117916
0.00190257
-8.26429e-05
0.00195994
-5.7493e-05
0.00199768
-3.78574e-05
0.00201662
-1.90635e-05
0.00200636
1.01423e-05
0.00194081
6.54211e-05
0.00177766
0.000163028
0.00148302
0.00029452
0.00101357
0.000469329
0.0010175
-0.00247495
0.0064958
-0.00334141
0.00231644
-0.00240732
-0.00119914
-0.000735409
-0.00326193
0.00087524
-0.00361348
0.00212971
-0.0031131
0.00304925
-0.00231314
0.00365126
-0.00149894
0.0039579
-0.000802225
0.00402292
-0.000254552
0.00390017
0.000171193
0.00363589
0.000515043
0.00327647
0.000827022
0.0029551
0.00115126
0.00333985
0.00145151
0.00224977
0.00109474
0.00126208
0.000992719
0.00127623
-0.000439965
0.00145791
-3.15027e-05
-0.000209604
0.000633342
-0.00123714
0.00112702
-0.00134626
0.00152895
-0.00119924
0.00163335
-0.000576887
0.0016515
-0.000229807
0.00167169
-0.000138225
0.00168914
-0.000100204
0.00170083
-6.93046e-05
0.00170879
-4.5941e-05
0.00171324
-2.3632e-05
0.00170792
1.53333e-05
0.00166162
0.0001116
0.00149064
0.000333881
0.00118419
0.000600839
0.000758673
0.000894719
0.00178727
-0.00187175
0.00861185
-0.00108474
0.00152934
0.000742122
-0.00302609
0.00229445
-0.00481433
0.00335141
-0.00467051
0.00408718
-0.00384895
0.0045625
-0.00278855
0.00479896
-0.00173548
0.00483011
-0.000833468
0.00469654
-0.000121066
0.00443745
0.000430196
0.0040947
0.000857706
0.0037281
0.00119354
0.00341208
0.00146719
0.00317241
0.00169108
0.00255017
0.00171689
0.00165069
0.0018921
0.00294
0.00125816
0.000217211
0.00175035
-0.000701902
0.00176188
-0.00124878
0.00190163
-0.00148611
0.00228277
-0.0015805
0.00170593
0.00147617
0.00133798
0.00123781
0.00116854
0.00112263
0.00109902
0.00111438
0.001226
0.00107845
0.000481304
0.000856643
0.000822514
0.000531975
0.00121926
0.00233661
-0.000827772
0.00977268
0.00170418
-0.00100275
0.00445621
-0.0057782
0.00556294
-0.00592112
0.00596502
-0.00507267
0.00607018
-0.00395418
0.00600339
-0.00272184
0.00581453
-0.00154672
0.00553469
-0.000553727
0.00515942
0.00025411
0.0047074
0.000882113
0.00422975
0.00133526
0.00377932
0.00164387
0.00339401
0.00185241
0.00308881
0.00199619
0.00277107
0.00203454
0.00255825
0.00210482
0.00342729
0.00207086
0.00251175
0.000930573
0.00262451
0.000104342
0.00258222
-0.000659721
0.00244777
-0.00111443
0.0022304
-0.00126884
0.00176734
-0.00111753
0.00226958
-0.000502504
0.00248092
-0.000211591
0.00258253
-0.000101876
0.00261851
-3.62425e-05
0.00259285
2.53904e-05
0.00250151
9.10675e-05
0.0023317
0.000169549
0.00205154
0.000279885
0.00159706
0.000454199
0.00129315
0.000785097
0.00091627
0.00119926
0.000473905
0.00166149
0.00283292
0.00655427
0.00363574
0.00945121
-0.00389975
0.00929354
-0.00562056
0.00863336
-0.005261
0.00791087
-0.00435024
0.0071802
-0.0032236
0.00648346
-0.0020252
0.00586455
-0.000927908
0.00524507
6.56413e-05
0.00460597
0.000893103
0.00401486
0.00147311
0.00351235
0.00183766
0.00311298
0.00204313
0.0028244
0.00214089
0.00265699
0.0021635
0.00259598
0.00209544
0.00270959
0.0019911
0.00302452
0.00175583
0.00297229
0.000982702
0.00298128
9.52534e-05
0.00282992
-0.000508459
0.00255789
-0.000842496
0.00222626
-0.000937312
0.00191963
-0.000810995
0.00190169
-0.00048467
0.00191111
-0.000221114
0.00188886
-7.97351e-05
0.00184713
5.37446e-06
0.001795
7.73991e-05
0.00173165
0.000154309
0.00164611
0.000254968
0.0015255
0.000400369
0.00136691
0.00061267
0.00122069
0.000931189
0.00106849
0.00135134
0.000809638
0.00192022
0.00120586
0.00243657
-0.000983869
0.00220945
-0.00169687
0.000730283
-0.00162896
0.0101983
-0.00606662
0.0117773
-0.0054788
0.0102305
-0.00407379
0.00832028
-0.00335083
0.00675147
-0.00278154
0.00545
-0.00192225
0.00440321
-0.000978539
0.00349632
-2.11516e-05
0.00277713
0.000784695
0.00232145
0.00134865
0.0020365
0.00175793
0.00185147
0.00202257
0.00173889
0.00215559
0.00169805
0.00218162
0.00173486
0.00212658
0.00184164
0.00198855
0.00203733
0.00179532
0.00233082
0.00146224
0.00250878
0.000804642
0.00245647
0.000147476
0.00224962
-0.000301703
0.00194876
-0.000541725
0.00161422
-0.000602871
0.00131799
-0.000514869
0.00115252
-0.000319308
0.00107374
-0.00014244
0.00102902
-3.51245e-05
0.00100598
2.83009e-05
0.00100318
8.00708e-05
0.00101397
0.000143399
0.0010328
0.000236017
0.00105723
0.000375818
0.00108978
0.000579994
0.0011564
0.000864442
0.00130045
0.00120716
0.00155768
0.00166286
0.00201628
0.00197784
0.0023124
0.0019132
0.00180176
0.00124079
0.00023521
0.00479285
-0.0102559
0.00464024
-0.00532625
0.00374598
-0.00317962
0.00223605
-0.00184106
0.0010737
-0.00161939
0.000257309
-0.00110605
-0.000227641
-0.000493742
-0.00039951
0.000150581
-0.000352943
0.000737993
-0.000263488
0.00125906
-0.000150747
0.00164506
-1.37316e-05
0.00188543
0.000146134
0.00199561
0.000330781
0.00199686
0.000544468
0.00191279
0.000783398
0.00174952
0.00105748
0.00152113
0.00134864
0.00117098
0.00148858
0.000664617
0.00142341
0.000212554
0.0012202
-9.85837e-05
0.000940953
-0.00026258
0.000641154
-0.000303176
0.000380041
-0.000253867
0.00021441
-0.00015379
0.000139375
-6.75216e-05
0.000123671
-1.95383e-05
0.00014786
3.99149e-06
0.000202998
2.48109e-05
0.000285189
6.10846e-05
0.000394657
0.000126423
0.000535211
0.000235138
0.000712577
0.000402501
0.000942008
0.000634884
0.00124881
0.000900231
0.00168512
0.00122641
0.00229648
0.00136636
0.0030669
0.00114265
0.00322231
0.00108526
0.00352343
-0.00271301
-0.00682357
-0.00388395
-0.00415543
-0.00270474
-0.00435898
-0.00279904
-0.00174691
-0.00291116
-0.00150741
-0.00296539
-0.00105195
-0.00293287
-0.000526385
-0.0028045
2.20815e-05
-0.00261347
0.00054684
-0.00235623
0.0010017
-0.00205757
0.00134628
-0.00173761
0.00156536
-0.00140784
0.00166573
-0.00107539
0.00166431
-0.000743277
0.00158058
-0.000419218
0.00142537
-0.000108958
0.00121078
0.000139517
0.00092242
0.000223949
0.000580093
0.000150827
0.000285578
-2.64796e-05
7.86192e-05
-0.000252498
-3.66721e-05
-0.000477852
-7.79371e-05
-0.000658769
-7.3068e-05
-0.000766423
-4.62559e-05
-0.000807623
-2.64439e-05
-0.000803124
-2.41605e-05
-0.00076575
-3.35056e-05
-0.000698201
-4.28628e-05
-0.000598525
-3.87178e-05
-0.000467036
-5.19301e-06
-0.000299012
6.69858e-05
-7.86518e-05
0.000182011
0.000203898
0.000352204
0.000538114
0.000565885
0.000962773
0.000801624
0.00147144
0.000857567
0.00191749
0.000696463
0.00125019
0.00175243
0.0050456
-0.0059175
-0.0100482
-0.00649205
-0.00791525
-0.00489122
-0.00334787
-0.00464713
-0.00175163
-0.00463123
-0.00106797
-0.00460241
-0.000555321
-0.00448816
-9.22912e-05
-0.00427777
0.000336329
-0.0039815
0.00070532
-0.00362154
0.000986212
-0.00322478
0.00116849
-0.0028147
0.00125555
-0.0024102
0.00125971
-0.0020263
0.00119658
-0.00168063
0.00107961
-0.00139205
0.000922108
-0.0011991
0.00072938
-0.00113899
0.000519883
-0.00118881
0.000335289
-0.0013045
0.000194188
-0.00144231
0.000101017
-0.00157101
5.06398e-05
-0.00167285
2.86502e-05
-0.00173887
1.96313e-05
-0.00177773
1.22947e-05
-0.00180719
5.16377e-06
-0.00184478
3.96158e-06
-0.00190521
1.74317e-05
-0.00199994
5.58901e-05
-0.002137
0.00013173
-0.00233281
0.000262669
-0.00262304
0.000472114
-0.00305708
0.000786113
-0.00371166
0.00122034
-0.0046652
0.00175504
-0.00606027
0.00225251
-0.00775769
0.00239376
-0.00740762
0.00140224
-0.00206555
-0.00341075
-0.000161658
-0.00485116
-0.0019076
-0.00530395
-0.00129895
-0.00556182
-0.000810225
-0.00568151
-0.000435745
-0.00566172
-0.000112203
-0.00550709
0.000181587
-0.00523769
0.000435811
-0.00488413
0.000632536
-0.00447956
0.000763823
-0.0040552
0.000831083
-0.00363818
0.000842587
-0.00325148
0.000809791
-0.00291608
0.000744104
-0.00264967
0.000655603
-0.00247046
0.000550063
-0.00238652
0.000435828
-0.00237919
0.000327846
-0.00242091
0.000235779
-0.00248519
0.000165174
-0.00255183
0.00011715
-0.00261101
8.77089e-05
-0.00266196
7.04457e-05
-0.00271004
6.02404e-05
-0.00276105
5.60466e-05
-0.00281795
6.07282e-05
-0.00288099
8.03464e-05
-0.00294932
0.000124083
-0.00302252
0.0002048
-0.00310045
0.000340472
-0.00318391
0.000555448
-0.00327463
0.0008767
-0.00336787
0.00131346
-0.00343176
0.00181881
-0.0034256
0.00224622
-0.00319434
0.00216238
-0.0018268
3.45751e-05
-0.0038164
-0.00297834
0.00282625
-0.00490185
1.57949e-05
-0.00583713
-0.000363791
-0.00631244
-0.000335033
-0.00653724
-0.000211062
-0.00658381
-6.57567e-05
-0.00647955
7.72099e-05
-0.00624911
0.000205259
-0.00592386
0.00030718
-0.00553804
0.00037789
-0.00512484
0.00041777
-0.00471346
0.000431096
-0.00432775
0.000423976
-0.00398625
0.000402494
-0.00370203
0.000371271
-0.00348436
0.000332279
-0.00333611
0.000287453
-0.00324912
0.000240739
-0.00320903
0.000195555
-0.00319886
0.000154872
-0.00320255
0.000120715
-0.00320859
9.36132e-05
-0.00321112
7.28441e-05
-0.0032085
5.74904e-05
-0.00320042
4.78277e-05
-0.00318574
4.59229e-05
-0.00316121
5.56809e-05
-0.00312006
8.27959e-05
-0.00305024
0.000134849
-0.00293182
0.000221922
-0.00273551
0.000359014
-0.00242816
0.000569222
-0.00198395
0.000869114
-0.00137464
0.00120937
-0.00041123
0.00128268
0.00105355
0.000697472
0.00166455
-0.000576551
-0.00206833
-0.0066426
-0.00940348
-0.00657058
-0.00655094
-0.00691111
-0.00724269
-0.00745048
-0.00751317
-0.00743313
-0.00722535
-0.00691609
-0.00653668
-0.00611806
-0.00568688
-0.00526366
-0.0048628
-0.00449406
-0.00416518
-0.00388192
-0.00364605
-0.00345588
-0.00330671
-0.00319182
-0.003104
-0.00303677
-0.00298465
-0.00294188
-0.00290067
-0.00284934
-0.00277051
-0.00263927
-0.00242061
-0.00206455
-0.001498
-0.000631346
0.000575676
0.00185585
0.00255043
0.00197046
)
;

boundaryField
{
    floor
    {
        type            calculated;
        value           nonuniform List<scalar> 
36
(
0
0
0
0
0
0
0
0
0
0
0
0
0
0
0
0
0
0
0
-4.05318e-06
-1.12269e-05
-1.74961e-05
-2.25293e-05
-1.98408e-05
-1.74069e-05
-1.64284e-05
-2.66946e-06
-4.74986e-06
-5.11822e-06
-5.66894e-06
-3.53908e-06
-8.58022e-06
-1.07643e-05
-1.31691e-05
-1.7582e-05
-1.51324e-05
)
;
    }
    ceiling
    {
        type            calculated;
        value           nonuniform List<scalar> 
43
(
-5.56383e-06
-6.77861e-06
-6.78012e-06
-3.96781e-06
-3.74602e-06
-3.57897e-06
-3.3943e-06
-3.18641e-06
-2.95307e-06
-2.63995e-06
-2.20159e-06
-1.64143e-06
-9.69759e-07
-2.03286e-07
6.34958e-07
1.51631e-06
2.40766e-06
3.27209e-06
4.06627e-06
4.74152e-06
5.25331e-06
5.57193e-06
5.69607e-06
5.6541e-06
5.4878e-06
5.23535e-06
4.92537e-06
4.579e-06
4.21291e-06
3.84127e-06
3.47673e-06
3.13099e-06
2.81553e-06
2.54341e-06
2.33444e-06
2.22257e-06
2.38384e-06
2.75733e-06
3.28938e-06
4.73337e-06
-1.7783e-05
-2.48377e-05
-9.68639e-06
)
;
    }
    sWall
    {
        type            calculated;
        value           uniform -0.000277637;
    }
    nWall
    {
        type            calculated;
        value           nonuniform List<scalar> 6(-5.16162e-05 -6.25386e-05 -6.60455e-05 -7.60878e-05 -8.36438e-05 -0.000102735);
    }
    sideWalls
    {
        type            empty;
        value           nonuniform 0();
    }
    glass1
    {
        type            calculated;
        value           nonuniform List<scalar> 9(-5.58186e-05 -0.000155652 -0.000244387 -0.000333166 -0.000417426 -0.00049587 -0.000603643 -0.000719445 -0.000888391);
    }
    glass2
    {
        type            calculated;
        value           nonuniform List<scalar> 2(-0.000272102 -0.00029658);
    }
    sun
    {
        type            calculated;
        value           uniform 0;
    }
    Table_master
    {
        type            calculated;
        value           nonuniform List<scalar> 9(-1.53608e-07 -1.53826e-07 -1.5389e-07 -1.53918e-07 -1.53929e-07 -1.53927e-07 -1.53913e-07 -1.53886e-07 -1.5382e-07);
    }
    Table_slave
    {
        type            calculated;
        value           nonuniform List<scalar> 9(1.53461e-07 1.53407e-07 1.53345e-07 1.53308e-07 1.53285e-07 1.53275e-07 1.5329e-07 1.53335e-07 1.53419e-07);
    }
    inlet
    {
        type            calculated;
        value           uniform -0.00434291;
    }
    outlet
    {
        type            calculated;
        value           nonuniform List<scalar> 2(0.00692567 0.00276754);
    }
}


// ************************************************************************* //
