/*--------------------------------*- C++ -*----------------------------------*\
  =========                 |
  \\      /  F ield         | OpenFOAM: The Open Source CFD Toolbox
   \\    /   O peration     | Website:  https://openfoam.org
    \\  /    A nd           | Version:  6
     \\/     M anipulation  |
\*---------------------------------------------------------------------------*/
FoamFile
{
    version     2.0;
    format      ascii;
    class       volScalarField;
    location    "2100";
    object      k;
}
// * * * * * * * * * * * * * * * * * * * * * * * * * * * * * * * * * * * * * //

dimensions      [0 2 -2 0 0 0 0];

internalField   nonuniform List<scalar> 
458
(
0.00261688
0.00317218
0.00334264
0.00369492
0.00404406
0.00439791
0.00478094
0.00508971
0.00527046
0.00528502
0.00511491
0.00475655
0.00420905
0.0034147
0.00213084
0.000503969
0.000728531
0.000990747
0.00110179
0.00106861
0.000927793
0.000785158
0.000668486
0.0005757
0.0005013
0.000440961
0.000391241
0.000349916
0.000314393
0.00028235
0.000251258
0.000222411
0.000178385
0.00466897
0.00870939
0.00539804
0.0058083
0.00643232
0.00716228
0.00794033
0.00868687
0.0092484
0.00950502
0.00940552
0.00895085
0.008195
0.00714408
0.00592984
0.00373653
0.00250787
0.00153776
0.00050131
0.00123015
0.00169621
0.00191443
0.00192236
0.00161394
0.00129154
0.00103631
0.00084448
0.000699607
0.000588689
0.000502332
0.000431682
0.000372067
0.000327726
0.000299545
0.000388048
0.000247305
0.00679849
0.0154222
0.00664911
0.00654951
0.00715942
0.00801059
0.00898557
0.00988282
0.0105178
0.0108154
0.0107598
0.0103398
0.0096008
0.00859207
0.00746547
0.00621839
0.00500214
0.0026819
0.00144297
0.00190506
0.00223742
0.00240678
0.00236507
0.00179299
0.00133211
0.00100695
0.000779827
0.000619257
0.000503681
0.000418947
0.000357088
0.000313603
0.000286665
0.000280533
0.000507824
0.000304198
0.00919427
0.0245464
0.0083461
0.00691261
0.00742001
0.00845402
0.00970271
0.0106689
0.011253
0.0115105
0.0114616
0.0110392
0.0103071
0.00935352
0.00830807
0.00729523
0.00627714
0.00473974
0.00376461
0.00331725
0.00324964
0.0032648
0.00320922
0.00299942
0.00232352
0.00188448
0.00159231
0.00137979
0.0012101
0.00107133
0.000947981
0.000830247
0.000709014
0.000518065
0.000393386
0.000655685
0.000373205
0.0120172
0.0365524
0.0122974
0.00787029
0.00814277
0.00966267
0.0110956
0.0118791
0.0122524
0.0123852
0.0122641
0.011799
0.0109749
0.00987426
0.00867487
0.00755817
0.00658859
0.00575148
0.00536427
0.00498444
0.00468662
0.00440524
0.00406993
0.00365326
0.00318156
0.00280259
0.00252226
0.00229047
0.00207357
0.00184626
0.00160548
0.00135346
0.00109696
0.000825633
0.000598817
0.000638716
0.000579238
0.000621754
0.000805918
0.000979226
0.0154402
0.0493249
0.0215616
0.0118465
0.0114365
0.0132167
0.0137746
0.0138323
0.0137958
0.0137331
0.0134985
0.0129027
0.0118653
0.0104775
0.00897461
0.00761985
0.00660311
0.00601627
0.00581753
0.00567755
0.00543352
0.00504911
0.00455433
0.00400517
0.00350156
0.00313504
0.00286894
0.00264167
0.00241866
0.0021768
0.00191237
0.00163242
0.00134813
0.00106965
0.000836749
0.000718874
0.000677613
0.000680965
0.00123262
0.00103861
0.0187688
0.0571354
0.0359389
0.0238153
0.0211823
0.0191815
0.0175583
0.0164948
0.0159469
0.0156613
0.0152622
0.0144294
0.0130482
0.0112477
0.00936106
0.00776058
0.00670248
0.00624491
0.00614658
0.00601826
0.00569575
0.00519656
0.00460344
0.0040089
0.00351443
0.00317331
0.00293699
0.00274481
0.00256555
0.00238412
0.00218042
0.00195047
0.00170462
0.00145452
0.00124969
0.00111792
0.00109337
0.0012004
0.001612
0.00140518
0.01934
0.0534625
0.0399283
0.0324116
0.026986
0.0228934
0.0202984
0.0189889
0.018511
0.018272
0.0176803
0.0163903
0.0143914
0.011942
0.00956191
0.00775603
0.00670211
0.00628709
0.00612481
0.00587198
0.00542438
0.00485073
0.00425007
0.00371009
0.00329424
0.00301142
0.00282023
0.00268388
0.00258917
0.00253704
0.00252821
0.00252416
0.00249051
0.00246171
0.00251399
0.00282483
0.00353682
0.00458224
0.00882601
0.00340578
0.0182615
0.0250855
0.0235128
0.0210849
0.0197379
0.019646
0.0203803
0.0214601
0.0222909
0.0222265
0.0208293
0.0182526
0.0149839
0.0114728
0.00866598
0.00709673
0.00628865
0.00588574
0.00559103
0.00522554
0.00475908
0.00423672
0.0037301
0.00329551
0.00295981
0.00271623
0.00254056
0.00241708
0.00234367
0.00232399
0.00235976
0.00245844
0.0026255
0.00288336
0.00325144
0.00372625
0.00422113
0.00460093
0.00481782
0.00319234
0.00550704
0.0175895
0.0254549
0.0293004
0.0310046
0.0308231
0.0286116
0.0246815
0.0194064
0.0147633
0.011145
0.00858575
0.00695778
0.00603185
0.00550304
0.00514572
0.00480931
0.00443261
0.00402907
0.00363657
0.00328214
0.00297682
0.00271596
0.00248808
0.00228756
0.00212296
0.00201084
0.00196582
0.00199951
0.00211529
0.00231421
0.0025974
0.00295509
0.00333999
0.00364282
0.0037401
0.00361456
0.00245979
0.00787477
0.028082
0.0300439
0.0282768
0.0261625
0.0233104
0.0198453
0.0161352
0.0125712
0.00971655
0.00768796
0.00638356
0.0056076
0.00516978
0.00491771
0.00474966
0.00460378
0.0044536
0.00429768
0.00414126
0.00398333
0.00381639
0.00363101
0.00342163
0.0031924
0.00295729
0.00273824
0.00256123
0.0024495
0.00242092
0.00248896
0.00265784
0.00290948
0.00318893
0.00340386
0.00364901
0.00421222
0.00263168
0.00616864
0.00726766
0.00812195
0.0098376
0.009377
0.00903923
0.00854175
0.00769184
0.00662988
0.00551131
0.00447394
0.00364989
0.00307463
0.00269917
0.00245629
0.00229157
0.00216806
0.00206243
0.00196296
0.00186771
0.00177904
0.00169828
0.00162446
0.00155583
0.00149192
0.00143463
0.00138798
0.0013577
0.00134906
0.0013653
0.00140845
0.00148004
0.00158212
0.00171732
0.00188573
0.00208329
0.00220919
0.0021221
0.00190164
0.00172678
)
;

boundaryField
{
    floor
    {
        type            kqRWallFunction;
        value           nonuniform List<scalar> 
36
(
0.00213084
0.000503969
0.000728531
0.000990747
0.00110179
0.00106861
0.000927793
0.000785158
0.000668486
0.0005757
0.0005013
0.000440961
0.000391241
0.000349916
0.000314393
0.00028235
0.000251258
0.000222411
0.000178385
0.000178385
0.000247305
0.000304198
0.000373205
0.000621754
0.000805918
0.000979226
0.00213084
0.00373653
0.00250787
0.00153776
0.000503969
0.00153776
0.00050131
0.0026819
0.00144297
0.00376461
)
;
    }
    ceiling
    {
        type            kqRWallFunction;
        value           nonuniform List<scalar> 
43
(
0.00616864
0.00726766
0.00812195
0.0098376
0.009377
0.00903923
0.00854175
0.00769184
0.00662988
0.00551131
0.00447394
0.00364989
0.00307463
0.00269917
0.00245629
0.00229157
0.00216806
0.00206243
0.00196296
0.00186771
0.00177904
0.00169828
0.00162446
0.00155583
0.00149192
0.00143463
0.00138798
0.0013577
0.00134906
0.0013653
0.00140845
0.00148004
0.00158212
0.00171732
0.00188573
0.00208329
0.00220919
0.0021221
0.00190164
0.00172678
0.0182615
0.0250855
0.00787477
)
;
    }
    sWall
    {
        type            kqRWallFunction;
        value           uniform 0.00616864;
    }
    nWall
    {
        type            kqRWallFunction;
        value           nonuniform List<scalar> 6(0.000979226 0.00103861 0.00140518 0.00245979 0.00263168 0.00172678);
    }
    sideWalls
    {
        type            empty;
    }
    glass1
    {
        type            kqRWallFunction;
        value           nonuniform List<scalar> 9(0.00261688 0.00466897 0.00679849 0.00919427 0.0120172 0.0154402 0.0187688 0.01934 0.0182615);
    }
    glass2
    {
        type            kqRWallFunction;
        value           nonuniform List<scalar> 2(0.00340578 0.00319234);
    }
    sun
    {
        type            kqRWallFunction;
        value           nonuniform List<scalar> 
14
(
0.00261688
0.00317218
0.00334264
0.00369492
0.00404406
0.00439791
0.00478094
0.00508971
0.00527046
0.00528502
0.00511491
0.00475655
0.00420905
0.0034147
)
;
    }
    Table_master
    {
        type            kqRWallFunction;
        value           nonuniform List<scalar> 9(0.00179299 0.00133211 0.00100695 0.000779827 0.000619257 0.000503681 0.000418947 0.000357088 0.000313603);
    }
    Table_slave
    {
        type            kqRWallFunction;
        value           nonuniform List<scalar> 9(0.00232352 0.00188448 0.00159231 0.00137979 0.0012101 0.00107133 0.000947981 0.000830247 0.000709014);
    }
    inlet
    {
        type            turbulentIntensityKineticEnergyInlet;
        intensity       0.05;
        value           uniform 0.0003375;
    }
    outlet
    {
        type            zeroGradient;
    }
}


// ************************************************************************* //
