/*--------------------------------*- C++ -*----------------------------------*\
  =========                 |
  \\      /  F ield         | OpenFOAM: The Open Source CFD Toolbox
   \\    /   O peration     | Website:  https://openfoam.org
    \\  /    A nd           | Version:  6
     \\/     M anipulation  |
\*---------------------------------------------------------------------------*/
FoamFile
{
    version     2.0;
    format      ascii;
    class       volScalarField;
    location    "900";
    object      epsilon;
}
// * * * * * * * * * * * * * * * * * * * * * * * * * * * * * * * * * * * * * //

dimensions      [0 2 -3 0 0 0 0];

internalField   nonuniform List<scalar> 
458
(
0.000625975
0.000818783
0.000853111
0.000986018
0.00112471
0.00126784
0.00142088
0.00158922
0.00173094
0.00182392
0.00184369
0.00177045
0.00159955
0.00135048
0.00106338
7.64188e-05
0.000135184
0.000192177
0.000194053
0.000176711
0.000145733
0.00011723
9.48502e-05
7.77001e-05
6.44767e-05
5.41726e-05
4.60601e-05
3.9565e-05
3.42079e-05
2.96014e-05
2.54327e-05
2.35084e-05
1.85302e-05
0.00163752
0.00235103
0.000777337
0.000748042
0.000791305
0.000854402
0.000938854
0.00104952
0.0011611
0.0012492
0.00128732
0.00125524
0.00114876
0.000991833
0.000887726
0.00125004
0.000692968
0.000336737
9.10491e-05
0.000188726
0.000196271
0.000182633
0.000163429
0.000156189
0.000125274
9.7754e-05
7.64336e-05
6.03262e-05
4.81903e-05
3.90079e-05
3.20095e-05
2.67605e-05
2.34135e-05
2.21033e-05
6.39551e-05
4.24724e-05
0.0030213
0.00581617
0.0010286
0.000738455
0.000774591
0.000868288
0.000996798
0.00115699
0.00131469
0.00143465
0.0014887
0.00145796
0.00133926
0.00115036
0.000951287
0.000795368
0.000645083
0.000668305
0.00058129
0.000399204
0.00029721
0.000233829
0.000202905
0.000386013
0.000256039
0.00017625
0.000126167
9.3638e-05
7.17602e-05
5.66096e-05
4.59527e-05
3.86234e-05
2.95367e-05
2.6462e-05
0.000138045
6.96927e-05
0.00490969
0.011966
0.00174234
0.000810685
0.000809025
0.000943013
0.00114044
0.00138442
0.00159749
0.00173761
0.00179114
0.00174653
0.00160136
0.00136917
0.00110786
0.000887291
0.000737699
0.000865062
0.00147509
0.000844168
0.000505638
0.000346796
0.000262128
0.000228741
0.000538189
0.000400484
0.000321976
0.000270376
0.000230293
0.000195589
0.000165509
0.000137195
0.000108534
6.26301e-05
4.39837e-05
0.000264611
9.90206e-05
0.00748401
0.0209148
0.00360006
0.00114652
0.000983357
0.00114799
0.00146992
0.00183515
0.00208018
0.00219972
0.00221992
0.00213566
0.00193574
0.00163351
0.00128669
0.000969336
0.000731269
0.000615067
0.000584585
0.000484887
0.000388867
0.000311922
0.000253086
0.000212684
0.000206859
0.00019231
0.000178784
0.000165111
0.000149895
0.00013306
0.000116338
0.000100584
8.59631e-05
6.68445e-05
5.32452e-05
0.00015982
0.000265023
0.000224298
0.000241005
0.000301428
0.0109894
0.0304234
0.00813843
0.00266721
0.0019474
0.002031
0.00248734
0.00279828
0.00291173
0.00290691
0.00283454
0.00267834
0.00239552
0.00198207
0.00150105
0.00105541
0.000729347
0.000547219
0.000466764
0.000413052
0.000356475
0.000298513
0.000247392
0.000208995
0.000188937
0.000180499
0.0001759
0.000170014
0.000160481
0.000145873
0.000126037
0.000106281
8.88096e-05
7.29849e-05
6.46838e-05
0.000105155
0.000190225
0.000216669
0.000349208
0.000344576
0.0146548
0.0355403
0.0158913
0.00838723
0.00628502
0.00555575
0.00512937
0.00469542
0.00429853
0.0039827
0.00372669
0.00343573
0.00300925
0.00242301
0.0017569
0.00115562
0.000740047
0.000523118
0.000433367
0.000383996
0.000334754
0.000283456
0.00023891
0.000208889
0.000195468
0.00019367
0.000196545
0.000200021
0.000202018
0.000199894
0.000187205
0.000164778
0.000144025
0.000127091
0.000122074
0.000148411
0.000223978
0.000348837
0.000661565
0.000649796
0.0150881
0.0343967
0.0208191
0.0160667
0.0133982
0.0110017
0.0088616
0.00721758
0.00610813
0.00542534
0.00496045
0.00447061
0.00379423
0.00292287
0.00198915
0.00119925
0.000714907
0.000490038
0.000406903
0.000358229
0.000312417
0.000270859
0.00023995
0.000222462
0.000217377
0.000221261
0.000231125
0.000246619
0.000269104
0.000299759
0.000337303
0.000368416
0.000391563
0.000444097
0.000550903
0.000854833
0.0015778
0.00288536
0.00899214
0.00209204
0.0136595
0.021162
0.0161812
0.0123495
0.00975576
0.00817146
0.00735468
0.00706312
0.00703828
0.00700523
0.00667587
0.00586842
0.00465067
0.00325788
0.00196347
0.00102345
0.000634065
0.000476244
0.000406632
0.000362404
0.000326521
0.000299009
0.000281174
0.000271936
0.00026916
0.000271268
0.000278601
0.000294281
0.000324005
0.000375069
0.000455305
0.000572188
0.000734026
0.000966704
0.00129808
0.00172244
0.00217861
0.0025614
0.00286015
0.00158306
0.0018313
0.00327063
0.00620103
0.010109
0.0131876
0.0143172
0.0133436
0.0109484
0.00811883
0.00541232
0.00347932
0.00218134
0.00135641
0.000896251
0.000689537
0.000598231
0.000550466
0.000519795
0.000498045
0.000483062
0.000472817
0.000464655
0.000456177
0.000445848
0.000433718
0.000422647
0.000419363
0.00043474
0.000482937
0.000571468
0.000710901
0.000909586
0.00116363
0.00142854
0.00160605
0.00157931
0.00127768
0.000880118
0.0210756
0.0216326
0.0153919
0.0130618
0.0116195
0.0100233
0.00808217
0.006086
0.0043311
0.00296235
0.00205115
0.00149915
0.00120224
0.00107247
0.00103693
0.00103739
0.00103772
0.00101956
0.000994846
0.000972394
0.000952251
0.000932063
0.000909051
0.000881028
0.000847517
0.000810672
0.000775811
0.00075122
0.000751001
0.00079212
0.00088509
0.00103602
0.00124187
0.00149197
0.00171362
0.00184745
0.00114448
0.000931322
0.0076829
0.0093054
0.0108816
0.00982009
0.0090227
0.00854336
0.00782241
0.00674394
0.00544558
0.00417527
0.00309841
0.00227221
0.00169263
0.00131004
0.0010658
0.00091014
0.000806464
0.000730203
0.000671281
0.000632461
0.000605149
0.000585191
0.000570104
0.000557759
0.000547067
0.000538159
0.000532463
0.000532758
0.000543391
0.000571067
0.000617072
0.000684286
0.000775512
0.000895308
0.00104801
0.00127595
0.0013508
0.00126719
0.00102594
0.000809501
)
;

boundaryField
{
    floor
    {
        Cmu             0.09;
        kappa           0.41;
        E               9.8;
        type            epsilonWallFunction;
        value           nonuniform List<scalar> 
36
(
0.00106338
7.64188e-05
0.000135184
0.000192177
0.000194053
0.000176711
0.000145733
0.00011723
9.48502e-05
7.77001e-05
6.44767e-05
5.41726e-05
4.60601e-05
3.9565e-05
3.42079e-05
2.96014e-05
2.54327e-05
2.35084e-05
1.85302e-05
1.85302e-05
4.24724e-05
6.96927e-05
9.90206e-05
0.000224298
0.000241005
0.000301428
0.00106338
0.00125004
0.000692968
0.000336737
7.64188e-05
0.000336737
9.10491e-05
0.000668305
0.00058129
0.00147509
)
;
    }
    ceiling
    {
        Cmu             0.09;
        kappa           0.41;
        E               9.8;
        type            epsilonWallFunction;
        value           nonuniform List<scalar> 
43
(
0.0076829
0.0093054
0.0108816
0.00982009
0.0090227
0.00854336
0.00782241
0.00674394
0.00544558
0.00417527
0.00309841
0.00227221
0.00169263
0.00131004
0.0010658
0.00091014
0.000806464
0.000730203
0.000671281
0.000632461
0.000605149
0.000585191
0.000570104
0.000557759
0.000547067
0.000538159
0.000532463
0.000532758
0.000543391
0.000571067
0.000617072
0.000684286
0.000775512
0.000895308
0.00104801
0.00127595
0.0013508
0.00126719
0.00102594
0.000809501
0.0136595
0.021162
0.0210756
)
;
    }
    sWall
    {
        Cmu             0.09;
        kappa           0.41;
        E               9.8;
        type            epsilonWallFunction;
        value           uniform 0.0076829;
    }
    nWall
    {
        Cmu             0.09;
        kappa           0.41;
        E               9.8;
        type            epsilonWallFunction;
        value           nonuniform List<scalar> 6(0.000301428 0.000344576 0.000649796 0.000880118 0.000931322 0.000809501);
    }
    sideWalls
    {
        type            empty;
    }
    glass1
    {
        Cmu             0.09;
        kappa           0.41;
        E               9.8;
        type            epsilonWallFunction;
        value           nonuniform List<scalar> 9(0.000625975 0.00163752 0.0030213 0.00490969 0.00748401 0.0109894 0.0146548 0.0150881 0.0136595);
    }
    glass2
    {
        Cmu             0.09;
        kappa           0.41;
        E               9.8;
        type            epsilonWallFunction;
        value           nonuniform List<scalar> 2(0.00209204 0.00158306);
    }
    sun
    {
        Cmu             0.09;
        kappa           0.41;
        E               9.8;
        type            epsilonWallFunction;
        value           nonuniform List<scalar> 
14
(
0.000625975
0.000818783
0.000853111
0.000986018
0.00112471
0.00126784
0.00142088
0.00158922
0.00173094
0.00182392
0.00184369
0.00177045
0.00159955
0.00135048
)
;
    }
    Table_master
    {
        Cmu             0.09;
        kappa           0.41;
        E               9.8;
        type            epsilonWallFunction;
        value           nonuniform List<scalar> 9(0.000386013 0.000256039 0.00017625 0.000126167 9.3638e-05 7.17602e-05 5.66096e-05 4.59527e-05 3.86234e-05);
    }
    Table_slave
    {
        Cmu             0.09;
        kappa           0.41;
        E               9.8;
        type            epsilonWallFunction;
        value           nonuniform List<scalar> 9(0.000538189 0.000400484 0.000321976 0.000270376 0.000230293 0.000195589 0.000165509 0.000137195 0.000108534);
    }
    inlet
    {
        type            turbulentMixingLengthDissipationRateInlet;
        mixingLength    0.01;
        phi             phi;
        k               k;
        value           uniform 0.00193197;
    }
    outlet
    {
        type            zeroGradient;
    }
}


// ************************************************************************* //
