/*--------------------------------*- C++ -*----------------------------------*\
  =========                 |
  \\      /  F ield         | OpenFOAM: The Open Source CFD Toolbox
   \\    /   O peration     | Website:  https://openfoam.org
    \\  /    A nd           | Version:  6
     \\/     M anipulation  |
\*---------------------------------------------------------------------------*/
FoamFile
{
    version     2.0;
    format      ascii;
    class       volScalarField;
    location    "2100";
    object      alphat;
}
// * * * * * * * * * * * * * * * * * * * * * * * * * * * * * * * * * * * * * //

dimensions      [1 -1 -1 0 0 0 0];

internalField   nonuniform List<scalar> 
458
(
0.000801336
0.00083087
0.00080354
0.000831691
0.000857353
0.000879795
0.000899643
0.00091769
0.00093481
0.000952093
0.00096664
0.000976976
0.000983311
0.000987638
0.000990326
0.000544054
0.000697647
0.000689622
0.000673599
0.000647903
0.000612333
0.000580903
0.000553995
0.000530223
0.000508372
0.000487797
0.000468111
0.000449005
0.000430068
0.00041076
0.000390195
0.000373808
0.000341664
0.0012807
0.00204729
0.00167202
0.00202449
0.00217039
0.00232096
0.00247
0.00260606
0.0027128
0.00276833
0.0027797
0.0027147
0.00253055
0.00216643
0.00158584
0.00103903
0.00100011
0.000674057
0.000599798
0.00227343
0.00233472
0.00211187
0.00165829
0.00127047
0.00116004
0.00113756
0.00110007
0.00104598
0.000984733
0.000919411
0.000848144
0.000767643
0.000693329
0.000636195
0.000765655
0.000417122
0.00171953
0.00324211
0.00180964
0.00294648
0.00323053
0.00341337
0.00356144
0.00367919
0.00376798
0.00382324
0.00384736
0.00381745
0.00370081
0.00345709
0.00305152
0.00248974
0.00178168
0.00108111
0.000806392
0.00281492
0.00260075
0.00209727
0.00129544
0.000585793
0.000473369
0.000407023
0.000388331
0.000381284
0.000373099
0.000363462
0.000354589
0.000352238
0.000489931
0.000594796
0.000988448
0.000496602
0.00216492
0.0050036
0.00187674
0.00329996
0.00386224
0.00405189
0.00416729
0.00424424
0.00429763
0.00433392
0.00435821
0.00436487
0.00433508
0.00423762
0.00401583
0.0035795
0.0028475
0.00188938
0.00111689
0.0024451
0.00264689
0.00235205
0.00174527
0.00110008
0.00063847
0.000643133
0.000662587
0.000684523
0.000704808
0.000717885
0.00071756
0.000698193
0.000675632
0.000688653
0.000711512
0.00112293
0.000614725
0.00261076
0.00724177
0.00253853
0.00307932
0.00411768
0.00438438
0.00449208
0.00454125
0.00456063
0.0045712
0.00458159
0.00461193
0.00464785
0.00466627
0.00463835
0.00453721
0.0043515
0.00406084
0.00360529
0.00316072
0.00270103
0.00223557
0.00189703
0.00178148
0.00189349
0.00208268
0.00226767
0.00241527
0.00253202
0.00259886
0.00259676
0.00250577
0.00218598
0.00179157
0.00144241
0.00127475
0.00104098
0.000752469
0.000762105
0.000761361
0.00305906
0.00958412
0.00456998
0.00289052
0.00371089
0.00427657
0.00454724
0.00467402
0.00469995
0.00466199
0.00462301
0.00465739
0.00471465
0.00476375
0.0047801
0.00474374
0.00462859
0.00437551
0.00391726
0.00330536
0.00269149
0.00222608
0.00192355
0.001781
0.001885
0.00210575
0.00237322
0.00259616
0.00278466
0.00292209
0.00299721
0.00300132
0.00285704
0.00254367
0.00214408
0.00172164
0.00138127
0.00132043
0.0017961
0.000971837
0.00349075
0.0114901
0.00819206
0.00474825
0.00345288
0.00338529
0.00385289
0.00432737
0.00465197
0.00463578
0.00458348
0.00461584
0.00466133
0.00469642
0.00470222
0.00465989
0.00454259
0.00430224
0.00389243
0.00333996
0.00276559
0.00231337
0.00197407
0.00174435
0.0018133
0.00204007
0.00229369
0.00253549
0.00275865
0.0029413
0.00308068
0.0031892
0.00325323
0.00308876
0.00275506
0.00236138
0.00199361
0.00182618
0.00213768
0.00118996
0.00358816
0.0112904
0.00960373
0.00817957
0.00629103
0.00487984
0.00426797
0.00421883
0.00443374
0.00454298
0.00454215
0.00453545
0.00453598
0.00452914
0.00449442
0.00441389
0.0042711
0.00404139
0.00370193
0.00326798
0.00280975
0.00240783
0.00204677
0.00172476
0.00177341
0.00201199
0.00225625
0.00248007
0.00268137
0.00286063
0.0030295
0.00321391
0.00345234
0.00372222
0.00353052
0.00336442
0.00334475
0.00332846
0.00395469
0.0016175
0.00349864
0.00419633
0.0049408
0.00529637
0.00536218
0.0050915
0.00474895
0.00449575
0.00436901
0.00430685
0.00429812
0.00430964
0.0043119
0.00428251
0.00420679
0.00407744
0.00389231
0.00365046
0.00335411
0.00301941
0.00268384
0.00239714
0.00208935
0.00167646
0.00169826
0.00194545
0.00217515
0.00236649
0.00252261
0.00264517
0.00273727
0.00280161
0.00283625
0.00283259
0.0027935
0.00275007
0.00267961
0.00254914
0.00240434
0.00158335
0.00324071
0.00629039
0.00582704
0.00552337
0.00523452
0.00498431
0.0047903
0.00464018
0.00450399
0.00437098
0.00422769
0.00406298
0.00387048
0.00364901
0.00340177
0.00313534
0.00286038
0.00259453
0.00236462
0.00219908
0.00202312
0.00154731
0.00152058
0.00176908
0.00198312
0.00215115
0.00228338
0.00238287
0.00245257
0.00249889
0.00253207
0.00256295
0.0025667
0.00252048
0.00239352
0.00216623
0.00187936
0.00128013
0.0030286
0.00681344
0.00628233
0.00586493
0.00552582
0.0052269
0.00494056
0.00467289
0.00441731
0.00411364
0.00379546
0.00348012
0.0031764
0.00288835
0.00261796
0.00236797
0.00214567
0.00196869
0.00186986
0.00187086
0.00184877
0.00129962
0.00117973
0.00141402
0.00160867
0.00177259
0.00192787
0.00208144
0.00223321
0.00237719
0.00249587
0.00259286
0.00266567
0.00268303
0.00264043
0.00254772
0.0023198
0.00129317
0.00237713
0.00258367
0.00275967
0.00292738
0.00273851
0.00257576
0.00235062
0.00216751
0.00199857
0.00184093
0.00169336
0.00156847
0.00145517
0.00134762
0.00124244
0.00113764
0.00103214
0.00092581
0.000819902
0.000718338
0.000629058
0.000560852
0.000510215
0.000442681
0.000508744
0.000597305
0.000671112
0.00073804
0.000801981
0.000865035
0.000929192
0.000997324
0.0010747
0.0011586
0.0012433
0.00132568
0.0014121
0.00138845
0.00127349
0.00117175
)
;

boundaryField
{
    floor
    {
        type            compressible::alphatWallFunction;
        Prt             0.85;
        value           nonuniform List<scalar> 
36
(
0.000140953
7.59536e-05
9.88575e-05
9.76821e-05
9.53225e-05
9.15208e-05
8.62276e-05
8.15191e-05
7.74628e-05
7.38589e-05
7.05285e-05
6.73762e-05
6.43442e-05
6.1386e-05
5.84382e-05
5.54154e-05
5.21757e-05
4.95783e-05
4.44403e-05
4.44397e-05
5.64113e-05
6.87239e-05
8.65811e-05
0.000106882
0.000108284
0.000108178
0.000140951
0.000147799
0.000142329
9.54e-05
7.59527e-05
9.53989e-05
8.4348e-05
0.000153679
0.000114711
0.000158661
)
;
    }
    ceiling
    {
        type            compressible::alphatWallFunction;
        Prt             0.85;
        value           nonuniform List<scalar> 
43
(
0.000325727
0.000352017
0.000374249
0.000395415
0.000371739
0.000351189
0.000322517
0.000298975
0.000277063
0.000256433
0.000236946
0.000220307
0.000205084
0.000190511
0.000176131
0.000161663
0.000146944
0.00013193
0.000116773
0.000102015
8.8832e-05
7.86038e-05
7.09088e-05
6.0497e-05
7.0684e-05
8.40848e-05
9.50643e-05
0.000104893
0.000114182
0.000123257
0.000132409
0.000142048
0.000152901
0.000164569
0.00017625
0.000187524
0.000199266
0.000196061
0.000180392
0.000166392
0.000466427
0.000551293
0.000407802
)
;
    }
    sWall
    {
        type            compressible::alphatWallFunction;
        Prt             0.85;
        value           uniform 0.000324518;
    }
    nWall
    {
        type            compressible::alphatWallFunction;
        Prt             0.85;
        value           nonuniform List<scalar> 6(0.000107979 0.00013812 0.000168561 0.000180969 0.000182752 0.000166061);
    }
    sideWalls
    {
        type            empty;
    }
    glass1
    {
        type            compressible::alphatWallFunction;
        Prt             0.85;
        value           nonuniform List<scalar> 9(0.000110859 0.000177074 0.000235389 0.000293043 0.000349586 0.000405487 0.000458563 0.000470574 0.000459859);
    }
    glass2
    {
        type            compressible::alphatWallFunction;
        Prt             0.85;
        value           nonuniform List<scalar> 2(0.00022513 0.000220645);
    }
    sun
    {
        type            compressible::alphatWallFunction;
        Prt             0.85;
        value           nonuniform List<scalar> 
14
(
0.000114004
0.000118247
0.000114305
0.000118365
0.000122051
0.000125264
0.000128098
0.000130668
0.000133101
0.000135552
0.00013761
0.000139071
0.000139965
0.000140574
)
;
    }
    Table_master
    {
        type            compressible::alphatWallFunction;
        Prt             0.85;
        value           nonuniform List<scalar> 9(8.23536e-05 6.52509e-05 5.49217e-05 5.19747e-05 5.08589e-05 4.95593e-05 4.80241e-05 4.66061e-05 4.62296e-05);
    }
    Table_slave
    {
        type            compressible::alphatWallFunction;
        Prt             0.85;
        value           nonuniform List<scalar> 9(9.02261e-05 9.09195e-05 9.38026e-05 9.70411e-05 0.000100025 0.000101942 0.000101894 9.90521e-05 9.57291e-05);
    }
    inlet
    {
        type            fixedValue;
        value           uniform 1.94e-05;
    }
    outlet
    {
        type            zeroGradient;
    }
}


// ************************************************************************* //
