/*--------------------------------*- C++ -*----------------------------------*\
  =========                 |
  \\      /  F ield         | OpenFOAM: The Open Source CFD Toolbox
   \\    /   O peration     | Website:  https://openfoam.org
    \\  /    A nd           | Version:  6
     \\/     M anipulation  |
\*---------------------------------------------------------------------------*/
FoamFile
{
    version     2.0;
    format      ascii;
    class       volScalarField;
    location    "2100";
    object      nut;
}
// * * * * * * * * * * * * * * * * * * * * * * * * * * * * * * * * * * * * * //

dimensions      [0 2 -1 0 0 0 0];

internalField   nonuniform List<scalar> 
458
(
0.000691154
0.000715917
0.000692347
0.000716604
0.000738714
0.00075805
0.000775151
0.000790699
0.000805448
0.000820337
0.000832866
0.000841762
0.000847206
0.000850916
0.000853211
0.000468442
0.000600673
0.000593775
0.000579982
0.000557852
0.000527221
0.000500156
0.000476983
0.000456511
0.000437693
0.000419974
0.00040302
0.000386565
0.000370257
0.000353628
0.000335918
0.000321804
0.000294136
0.00110541
0.00176427
0.00144076
0.0017445
0.00187025
0.00200003
0.00212848
0.00224574
0.00233773
0.00238557
0.00239535
0.00233927
0.0021805
0.00186664
0.00136628
0.000895123
0.000861547
0.000580683
0.000516447
0.00195747
0.0020103
0.00181843
0.00142785
0.00109389
0.000998775
0.000979392
0.00094708
0.000900491
0.000847741
0.000791487
0.000730119
0.000660808
0.000596829
0.000547642
0.000659081
0.000359085
0.00148522
0.00279442
0.0015595
0.00253928
0.00278417
0.00294186
0.00306958
0.00317115
0.00324774
0.00329538
0.00331615
0.00329026
0.00318952
0.00297919
0.00262938
0.00214506
0.00153485
0.000931267
0.000694375
0.0024239
0.00223952
0.00180594
0.00111546
0.000504385
0.00040755
0.0003504
0.000334291
0.000328213
0.000321158
0.000312854
0.00030521
0.000303183
0.000421705
0.000511975
0.000850829
0.000427503
0.00187116
0.00431364
0.0016175
0.00284423
0.00332906
0.00349275
0.00359245
0.00365899
0.00370517
0.00373654
0.00375748
0.00376309
0.00373711
0.00365265
0.00346097
0.00308442
0.00245326
0.00162752
0.000961978
0.00210575
0.0022795
0.00202553
0.00150291
0.000947276
0.000549774
0.000553781
0.000570529
0.000589416
0.00060688
0.000618136
0.000617851
0.000601167
0.000581733
0.000592908
0.000612543
0.000966669
0.000529195
0.00225787
0.00624494
0.00218816
0.00265431
0.00354963
0.00377986
0.00387306
0.00391579
0.00393279
0.0039421
0.00395113
0.00397717
0.00400781
0.00402316
0.00399841
0.00391053
0.00374981
0.00349878
0.00310587
0.00272259
0.00232644
0.00192538
0.00163369
0.0015341
0.00163054
0.00179345
0.00195275
0.00207985
0.00218038
0.00223793
0.0022361
0.00215771
0.00188229
0.0015426
0.0012419
0.00109746
0.000896172
0.000647791
0.000656085
0.000655532
0.00264694
0.00826781
0.00394014
0.00249186
0.00319925
0.00368726
0.00392102
0.00403076
0.00405354
0.00402115
0.00398771
0.00401729
0.00406634
0.0041081
0.00412147
0.00408932
0.00398933
0.00377058
0.00337521
0.00284764
0.00231852
0.00191738
0.00165662
0.00153375
0.00162329
0.00181341
0.00204377
0.00223577
0.00239809
0.00251642
0.00258108
0.00258457
0.00246025
0.00219031
0.00184613
0.0014823
0.00118919
0.00113678
0.00154628
0.000836773
0.00302175
0.0099177
0.00706718
0.00409496
0.00297745
0.00291916
0.00332261
0.00373213
0.0040125
0.00399901
0.0039542
0.00398208
0.00402097
0.00405065
0.00405491
0.00401761
0.00391573
0.00370793
0.00335426
0.00287781
0.00238261
0.00199274
0.00170022
0.00150224
0.00156161
0.00175693
0.00197538
0.00218364
0.00237583
0.00253312
0.00265312
0.00274651
0.00280154
0.00265978
0.00237231
0.00203322
0.00171648
0.00157228
0.00184044
0.00102461
0.00310826
0.00975933
0.00829672
0.00706253
0.00542945
0.00421038
0.00368201
0.00363952
0.00382504
0.00391959
0.00391901
0.00391305
0.00391306
0.00390653
0.00387588
0.00380572
0.00368195
0.00348335
0.00319031
0.00281599
0.00242085
0.00207426
0.00176292
0.00148541
0.0015273
0.00173282
0.00194323
0.00213602
0.00230939
0.00246377
0.00260919
0.00276795
0.0029732
0.00320543
0.00304021
0.00289707
0.00288006
0.00286602
0.00340529
0.00139335
0.00303366
0.00363527
0.00427605
0.00458018
0.00463406
0.00439795
0.00410063
0.0038811
0.00377117
0.00371712
0.00370901
0.00371828
0.00371951
0.00369346
0.00362749
0.00351536
0.00335523
0.00314632
0.00289055
0.00260183
0.00231243
0.00206516
0.00179969
0.00144385
0.00146263
0.00167557
0.00187346
0.00203829
0.00217277
0.00227834
0.00235767
0.00241307
0.00244289
0.00243976
0.00240614
0.00236885
0.00230835
0.00219616
0.00207159
0.0013645
0.00273521
0.00538593
0.00501225
0.00475851
0.00451256
0.00429802
0.00413109
0.00400161
0.00388404
0.00376908
0.00364518
0.0035028
0.00333648
0.00314524
0.00293185
0.00270199
0.00246483
0.00223558
0.00203733
0.00189453
0.00174271
0.00133265
0.00130963
0.00152372
0.00170812
0.0018529
0.00196683
0.00205256
0.00211263
0.00215255
0.00218117
0.0022078
0.00221109
0.00217137
0.00206212
0.00186642
0.00161935
0.00110308
0.00256439
0.00583107
0.00539544
0.00504586
0.00475829
0.00450281
0.00425698
0.00402667
0.00380655
0.0035449
0.00327069
0.0029989
0.0027371
0.00248881
0.00225575
0.00204028
0.00184868
0.00169614
0.00161092
0.00161171
0.00159253
0.00111934
0.00101608
0.00121793
0.00138563
0.00152687
0.00166066
0.00179298
0.00192375
0.00204782
0.00215009
0.00223368
0.00229646
0.00231149
0.00227488
0.00219511
0.00199873
0.00111428
0.0020273
0.00220294
0.00235297
0.00251113
0.0023534
0.00221595
0.00202367
0.00186651
0.00172125
0.0015856
0.00145855
0.00135101
0.00125346
0.00116084
0.00107026
0.000979998
0.00088913
0.000797538
0.000706305
0.000618809
0.000541891
0.000483122
0.000439481
0.000381278
0.000438173
0.000514474
0.000578066
0.000635733
0.000690827
0.000745157
0.000800438
0.000859143
0.000925811
0.00099811
0.00107109
0.00114209
0.00121659
0.00119623
0.00109718
0.00100963
)
;

boundaryField
{
    floor
    {
        type            nutkWallFunction;
        Cmu             0.09;
        kappa           0.41;
        E               9.8;
        value           nonuniform List<scalar> 
36
(
0.000103297
5.5656e-05
7.24237e-05
7.15643e-05
6.98371e-05
6.70534e-05
6.31774e-05
5.97296e-05
5.67593e-05
5.41201e-05
5.16811e-05
4.93724e-05
4.71518e-05
4.49852e-05
4.28262e-05
4.06122e-05
3.82392e-05
3.63366e-05
3.2574e-05
3.25739e-05
4.13403e-05
5.03554e-05
6.34293e-05
7.82908e-05
7.9317e-05
7.92483e-05
0.000103297
0.000108306
0.000104295
6.99249e-05
5.5656e-05
6.99249e-05
6.18041e-05
0.000112603
8.40383e-05
0.000116238
)
;
    }
    ceiling
    {
        type            nutkWallFunction;
        Cmu             0.09;
        kappa           0.41;
        E               9.8;
        value           nonuniform List<scalar> 
43
(
0.000236272
0.000255276
0.000271386
0.000288375
0.000271578
0.000256829
0.000236016
0.00021884
0.000202826
0.000187736
0.000173474
0.000161297
0.000150155
0.000139487
0.000128961
0.000118369
0.000107593
9.65998e-05
8.55012e-05
7.4695e-05
6.5041e-05
5.75504e-05
5.19142e-05
4.42883e-05
5.17457e-05
6.15586e-05
6.95991e-05
7.67969e-05
8.36002e-05
9.02458e-05
9.6949e-05
0.000104008
0.000111957
0.000120503
0.000129058
0.000137317
0.000145921
0.000143575
0.000132099
0.000121859
0.000343665
0.000405852
0.000293763
)
;
    }
    sWall
    {
        type            nutkWallFunction;
        Cmu             0.09;
        kappa           0.41;
        E               9.8;
        value           uniform 0.000236335;
    }
    nWall
    {
        type            nutkWallFunction;
        Cmu             0.09;
        kappa           0.41;
        E               9.8;
        value           nonuniform List<scalar> 6(7.9245e-05 0.000101326 0.000123621 0.000132794 0.000134097 0.000121865);
    }
    sideWalls
    {
        type            empty;
    }
    glass1
    {
        type            nutkWallFunction;
        Cmu             0.09;
        kappa           0.41;
        E               9.8;
        value           nonuniform List<scalar> 9(8.35962e-05 0.000133172 0.000176711 0.000219683 0.000261778 0.000303358 0.000342809 0.00035185 0.000344078);
    }
    glass2
    {
        type            nutkWallFunction;
        Cmu             0.09;
        kappa           0.41;
        E               9.8;
        value           nonuniform List<scalar> 2(0.000166169 0.000162894);
    }
    sun
    {
        type            nutkWallFunction;
        Cmu             0.09;
        kappa           0.41;
        E               9.8;
        value           nonuniform List<scalar> 
14
(
8.36365e-05
8.66741e-05
8.3784e-05
8.6758e-05
8.94585e-05
9.18123e-05
9.38881e-05
9.57707e-05
9.75525e-05
9.93473e-05
0.000100855
0.000101923
0.000102577
0.000103022
)
;
    }
    Table_master
    {
        type            nutkWallFunction;
        Cmu             0.09;
        kappa           0.41;
        E               9.8;
        value           nonuniform List<scalar> 9(6.02732e-05 4.7752e-05 4.01896e-05 3.80311e-05 3.72133e-05 3.62613e-05 3.51371e-05 3.40988e-05 3.3823e-05);
    }
    Table_slave
    {
        type            nutkWallFunction;
        Cmu             0.09;
        kappa           0.41;
        E               9.8;
        value           nonuniform List<scalar> 9(6.60374e-05 6.6544e-05 6.86537e-05 7.10237e-05 7.3207e-05 7.46101e-05 7.45744e-05 7.24933e-05 7.00602e-05);
    }
    inlet
    {
        type            calculated;
        value           uniform 0.000100623;
    }
    outlet
    {
        type            calculated;
        value           nonuniform List<scalar> 2(0.0020273 0.00220294);
    }
}


// ************************************************************************* //
