/*--------------------------------*- C++ -*----------------------------------*\
  =========                 |
  \\      /  F ield         | OpenFOAM: The Open Source CFD Toolbox
   \\    /   O peration     | Website:  https://openfoam.org
    \\  /    A nd           | Version:  6
     \\/     M anipulation  |
\*---------------------------------------------------------------------------*/
FoamFile
{
    version     2.0;
    format      ascii;
    class       surfaceScalarField;
    location    "2100";
    object      phi;
}
// * * * * * * * * * * * * * * * * * * * * * * * * * * * * * * * * * * * * * //

dimensions      [1 0 -1 0 0 0 0];

internalField   nonuniform List<scalar> 
850
(
-0.00251732
0.00257842
-0.00287598
0.000358686
-0.00332561
0.000449666
-0.0037778
0.000452228
-0.00418352
0.000405749
-0.00452161
0.000338125
-0.00477501
0.000253426
-0.00492496
0.00014999
-0.00494981
2.48781e-05
-0.00482259
-0.000127192
-0.00451581
-0.000306744
-0.00400824
-0.000507542
-0.00325582
-0.000752383
-0.00207296
-0.00118283
-0.00207126
-0.00047658
0.000479416
-0.000200061
-0.000276482
0.000302022
-0.000502045
0.000958698
-0.000656639
0.00159981
-0.000641072
0.00187066
-0.000270816
0.00192774
-5.70395e-05
0.00191833
9.44857e-06
0.00187677
4.15917e-05
0.00181624
6.05764e-05
0.00174866
6.76164e-05
0.00167805
7.06455e-05
0.00159825
7.98396e-05
0.00148956
0.000108725
0.00132331
0.000166286
0.00108881
0.000234539
0.000787916
0.000300936
0.000791773
-0.00185334
0.00459285
-0.00251283
0.0010182
-0.00310322
0.00104009
-0.00359828
0.000947319
-0.00402685
0.000834357
-0.00438704
0.000698345
-0.00466786
0.000534282
-0.00485385
0.000336013
-0.00492742
9.84747e-05
-0.00487482
-0.000179754
-0.00468633
-0.000495199
-0.00435076
-0.000843083
-0.00386431
-0.0012388
-0.00335389
-0.00169323
-0.00347488
-0.00195023
-0.00178879
-0.00168286
6.10994e-05
-0.00184653
7.2263e-05
0.000126198
0.000361133
6.75698e-05
-0.000217816
0.000240734
-0.000675173
0.000674255
-0.00109012
0.0011729
-0.00113968
0.00132466
-0.000422535
0.00133069
-6.30306e-05
0.00130978
3.03957e-05
0.00127856
7.28549e-05
0.00125033
8.88428e-05
0.00123076
8.72211e-05
0.00121862
8.282e-05
0.00120976
8.87427e-05
0.00117451
0.000144014
0.00104914
0.000291695
0.000830579
0.000453136
0.000558907
0.000572645
0.00136096
-0.00137636
0.00621041
-0.00212578
0.00176765
-0.00270567
0.00162002
-0.00316326
0.00140494
-0.00356183
0.00123296
-0.00390436
0.00104091
-0.00418145
0.000811409
-0.00437901
0.000533605
-0.00448111
0.000200607
-0.00447409
-0.000186746
-0.00435068
-0.000618574
-0.00411835
-0.00107539
-0.00382217
-0.00153495
-0.0035735
-0.00194185
-0.00336826
-0.00215545
-0.00284627
-0.00220481
-0.0023931
-0.00229967
-0.00231272
-0.000152239
0.000524048
-0.000278556
-9.14633e-05
-0.000199112
-0.000754581
7.44917e-05
-0.00136369
0.000801001
-0.00186616
0.000378657
0.000315819
0.000346408
0.000419454
0.000508488
0.0005959
0.00067891
0.000767843
0.000912047
0.000840547
0.000363232
0.000669254
0.000624466
0.000375678
0.000866259
0.00175203
-0.00103117
0.00754764
-0.00177444
0.00251095
-0.00220309
0.0020487
-0.0025618
0.00176368
-0.00288791
0.00155911
-0.00317927
0.00133229
-0.00342691
0.00105908
-0.00361741
0.000724139
-0.00373236
0.000315592
-0.00375172
-0.000167354
-0.00366946
-0.000700802
-0.00351112
-0.0012337
-0.00333309
-0.00171295
-0.00319432
-0.00208059
-0.00306625
-0.00228349
-0.00291469
-0.00235634
-0.00289362
-0.00232071
-0.00334434
-0.00186197
-0.00230575
-0.00102903
-0.00137495
-0.000406723
-0.000948964
-0.000517413
-0.000707513
-0.000995997
-0.000648506
-0.00142266
-0.00103517
-0.00147946
-9.43203e-05
-0.00094096
0.000541269
-0.000635703
0.00105972
-0.000518569
0.00152605
-0.000466441
0.00194356
-0.000417618
0.00228831
-0.000344858
0.00250763
-0.000219435
0.00251919
-1.16741e-05
0.00223889
0.000280192
0.00192002
0.000682143
0.00144673
0.0010978
0.000784172
0.00152885
0.00255493
-0.000770271
0.00867753
-0.0014608
0.00320151
-0.00163357
0.0022215
-0.00185145
0.0019816
-0.00207585
0.00178354
-0.00228347
0.00153995
-0.00246518
0.00124082
-0.00261269
0.000871682
-0.00270855
0.000411484
-0.00272434
-0.000151536
-0.00265222
-0.000772889
-0.002533
-0.00135289
-0.00241917
-0.00182674
-0.00234235
-0.00215739
-0.00229263
-0.00233317
-0.00227529
-0.00237366
-0.00233711
-0.00225885
-0.002326
-0.00187305
-0.00200493
-0.00135008
-0.00144054
-0.000971073
-0.000994245
-0.000963681
-0.000760668
-0.00122954
-0.000666188
-0.00151711
-0.000580511
-0.0015651
-0.000189651
-0.00133178
0.000273658
-0.00109897
0.000703016
-0.000947888
0.00110209
-0.000865473
0.00147424
-0.000789726
0.00180719
-0.00067777
0.00207052
-0.000482723
0.00221378
-0.000154887
0.00220068
0.000293329
0.00209019
0.000792676
0.00190671
0.00128133
0.00167866
0.00175694
0.00237908
0.00185455
0.00167698
0.00072052
0.00152529
0.000169989
0.00159998
-0.00069869
0.00978097
-0.00129099
0.00379384
-0.00104568
0.00197622
-0.00102625
0.0019622
-0.00115038
0.0019077
-0.00126978
0.00165938
-0.00135636
0.00132744
-0.0014186
0.000933951
-0.00144876
0.000441673
-0.00141784
-0.000182423
-0.0013318
-0.0008589
-0.00124229
-0.00144237
-0.00118803
-0.00188097
-0.00118196
-0.00216343
-0.00121634
-0.00229877
-0.00128711
-0.00230286
-0.00137767
-0.00216827
-0.00137241
-0.00187828
-0.00120786
-0.0015146
-0.000935147
-0.00124376
-0.000716186
-0.00118261
-0.000614052
-0.00133165
-0.000568083
-0.00156304
-0.000477152
-0.00165599
-0.000281852
-0.00152704
-1.70681e-05
-0.00136372
0.000275875
-0.00124079
0.000571431
-0.00116099
0.000868215
-0.00108647
0.0011646
-0.000974112
0.00145372
-0.000771803
0.0017135
-0.000414617
0.00188302
0.000123848
0.00197856
0.000697177
0.00208446
0.00117547
0.00227432
0.00156714
0.00246702
0.00166188
0.0019837
0.00120388
0.0011231
0.00103062
0.0027819
-0.000905732
0.0111313
-0.00101056
0.0038987
-0.000154929
0.00112063
0.000150621
0.00165668
6.0448e-05
0.00199791
-4.17603e-05
0.00176162
-5.63714e-05
0.00134208
-1.48347e-05
0.000892446
7.1805e-05
0.000355066
0.0001845
-0.000295086
0.000275789
-0.000950159
0.000307859
-0.00147441
0.000269156
-0.00184224
0.000167637
-0.00206188
1.99725e-05
-0.00215108
-0.000154147
-0.00212872
-0.000318692
-0.0020037
-0.000411511
-0.00178544
-0.000405157
-0.00152093
-0.000348837
-0.00130006
-0.000328629
-0.0012028
-0.000381702
-0.00127855
-0.000449148
-0.00149557
-0.000463759
-0.00164135
-0.00042006
-0.00157071
-0.000335599
-0.00144814
-0.000214619
-0.00136173
-6.78223e-05
-0.00130774
0.000101933
-0.00125618
0.000298806
-0.00117094
0.000537275
-0.00101023
0.000835863
-0.000713162
0.00115359
-0.000193834
0.00143857
0.000412235
0.00171552
0.000898561
0.00203439
0.00124831
0.00235333
0.00134298
0.00246095
0.0010963
0.00190739
0.00158423
0.00474938
0.00206596
0.00956074
0.00254545
0.00341924
0.00276699
0.000899116
0.00258332
0.00184037
0.00224765
0.00233361
0.00202591
0.0019834
0.00193814
0.00142988
0.00195556
0.000875052
0.00206246
0.000248199
0.00217386
-0.000406449
0.00217791
-0.000954179
0.00206633
-0.0013628
0.00186328
-0.00163916
0.00159979
-0.00179836
0.00130429
-0.00185555
0.00100123
-0.00182564
0.000719006
-0.00172145
0.000490627
-0.00155704
0.000330391
-0.00136067
0.000209618
-0.00117927
7.17909e-05
-0.00106495
-0.000123901
-0.00108283
-0.000333702
-0.00128574
-0.000487483
-0.00148753
-0.000598512
-0.00145964
-0.000680329
-0.00136628
-0.000736151
-0.00130587
-0.000773361
-0.00127049
-0.000793757
-0.00123574
-0.000789715
-0.00117494
-0.000739884
-0.00106002
-0.000591911
-0.000861092
-0.00023438
-0.000551322
0.000219358
-4.14592e-05
0.000630505
0.000487457
0.0010372
0.000841664
0.00140808
0.000972147
0.0016078
0.000896626
0.000959711
0.00223236
0.00597593
0.0101019
0.0135121
0.0122258
0.00218538
0.0099066
0.00415962
0.00822304
0.00401719
0.00704087
0.0031656
0.00620938
0.0022614
0.00567004
0.00141442
0.00525589
0.000662373
0.00482463
2.48451e-05
0.00436143
-0.00049095
0.00388091
-0.000882257
0.00339373
-0.00115196
0.00290945
-0.00131406
0.00243905
-0.00138513
0.00199448
-0.00138105
0.00158916
-0.00131611
0.00123639
-0.00120425
0.000939499
-0.00106376
0.000680896
-0.000920643
0.00042492
-0.000808953
0.000124324
-0.000782217
-0.00022054
-0.000940855
-0.00051821
-0.00118983
-0.000774341
-0.00120347
-0.00101544
-0.00112514
-0.00124902
-0.00107225
-0.00148379
-0.00103568
-0.00172821
-0.000991277
-0.00199059
-0.000912529
-0.00227996
-0.000770599
-0.00260683
-0.000534182
-0.00298604
-0.000172072
-0.00335986
0.000332402
-0.00382985
0.00095749
-0.00464059
0.00165244
-0.00596855
0.00230015
-0.00773204
0.00266015
-0.00756324
0.0020636
-0.00129338
0.00302921
0.00350676
0.00406949
0.00311934
0.00534986
0.00273684
0.0057406
0.00277488
0.00577004
0.00223198
0.00571408
0.00147041
0.00559272
0.000783755
0.00536858
0.00024901
0.00503019
-0.000152532
0.00459791
-0.000449963
0.00410643
-0.000660456
0.00358754
-0.000795153
0.00306733
-0.000864894
0.00256667
-0.000880364
0.0021018
-0.000851219
0.00168368
-0.000786115
0.00131414
-0.000694195
0.000981186
-0.000587673
0.000659551
-0.0004873
0.000312656
-0.000435304
-0.000106239
-0.000521941
-0.000516254
-0.000779787
-0.000868439
-0.000851246
-0.00122559
-0.000767957
-0.00158714
-0.000710658
-0.00195425
-0.000668523
-0.00232742
-0.000618069
-0.00270137
-0.000538542
-0.0030613
-0.000410631
-0.00338113
-0.000214312
-0.00363111
7.79509e-05
-0.00379913
0.000500466
-0.00391455
0.00107295
-0.00400765
0.00174558
-0.00409448
0.00238702
-0.00405225
0.00261795
-0.00254315
0.000554544
-0.00375754
-0.000437162
0.00398668
0.00123706
0.00144513
0.00229379
0.00168012
0.0031901
0.00187858
0.0039179
0.00150419
0.0044135
0.000974827
0.00465763
0.000539643
0.0046887
0.000217961
0.00454876
-1.25721e-05
0.00427416
-0.000175342
0.0039034
-0.000289677
0.00347249
-0.000364222
0.00301267
-0.000405049
0.0025501
-0.000417781
0.00210614
-0.000407233
0.0016969
-0.00037686
0.00133117
-0.000328441
0.00100612
-0.000262605
0.000703593
-0.000184755
0.000389809
-0.0001215
6.56421e-06
-0.000138679
-0.00042235
-0.00035085
-0.000790085
-0.000483473
-0.0011839
-0.000374108
-0.00156435
-0.000330169
-0.00192708
-0.000305746
-0.00226687
-0.000278245
-0.00257031
-0.000235061
-0.00281515
-0.000165749
-0.00297083
-5.85872e-05
-0.00300089
0.000108043
-0.00286368
0.000363303
-0.00252528
0.000734583
-0.00198177
0.00120211
-0.00111461
0.00151991
0.000464086
0.00103929
0.00139171
-0.00037304
-0.00227874
-0.0063883
-0.00857673
-0.00455896
-0.00310195
-0.00141494
0.000467315
0.00197298
0.00294837
0.00348805
0.00370571
0.00369263
0.00351655
0.00322593
0.00286054
0.00245409
0.00203468
0.00162556
0.00124655
0.000915689
0.000650413
0.000462819
0.000338499
0.000197316
-0.000155337
-0.000640271
-0.00101609
-0.00134812
-0.00165582
-0.00193605
-0.00217311
-0.00234085
-0.00240142
-0.00229532
-0.00193393
-0.00120123
-1.00025e-06
0.00151692
0.00255411
0.00217883
)
;

boundaryField
{
    floor
    {
        type            calculated;
        value           nonuniform List<scalar> 
36
(
0
0
0
0
0
0
0
0
0
0
0
0
0
0
0
0
0
0
0
-3.81841e-06
-1.02402e-05
-1.53577e-05
-1.86875e-05
-1.83883e-05
-1.82531e-05
-1.79015e-05
-1.66472e-06
-3.19574e-06
-3.33128e-06
-4.42132e-06
-2.79907e-06
-6.70847e-06
-7.87945e-06
-8.08369e-06
-1.06411e-05
-9.51591e-06
)
;
    }
    ceiling
    {
        type            calculated;
        value           nonuniform List<scalar> 
43
(
-3.43309e-05
-3.27434e-05
-3.1088e-05
-1.18757e-05
-6.87908e-06
-3.65716e-06
-1.44899e-06
-5.4797e-07
-1.64274e-08
3.15033e-07
5.34371e-07
7.50806e-07
9.67771e-07
1.18857e-06
1.41656e-06
1.65497e-06
1.90629e-06
2.17051e-06
2.44055e-06
2.69093e-06
2.8587e-06
2.83848e-06
2.52016e-06
1.81871e-06
1.49494e-06
1.74936e-06
1.90193e-06
1.98322e-06
2.02342e-06
2.03808e-06
2.03522e-06
2.01811e-06
1.98523e-06
1.94778e-06
1.92266e-06
1.92423e-06
2.02728e-06
2.13615e-06
2.28145e-06
3.12497e-06
1.2443e-05
9.09381e-06
-4.27726e-05
)
;
    }
    sWall
    {
        type            calculated;
        value           uniform -0.00023908;
    }
    nWall
    {
        type            calculated;
        value           nonuniform List<scalar> 6(-5.6752e-05 -5.87712e-05 -6.00518e-05 -7.89577e-05 -8.70518e-05 -0.000102997);
    }
    sideWalls
    {
        type            empty;
        value           nonuniform 0();
    }
    glass1
    {
        type            calculated;
        value           nonuniform List<scalar> 9(-6.10696e-05 -0.000161051 -0.000241173 -0.000306023 -0.000359589 -0.000404731 -0.000444539 -0.000495398 -0.000553563);
    }
    glass2
    {
        type            calculated;
        value           nonuniform List<scalar> 2(-0.000266801 -0.000293896);
    }
    sun
    {
        type            calculated;
        value           uniform 0;
    }
    Table_master
    {
        type            calculated;
        value           nonuniform List<scalar> 9(-1.53378e-07 -1.53565e-07 -1.53607e-07 -1.53602e-07 -1.53585e-07 -1.53567e-07 -1.5355e-07 -1.53529e-07 -1.53485e-07);
    }
    Table_slave
    {
        type            calculated;
        value           nonuniform List<scalar> 9(1.53277e-07 1.53417e-07 1.53274e-07 1.53118e-07 1.52978e-07 1.52865e-07 1.52796e-07 1.52799e-07 1.52811e-07);
    }
    inlet
    {
        type            calculated;
        value           uniform -0.0043506;
    }
    outlet
    {
        type            calculated;
        value           nonuniform List<scalar> 2(0.00666172 0.00222118);
    }
}


// ************************************************************************* //
