/*--------------------------------*- C++ -*----------------------------------*\
  =========                 |
  \\      /  F ield         | OpenFOAM: The Open Source CFD Toolbox
   \\    /   O peration     | Website:  https://openfoam.org
    \\  /    A nd           | Version:  6
     \\/     M anipulation  |
\*---------------------------------------------------------------------------*/
FoamFile
{
    version     2.0;
    format      ascii;
    class       volScalarField;
    location    "1200";
    object      k;
}
// * * * * * * * * * * * * * * * * * * * * * * * * * * * * * * * * * * * * * //

dimensions      [0 2 -2 0 0 0 0];

internalField   nonuniform List<scalar> 
458
(
0.0019974
0.00236207
0.00245455
0.00269083
0.00291778
0.00313944
0.00336681
0.00360312
0.00379128
0.00389669
0.00388192
0.00371852
0.00339237
0.00289422
0.0021896
0.000354256
0.000519446
0.000697418
0.000757411
0.000741355
0.000656774
0.000566399
0.000489969
0.000427559
0.000376357
0.000333994
0.000298898
0.000269147
0.000243128
0.000219301
0.000195827
0.000175084
0.000140737
0.00369461
0.00681092
0.00371007
0.00391238
0.00423029
0.00461418
0.0050602
0.00555221
0.00605595
0.00646263
0.00666328
0.00658619
0.0062103
0.00555353
0.00463397
0.00268251
0.00173295
0.00106164
0.000368048
0.000878936
0.00116616
0.0013022
0.00130943
0.00112178
0.000918847
0.000753791
0.000626432
0.000527787
0.000450424
0.000387891
0.000336112
0.00029299
0.000262422
0.000244247
0.000336867
0.000210509
0.00551818
0.0124463
0.00446407
0.00428477
0.00451215
0.00485841
0.00530783
0.00585285
0.00642073
0.00688316
0.00715446
0.0071767
0.0069205
0.00638336
0.00556484
0.00459973
0.00366324
0.00186088
0.00117153
0.00139923
0.0015578
0.00163587
0.00160119
0.00123984
0.000945218
0.000733477
0.000582876
0.000474493
0.000395092
0.000336168
0.000292176
0.000260367
0.000243627
0.000241895
0.000448039
0.000269252
0.00762998
0.0203832
0.0054781
0.00431291
0.00439042
0.00469566
0.00517297
0.00583263
0.00645384
0.00691796
0.00721188
0.0072929
0.00710978
0.00662436
0.00596527
0.00527444
0.00459037
0.00348243
0.00270276
0.00236031
0.00225262
0.00221186
0.00214709
0.0020015
0.00156309
0.00129569
0.00113041
0.00101936
0.000935043
0.000859095
0.000785174
0.00071274
0.000633472
0.000485679
0.00037989
0.000572777
0.000347034
0.0101448
0.0311094
0.00788276
0.00441012
0.00421014
0.00451265
0.00519242
0.00614741
0.00679957
0.00720647
0.00746717
0.00753516
0.00731583
0.0067925
0.00606303
0.00529137
0.00459212
0.00398852
0.00363339
0.00331529
0.00307898
0.00287738
0.0026602
0.00240366
0.00212968
0.00193605
0.00181358
0.00172158
0.00163278
0.00152779
0.00138709
0.00121835
0.00103314
0.000821771
0.000627309
0.000601773
0.00053558
0.000511122
0.000567773
0.000611987
0.0132166
0.0426346
0.0139188
0.00558602
0.0045624
0.00476986
0.00602066
0.00715882
0.00764898
0.00789695
0.00804805
0.00804568
0.00775059
0.0070973
0.0061783
0.00520623
0.00440059
0.0039019
0.00370107
0.00359994
0.00345781
0.00323727
0.00295414
0.00264467
0.00238338
0.00222768
0.00213931
0.00207129
0.00199781
0.001901
0.00176333
0.00156924
0.00135032
0.00112008
0.000907741
0.000755317
0.000657312
0.000753559
0.00191762
0.00113309
0.0165975
0.0502058
0.0249739
0.01145
0.00809935
0.00765711
0.00873371
0.00905238
0.00903127
0.0089801
0.00896419
0.00884184
0.00840256
0.00755461
0.00640696
0.00523157
0.00433602
0.00389028
0.00378602
0.00374289
0.003601
0.00334801
0.00303477
0.00272518
0.00249242
0.0023668
0.00230484
0.00226428
0.00222658
0.00218166
0.00211717
0.00199854
0.00181452
0.00160632
0.0014192
0.00127904
0.00119745
0.00131716
0.00271116
0.0017203
0.0174836
0.0524823
0.0349175
0.0247098
0.0185343
0.0154543
0.0132453
0.0117206
0.0108091
0.0103651
0.0101639
0.00987499
0.00919686
0.008054
0.00662037
0.00525139
0.00432362
0.00392433
0.00382142
0.00372557
0.00352772
0.00325096
0.00295747
0.00270455
0.00253045
0.00243365
0.00238265
0.00235697
0.00235604
0.00238887
0.00246464
0.00258635
0.00269334
0.00274674
0.00286667
0.00318385
0.0037941
0.00449588
0.00982199
0.0029798
0.0167616
0.0242736
0.0229102
0.0202029
0.0174763
0.0152603
0.0136356
0.0125605
0.0119632
0.0117196
0.011544
0.01102
0.00987444
0.00822217
0.00642405
0.00496408
0.00422748
0.00390335
0.00374341
0.0035843
0.00337754
0.00314712
0.00293268
0.00275911
0.00262977
0.0025313
0.00244904
0.00238279
0.00234691
0.00236047
0.00243662
0.00257698
0.00277492
0.00303961
0.00339165
0.0038389
0.00432033
0.00472932
0.00502245
0.00283984
0.00924294
0.013522
0.0148027
0.0148751
0.0144823
0.0139982
0.0136824
0.0134621
0.0128993
0.011518
0.00926357
0.00685934
0.00535283
0.00454377
0.00417541
0.00399681
0.00387564
0.00375462
0.00362703
0.00350865
0.0034039
0.00329772
0.00317128
0.0030104
0.00281224
0.00259152
0.00238272
0.00223107
0.00217708
0.00223929
0.00241016
0.0026737
0.00301882
0.00341427
0.00376722
0.0039155
0.00368859
0.00211076
0.00785913
0.0150617
0.0162095
0.0155837
0.0149153
0.014504
0.0144354
0.0142444
0.0130565
0.0108622
0.00849144
0.00669214
0.00568707
0.00522142
0.00505728
0.00503482
0.0050748
0.00514045
0.00521502
0.00528286
0.00532722
0.00532616
0.00525218
0.00508565
0.0048137
0.00444208
0.00401069
0.00358378
0.00321738
0.00295399
0.0028276
0.00283928
0.00296892
0.00315768
0.00332638
0.00349404
0.00279742
0.00228198
0.00591286
0.00656828
0.00709516
0.00779851
0.00637987
0.00495754
0.00433045
0.00431948
0.00430384
0.00416435
0.00383759
0.00340413
0.00297698
0.00261791
0.00239144
0.0022667
0.00220036
0.00216296
0.00213702
0.00211374
0.00208904
0.00206045
0.00202394
0.00197531
0.00191314
0.00183652
0.00175026
0.00166746
0.00160313
0.00156704
0.00156581
0.00160103
0.00166988
0.00177203
0.00190375
0.00204614
0.00212698
0.00185325
0.00171047
0.00262521
)
;

boundaryField
{
    floor
    {
        type            kqRWallFunction;
        value           nonuniform List<scalar> 
36
(
0.0021896
0.000354256
0.000519446
0.000697418
0.000757411
0.000741355
0.000656774
0.000566399
0.000489969
0.000427559
0.000376357
0.000333994
0.000298898
0.000269147
0.000243128
0.000219301
0.000195827
0.000175084
0.000140737
0.000140737
0.000210509
0.000269252
0.000347034
0.000511122
0.000567773
0.000611987
0.0021896
0.00268251
0.00173295
0.00106164
0.000354256
0.00106164
0.000368048
0.00186088
0.00117153
0.00270276
)
;
    }
    ceiling
    {
        type            kqRWallFunction;
        value           nonuniform List<scalar> 
43
(
0.00591286
0.00656828
0.00709516
0.00779851
0.00637987
0.00495754
0.00433045
0.00431948
0.00430384
0.00416435
0.00383759
0.00340413
0.00297698
0.00261791
0.00239144
0.0022667
0.00220036
0.00216296
0.00213702
0.00211374
0.00208904
0.00206045
0.00202394
0.00197531
0.00191314
0.00183652
0.00175026
0.00166746
0.00160313
0.00156704
0.00156581
0.00160103
0.00166988
0.00177203
0.00190375
0.00204614
0.00212698
0.00185325
0.00171047
0.00262521
0.0167616
0.0242736
0.00785913
)
;
    }
    sWall
    {
        type            kqRWallFunction;
        value           uniform 0.00591286;
    }
    nWall
    {
        type            kqRWallFunction;
        value           nonuniform List<scalar> 6(0.000611987 0.00113309 0.0017203 0.00211076 0.00228198 0.00262521);
    }
    sideWalls
    {
        type            empty;
    }
    glass1
    {
        type            kqRWallFunction;
        value           nonuniform List<scalar> 9(0.0019974 0.00369461 0.00551818 0.00762998 0.0101448 0.0132166 0.0165975 0.0174836 0.0167616);
    }
    glass2
    {
        type            kqRWallFunction;
        value           nonuniform List<scalar> 2(0.0029798 0.00283984);
    }
    sun
    {
        type            kqRWallFunction;
        value           nonuniform List<scalar> 
14
(
0.0019974
0.00236207
0.00245455
0.00269083
0.00291778
0.00313944
0.00336681
0.00360312
0.00379128
0.00389669
0.00388192
0.00371852
0.00339237
0.00289422
)
;
    }
    Table_master
    {
        type            kqRWallFunction;
        value           nonuniform List<scalar> 9(0.00123984 0.000945218 0.000733477 0.000582876 0.000474493 0.000395092 0.000336168 0.000292176 0.000260367);
    }
    Table_slave
    {
        type            kqRWallFunction;
        value           nonuniform List<scalar> 9(0.00156309 0.00129569 0.00113041 0.00101936 0.000935043 0.000859095 0.000785174 0.00071274 0.000633472);
    }
    inlet
    {
        type            turbulentIntensityKineticEnergyInlet;
        intensity       0.05;
        value           uniform 0.0003375;
    }
    outlet
    {
        type            zeroGradient;
    }
}


// ************************************************************************* //
