// -*- C++ -*-
// File generated by PyFoam - sorry for the ugliness

FoamFile
{
 version 2.0;
 format ascii;
 class volVectorField;
 location "1200";
 object U;
}

dimensions [ 0 1 -1 0 0 0 0 ];

internalField nonuniform List<vector> 458
(
  (0.0341235 0.0826684 0)
  (-0.160759 0.0243999 0)
  (-0.18485 0.0176073 0)
  (-0.215645 0.0122474 0)
  (-0.238496 0.00629159 0)
  (-0.252317 -0.000104536 0)
  (-0.255403 -0.00705401 0)
  (-0.246014 -0.0146567 0)
  (-0.224283 -0.0224624 0)
  (-0.191528 -0.0291339 0)
  (-0.151185 -0.0333992 0)
  (-0.107843 -0.034376 0)
  (-0.0663689 -0.0315936 0)
  (-0.0318653 -0.0246475 0)
  (-0.0146405 -0.0125402 0)
  (-0.00932775 0.00728038 0)
  (-0.0233797 -0.0140615 0)
  (-0.00371151 -0.0240879 0)
  (0.0188901 -0.0206141 0)
  (0.0362068 -0.0150255 0)
  (0.0488883 -0.0082206 0)
  (0.0562286 -0.00454392 0)
  (0.0593518 -0.00323052 0)
  (0.0604624 -0.00276239 0)
  (0.0609418 -0.00247874 0)
  (0.0611123 -0.00224663 0)
  (0.0609085 -0.00197008 0)
  (0.060139 -0.00148791 0)
  (0.0582877 -0.000435843 0)
  (0.0542431 0.00169157 0)
  (0.04672 0.00434422 0)
  (0.0370479 0.00729267 0)
  (-0.00179792 0.0181087 0)
  (0.203825 0.169728 0)
  (-0.151859 0.0647811 0)
  (-0.150489 0.052355 0)
  (-0.182745 0.0414056 0)
  (-0.205613 0.0288798 0)
  (-0.219835 0.0146175 0)
  (-0.223748 -0.0018521 0)
  (-0.215376 -0.020378 0)
  (-0.195433 -0.0386976 0)
  (-0.165669 -0.0535555 0)
  (-0.129757 -0.062376 0)
  (-0.0919962 -0.0639155 0)
  (-0.0563391 -0.0582158 0)
  (-0.0258745 -0.0459651 0)
  (-0.00276834 -0.0288801 0)
  (0.018556 -0.00740271 0)
  (0.0320712 0.0188152 0)
  (-0.0134467 0.0474054 0)
  (0.0384493 0.0298111 0)
  (0.0196018 -0.0192973 0)
  (0.0294776 -0.0311916 0)
  (0.0416342 -0.0295723 0)
  (0.0525341 -0.0230734 0)
  (0.0583994 -0.0100786 0)
  (0.0597872 -0.00207185 0)
  (0.0596965 0.000947674 0)
  (0.0597665 0.00205218 0)
  (0.0600339 0.00268152 0)
  (0.0602327 0.00316963 0)
  (0.0602663 0.00364092 0)
  (0.0601367 0.00445958 0)
  (0.059391 0.00643771 0)
  (0.055992 0.0117809 0)
  (0.0474359 0.0170497 0)
  (0.0388222 0.0220997 0)
  (-0.0266107 0.0391926 0)
  (0.359925 0.254528 0)
  (-0.169695 0.103766 0)
  (-0.113956 0.0852067 0)
  (-0.146026 0.0654201 0)
  (-0.166749 0.0446131 0)
  (-0.180433 0.0213214 0)
  (-0.18467 -0.0055506 0)
  (-0.176134 -0.0353313 0)
  (-0.156631 -0.0640353 0)
  (-0.128899 -0.0860516 0)
  (-0.097025 -0.0978016 0)
  (-0.0649485 -0.0982162 0)
  (-0.0356542 -0.0883928 0)
  (-0.0109542 -0.070115 0)
  (0.00866141 -0.0460297 0)
  (0.0223073 -0.0222954 0)
  (0.0284211 0.00398514 0)
  (-0.00878162 0.0424901 0)
  (0.0840246 -0.0202576 0)
  (0.0593343 -0.0346629 0)
  (0.0575805 -0.0387602 0)
  (0.0614709 -0.0368632 0)
  (0.0661845 -0.0335746 0)
  (0.0685273 -0.0248521 0)
  (0.0608537 -0.0161641 0)
  (0.0548243 -0.011569 0)
  (0.0526151 -0.0090578 0)
  (0.0521132 -0.00745772 0)
  (0.0520311 -0.00636428 0)
  (0.0522716 -0.00545568 0)
  (0.0532763 -0.00431446 0)
  (0.0560762 -0.000885962 0)
  (0.0558338 0.0153309 0)
  (0.0466377 0.0273038 0)
  (0.0429414 0.0380326 0)
  (-0.0468924 0.063387 0)
  (0.501337 0.323083 0)
  (-0.204859 0.138594 0)
  (-0.0743859 0.113642 0)
  (-0.10608 0.0864267 0)
  (-0.121631 0.0598591 0)
  (-0.13276 0.0295 0)
  (-0.135629 -0.00733371 0)
  (-0.12472 -0.0490738 0)
  (-0.104796 -0.0878514 0)
  (-0.0798037 -0.115614 0)
  (-0.0535218 -0.128842 0)
  (-0.0289157 -0.127295 0)
  (-0.00765774 -0.113463 0)
  (0.0103414 -0.0894438 0)
  (0.0241114 -0.0614409 0)
  (0.0357697 -0.0317338 0)
  (0.0493242 -0.00124019 0)
  (0.0578831 0.030335 0)
  (0.0916527 0.0266039 0)
  (0.0927646 -0.013975 0)
  (0.0801816 -0.0301621 0)
  (0.0721068 -0.0344708 0)
  (0.0664314 -0.0338398 0)
  (0.060022 -0.0298842 0)
  (0.0588438 -0.0179586 0)
  (0.0678837 -0.0119328 0)
  (0.0756678 -0.00885294 0)
  (0.0805675 -0.00709135 0)
  (0.0839584 -0.00571721 0)
  (0.0862051 -0.00422915 0)
  (0.0863282 -0.00220251 0)
  (0.0826272 0.000889557 0)
  (0.0733525 0.00553947 0)
  (0.06111 0.0226364 0)
  (0.0507976 0.0388582 0)
  (0.052992 0.0554586 0)
  (-0.0493474 0.0910037 0)
  (0.624836 0.376398 0)
  (-0.24779 0.16724 0)
  (-0.0338388 0.130816 0)
  (-0.0637936 0.0992465 0)
  (-0.0714625 0.0696 0)
  (-0.0774918 0.0349109 0)
  (-0.0751131 -0.0101762 0)
  (-0.0585756 -0.0637554 0)
  (-0.0390773 -0.109759 0)
  (-0.0193529 -0.13962 0)
  (-0.00148422 -0.151515 0)
  (0.0131425 -0.146291 0)
  (0.024128 -0.128595 0)
  (0.0327002 -0.102503 0)
  (0.0397257 -0.0723423 0)
  (0.0465616 -0.0418341 0)
  (0.0562726 -0.01445 0)
  (0.0697457 0.00160944 0)
  (0.0806524 -0.00903777 0)
  (0.0799997 -0.0219123 0)
  (0.0729971 -0.0273074 0)
  (0.0647664 -0.0284326 0)
  (0.0574112 -0.0271218 0)
  (0.0513044 -0.0226991 0)
  (0.0496464 -0.0130454 0)
  (0.0527218 -0.00764672 0)
  (0.0565656 -0.00568125 0)
  (0.060002 -0.0048271 0)
  (0.0632859 -0.00371986 0)
  (0.0663135 -0.00149609 0)
  (0.0686232 0.00255148 0)
  (0.0688432 0.00870027 0)
  (0.0665229 0.0174635 0)
  (0.0625748 0.0314519 0)
  (0.0583279 0.0472808 0)
  (0.0728111 0.0655958 0)
  (0.0402845 0.0917567 0)
  (0.0838181 0.0981703 0)
  (0.113961 0.101376 0)
  (-0.198019 0.123365 0)
  (0.715961 0.421029 0)
  (-0.290189 0.186859 0)
  (-0.00139276 0.129316 0)
  (-0.0206845 0.10269 0)
  (-0.0187959 0.073817 0)
  (-0.0183801 0.0374123 0)
  (-0.00123616 -0.0181961 0)
  (0.021732 -0.0825812 0)
  (0.0372428 -0.12833 0)
  (0.0482007 -0.154586 0)
  (0.0544771 -0.162193 0)
  (0.0566379 -0.153788 0)
  (0.0558942 -0.133465 0)
  (0.0535733 -0.105733 0)
  (0.0510316 -0.0752006 0)
  (0.0497198 -0.0459048 0)
  (0.0514693 -0.0216874 0)
  (0.0566085 -0.00788444 0)
  (0.0600016 -0.00841279 0)
  (0.0577623 -0.0139227 0)
  (0.0515445 -0.0184381 0)
  (0.0442206 -0.0205331 0)
  (0.0375722 -0.0204498 0)
  (0.0324095 -0.0180221 0)
  (0.0302111 -0.0133545 0)
  (0.031209 -0.010499 0)
  (0.0337343 -0.00957121 0)
  (0.0368682 -0.00920404 0)
  (0.0404568 -0.00831768 0)
  (0.0444307 -0.00597885 0)
  (0.0486566 -0.00108662 0)
  (0.0527975 0.00690509 0)
  (0.0556479 0.0175633 0)
  (0.0583395 0.0310382 0)
  (0.0614257 0.0458063 0)
  (0.0753151 0.0618625 0)
  (0.0752148 0.0686593 0)
  (0.0834677 0.0361578 0)
  (0.116611 0.0131614 0)
  (-0.199432 0.0731286 0)
  (0.764666 0.461281 0)
  (-0.313136 0.173252 0)
  (0.0241115 0.0846706 0)
  (0.0331648 0.0865355 0)
  (0.0426064 0.0672326 0)
  (0.0535693 0.0235261 0)
  (0.0880936 -0.0431141 0)
  (0.109621 -0.100136 0)
  (0.118241 -0.138678 0)
  (0.117586 -0.158159 0)
  (0.109929 -0.160222 0)
  (0.0974454 -0.14795 0)
  (0.0824602 -0.125445 0)
  (0.0671019 -0.0972223 0)
  (0.0531743 -0.0677497 0)
  (0.042278 -0.040878 0)
  (0.0356727 -0.0201013 0)
  (0.0331891 -0.0082695 0)
  (0.0316887 -0.00623761 0)
  (0.0283634 -0.00903326 0)
  (0.0231738 -0.0123906 0)
  (0.017325 -0.0145339 0)
  (0.011892 -0.0152554 0)
  (0.00766207 -0.0145974 0)
  (0.00559543 -0.0129784 0)
  (0.00584078 -0.0121415 0)
  (0.0074723 -0.012252 0)
  (0.00983176 -0.0125687 0)
  (0.0127954 -0.0123552 0)
  (0.0165274 -0.0107964 0)
  (0.0213129 -0.00667806 0)
  (0.0284708 0.00143135 0)
  (0.0360638 0.0124518 0)
  (0.043829 0.0247324 0)
  (0.0524325 0.0370031 0)
  (0.0665177 0.0494644 0)
  (0.0783984 0.0536494 0)
  (0.087981 0.0402049 0)
  (0.139242 0.0479569 0)
  (-0.125882 0.125811 0)
  (0.866656 0.465949 0)
  (-0.0802072 0.151729 0)
  (0.0975995 0.0165798 0)
  (0.149597 0.00784649 0)
  (0.153221 -0.00374716 0)
  (0.174397 -0.0438757 0)
  (0.202136 -0.0844668 0)
  (0.210729 -0.117138 0)
  (0.202323 -0.138192 0)
  (0.182359 -0.146169 0)
  (0.155233 -0.141272 0)
  (0.124637 -0.125656 0)
  (0.0936716 -0.102546 0)
  (0.0648226 -0.0757794 0)
  (0.0399831 -0.0494454 0)
  (0.0209636 -0.0270265 0)
  (0.00887943 -0.011583 0)
  (0.00279604 -0.00387616 0)
  (-0.000415352 -0.00270448 0)
  (-0.00367283 -0.00485548 0)
  (-0.00780636 -0.00757646 0)
  (-0.0123892 -0.00973272 0)
  (-0.0167388 -0.0111701 0)
  (-0.0202116 -0.0119933 0)
  (-0.0222739 -0.0125062 0)
  (-0.022987 -0.0132649 0)
  (-0.0229167 -0.0142716 0)
  (-0.0224979 -0.015224 0)
  (-0.0218506 -0.0158012 0)
  (-0.0207989 -0.0156019 0)
  (-0.018855 -0.0139874 0)
  (-0.0148666 -0.0100221 0)
  (-0.00434258 -0.00259241 0)
  (0.00765281 0.00693589 0)
  (0.01883 0.0137874 0)
  (0.0332377 0.0187473 0)
  (0.0468463 0.0168275 0)
  (0.056095 0.00759736 0)
  (0.133614 0.0653634 0)
  (-0.417174 0.212789 0)
  (1.00543 0.427825 0)
  (0.487239 0.287992 0)
  (0.488692 0.207796 0)
  (0.481231 0.139835 0)
  (0.443489 0.0883045 0)
  (0.408298 0.0352024 0)
  (0.366519 -0.0191389 0)
  (0.320054 -0.0630635 0)
  (0.269967 -0.0907519 0)
  (0.217988 -0.101781 0)
  (0.16647 -0.0984741 0)
  (0.117804 -0.0849484 0)
  (0.0737483 -0.065106 0)
  (0.0359208 -0.0428355 0)
  (0.00555826 -0.0225147 0)
  (-0.0149728 -0.00797836 0)
  (-0.0252507 -0.00110802 0)
  (-0.0303866 0.00129729 0)
  (-0.0330378 0.000826973 0)
  (-0.035509 -0.00099847 0)
  (-0.0387606 -0.00309901 0)
  (-0.0424933 -0.00510383 0)
  (-0.0462578 -0.00690937 0)
  (-0.0496418 -0.0085039 0)
  (-0.0524476 -0.00994851 0)
  (-0.0548214 -0.0113542 0)
  (-0.0571472 -0.0126676 0)
  (-0.059857 -0.013729 0)
  (-0.0634113 -0.0142948 0)
  (-0.0682985 -0.0138849 0)
  (-0.0750003 -0.0116016 0)
  (-0.0839176 -0.00620264 0)
  (-0.0950921 0.00334144 0)
  (-0.10615 0.0159057 0)
  (-0.122719 0.0316221 0)
  (-0.148745 0.0513822 0)
  (-0.186946 0.0748401 0)
  (-0.235662 0.0993008 0)
  (-0.306388 0.118302 0)
  (-0.571765 0.11999 0)
  (-0.0709567 0.109754 0)
  (0.166613 0.10141 0)
  (0.240399 0.0503269 0)
  (0.231515 0.00318198 0)
  (0.217494 -0.0290555 0)
  (0.19773 -0.0488447 0)
  (0.167199 -0.0587892 0)
  (0.128237 -0.0597632 0)
  (0.0853869 -0.0525144 0)
  (0.043646 -0.0396506 0)
  (0.00489656 -0.0228222 0)
  (-0.0258962 -0.00633258 0)
  (-0.0444754 0.00299729 0)
  (-0.0546416 0.00744691 0)
  (-0.059253 0.00905723 0)
  (-0.0614395 0.00945521 0)
  (-0.0629966 0.00920228 0)
  (-0.0647943 0.00867271 0)
  (-0.0670017 0.00800064 0)
  (-0.0698021 0.00712316 0)
  (-0.0730982 0.00613867 0)
  (-0.0767606 0.00536561 0)
  (-0.0807328 0.00496651 0)
  (-0.0850165 0.0050427 0)
  (-0.0896341 0.00572385 0)
  (-0.0946233 0.00711151 0)
  (-0.100063 0.00915476 0)
  (-0.106046 0.0116303 0)
  (-0.112574 0.0142544 0)
  (-0.119089 0.0174136 0)
  (-0.124129 0.0230841 0)
  (-0.128043 0.0331993 0)
  (-0.130867 0.048057 0)
  (-0.132253 0.0666864 0)
  (-0.130288 0.0847539 0)
  (-0.120961 0.0882091 0)
  (-0.109509 0.0402896 0)
  (-0.17009 -0.171588 0)
  (-0.0205499 0.229461 0)
  (0.0748477 0.119762 0)
  (0.0754399 0.0402024 0)
  (0.0740661 -0.00078837 0)
  (0.0735727 -0.0210928 0)
  (0.0623843 -0.0324639 0)
  (0.0397363 -0.0382199 0)
  (0.00980882 -0.037994 0)
  (-0.0223465 -0.0335731 0)
  (-0.0474512 -0.0296123 0)
  (-0.0660893 -0.027443 0)
  (-0.0763246 -0.0283113 0)
  (-0.0802741 -0.0310244 0)
  (-0.0817164 -0.034432 0)
  (-0.0818535 -0.0380647 0)
  (-0.0815579 -0.0415464 0)
  (-0.0813215 -0.0450565 0)
  (-0.0814193 -0.0486765 0)
  (-0.0820006 -0.0522892 0)
  (-0.0832121 -0.0557005 0)
  (-0.0852628 -0.0589877 0)
  (-0.0882958 -0.062307 0)
  (-0.0923249 -0.0655713 0)
  (-0.0972997 -0.0687106 0)
  (-0.103032 -0.0713523 0)
  (-0.109087 -0.0726619 0)
  (-0.114787 -0.0716606 0)
  (-0.11937 -0.0675585 0)
  (-0.122161 -0.0594706 0)
  (-0.122636 -0.0470252 0)
  (-0.11997 -0.0311422 0)
  (-0.112701 -0.0119584 0)
  (-0.0992715 0.00996386 0)
  (-0.0783718 0.0324656 0)
  (-0.0499565 0.0486129 0)
  (-0.0110143 0.0402473 0)
  (0.127119 -0.0283322 0)
  (-0.053925 -0.0883657 0)
  (-0.0788569 -0.32584 0)
  (-0.406438 -0.0991021 0)
  (-0.278271 0.130321 0)
  (-0.183148 0.0341994 0)
  (-0.122251 0.0092484 0)
  (-0.0974465 0.0253574 0)
  (-0.0926946 0.046966 0)
  (-0.0975058 0.0608978 0)
  (-0.108214 0.0742359 0)
  (-0.117707 0.0868561 0)
  (-0.123312 0.0978541 0)
  (-0.123979 0.107259 0)
  (-0.121089 0.116336 0)
  (-0.116362 0.125597 0)
  (-0.111057 0.133595 0)
  (-0.106227 0.140371 0)
  (-0.102201 0.14613 0)
  (-0.0990228 0.151183 0)
  (-0.0966231 0.155878 0)
  (-0.0949706 0.160363 0)
  (-0.094043 0.164619 0)
  (-0.0937572 0.168592 0)
  (-0.09399 0.172488 0)
  (-0.0946276 0.176562 0)
  (-0.0955452 0.180783 0)
  (-0.0966187 0.185123 0)
  (-0.0977319 0.189082 0)
  (-0.0987662 0.19151 0)
  (-0.099586 0.191176 0)
  (-0.0999602 0.18743 0)
  (-0.0993468 0.179993 0)
  (-0.0965573 0.169728 0)
  (-0.089675 0.159021 0)
  (-0.0765927 0.149939 0)
  (-0.0564908 0.144644 0)
  (-0.0314821 0.144489 0)
  (0.00426383 0.146866 0)
  (0.0333924 0.143727 0)
  (0.186045 0.108366 0)
  (-0.51846 0.197466 0)
)
;

boundaryField
{
  floor
  {
    type noSlip;
  }
  ceiling
  {
    type noSlip;
  }
  sWall
  {
    type noSlip;
  }
  nWall
  {
    type noSlip;
  }
  sideWalls
  {
    type empty;
  }
  glass1
  {
    type noSlip;
  }
  glass2
  {
    type noSlip;
  }
  sun
  {
    type noSlip;
  }
  Table_master
  {
    type noSlip;
  }
  Table_slave
  {
    type noSlip;
  }
  inlet
  {
    type fixedValue;
    value uniform (0.277164 -0.114805 0);
  }
  outlet
  {
    type zeroGradient;
  }
} 	// ************************************************************************* //

