/*--------------------------------*- C++ -*----------------------------------*\
  =========                 |
  \\      /  F ield         | OpenFOAM: The Open Source CFD Toolbox
   \\    /   O peration     | Website:  https://openfoam.org
    \\  /    A nd           | Version:  6
     \\/     M anipulation  |
\*---------------------------------------------------------------------------*/
FoamFile
{
    version     2.0;
    format      ascii;
    class       volScalarField;
    location    "3000";
    object      k;
}
// * * * * * * * * * * * * * * * * * * * * * * * * * * * * * * * * * * * * * //

dimensions      [0 2 -2 0 0 0 0];

internalField   nonuniform List<scalar> 
458
(
0.00236851
0.00282916
0.00293288
0.0032234
0.00350658
0.00378453
0.00407047
0.0043474
0.00454034
0.00460996
0.00452612
0.00427991
0.00388557
0.00338319
0.002832
0.000430326
0.000627732
0.000812562
0.000842239
0.000802121
0.000703209
0.000603289
0.000519663
0.00045172
0.000396269
0.000350644
0.000313006
0.000281341
0.000253936
0.00022919
0.000205467
0.000191224
0.000160143
0.00440539
0.00826283
0.00471935
0.00501332
0.0054847
0.00603305
0.00663701
0.00725912
0.00781224
0.00816857
0.00822887
0.00795376
0.00735317
0.00648446
0.00546033
0.00312438
0.00204767
0.00123572
0.000470827
0.00105846
0.00134677
0.00146435
0.00143613
0.00122005
0.000998377
0.000818437
0.000679123
0.000571098
0.00048638
0.000418289
0.000362414
0.000316459
0.000283483
0.000263915
0.000460309
0.000273376
0.00656865
0.0150684
0.00588848
0.00569332
0.00612665
0.00673113
0.00745264
0.00822762
0.0089045
0.00934389
0.00946322
0.00923709
0.00867057
0.00782304
0.00681291
0.00563587
0.00445782
0.00216207
0.00159494
0.00176601
0.00185356
0.00187289
0.00178443
0.00136603
0.00103712
0.000804487
0.000639964
0.000521663
0.000434828
0.000370005
0.00032117
0.000285235
0.00026322
0.00026375
0.000695111
0.000373945
0.00903753
0.0244288
0.00746597
0.00596519
0.0062596
0.00692602
0.00783151
0.00878816
0.00952505
0.00997331
0.0101078
0.00991569
0.00937775
0.00854288
0.00760226
0.00665051
0.00571938
0.00461283
0.00342743
0.00298082
0.00275309
0.00260325
0.00244532
0.00222988
0.00172989
0.00142484
0.00123535
0.00110605
0.00100487
0.000910935
0.000825379
0.000740334
0.000647293
0.000485672
0.000387518
0.000962709
0.000483883
0.0119464
0.0367069
0.0110171
0.00653332
0.00647177
0.0072668
0.00862512
0.00973336
0.0103873
0.0107367
0.0108175
0.0105893
0.0100095
0.00911179
0.00803321
0.00693038
0.00591401
0.00508498
0.00450226
0.00400555
0.00361444
0.00327727
0.00295608
0.00263278
0.002322
0.0021056
0.00196296
0.00184899
0.00173376
0.00159803
0.00142468
0.00123143
0.00102907
0.0008033
0.000609944
0.000806793
0.000903876
0.000850294
0.000985148
0.00117757
0.0154605
0.049584
0.0192702
0.00923995
0.0081001
0.0090454
0.0108233
0.011545
0.0118061
0.0118959
0.0118478
0.0115377
0.0108449
0.00976181
0.00841972
0.0070389
0.00585251
0.00503409
0.00457882
0.00427304
0.00395195
0.00358252
0.00319373
0.00282416
0.00253527
0.00236449
0.00226213
0.00217764
0.00208288
0.00195754
0.00177628
0.00155534
0.00131867
0.00107661
0.000874205
0.000822228
0.000912188
0.000934274
0.00151323
0.00126629
0.019033
0.0576253
0.0324874
0.018747
0.0154486
0.0153974
0.0149406
0.0143262
0.0138503
0.0135696
0.013323
0.0128455
0.0119319
0.0105559
0.00887484
0.0071851
0.00582423
0.00498927
0.0045815
0.00430226
0.00396588
0.0035596
0.00314378
0.00278126
0.00253023
0.00240256
0.00234582
0.00231568
0.00229024
0.00225219
0.00217834
0.00201129
0.00179866
0.00157007
0.00138812
0.00130243
0.00137413
0.00157787
0.00209297
0.00180945
0.019752
0.0563644
0.0397983
0.0317859
0.0266744
0.0223555
0.0191336
0.0171453
0.0161305
0.0156711
0.0152899
0.014554
0.013229
0.0113653
0.00920249
0.00714095
0.00563259
0.00478956
0.00435976
0.00401344
0.00361875
0.00319843
0.00281623
0.00252295
0.00234588
0.00227472
0.00227404
0.00231942
0.00240238
0.00252083
0.0026717
0.00283339
0.00290902
0.00295866
0.00313787
0.00369867
0.00485208
0.00633238
0.0116113
0.00428383
0.0187033
0.0262385
0.0246201
0.0216818
0.0193182
0.0179412
0.017495
0.0177173
0.0181895
0.0184271
0.017991
0.016594
0.0142931
0.0115111
0.0086218
0.00617024
0.00485069
0.00415316
0.0037215
0.00334787
0.0029656
0.00260238
0.00230434
0.00210207
0.00200153
0.00198548
0.00203066
0.00212343
0.00225953
0.00243863
0.00265997
0.00292034
0.00323275
0.00361765
0.00411756
0.00469949
0.00523153
0.00556795
0.00574967
0.00380133
0.00779416
0.0139429
0.0198355
0.0231033
0.0248203
0.0253515
0.0246243
0.0227084
0.0196612
0.0155981
0.0113234
0.00811041
0.00588317
0.00447412
0.00365898
0.00315034
0.00276888
0.00243279
0.00213444
0.00188915
0.00171275
0.0016115
0.00157526
0.00158938
0.00164328
0.00173285
0.00185909
0.00202668
0.00224364
0.00252516
0.00287453
0.00328516
0.00373965
0.00416187
0.00440609
0.00435356
0.00402448
0.00257718
0.0080555
0.0196996
0.0253199
0.0242776
0.0232617
0.0214694
0.0186705
0.0154013
0.0121739
0.0091936
0.00668717
0.00490137
0.00374779
0.00304159
0.0026037
0.00230319
0.00206924
0.00187505
0.00172025
0.00160918
0.00154025
0.00150382
0.00149339
0.00151088
0.00155769
0.00163534
0.00174778
0.00190104
0.0021034
0.00237074
0.00271098
0.003123
0.00358069
0.00402492
0.00428173
0.00454522
0.00437125
0.00267292
0.00645698
0.00723445
0.00781805
0.00904494
0.0084032
0.00765952
0.00718726
0.0065573
0.00572909
0.00480105
0.00387385
0.00302523
0.00232438
0.00181932
0.00148489
0.00126303
0.00110577
0.000985608
0.000890462
0.00081736
0.000766498
0.000737232
0.000727823
0.000736319
0.000762919
0.000804791
0.000861144
0.000933443
0.00102434
0.00113851
0.00128309
0.00145533
0.0016588
0.00189813
0.00217563
0.00252264
0.00265436
0.00252933
0.00221168
0.00191187
)
;

boundaryField
{
    floor
    {
        type            kqRWallFunction;
        value           nonuniform List<scalar> 
36
(
0.002832
0.000430326
0.000627732
0.000812562
0.000842239
0.000802121
0.000703209
0.000603289
0.000519663
0.00045172
0.000396269
0.000350644
0.000313006
0.000281341
0.000253936
0.00022919
0.000205467
0.000191224
0.000160143
0.000160143
0.000273376
0.000373945
0.000483883
0.000850294
0.000985148
0.00117757
0.002832
0.00312438
0.00204767
0.00123572
0.000430326
0.00123572
0.000470827
0.00216207
0.00159494
0.00342743
)
;
    }
    ceiling
    {
        type            kqRWallFunction;
        value           nonuniform List<scalar> 
43
(
0.00645698
0.00723445
0.00781805
0.00904494
0.0084032
0.00765952
0.00718726
0.0065573
0.00572909
0.00480105
0.00387385
0.00302523
0.00232438
0.00181932
0.00148489
0.00126303
0.00110577
0.000985608
0.000890462
0.00081736
0.000766498
0.000737232
0.000727823
0.000736319
0.000762919
0.000804791
0.000861144
0.000933443
0.00102434
0.00113851
0.00128309
0.00145533
0.0016588
0.00189813
0.00217563
0.00252264
0.00265436
0.00252933
0.00221168
0.00191187
0.0187033
0.0262385
0.0080555
)
;
    }
    sWall
    {
        type            kqRWallFunction;
        value           uniform 0.00645698;
    }
    nWall
    {
        type            kqRWallFunction;
        value           nonuniform List<scalar> 6(0.00117757 0.00126629 0.00180945 0.00257718 0.00267292 0.00191187);
    }
    sideWalls
    {
        type            empty;
    }
    glass1
    {
        type            kqRWallFunction;
        value           nonuniform List<scalar> 9(0.00236851 0.00440539 0.00656865 0.00903753 0.0119464 0.0154605 0.019033 0.019752 0.0187033);
    }
    glass2
    {
        type            kqRWallFunction;
        value           nonuniform List<scalar> 2(0.00428383 0.00380133);
    }
    sun
    {
        type            kqRWallFunction;
        value           nonuniform List<scalar> 
14
(
0.00236851
0.00282916
0.00293288
0.0032234
0.00350658
0.00378453
0.00407047
0.0043474
0.00454034
0.00460996
0.00452612
0.00427991
0.00388557
0.00338319
)
;
    }
    Table_master
    {
        type            kqRWallFunction;
        value           nonuniform List<scalar> 9(0.00136603 0.00103712 0.000804487 0.000639964 0.000521663 0.000434828 0.000370005 0.00032117 0.000285235);
    }
    Table_slave
    {
        type            kqRWallFunction;
        value           nonuniform List<scalar> 9(0.00172989 0.00142484 0.00123535 0.00110605 0.00100487 0.000910935 0.000825379 0.000740334 0.000647293);
    }
    inlet
    {
        type            turbulentIntensityKineticEnergyInlet;
        intensity       0.05;
        value           uniform 0.0003375;
    }
    outlet
    {
        type            zeroGradient;
    }
}


// ************************************************************************* //
