/*--------------------------------*- C++ -*----------------------------------*\
  =========                 |
  \\      /  F ield         | OpenFOAM: The Open Source CFD Toolbox
   \\    /   O peration     | Website:  https://openfoam.org
    \\  /    A nd           | Version:  6
     \\/     M anipulation  |
\*---------------------------------------------------------------------------*/
FoamFile
{
    version     2.0;
    format      ascii;
    class       surfaceScalarField;
    location    "3000";
    object      phi;
}
// * * * * * * * * * * * * * * * * * * * * * * * * * * * * * * * * * * * * * //

dimensions      [1 0 -1 0 0 0 0];

internalField   nonuniform List<scalar> 
850
(
-0.00294483
0.00300171
-0.00398126
0.00103645
-0.00476323
0.000781993
-0.00536813
0.000604931
-0.00576357
0.00039546
-0.00592462
0.000161078
-0.00582855
-9.60474e-05
-0.00546103
-0.000367496
-0.00484288
-0.00061813
-0.00403484
-0.000808021
-0.00312321
-0.000911607
-0.00219852
-0.000924661
-0.00133955
-0.000858952
-0.000596041
-0.000743486
-0.000594461
-0.000715965
0.000718925
-0.000419774
-0.000296175
0.000179741
-0.000599499
0.000677536
-0.00049778
0.00102938
-0.000351833
0.00122173
-0.000192331
0.00130317
-8.1426e-05
0.00134249
-3.93124e-05
0.00136426
-2.17586e-05
0.00137409
-9.81393e-06
0.00137487
-7.66461e-07
0.0013669
7.98092e-06
0.00134391
2.29943e-05
0.00128655
5.73689e-05
0.00116217
0.000124388
0.000961056
0.000201127
0.000711583
0.00024948
0.000715508
-0.00210396
0.00525863
-0.00311469
0.00204721
-0.0039194
0.00158672
-0.00451586
0.00120141
-0.00490571
0.000785338
-0.00507278
0.000328169
-0.00499137
-0.000177435
-0.00465231
-0.00070653
-0.0040888
-0.00118163
-0.0033699
-0.00152689
-0.00258039
-0.0017011
-0.00179811
-0.00170692
-0.0010885
-0.00156854
-0.000511111
-0.00132085
-0.000107502
-0.000998048
0.000443729
-0.000548247
0.000537319
-9.00802e-05
0.000547877
0.000288834
0.000438678
0.00065494
-0.000662264
0.000912635
-0.000857178
0.00114982
-0.000734952
0.0013357
-0.000537693
0.0013739
-0.000230516
0.0013784
-8.59151e-05
0.00138531
-4.62105e-05
0.00139133
-2.77704e-05
0.00139481
-1.3277e-05
0.00139615
-2.09893e-06
0.00139522
8.92912e-06
0.0013895
2.87181e-05
0.00135315
9.37326e-05
0.00119889
0.000278651
0.000931033
0.000468997
0.000598914
0.000581606
0.0013245
-0.00147546
0.00696796
-0.00234877
0.00292055
-0.0030623
0.00230027
-0.00357244
0.00171157
-0.00391152
0.00112444
-0.00405771
0.000474384
-0.00396451
-0.000270614
-0.00362105
-0.00104997
-0.0030855
-0.00171715
-0.00244007
-0.0021723
-0.0017673
-0.00237384
-0.00112789
-0.00234631
-0.000566555
-0.00212986
-0.000118482
-0.0017689
0.000185952
-0.00130246
0.000356412
-0.000718688
0.000317787
-5.14341e-05
0.000874315
0.00132101
-0.000872861
0.00151894
-0.000860176
0.00149811
-0.000836333
0.00152994
-0.000766765
0.00167276
-0.000680499
0.00144241
0.00135666
0.00131062
0.00128301
0.0012699
0.00126797
0.00127706
0.00130594
0.00139984
0.00115902
0.00051948
0.000861984
0.00076604
0.000482221
0.000961376
0.00182196
-0.00103196
0.00830273
-0.00172494
0.00361355
-0.00219607
0.00277143
-0.00252835
0.00204388
-0.0027477
0.00134381
-0.00281401
0.000540715
-0.00265087
-0.00043373
-0.00226899
-0.00143182
-0.00176466
-0.00222145
-0.0012219
-0.00271503
-0.00070552
-0.00289019
-0.000247798
-0.002804
0.000134052
-0.00251169
0.000431976
-0.00206681
0.000655819
-0.00152629
0.00084692
-0.000909773
0.00107413
-0.000278628
0.00183835
0.000110113
0.00209715
-0.000250297
0.00180365
-0.000579347
0.00170545
-0.000761954
0.00161145
-0.000742322
0.00151448
-0.00066978
0.00135949
-0.000525496
0.00160407
-0.000244731
0.00174366
-0.00013973
0.00185224
-0.000108725
0.00194157
-8.94796e-05
0.00200072
-5.93018e-05
0.00200609
-5.51283e-06
0.00192759
7.83465e-05
0.00172831
0.000199127
0.00135006
0.000378105
0.00115996
0.000709578
0.000841699
0.00108431
0.000384012
0.00141907
0.00222554
-0.000723459
0.00938761
-0.00124891
0.00413903
-0.001346
0.00286854
-0.00140492
0.00210282
-0.00142666
0.00136557
-0.0013107
0.000424773
-0.000991933
-0.000752476
-0.000564128
-0.0018596
-0.000134198
-0.00265135
0.000238169
-0.00308736
0.000532077
-0.00318407
0.000747212
-0.00301911
0.000897416
-0.00266187
0.00100639
-0.00217577
0.00109905
-0.00161894
0.00122776
-0.00103847
0.00146532
-0.000516172
0.00179323
-0.000217781
0.00183162
-0.000288675
0.00172167
-0.000469378
0.0015424
-0.000582675
0.00138578
-0.000585685
0.00124962
-0.000533613
0.00115834
-0.000434205
0.00120791
-0.000294297
0.00128029
-0.00021211
0.00135523
-0.000183667
0.00143307
-0.000167311
0.00150553
-0.000131765
0.00155341
-5.33927e-05
0.00155104
8.07075e-05
0.00148035
0.000269819
0.00134559
0.000512865
0.00121334
0.000841822
0.00106908
0.00122858
0.00078385
0.0017043
0.000995724
0.00201367
-0.000973654
0.00198686
-0.00164318
0.00068546
-0.00157886
-0.000629914
0.0104285
-0.000986874
0.00449602
-0.00056317
0.00244486
-0.000197579
0.00173725
8.78873e-05
0.00108012
0.00051457
-1.89498e-06
0.00103495
-0.00127283
0.00144359
-0.00226821
0.00170219
-0.00290992
0.00181807
-0.0032032
0.00182563
-0.00319159
0.00175244
-0.0029459
0.00163019
-0.00253959
0.00149502
-0.00204059
0.00138129
-0.0015052
0.00132603
-0.000983197
0.00135517
-0.000545304
0.00142398
-0.000286578
0.00138927
-0.000253953
0.0012538
-0.000333901
0.00107188
-0.000400748
0.000904383
-0.000418176
0.000769219
-0.000398445
0.000685753
-0.000350735
0.000679796
-0.000288339
0.00072295
-0.000255264
0.000791729
-0.000252448
0.000877716
-0.000253302
0.000975865
-0.000229917
0.00107785
-0.000155386
0.00116061
-2.0514e-06
0.00120711
0.000223313
0.0012316
0.00048837
0.00127597
0.000797446
0.00138659
0.00111796
0.00159513
0.00149576
0.00193802
0.00167078
0.00223103
0.00169385
0.00175528
0.00116121
0.000235936
-0.000678941
0.0115633
-0.000552577
0.00436968
0.000595602
0.00129671
0.00141403
0.000918843
0.00215198
0.000342192
0.00288097
-0.000730871
0.00338493
-0.00177676
0.00362031
-0.00250355
0.00360391
-0.00289347
0.0033866
-0.00298585
0.00303369
-0.00283865
0.00260612
-0.00251831
0.00215808
-0.00209154
0.0017373
-0.00161979
0.00137991
-0.00114781
0.00111005
-0.000713328
0.000939566
-0.000374812
0.000836195
-0.000183202
0.000726733
-0.000144486
0.000581625
-0.000188788
0.000421177
-0.000240297
0.000273372
-0.00027037
0.000155262
-0.000280335
8.14533e-05
-0.000276929
6.39001e-05
-0.00027079
8.99726e-05
-0.000281342
0.000143114
-0.000305595
0.000216636
-0.000326831
0.000312212
-0.000325501
0.000435478
-0.00027866
0.00059049
-0.000157071
0.000754739
5.90566e-05
0.000920405
0.000322698
0.00112333
0.000594519
0.00139784
0.000843447
0.00178922
0.00110437
0.00230208
0.00115792
0.00301465
0.00098128
0.00315134
0.00102451
0.00344957
0.00262038
0.00945319
0.003338
0.00365209
0.00376066
0.000874063
0.00451284
0.000166689
0.00537663
-0.000521583
0.0059625
-0.00131671
0.0061151
-0.00192933
0.00588534
-0.00227374
0.00536144
-0.00236952
0.00464237
-0.00226674
0.00382522
-0.00202147
0.00299151
-0.00168458
0.00220396
-0.00130396
0.00151124
-0.000927065
0.00094275
-0.00057932
0.000512223
-0.000282802
0.000230071
-9.26608e-05
5.97282e-05
-1.28587e-05
-6.58781e-05
-1.88794e-05
-0.00018871
-6.59568e-05
-0.000313016
-0.000115992
-0.000428086
-0.000155303
-0.000522685
-0.000185741
-0.000588065
-0.000211555
-0.000620411
-0.00023845
-0.00062912
-0.000272641
-0.000624576
-0.000310148
-0.000610215
-0.000341201
-0.000581152
-0.000354573
-0.000521917
-0.000337903
-0.000402482
-0.000276514
-0.000198053
-0.00014538
5.6248e-05
6.83893e-05
0.000341125
0.000309636
0.000658867
0.000525699
0.0010319
0.000731334
0.00143208
0.000757745
0.00180408
0.000609273
0.00117091
0.00165768
0.00487724
0.010014
0.0136589
0.0125188
0.00201418
0.0118155
0.00086998
0.0111288
0.000165165
0.0101817
-0.0003696
0.00897248
-0.000719992
0.00761279
-0.000913975
0.00619943
-0.000956106
0.00481075
-0.000878023
0.00351439
-0.000725096
0.00235653
-0.000526711
0.00136306
-0.000310498
0.000548007
-0.000112011
-7.42144e-05
4.28924e-05
-0.000478274
0.00012125
-0.000694834
0.000123894
-0.000807369
9.96717e-05
-0.00088454
5.82869e-05
-0.000962725
1.2222e-05
-0.00104941
-2.93091e-05
-0.00113867
-6.60513e-05
-0.00122295
-0.000101477
-0.00129838
-0.000136132
-0.00136646
-0.000170374
-0.00143527
-0.000203843
-0.00151416
-0.000231271
-0.00161169
-0.000243683
-0.00173687
-0.000229396
-0.00190104
-0.000173748
-0.00211591
-6.16468e-05
-0.00238012
0.000118819
-0.00269208
0.000380346
-0.0031176
0.00073515
-0.00377198
0.00118008
-0.00472749
0.00168684
-0.00610537
0.00213562
-0.00773343
0.00223732
-0.00729195
0.0012162
-0.00213111
0.0046755
0.00352304
0.00370732
0.00183836
0.0040155
-0.000142799
0.0039894
-0.000343397
0.00356017
-0.000290729
0.00290796
-0.000261772
0.0021405
-0.000188662
0.00131905
-5.659e-05
0.000502052
9.18706e-05
-0.000229062
0.000204373
-0.000793204
0.000253627
-0.00116348
0.000258257
-0.00137063
0.000250031
-0.00147434
0.000224947
-0.00153635
0.000185899
-0.00158103
0.000144339
-0.00162614
0.000103394
-0.00167918
6.5246e-05
-0.00173996
3.14699e-05
-0.00180847
2.44488e-06
-0.00188433
-2.5634e-05
-0.00196702
-5.34483e-05
-0.00205908
-7.83283e-05
-0.0021633
-9.96258e-05
-0.00228142
-0.000113163
-0.00241329
-0.000111825
-0.00255554
-8.7155e-05
-0.00270055
-2.87506e-05
-0.00283735
7.51512e-05
-0.00295625
0.000237713
-0.00306078
0.00048487
-0.00315949
0.000833852
-0.0032527
0.00127328
-0.00330819
0.00174232
-0.00327918
0.00210661
-0.00299136
0.0019495
-0.00168773
-8.74446e-05
-0.00374473
-0.000606604
0.004194
0.000198696
0.00103317
-0.000227489
0.000283445
-0.000651033
8.01535e-05
-0.00101793
7.61485e-05
-0.00138984
0.000110099
-0.00173655
0.000158019
-0.00200346
0.000210293
-0.00216622
0.000254618
-0.00224292
0.000281052
-0.00226458
0.000275271
-0.00225157
0.000245239
-0.00221303
0.000211472
-0.00216824
0.000180149
-0.00213478
0.000152432
-0.00211927
0.000128814
-0.00212327
0.000107385
-0.00214459
8.65477e-05
-0.00217881
6.56798e-05
-0.00222104
4.46661e-05
-0.0022718
2.51126e-05
-0.00233088
5.62146e-06
-0.00239726
-1.19669e-05
-0.00247064
-2.62533e-05
-0.00254838
-3.54345e-05
-0.00262385
-3.63649e-05
-0.00268631
-2.4702e-05
-0.00272011
5.04147e-06
-0.00271182
6.6846e-05
-0.00264285
0.000168734
-0.00248159
0.000323607
-0.00219851
0.000550767
-0.00177582
0.000850578
-0.00118945
0.00115595
-0.000249664
0.00116681
0.0011041
0.000595736
0.00160758
-0.000590937
-0.00205589
-0.0074244
-0.0103474
-0.00611075
-0.00505737
-0.0047625
-0.00467498
-0.00459393
-0.00448077
-0.00432116
-0.00411051
-0.00385661
-0.0035773
-0.00330472
-0.00306304
-0.00285587
-0.00268063
-0.00253361
-0.00241064
-0.00230945
-0.00222937
-0.00217036
-0.00213249
-0.00211421
-0.00211539
-0.00213408
-0.00216692
-0.00220879
-0.0022514
-0.00228213
-0.00228289
-0.00222158
-0.00205813
-0.00173956
-0.0011936
-0.000347632
0.000803849
0.00196614
0.00255715
0.00196115
)
;

boundaryField
{
    floor
    {
        type            calculated;
        value           nonuniform List<scalar> 
36
(
0
0
0
0
0
0
0
0
0
0
0
0
0
0
0
0
0
0
0
-3.91868e-06
-1.00776e-05
-1.52345e-05
-1.95591e-05
-1.74808e-05
-1.59414e-05
-1.49248e-05
-1.55802e-06
-2.96285e-06
-3.48645e-06
-4.18286e-06
-2.94398e-06
-6.35088e-06
-8.57231e-06
-8.62829e-06
-9.45566e-06
-8.47597e-06
)
;
    }
    ceiling
    {
        type            calculated;
        value           nonuniform List<scalar> 
43
(
-4.53294e-05
-4.39998e-05
-4.27011e-05
-2.02264e-05
-1.14655e-05
-7.39384e-06
-4.92477e-06
-3.08345e-06
-1.61079e-06
-3.79054e-07
7.06926e-07
1.72062e-06
2.68045e-06
3.54673e-06
4.28526e-06
4.89538e-06
5.40045e-06
5.82391e-06
6.17714e-06
6.45748e-06
6.65716e-06
6.77468e-06
6.8163e-06
6.79239e-06
6.70771e-06
6.57974e-06
6.41964e-06
6.23231e-06
6.02113e-06
5.78712e-06
5.53011e-06
5.2737e-06
5.02692e-06
4.79886e-06
4.60471e-06
4.46005e-06
4.50951e-06
4.71755e-06
5.05438e-06
6.21084e-06
1.01912e-05
7.25875e-06
-6.42752e-05
)
;
    }
    sWall
    {
        type            calculated;
        value           uniform -0.00027226;
    }
    nWall
    {
        type            calculated;
        value           nonuniform List<scalar> 6(-4.93891e-05 -5.95209e-05 -6.22866e-05 -7.41224e-05 -8.1264e-05 -0.000100956);
    }
    sideWalls
    {
        type            empty;
        value           nonuniform 0();
    }
    glass1
    {
        type            calculated;
        value           nonuniform List<scalar> 9(-5.6848e-05 -0.000152942 -0.000233841 -0.000302775 -0.000361399 -0.000410938 -0.000455876 -0.000510215 -0.00057098);
    }
    glass2
    {
        type            calculated;
        value           nonuniform List<scalar> 2(-0.000256767 -0.0002836);
    }
    sun
    {
        type            calculated;
        value           uniform 0;
    }
    Table_master
    {
        type            calculated;
        value           nonuniform List<scalar> 9(-1.53109e-07 -1.53235e-07 -1.53279e-07 -1.53307e-07 -1.53326e-07 -1.5334e-07 -1.53345e-07 -1.53342e-07 -1.53316e-07);
    }
    Table_slave
    {
        type            calculated;
        value           nonuniform List<scalar> 9(1.53001e-07 1.53008e-07 1.52972e-07 1.5294e-07 1.52919e-07 1.52919e-07 1.52924e-07 1.52958e-07 1.53035e-07);
    }
    inlet
    {
        type            calculated;
        value           uniform -0.00618428;
    }
    outlet
    {
        type            calculated;
        value           nonuniform List<scalar> 2(0.00774199 0.00296704);
    }
}


// ************************************************************************* //
