/*--------------------------------*- C++ -*----------------------------------*=========                 |
  \      /  F ield         | OpenFOAM: The Open Source CFD Toolbox
   \    /   O peration     | Website:  https://openfoam.org
    \  /    A nd           | Version:  6
     \/     M anipulation  |
\*---------------------------------------------------------------------------*/
FoamFile
{
    version     2.0;
    format      ascii;
    class       volScalarField;
    location    "3000";
    object      PMV;
}
// * * * * * * * * * * * * * * * * * * * * * * * * * * * * * * * * * * * * * //

dimensions      [0 0 0 0 0 0 0];

internalField   nonuniform List<scalar> 
458
(
1.8858352379290888
1.6930016203885774
1.6714714762615743
1.6527042813640433
1.6401253445796382
1.6324559228614166
1.6297920088075866
1.6325366124838958
1.639916672236749
1.6529987250818912
1.6722103798407333
1.700133594557948
1.7378908479166053
1.7742520365937153
1.7761639259396687
1.8129595872326196
1.8053150462833933
1.8043594294292356
1.8067484511323724
1.8086596193510092
1.8100929667409813
1.8101731027902026
1.806765619690486
1.8061538307274378
1.8064036792022309
1.8070752106171506
1.808236094844108
1.810154005408796
1.8136032456542412
1.8191702561774066
1.8201257018841344
1.8220365596424615
1.8306348601212135
1.8665180372067403
1.7139923794243304
1.7079284910024626
1.691832319019239
1.6825013887851503
1.6773752055117057
1.6761339786685343
1.6780750575153307
1.6809288495096997
1.6864288079177014
1.6956334387514298
1.712019423880889
1.7367141260771577
1.7686190443552927
1.769950135871836
1.7713841257367051
1.7723401062417519
1.7492665588099792
1.784986755362507
1.800536853478579
1.800536853478579
1.80388161692329
1.8022193149702936
1.7999191392748295
1.7988076251276968
1.7985766438315434
1.7979871314179237
1.7966704475506543
1.7959222661257594
1.795384230289193
1.7950262129415695
1.7963613931621225
1.80105699740222
1.8067484511323724
1.8096151870231463
1.8042646580633759
1.9144297178327596
1.7190449306815825
1.7403079115476605
1.7340333359030304
1.7345633755360805
1.7355847308336945
1.7384044285538407
1.7398430709203525
1.7355517571011865
1.7274303563436608
1.7207423036770957
1.7208232150745177
1.7303776471660277
1.7498446762322688
1.7694721341645323
1.7694721341645323
1.7704281350378972
1.7756859574559096
1.7270484486984103
1.7655333383520253
1.7750508441184514
1.7807123987573128
1.78544222975307
1.7861581928795394
1.7969770868907624
1.8046292877783912
1.8068575683994874
1.8065290464341
1.8059362955293758
1.8043871941742082
1.8021885538456863
1.7974243591349708
1.7975694592184692
1.8048372392167755
1.7987954163198727
1.7519289296160874
1.9907411576241631
1.7272338108373042
1.7647606564053653
1.7756420300005282
1.792940881405023
1.8088800355304355
1.8210686370445408
1.8207754906935456
1.8002442687738174
1.767342607992013
1.7373235850105169
1.7183096149207153
1.7145823726908382
1.72687817031111
1.7519597039223787
1.7704281350378972
1.7723401062417519
1.7747300127805283
1.7289498113818658
1.7331703447648361
1.754261651431571
1.773648784307123
1.7906887572205965
1.8092082981436666
1.8209067143241369
1.8170769214331635
1.8141383483183318
1.8135457176697385
1.8139155374492821
1.8150562273996473
1.8189599314489513
1.8269047495876352
1.84220515605351
1.8378844209049576
1.8244304552395807
1.7846842489215182
1.7229105963298479
2.078302976163125
1.7473893864126848
1.7875175844663518
1.8128687416382463
1.8540932706296949
1.8995261456132342
1.9339257193189798
1.9015357221817306
1.8439408364713468
1.782344149895699
1.733923444640304
1.7039611451750036
1.6951048031045524
1.7043290594440463
1.7275929470929443
1.7555687217911204
1.7683926433543982
1.7592754878390209
1.7509943176030018
1.758951132769948
1.7791303827280636
1.803464154772762
1.8265883313727604
1.8486342445834418
1.8611989820082506
1.868938109109728
1.870025700656149
1.8706380065433614
1.869855661115546
1.8680395362983797
1.8659148701087667
1.8645783253308588
1.8629598622510162
1.8503882051202318
1.827730701764527
1.7753129245311754
1.7715304345415923
1.7622181823963254
1.8409143037646916
1.7344905836742865
2.1642787665591814
1.7875374413827183
1.8311618736899473
1.8536981587149335
1.9111837428610465
1.9523369243469697
1.9662041166192035
1.8982060840353114
1.830098011379327
1.7642067422633567
1.7112396934427376
1.6799532818908471
1.6721073480352378
1.6857967739963045
1.7141509775558628
1.7480607514837252
1.7743156961122357
1.7852537832219453
1.7934950543535428
1.8106921343142035
1.8344841194287271
1.8502163935556946
1.8640637425401878
1.8759990560005566
1.886023213962716
1.894136982422337
1.9003409998024767
1.9046357655905373
1.9074987946421678
1.9079759545729982
1.9060672949840847
1.90151048798343
1.8873146020857428
1.865481704226181
1.8360246647598988
1.7856764396380895
1.7721850192817483
1.7614584658612245
1.7793919743215159
1.792394270111299
2.248468674058974
1.8743662286763472
1.9587537828362387
1.9369271382043824
1.9444997943833795
1.9441403846697183
1.9100231532223282
1.8514976493923474
1.7804315305810867
1.712783466720496
1.6645122730782012
1.6426627456047238
1.6487209084341716
1.6761708343409691
1.7193906091434836
1.7685879032011567
1.80149251370602
1.8172593312124854
1.8330231131039825
1.8487837654700758
1.8640637425401878
1.8788632427036192
1.8917506761908351
1.9022498174080955
1.9103617044284906
1.91656426338953
1.9208580094088112
1.9237203539909167
1.9246744415544002
1.9237203539909167
1.9208580094088112
1.9146558440651211
1.906544464844718
1.8942687050317302
1.8597892277453285
1.8145327036738228
1.7875374626191507
1.7672660234443236
1.7455066055289485
1.816865244619287
2.373420075584959
2.1616262359201848
2.1180636915652853
2.032131287952894
1.9966934650331014
1.9474760754416163
1.867618996083342
1.7722609919760257
1.6836455196531284
1.6202670142908573
1.5918195622720255
1.598898706432063
1.6355873762732605
1.6919731346196474
1.761541004022056
1.8048372392167755
1.829201873985997
1.849738853827054
1.8664509591331082
1.8817273164590342
1.8955687274251707
1.9074987946421678
1.9175184528420348
1.925151480204029
1.9303986785843374
1.9342145601615452
1.9361224174174991
1.9361224174174991
1.935168495771512
1.933260610612759
1.9299216777858454
1.9246744415544002
1.917041359802446
1.9074987946421678
1.897477675405899
1.886023213962716
1.8740994484340625
1.846811645255974
1.7864320477359572
1.7237373359798838
2.557952174255092
2.421605557762825
2.278299952200919
2.1437039482408267
2.0138412286632557
1.8412770566066237
1.6695499143331263
1.5411946924736273
1.4748245937372135
1.4683804085974115
1.5089809580807811
1.5837317610402188
1.6777583026121947
1.764213948345376
1.8072262472899838
1.8468735532333986
1.8712251621701157
1.8879324191739686
1.9012954151536396
1.912747371010271
1.9227662527624017
1.9313526697991383
1.9375532736490166
1.9368522693979002
1.934925471065313
1.931509035855341
1.9265151167986998
1.920536395259186
1.9128877032591045
1.903742847247377
1.8935019557245005
1.881513363660449
1.8693890901075192
1.8569582344640683
1.841530388674834
1.8262628824561595
1.8146762731757375
1.8079926734329308
1.7974600299404657
1.768011299778661
-1.600750633661543
-0.6988407687139908
-0.2940048966744208
0.17655127328595147
0.5767889877522564
0.9165632232520299
1.2001583353718206
1.4326023342084155
1.599637858393118
1.709224385523735
1.7881122956433155
1.8354112942472915
1.8618597937998034
1.8759064920854223
1.888304404447289
1.8976467475324321
1.9054062396981417
1.9108920004414935
1.9141553674286793
1.9156829715628223
1.9150017266701727
1.9127102204401019
1.9092112416334137
1.904368784416242
1.8990877777555395
1.8934215493773399
1.8869959498558009
1.880943959284828
1.875521958786971
1.8707884817397868
1.8673012927999666
1.8646095539616598
1.8626360323595408
1.8624927739637505
1.8688053652664753
1.8955955195198
1.9444274221792632
1.831614172726207
-1.4156034690836619
-0.2939606221858524
0.4385155060348031
0.8956848202316844
1.1893330444481318
1.4022566798146618
1.5456462484510793
1.63674541070167
1.7068240397715684
1.7621158514122728
1.80369907852997
1.8333566558876067
1.8551981709635585
1.8717723922941247
1.8845576249889855
1.8935375522128406
1.8995235027884865
1.9030816850045598
1.9040495596037503
1.9037686893651518
1.902500405915106
1.9001994906713842
1.8978795665186927
1.8949420194074464
1.8923637972741332
1.889349688009495
1.8872079793594823
1.8854021828843088
1.8853980084085518
1.8875098754425204
1.8924262237906966
1.9007394509513944
1.910598943393848
1.9206058241389399
1.930456432347267
1.9607625184415514
1.8947642634987354
1.8617101284963087
-0.24057409634333884
-0.3663273084235952
-0.2646501466426399
0.738872774038477
1.196484898011139
1.4003796461980802
1.516515294258379
1.601583730390998
1.6672818232996311
1.7192291627746574
1.7605784880272353
1.7940355892515838
1.8205184741489226
1.8408691979340506
1.8556476792679486
1.8666959393060747
1.8749405762573839
1.8799411521984957
1.883360767912063
1.8845357946733954
1.8848962611372717
1.8853630940442647
1.8857326574609286
1.8870279304809725
1.8882099513740027
1.889354592662448
1.8902236047369017
1.891332443994978
1.8919130468085035
1.89343375945765
1.8957730679716485
1.9011159721501938
1.9109150303915305
1.9271215787074862
1.943266240878774
1.9433016017500966
1.9252867471523694
1.9085771566364604
1.872343438541999
1.859552024688343
)
;

boundaryField
{
    ".*"
    {
        type            zeroGradient;
    }
}


// ************************************************************************* //
