/*--------------------------------*- C++ -*----------------------------------*\
  =========                 |
  \\      /  F ield         | OpenFOAM: The Open Source CFD Toolbox
   \\    /   O peration     | Website:  https://openfoam.org
    \\  /    A nd           | Version:  6
     \\/     M anipulation  |
\*---------------------------------------------------------------------------*/
FoamFile
{
    version     2.0;
    format      ascii;
    class       volScalarField;
    location    "3000";
    object      T;
}
// * * * * * * * * * * * * * * * * * * * * * * * * * * * * * * * * * * * * * //

dimensions      [0 0 0 1 0 0 0];

internalField   nonuniform List<scalar> 
458
(
303.406
303.146
303.134
303.132
303.13
303.127
303.123
303.118
303.11
303.1
303.088
303.078
303.071
303.067
303.071
303.148
303.132
303.13
303.135
303.139
303.142
303.144
303.146
303.148
303.15
303.152
303.154
303.156
303.158
303.161
303.163
303.167
303.185
303.582
303.188
303.166
303.17
303.174
303.176
303.175
303.169
303.154
303.133
303.108
303.086
303.07
303.061
303.058
303.061
303.063
303.078
303.148
303.122
303.122
303.129
303.136
303.137
303.136
303.135
303.134
303.132
303.131
303.13
303.129
303.13
303.131
303.135
303.141
303.17
303.765
303.238
303.201
303.212
303.228
303.239
303.245
303.239
303.215
303.177
303.135
303.099
303.074
303.061
303.057
303.057
303.059
303.07
303.115
303.114
303.124
303.138
303.151
303.148
303.145
303.142
303.139
303.136
303.134
303.131
303.129
303.127
303.129
303.131
303.136
303.165
303.95
303.301
303.236
303.254
303.283
303.311
303.329
303.325
303.288
303.226
303.162
303.109
303.074
303.058
303.056
303.059
303.063
303.068
303.077
303.091
303.113
303.138
303.161
303.182
303.198
303.211
303.223
303.233
303.241
303.247
303.252
303.255
303.256
303.22
303.183
303.158
303.168
304.13
303.379
303.277
303.29
303.33
303.376
303.415
303.408
303.352
303.263
303.177
303.11
303.07
303.053
303.054
303.063
303.073
303.083
303.098
303.12
303.147
303.176
303.203
303.228
303.249
303.266
303.28
303.292
303.3
303.304
303.304
303.3
303.291
303.266
303.227
303.188
303.175
303.253
303.328
303.331
304.292
303.482
303.349
303.34
303.38
303.44
303.488
303.461
303.379
303.273
303.172
303.097
303.054
303.042
303.051
303.07
303.091
303.112
303.135
303.164
303.195
303.226
303.255
303.28
303.301
303.318
303.331
303.34
303.346
303.347
303.343
303.334
303.32
303.298
303.263
303.222
303.197
303.225
303.251
303.289
304.442
303.646
303.513
303.486
303.507
303.561
303.556
303.48
303.36
303.23
303.122
303.051
303.022
303.025
303.052
303.088
303.124
303.157
303.19
303.223
303.255
303.286
303.313
303.335
303.352
303.365
303.374
303.38
303.382
303.38
303.374
303.361
303.344
303.323
303.294
303.259
303.232
303.232
303.242
303.269
304.659
304.063
303.917
303.832
303.796
303.729
303.594
303.418
303.241
303.097
303.005
302.968
302.977
303.015
303.07
303.131
303.182
303.225
303.26
303.292
303.321
303.346
303.367
303.383
303.394
303.402
303.406
303.406
303.404
303.4
303.393
303.382
303.366
303.346
303.325
303.301
303.285
303.286
303.299
303.424
304.97
304.689
304.434
304.2
303.964
303.641
303.309
303.043
302.876
302.806
302.812
302.872
302.957
303.046
303.136
303.219
303.27
303.305
303.333
303.357
303.378
303.396
303.409
303.418
303.424
303.426
303.425
303.423
303.419
303.414
303.41
303.407
303.406
303.408
303.416
303.433
303.46
303.489
303.513
303.569
296.313
298.083
299.255
300.168
300.923
301.545
302.039
302.414
302.702
302.931
303.096
303.195
303.263
303.312
303.347
303.372
303.393
303.41
303.423
303.433
303.439
303.442
303.443
303.442
303.441
303.44
303.438
303.437
303.437
303.437
303.439
303.444
303.454
303.47
303.491
303.515
303.537
303.562
296.98
298.751
300.281
301.234
301.846
302.29
302.62
302.86
303.031
303.158
303.249
303.31
303.352
303.382
303.405
303.422
303.435
303.445
303.451
303.455
303.457
303.457
303.457
303.456
303.456
303.455
303.455
303.454
303.454
303.455
303.457
303.461
303.467
303.478
303.492
303.51
303.512
303.544
299.679
299.604
299.599
301.423
302.245
302.624
302.843
303.003
303.124
303.216
303.285
303.337
303.375
303.402
303.42
303.433
303.443
303.449
303.454
303.456
303.457
303.458
303.458
303.459
303.459
303.459
303.459
303.46
303.46
303.461
303.461
303.462
303.463
303.466
303.469
303.477
303.485
303.492
303.495
303.536
)
;

boundaryField
{
    floor
    {
        type            wallHeatTransfer;
        Tinf            uniform 305.2;
        alphaWall       uniform 0.24;
        value           nonuniform List<scalar> 
36
(
303.279
303.541
303.481
303.45
303.45
303.459
303.476
303.496
303.516
303.535
303.554
303.572
303.589
303.605
303.621
303.638
303.656
303.669
303.709
303.709
303.62
303.573
303.543
303.549
303.599
303.584
303.279
303.262
303.299
303.36
303.541
303.36
303.53
303.3
303.368
303.27
)
;
    }
    ceiling
    {
        type            wallHeatTransfer;
        Tinf            uniform 303.2;
        alphaWall       uniform 0.24;
        value           nonuniform List<scalar> 
43
(
299.926
299.845
299.833
301.532
302.305
302.662
302.867
303.016
303.13
303.215
303.278
303.324
303.357
303.378
303.393
303.402
303.409
303.413
303.416
303.417
303.417
303.417
303.417
303.417
303.418
303.419
303.42
303.421
303.423
303.425
303.427
303.429
303.432
303.435
303.44
303.449
303.457
303.462
303.463
303.498
304.889
304.63
297.376
)
;
    }
    sWall
    {
        type            wallHeatTransfer;
        Tinf            uniform 315.2;
        alphaWall       uniform 0.36;
        value           uniform 301.262;
    }
    nWall
    {
        type            wallHeatTransfer;
        Tinf            uniform 307.2;
        alphaWall       uniform 0.36;
        value           nonuniform List<scalar> 6(304.068 304.016 303.915 304.089 304.067 304.127);
    }
    sideWalls
    {
        type            empty;
    }
    glass1
    {
        type            wallHeatTransfer;
        Tinf            uniform 315.2;
        alphaWall       uniform 4.3;
        value           nonuniform List<scalar> 9(311.444 310.8 310.397 310.091 309.838 309.609 309.441 309.516 309.746);
    }
    glass2
    {
        type            wallHeatTransfer;
        Tinf            uniform 307.2;
        alphaWall       uniform 4.3;
        value           nonuniform List<scalar> 2(305.768 305.867);
    }
    sun
    {
        type            wallHeatTransfer;
        Tinf            uniform 305.2;
        alphaWall       uniform 0.24;
        value           nonuniform List<scalar> 
14
(
303.594
303.346
303.333
303.324
303.316
303.308
303.299
303.29
303.28
303.269
303.26
303.255
303.255
303.262
)
;
    }
    Table_master
    {
        type            zeroGradient;
    }
    Table_slave
    {
        type            zeroGradient;
    }
    inlet
    {
        type            fixedValue;
        value           uniform 293.15;
    }
    outlet
    {
        type            zeroGradient;
    }
}


// ************************************************************************* //
