/*--------------------------------*- C++ -*----------------------------------*\
  =========                 |
  \\      /  F ield         | OpenFOAM: The Open Source CFD Toolbox
   \\    /   O peration     | Website:  https://openfoam.org
    \\  /    A nd           | Version:  6
     \\/     M anipulation  |
\*---------------------------------------------------------------------------*/
FoamFile
{
    version     2.0;
    format      ascii;
    class       volScalarField;
    location    "400";
    object      k;
}
// * * * * * * * * * * * * * * * * * * * * * * * * * * * * * * * * * * * * * //

dimensions      [0 2 -2 0 0 0 0];

internalField   nonuniform List<scalar> 
458
(
0.00178454
0.00206485
0.00214742
0.00233825
0.00251193
0.00267245
0.00282578
0.00297883
0.00314085
0.0033013
0.00344445
0.00354996
0.00359055
0.00354306
0.00339879
0.000532736
0.000768848
0.000902832
0.000857371
0.000786846
0.000697776
0.000613815
0.000543085
0.000484523
0.000435721
0.000394613
0.00035917
0.000327001
0.000295392
0.000260572
0.000217254
0.00020361
0.000215235
0.0033526
0.00605983
0.00289493
0.00300526
0.00314605
0.0033165
0.00352229
0.00377638
0.00408153
0.00444529
0.00484205
0.00519657
0.00540742
0.00539143
0.00518072
0.00382643
0.00270327
0.0018148
0.000611554
0.00122116
0.00137536
0.0013702
0.00127073
0.00108177
0.000900084
0.000754159
0.000639184
0.00054762
0.000473216
0.000410692
0.000357159
0.000315813
0.000294291
0.000274645
0.000647612
0.00045077
0.00512423
0.0115111
0.0033952
0.00325813
0.00330644
0.00339407
0.00351262
0.00369087
0.00394765
0.00428563
0.00465917
0.00497814
0.00517282
0.00527031
0.00551127
0.00592303
0.0049973
0.0023651
0.00204543
0.00200196
0.00186594
0.00171199
0.00154734
0.00123888
0.000984162
0.000792206
0.00064855
0.000539736
0.00045643
0.000392901
0.00034557
0.000312402
0.000294036
0.000288384
0.000828704
0.000583518
0.00729537
0.0198975
0.0042018
0.00331838
0.0032712
0.00329435
0.00333243
0.00344352
0.00368066
0.00404862
0.00444116
0.0047172
0.00480951
0.00480339
0.00511322
0.00600542
0.00599197
0.00459484
0.00349515
0.00309775
0.00266074
0.00232813
0.00206367
0.00182302
0.00140483
0.00120301
0.00112617
0.00111157
0.00111495
0.00110281
0.00105045
0.000982863
0.000895245
0.000645451
0.000477547
0.000989692
0.000699078
0.00999614
0.0321018
0.00638011
0.00342382
0.00320431
0.00316831
0.0031516
0.0032481
0.00355661
0.00409493
0.00461007
0.00489693
0.00488272
0.00465717
0.00476984
0.00545201
0.00520155
0.00465334
0.00414801
0.00350811
0.0030128
0.00262154
0.00230476
0.00205151
0.00190837
0.00195105
0.00206056
0.00215666
0.00220268
0.0021715
0.00204524
0.00181767
0.00155576
0.00120754
0.000874406
0.000910804
0.00107878
0.00102331
0.00112162
0.00112045
0.0134232
0.0458867
0.0131005
0.00450493
0.00349112
0.00322399
0.00306817
0.00309035
0.0035348
0.00442666
0.0050992
0.00540264
0.00528239
0.00480768
0.00468756
0.00511195
0.00445755
0.00355434
0.0032158
0.00310907
0.00289741
0.00259338
0.00233307
0.00219109
0.0022208
0.00238106
0.00255233
0.00269074
0.00277591
0.00278251
0.00268125
0.00242081
0.00208565
0.00170216
0.00133596
0.00111383
0.00109337
0.0014317
0.00331419
0.00185283
0.0175357
0.0552915
0.027729
0.0121016
0.00690566
0.00472476
0.00380919
0.00352399
0.00418832
0.00530036
0.00593377
0.00614202
0.00585837
0.00511878
0.00477738
0.00514111
0.00425559
0.00309435
0.00275953
0.00271361
0.00255256
0.00237334
0.0022882
0.0023126
0.00243708
0.00262243
0.00281758
0.00300186
0.00315964
0.0032704
0.0033125
0.00322725
0.00290102
0.00251029
0.00217325
0.00198706
0.00202806
0.00247685
0.00537509
0.00301489
0.0186769
0.0580173
0.0409112
0.0310857
0.0212645
0.0137787
0.00943558
0.00745508
0.00713565
0.00721859
0.00726806
0.0071305
0.0065245
0.00540802
0.00487538
0.00538463
0.00427396
0.00293065
0.00252355
0.00239309
0.00230614
0.00229265
0.00235357
0.00246132
0.00260491
0.00277961
0.00297486
0.00318315
0.00340511
0.00364882
0.00392558
0.00423202
0.00445318
0.00447357
0.0046928
0.00557118
0.00745094
0.00950874
0.0188021
0.0051606
0.0181485
0.0266889
0.0260645
0.0242304
0.0215587
0.0180272
0.0146771
0.0123066
0.0107089
0.00959689
0.00887994
0.0082256
0.00708225
0.00543
0.00478533
0.00565354
0.00423771
0.00293558
0.00251655
0.00240199
0.00241591
0.00250463
0.0026035
0.00268851
0.00278463
0.00291145
0.00306363
0.00323358
0.00342923
0.00367124
0.00398152
0.00437162
0.00483372
0.00537024
0.00608308
0.00697433
0.00778983
0.00824698
0.00849267
0.0047487
0.0069099
0.0106259
0.0134
0.0142364
0.0136125
0.012502
0.0114293
0.0105428
0.00976305
0.00872125
0.00693057
0.00479788
0.00427316
0.00585423
0.00453626
0.00343305
0.00305797
0.00302332
0.00314974
0.00327469
0.00327539
0.00322342
0.00321685
0.00326373
0.00332607
0.00338641
0.00345696
0.00356048
0.00372511
0.00398777
0.0043831
0.00488472
0.00544197
0.00593938
0.00613297
0.0057914
0.00496928
0.00305596
0.0109142
0.0234598
0.0209741
0.0193765
0.0172251
0.0150531
0.0129764
0.01103
0.00906679
0.00723443
0.00532701
0.00338305
0.00281753
0.00370672
0.00409496
0.00435327
0.00438602
0.00428583
0.00441831
0.00443953
0.0042163
0.00391598
0.00369562
0.00356161
0.00347627
0.00344058
0.00347807
0.00360494
0.00382313
0.00413399
0.00456533
0.00509855
0.00568317
0.00621003
0.00655174
0.00669776
0.00454473
0.00312553
0.0130953
0.0133138
0.0136441
0.0159587
0.0145026
0.0131199
0.0109421
0.00896596
0.0074676
0.00614826
0.00517223
0.00435435
0.00354997
0.00206239
0.00183919
0.00207414
0.00207811
0.00189494
0.00174034
0.00172861
0.00175621
0.00175865
0.00172411
0.00169158
0.00169102
0.00172185
0.0017775
0.00185787
0.00196634
0.00210792
0.00229203
0.00252934
0.00280856
0.00313133
0.00349004
0.00387086
0.0042165
0.00405003
0.00341703
0.00288451
)
;

boundaryField
{
    floor
    {
        type            kqRWallFunction;
        value           nonuniform List<scalar> 
36
(
0.00339879
0.000532736
0.000768848
0.000902832
0.000857371
0.000786846
0.000697776
0.000613815
0.000543085
0.000484523
0.000435721
0.000394613
0.00035917
0.000327001
0.000295392
0.000260572
0.000217254
0.00020361
0.000215235
0.000215235
0.00045077
0.000583518
0.000699078
0.00102331
0.00112162
0.00112045
0.00339879
0.00382643
0.00270327
0.0018148
0.000532736
0.0018148
0.000611554
0.0023651
0.00204543
0.00349515
)
;
    }
    ceiling
    {
        type            kqRWallFunction;
        value           nonuniform List<scalar> 
43
(
0.0130953
0.0133138
0.0136441
0.0159587
0.0145026
0.0131199
0.0109421
0.00896596
0.0074676
0.00614826
0.00517223
0.00435435
0.00354997
0.00206239
0.00183919
0.00207414
0.00207811
0.00189494
0.00174034
0.00172861
0.00175621
0.00175865
0.00172411
0.00169158
0.00169102
0.00172185
0.0017775
0.00185787
0.00196634
0.00210792
0.00229203
0.00252934
0.00280856
0.00313133
0.00349004
0.00387086
0.0042165
0.00405003
0.00341703
0.00288451
0.0181485
0.0266889
0.0109142
)
;
    }
    sWall
    {
        type            kqRWallFunction;
        value           uniform 0.0130953;
    }
    nWall
    {
        type            kqRWallFunction;
        value           nonuniform List<scalar> 6(0.00112045 0.00185283 0.00301489 0.00305596 0.00312553 0.00288451);
    }
    sideWalls
    {
        type            empty;
    }
    glass1
    {
        type            kqRWallFunction;
        value           nonuniform List<scalar> 9(0.00178454 0.0033526 0.00512423 0.00729537 0.00999614 0.0134232 0.0175357 0.0186769 0.0181485);
    }
    glass2
    {
        type            kqRWallFunction;
        value           nonuniform List<scalar> 2(0.0051606 0.0047487);
    }
    sun
    {
        type            kqRWallFunction;
        value           nonuniform List<scalar> 
14
(
0.00178454
0.00206485
0.00214742
0.00233825
0.00251193
0.00267245
0.00282578
0.00297883
0.00314085
0.0033013
0.00344445
0.00354996
0.00359055
0.00354306
)
;
    }
    Table_master
    {
        type            kqRWallFunction;
        value           nonuniform List<scalar> 9(0.00123888 0.000984162 0.000792206 0.00064855 0.000539736 0.00045643 0.000392901 0.00034557 0.000312402);
    }
    Table_slave
    {
        type            kqRWallFunction;
        value           nonuniform List<scalar> 9(0.00140483 0.00120301 0.00112617 0.00111157 0.00111495 0.00110281 0.00105045 0.000982863 0.000895245);
    }
    inlet
    {
        type            turbulentIntensityKineticEnergyInlet;
        intensity       0.05;
        value           uniform 0.00375;
    }
    outlet
    {
        type            zeroGradient;
    }
}


// ************************************************************************* //
