// -*- C++ -*-
// File generated by PyFoam - sorry for the ugliness

FoamFile
{
 version 2.0;
 format ascii;
 class volVectorField;
 location "2400";
 object U;
}

dimensions [ 0 1 -1 0 0 0 0 ];

internalField nonuniform List<vector> 458
(
  (0.0237325 0.0936179 0)
  (-0.183686 0.0301767 0)
  (-0.219275 0.0193891 0)
  (-0.256166 0.0102704 0)
  (-0.280118 0.000335506 0)
  (-0.28839 -0.010669 0)
  (-0.276799 -0.0232367 0)
  (-0.243641 -0.0381528 0)
  (-0.189313 -0.0537322 0)
  (-0.120606 -0.0671741 0)
  (-0.0507931 -0.0749426 0)
  (0.0380875 -0.0522705 0)
  (0.0731284 -0.0250081 0)
  (0.0821398 0.00150051 0)
  (0.0660605 0.0468357 0)
  (-0.0152377 0.0103834 0)
  (-0.0377693 -0.0202909 0)
  (-0.0110969 -0.0349522 0)
  (0.0235766 -0.0304503 0)
  (0.0476495 -0.0219705 0)
  (0.0658196 -0.0120426 0)
  (0.0764159 -0.00679092 0)
  (0.0808835 -0.00488436 0)
  (0.0824759 -0.0041501 0)
  (0.083222 -0.00367537 0)
  (0.0835746 -0.00327657 0)
  (0.0834146 -0.00283139 0)
  (0.0824798 -0.00212647 0)
  (0.0801104 -0.000727796 0)
  (0.0749033 0.0019656 0)
  (0.0652532 0.00529544 0)
  (0.0529571 0.00935021 0)
  (-0.00114961 0.0260847 0)
  (0.200261 0.193371 0)
  (-0.17016 0.0835317 0)
  (-0.181574 0.0658705 0)
  (-0.221226 0.0483771 0)
  (-0.246788 0.0279008 0)
  (-0.257367 0.00344748 0)
  (-0.249112 -0.0260927 0)
  (-0.221059 -0.0590431 0)
  (-0.174508 -0.0901243 0)
  (-0.116237 -0.111478 0)
  (-0.0566923 -0.115624 0)
  (0.000676036 -0.0877204 0)
  (0.0432229 -0.0372974 0)
  (0.0728573 0.00729006 0)
  (0.0939674 0.0517614 0)
  (0.109915 0.0555078 0)
  (0.0875514 0.0613902 0)
  (0.00850829 0.0838287 0)
  (0.0587086 0.0467892 0)
  (0.0134937 -0.0292928 0)
  (0.0314861 -0.0466836 0)
  (0.0493229 -0.0440396 0)
  (0.065286 -0.0337789 0)
  (0.0742125 -0.0146236 0)
  (0.0764739 -0.00313795 0)
  (0.0763988 0.00105297 0)
  (0.0764772 0.0025008 0)
  (0.0768484 0.00327006 0)
  (0.0771335 0.00383167 0)
  (0.0771894 0.0043944 0)
  (0.0769885 0.00542785 0)
  (0.0759726 0.00794598 0)
  (0.0715482 0.0146571 0)
  (0.0606504 0.0213021 0)
  (0.0514645 0.0280686 0)
  (-0.0416568 0.0552583 0)
  (0.363655 0.290779 0)
  (-0.183198 0.13281 0)
  (-0.140511 0.107151 0)
  (-0.181242 0.0764344 0)
  (-0.206837 0.0420618 0)
  (-0.219652 0.00194603 0)
  (-0.214546 -0.0446999 0)
  (-0.19039 -0.0959915 0)
  (-0.1502 -0.141817 0)
  (-0.101577 -0.168631 0)
  (-0.053564 -0.167804 0)
  (-0.0111096 -0.131933 0)
  (0.0259375 -0.0706343 0)
  (0.0522941 -0.0198273 0)
  (0.0749687 0.0216012 0)
  (0.0824116 0.0302053 0)
  (0.072778 0.0441806 0)
  (-0.00248275 0.0859557 0)
  (0.123748 -0.00831128 0)
  (0.073958 -0.0410603 0)
  (0.068461 -0.0541168 0)
  (0.0743244 -0.0538661 0)
  (0.0815143 -0.0486327 0)
  (0.0853836 -0.0350533 0)
  (0.0742304 -0.0221443 0)
  (0.0653839 -0.0152908 0)
  (0.0621488 -0.0115023 0)
  (0.061386 -0.00904808 0)
  (0.0611699 -0.00734236 0)
  (0.061362 -0.00593961 0)
  (0.0625975 -0.00424546 0)
  (0.0662725 0.000182985 0)
  (0.065693 0.0197512 0)
  (0.0536578 0.0340177 0)
  (0.0543579 0.0467023 0)
  (-0.0788977 0.0854872 0)
  (0.515828 0.370181 0)
  (-0.215028 0.17627 0)
  (-0.0939161 0.145489 0)
  (-0.135332 0.104842 0)
  (-0.15784 0.0607536 0)
  (-0.171498 0.00768003 0)
  (-0.168273 -0.0560743 0)
  (-0.146302 -0.125634 0)
  (-0.112486 -0.184552 0)
  (-0.0745527 -0.214839 0)
  (-0.0388854 -0.20998 0)
  (-0.00865175 -0.167285 0)
  (0.0183504 -0.0998548 0)
  (0.0394315 -0.0415593 0)
  (0.0572276 0.00431573 0)
  (0.0679315 0.0311441 0)
  (0.0795441 0.0544456 0)
  (0.0722405 0.0883157 0)
  (0.114349 0.0898446 0)
  (0.105983 0.00598502 0)
  (0.0920172 -0.0355266 0)
  (0.085983 -0.0500038 0)
  (0.0808201 -0.0514244 0)
  (0.0730245 -0.0453229 0)
  (0.0727246 -0.0269884 0)
  (0.085995 -0.0172288 0)
  (0.096286 -0.0120491 0)
  (0.101699 -0.00892699 0)
  (0.104419 -0.00647818 0)
  (0.105045 -0.00402611 0)
  (0.102365 -0.00103875 0)
  (0.0949533 0.00299451 0)
  (0.0804084 0.00887179 0)
  (0.0639667 0.0298113 0)
  (0.0507399 0.0485688 0)
  (0.0635564 0.0668284 0)
  (-0.0998469 0.114312 0)
  (0.65614 0.431364 0)
  (-0.259177 0.210377 0)
  (-0.0424198 0.171885 0)
  (-0.0836822 0.125565 0)
  (-0.0992588 0.0762003 0)
  (-0.111168 0.0141256 0)
  (-0.106091 -0.0641479 0)
  (-0.0841853 -0.150072 0)
  (-0.058553 -0.217601 0)
  (-0.0340571 -0.247578 0)
  (-0.0130937 -0.238192 0)
  (0.00370544 -0.189933 0)
  (0.0184457 -0.120658 0)
  (0.0316544 -0.0568224 0)
  (0.0430323 -0.00810406 0)
  (0.0539027 0.0249701 0)
  (0.0677399 0.0474244 0)
  (0.0815226 0.0554551 0)
  (0.0993991 0.0157671 0)
  (0.0998176 -0.022238 0)
  (0.0928077 -0.0391809 0)
  (0.0827984 -0.0447874 0)
  (0.0723511 -0.0434229 0)
  (0.063007 -0.0356263 0)
  (0.0600411 -0.0194741 0)
  (0.063603 -0.00992794 0)
  (0.0677851 -0.00595368 0)
  (0.0710004 -0.00387989 0)
  (0.0736971 -0.0015454 0)
  (0.0759299 0.00212468 0)
  (0.0764839 0.00741402 0)
  (0.0745291 0.0146606 0)
  (0.0697434 0.024607 0)
  (0.0636497 0.0408161 0)
  (0.0566654 0.0587696 0)
  (0.0837397 0.079674 0)
  (0.022938 0.112121 0)
  (0.0963579 0.138873 0)
  (0.124541 0.150301 0)
  (-0.175439 0.185678 0)
  (0.769924 0.480807 0)
  (-0.309687 0.231508 0)
  (0.00637917 0.177188 0)
  (-0.0281067 0.137059 0)
  (-0.034881 0.0883898 0)
  (-0.0440896 0.0227387 0)
  (-0.0269919 -0.0720888 0)
  (-0.00488394 -0.170838 0)
  (0.00960527 -0.239915 0)
  (0.0178953 -0.264841 0)
  (0.0218459 -0.249929 0)
  (0.0223837 -0.199888 0)
  (0.0225395 -0.129262 0)
  (0.0239784 -0.0627324 0)
  (0.0266881 -0.0148039 0)
  (0.033047 0.0152696 0)
  (0.0442341 0.031899 0)
  (0.0595552 0.0317847 0)
  (0.0720722 0.00824996 0)
  (0.0736937 -0.0128061 0)
  (0.067129 -0.0263492 0)
  (0.0567641 -0.0325132 0)
  (0.0460679 -0.0325546 0)
  (0.0370776 -0.0275057 0)
  (0.0324919 -0.0185904 0)
  (0.0327486 -0.0127661 0)
  (0.0352965 -0.0102876 0)
  (0.0387141 -0.00881478 0)
  (0.0426854 -0.00657579 0)
  (0.0469606 -0.00231622 0)
  (0.0516187 0.00473819 0)
  (0.0548661 0.0142833 0)
  (0.0571358 0.0261758 0)
  (0.0599777 0.0409869 0)
  (0.0626066 0.0570359 0)
  (0.0849712 0.0758076 0)
  (0.0784266 0.0812039 0)
  (0.09574 0.0323959 0)
  (0.12508 -0.0163687 0)
  (-0.213887 0.0934963 0)
  (0.837231 0.524252 0)
  (-0.343884 0.212181 0)
  (0.0480582 0.131583 0)
  (0.0385231 0.131846 0)
  (0.0354407 0.0933113 0)
  (0.032063 0.0165611 0)
  (0.0686998 -0.0960288 0)
  (0.0857227 -0.18721 0)
  (0.0866864 -0.244536 0)
  (0.0775279 -0.262875 0)
  (0.0622027 -0.24386 0)
  (0.0432781 -0.192432 0)
  (0.0250009 -0.121961 0)
  (0.0118122 -0.0561694 0)
  (0.00497577 -0.013343 0)
  (0.0065088 0.00924292 0)
  (0.0152536 0.0195705 0)
  (0.0273459 0.0181739 0)
  (0.0351623 0.0050473 0)
  (0.0354061 -0.00865846 0)
  (0.0296167 -0.018438 0)
  (0.0205686 -0.023093 0)
  (0.0110995 -0.0234546 0)
  (0.00323987 -0.0207653 0)
  (-0.00105307 -0.0165233 0)
  (-0.00141359 -0.0140141 0)
  (0.000559146 -0.0132537 0)
  (0.00377205 -0.0128462 0)
  (0.0079067 -0.0115047 0)
  (0.0130351 -0.0080841 0)
  (0.0199894 -0.00131293 0)
  (0.0287788 0.0089565 0)
  (0.0370553 0.0206275 0)
  (0.0466864 0.033235 0)
  (0.0571472 0.0457357 0)
  (0.0769675 0.0597911 0)
  (0.0908115 0.0619008 0)
  (0.106178 0.040319 0)
  (0.16034 0.0467157 0)
  (-0.1459 0.151093 0)
  (0.948417 0.523018 0)
  (-0.0659839 0.189789 0)
  (0.12358 0.0772267 0)
  (0.160833 0.0727081 0)
  (0.144661 0.0368584 0)
  (0.15371 -0.0473883 0)
  (0.185602 -0.126227 0)
  (0.188286 -0.191652 0)
  (0.169748 -0.232177 0)
  (0.13809 -0.240047 0)
  (0.0991026 -0.215985 0)
  (0.0565834 -0.164133 0)
  (0.0172303 -0.0961876 0)
  (-0.010347 -0.0353465 0)
  (-0.0215773 -0.00700303 0)
  (-0.0225772 0.0055268 0)
  (-0.0171324 0.0109484 0)
  (-0.00967472 0.0100183 0)
  (-0.00563738 0.00293401 0)
  (-0.00663345 -0.0052583 0)
  (-0.0119367 -0.0113896 0)
  (-0.019447 -0.0145667 0)
  (-0.0269544 -0.0154971 0)
  (-0.0329093 -0.0152009 0)
  (-0.0363308 -0.014658 0)
  (-0.0373995 -0.0148174 0)
  (-0.0370811 -0.0155167 0)
  (-0.036007 -0.0161568 0)
  (-0.0342916 -0.0161404 0)
  (-0.0316463 -0.0148972 0)
  (-0.0272491 -0.0117709 0)
  (-0.0188326 -0.00604597 0)
  (-0.00485347 0.00221758 0)
  (0.00892332 0.0107908 0)
  (0.0229664 0.0161687 0)
  (0.0414208 0.020933 0)
  (0.0573177 0.0161916 0)
  (0.0685055 0.00134796 0)
  (0.151614 0.0691946 0)
  (-0.49374 0.252445 0)
  (1.09514 0.461125 0)
  (0.549287 0.313557 0)
  (0.550586 0.289552 0)
  (0.50674 0.211868 0)
  (0.440717 0.123671 0)
  (0.401346 0.0288878 0)
  (0.353447 -0.0667272 0)
  (0.30021 -0.14107 0)
  (0.24208 -0.182544 0)
  (0.178562 -0.188279 0)
  (0.112431 -0.163675 0)
  (0.044859 -0.114196 0)
  (-0.0134777 -0.0508599 0)
  (-0.042142 -0.014058 0)
  (-0.0519158 -0.00110105 0)
  (-0.0536304 0.0043081 0)
  (-0.0511938 0.00647504 0)
  (-0.047882 0.0058416 0)
  (-0.0466639 0.00256947 0)
  (-0.0482647 -0.00153904 0)
  (-0.052552 -0.00515698 0)
  (-0.0582031 -0.00781274 0)
  (-0.0638672 -0.00971857 0)
  (-0.0687013 -0.011201 0)
  (-0.0724418 -0.0125126 0)
  (-0.0754435 -0.013822 0)
  (-0.078313 -0.0149674 0)
  (-0.081519 -0.0156148 0)
  (-0.0854126 -0.0153215 0)
  (-0.0903719 -0.0135282 0)
  (-0.0969187 -0.00953586 0)
  (-0.105745 -0.00255659 0)
  (-0.116485 0.00780434 0)
  (-0.128853 0.0214047 0)
  (-0.150014 0.0390615 0)
  (-0.182764 0.0613558 0)
  (-0.230009 0.0865049 0)
  (-0.287619 0.111923 0)
  (-0.367571 0.132758 0)
  (-0.670829 0.140639 0)
  (0.504915 0.214975 0)
  (0.454176 0.228916 0)
  (0.409638 0.154283 0)
  (0.370966 0.0603123 0)
  (0.333973 -0.0242054 0)
  (0.279639 -0.0847274 0)
  (0.214427 -0.117075 0)
  (0.139835 -0.117761 0)
  (0.0633744 -0.0927615 0)
  (-0.0204711 -0.043136 0)
  (-0.0647918 -0.00993735 0)
  (-0.0801529 -0.000457632 0)
  (-0.0847698 0.00179593 0)
  (-0.0854071 0.00273638 0)
  (-0.0844103 0.00317789 0)
  (-0.0832116 0.00268281 0)
  (-0.0831991 0.000928828 0)
  (-0.0848645 -0.00154078 0)
  (-0.087743 -0.00408404 0)
  (-0.0916973 -0.00629968 0)
  (-0.0959342 -0.008174 0)
  (-0.100147 -0.00967501 0)
  (-0.10442 -0.0107846 0)
  (-0.108991 -0.0114921 0)
  (-0.114078 -0.0116607 0)
  (-0.119768 -0.0110206 0)
  (-0.126002 -0.0091809 0)
  (-0.132552 -0.00566565 0)
  (-0.138939 1.85763e-05 0)
  (-0.144284 0.00825566 0)
  (-0.148229 0.0195667 0)
  (-0.151454 0.0349873 0)
  (-0.154916 0.0548157 0)
  (-0.158878 0.0774689 0)
  (-0.160006 0.0962647 0)
  (-0.149267 0.0962648 0)
  (-0.127047 0.0451298 0)
  (-0.187971 -0.186963 0)
  (0.294234 0.493674 0)
  (0.015245 0.293195 0)
  (0.0764132 0.172431 0)
  (0.106076 0.0688685 0)
  (0.112385 -0.0012143 0)
  (0.0972217 -0.044586 0)
  (0.0573503 -0.0597584 0)
  (-0.0112362 -0.0376518 0)
  (-0.0728337 -0.00212989 0)
  (-0.104462 0.0136223 0)
  (-0.113603 0.0159097 0)
  (-0.114553 0.0144155 0)
  (-0.114257 0.013634 0)
  (-0.113415 0.0140023 0)
  (-0.112204 0.015044 0)
  (-0.11093 0.0161222 0)
  (-0.110069 0.0167805 0)
  (-0.109912 0.0168832 0)
  (-0.110436 0.0163658 0)
  (-0.111492 0.0150964 0)
  (-0.113146 0.0132091 0)
  (-0.115423 0.0114118 0)
  (-0.118273 0.00987574 0)
  (-0.121603 0.00865286 0)
  (-0.125271 0.00778606 0)
  (-0.129065 0.00735631 0)
  (-0.132681 0.007504 0)
  (-0.135705 0.00843635 0)
  (-0.137489 0.0104187 0)
  (-0.137128 0.0144602 0)
  (-0.133178 0.0216993 0)
  (-0.124051 0.033204 0)
  (-0.109051 0.0498549 0)
  (-0.0888059 0.0704469 0)
  (-0.0619308 0.0861051 0)
  (-0.0195033 0.0740036 0)
  (0.149655 -0.0448584 0)
  (-0.0473531 -0.0655751 0)
  (-0.745731 -0.715368 0)
  (-0.878697 -0.165776 0)
  (-0.567749 0.325456 0)
  (-0.46117 0.144493 0)
  (-0.214564 0.040627 0)
  (-0.113582 -0.0521528 0)
  (-0.0867956 -0.0911805 0)
  (-0.0917713 -0.0693811 0)
  (-0.123968 -0.0467578 0)
  (-0.144619 -0.0323896 0)
  (-0.149164 -0.0267414 0)
  (-0.144525 -0.0248939 0)
  (-0.138909 -0.0254885 0)
  (-0.134082 -0.0269542 0)
  (-0.130292 -0.028291 0)
  (-0.126774 -0.0296153 0)
  (-0.123123 -0.0313357 0)
  (-0.119358 -0.0337946 0)
  (-0.115822 -0.0369811 0)
  (-0.112939 -0.0404035 0)
  (-0.111039 -0.0433222 0)
  (-0.110328 -0.0451342 0)
  (-0.110859 -0.0456116 0)
  (-0.112464 -0.0453667 0)
  (-0.114866 -0.0445373 0)
  (-0.117783 -0.043209 0)
  (-0.12092 -0.0414003 0)
  (-0.123929 -0.0390561 0)
  (-0.126357 -0.036036 0)
  (-0.127618 -0.0320878 0)
  (-0.126923 -0.0268172 0)
  (-0.122805 -0.0203284 0)
  (-0.11281 -0.0123103 0)
  (-0.0939759 -0.00199809 0)
  (-0.0653873 0.0116956 0)
  (-0.0319496 0.0290166 0)
  (0.0201812 0.04154 0)
  (0.095497 -0.0130726 0)
  (0.1399 -0.0665906 0)
  (-0.523519 0.0225606 0)
)
;

boundaryField
{
  floor
  {
    type noSlip;
  }
  ceiling
  {
    type noSlip;
  }
  sWall
  {
    type noSlip;
  }
  nWall
  {
    type noSlip;
  }
  sideWalls
  {
    type empty;
  }
  glass1
  {
    type noSlip;
  }
  glass2
  {
    type noSlip;
  }
  sun
  {
    type noSlip;
  }
  Table_master
  {
    type noSlip;
  }
  Table_slave
  {
    type noSlip;
  }
  inlet
  {
    type fixedValue;
    value uniform (0.277164 -0.114805 0);
  }
  outlet
  {
    type zeroGradient;
  }
} 	// ************************************************************************* //

