/*--------------------------------*- C++ -*----------------------------------*\
  =========                 |
  \\      /  F ield         | OpenFOAM: The Open Source CFD Toolbox
   \\    /   O peration     | Website:  https://openfoam.org
    \\  /    A nd           | Version:  6
     \\/     M anipulation  |
\*---------------------------------------------------------------------------*/
FoamFile
{
    version     2.0;
    format      ascii;
    class       volScalarField;
    location    "700";
    object      epsilon;
}
// * * * * * * * * * * * * * * * * * * * * * * * * * * * * * * * * * * * * * //

dimensions      [0 2 -3 0 0 0 0];

internalField   nonuniform List<scalar> 
458
(
0.000648741
0.000869733
0.000987189
0.00115249
0.00132404
0.00151298
0.00173451
0.00196028
0.00216382
0.00229629
0.00229417
0.00182529
0.00135831
0.000930104
0.000617347
3.75015e-05
6.07423e-05
9.36668e-05
0.000125326
0.000138415
0.000107054
7.93354e-05
6.00521e-05
4.67286e-05
3.71949e-05
3.00951e-05
2.4555e-05
2.00123e-05
1.59787e-05
1.21656e-05
8.46278e-06
6.15679e-06
4.48113e-06
0.00129491
0.00173917
0.000797856
0.00079535
0.000833023
0.000921244
0.00107568
0.00127331
0.00146238
0.00157055
0.00156413
0.0013292
0.00104048
0.000822241
0.00063611
0.00100791
0.000682842
0.000399852
3.58343e-05
4.33744e-05
9.94604e-05
0.000115766
0.000123135
0.000128006
9.37876e-05
6.58313e-05
4.68237e-05
3.40069e-05
2.53029e-05
1.9262e-05
1.48876e-05
1.15705e-05
9.35716e-06
7.85523e-06
2.28052e-05
1.42813e-05
0.002066
0.0034919
0.000783226
0.000675206
0.000702409
0.000798487
0.000963249
0.00117481
0.00136847
0.00149142
0.00151809
0.00136248
0.00109676
0.000867951
0.000672975
0.000599008
0.000519059
0.000556516
4.43049e-05
9.56745e-05
0.000121325
0.000134594
0.000142692
0.000255484
0.000161887
0.000101816
6.48057e-05
4.20013e-05
2.80283e-05
1.98088e-05
1.53766e-05
1.29873e-05
1.14268e-05
1.00268e-05
3.89408e-05
2.38943e-05
0.00302934
0.00670462
0.000946126
0.000599075
0.000610215
0.000715594
0.000916325
0.00116412
0.00137023
0.00151709
0.00156229
0.00140852
0.00111699
0.000850667
0.000652556
0.000523426
0.000450523
0.000447953
0.000624355
0.000376806
0.000268911
0.000219321
0.000196675
0.000190217
0.000442287
0.000353553
0.000296497
0.00025647
0.000224585
0.000197811
0.000173247
0.000148612
0.000122448
7.24195e-05
4.15825e-05
6.04252e-05
3.84659e-05
0.00428252
0.0119668
0.00154236
0.000569106
0.000529804
0.000662901
0.000984554
0.00129726
0.0015213
0.00168742
0.00171731
0.00151253
0.00114483
0.000808487
0.000589245
0.00046283
0.000396445
0.000388274
0.000423758
0.000357453
0.000305856
0.000275705
0.000252302
0.000225885
0.000209828
0.000191168
0.000178695
0.000168637
0.000157739
0.000144878
0.000129576
0.000112482
9.50405e-05
7.39088e-05
5.37974e-05
5.22468e-05
5.94867e-05
7.56011e-05
8.39787e-05
8.41952e-05
0.00601468
0.0184905
0.00335144
0.000769153
0.000514041
0.000612543
0.00126187
0.00160323
0.0018293
0.00198879
0.00197467
0.00168113
0.00119151
0.000754333
0.000495194
0.000382049
0.000346805
0.000360562
0.00038324
0.000375204
0.000362128
0.00034194
0.000309268
0.000265938
0.0002261
0.000201968
0.000189789
0.000181101
0.000171184
0.000158001
0.000140962
0.000121235
0.000101641
8.32399e-05
6.77196e-05
5.80197e-05
5.72463e-05
7.78315e-05
0.000302784
0.000201109
0.0082238
0.0227556
0.00733517
0.00244171
0.00131655
0.00143723
0.00190889
0.00214541
0.00231948
0.00243471
0.00233327
0.00189487
0.00123595
0.00068057
0.000395484
0.000310088
0.000314505
0.00035555
0.000396396
0.000414094
0.00040733
0.000376829
0.000330387
0.000277929
0.000234676
0.000210886
0.000200915
0.000195798
0.00019124
0.000185937
0.000178184
0.000165084
0.000149979
0.000135372
0.000125286
0.000123564
0.000132819
0.000174174
0.000587898
0.000401637
0.00895746
0.0262637
0.014238
0.00799278
0.00481694
0.00373102
0.00324745
0.00305917
0.00305537
0.00304905
0.00277152
0.00209649
0.00120349
0.000538741
0.000321758
0.00028716
0.000313408
0.000362649
0.00040449
0.000415311
0.000394296
0.000351038
0.000299606
0.000252833
0.000220801
0.00020551
0.00020132
0.000203139
0.000209572
0.00022135
0.000240038
0.000266178
0.000293148
0.000324302
0.000379675
0.000500581
0.000726208
0.00103252
0.00372656
0.000808597
0.00859722
0.0155572
0.0124838
0.00944518
0.00713573
0.00557667
0.00458783
0.00414294
0.00399496
0.00379143
0.00317869
0.00210503
0.000891407
0.000426009
0.000307291
0.000297511
0.00032141
0.000352253
0.000368896
0.000359718
0.00032894
0.000288068
0.000248078
0.000216829
0.00019744
0.000188774
0.000187886
0.000193066
0.000204824
0.00022558
0.000258925
0.000308958
0.000379701
0.000478009
0.000613768
0.000801826
0.00103596
0.00128667
0.00152966
0.000731188
0.00385217
0.0050344
0.0053362
0.00526039
0.00531954
0.00533659
0.00512139
0.00444282
0.00307402
0.00126061
0.000548631
0.000361949
0.000323105
0.000324225
0.00033489
0.00034147
0.000334768
0.000313726
0.000284733
0.000255685
0.0002319
0.000215228
0.000204852
0.00019883
0.000195581
0.000194705
0.000197352
0.000206331
0.000225851
0.000260988
0.000317775
0.000400969
0.000515165
0.000660056
0.000815531
0.000927984
0.000916397
0.000439776
0.00268704
0.0157014
0.0134891
0.0122468
0.0101854
0.00777656
0.00587057
0.00364348
0.00183272
0.000839652
0.000517225
0.000424972
0.000400505
0.000396038
0.000397801
0.000400381
0.000400586
0.000397663
0.000393455
0.000390487
0.000390647
0.000394803
0.000402591
0.00041225
0.000420457
0.000422859
0.00041572
0.000399017
0.000378994
0.000366332
0.000371743
0.000402156
0.000459079
0.000534414
0.000613038
0.000697034
0.000492959
0.000491085
0.00489191
0.00506675
0.0052965
0.00856182
0.00640124
0.00385044
0.00213879
0.00174923
0.00143299
0.00108657
0.000801187
0.000635284
0.000550292
0.000517506
0.000506821
0.000503342
0.000498524
0.000487361
0.000468349
0.000443679
0.000417404
0.000393098
0.000372486
0.000355424
0.000340662
0.000326698
0.000312491
0.000298008
0.000284629
0.000275125
0.00027286
0.000280768
0.000300798
0.000334117
0.000380118
0.000431808
0.000455668
0.000348183
0.000299972
0.000548157
)
;

boundaryField
{
    floor
    {
        Cmu             0.09;
        kappa           0.41;
        E               9.8;
        type            epsilonWallFunction;
        value           nonuniform List<scalar> 
36
(
0.000617347
3.75015e-05
6.07423e-05
9.36668e-05
0.000125326
0.000138415
0.000107054
7.93354e-05
6.00521e-05
4.67286e-05
3.71949e-05
3.00951e-05
2.4555e-05
2.00123e-05
1.59787e-05
1.21656e-05
8.46278e-06
6.15679e-06
4.48113e-06
4.48113e-06
1.42813e-05
2.38943e-05
3.84659e-05
7.56011e-05
8.39787e-05
8.41952e-05
0.000617347
0.00100791
0.000682842
0.000399852
3.75015e-05
0.000399852
3.58343e-05
0.000556516
4.43049e-05
0.000624355
)
;
    }
    ceiling
    {
        Cmu             0.09;
        kappa           0.41;
        E               9.8;
        type            epsilonWallFunction;
        value           nonuniform List<scalar> 
43
(
0.00489191
0.00506675
0.0052965
0.00856182
0.00640124
0.00385044
0.00213879
0.00174923
0.00143299
0.00108657
0.000801187
0.000635284
0.000550292
0.000517506
0.000506821
0.000503342
0.000498524
0.000487361
0.000468349
0.000443679
0.000417404
0.000393098
0.000372486
0.000355424
0.000340662
0.000326698
0.000312491
0.000298008
0.000284629
0.000275125
0.00027286
0.000280768
0.000300798
0.000334117
0.000380118
0.000431808
0.000455668
0.000348183
0.000299972
0.000548157
0.00859722
0.0155572
0.00268704
)
;
    }
    sWall
    {
        Cmu             0.09;
        kappa           0.41;
        E               9.8;
        type            epsilonWallFunction;
        value           uniform 0.00489191;
    }
    nWall
    {
        Cmu             0.09;
        kappa           0.41;
        E               9.8;
        type            epsilonWallFunction;
        value           nonuniform List<scalar> 6(8.41952e-05 0.000201109 0.000401637 0.000439776 0.000491085 0.000548157);
    }
    sideWalls
    {
        type            empty;
    }
    glass1
    {
        Cmu             0.09;
        kappa           0.41;
        E               9.8;
        type            epsilonWallFunction;
        value           nonuniform List<scalar> 9(0.000648741 0.00129491 0.002066 0.00302934 0.00428252 0.00601468 0.0082238 0.00895746 0.00859722);
    }
    glass2
    {
        Cmu             0.09;
        kappa           0.41;
        E               9.8;
        type            epsilonWallFunction;
        value           nonuniform List<scalar> 2(0.000808597 0.000731188);
    }
    sun
    {
        Cmu             0.09;
        kappa           0.41;
        E               9.8;
        type            epsilonWallFunction;
        value           nonuniform List<scalar> 
14
(
0.000648741
0.000869733
0.000987189
0.00115249
0.00132404
0.00151298
0.00173451
0.00196028
0.00216382
0.00229629
0.00229417
0.00182529
0.00135831
0.000930104
)
;
    }
    Table_master
    {
        Cmu             0.09;
        kappa           0.41;
        E               9.8;
        type            epsilonWallFunction;
        value           nonuniform List<scalar> 9(0.000255484 0.000161887 0.000101816 6.48057e-05 4.20013e-05 2.80283e-05 1.98088e-05 1.53766e-05 1.29873e-05);
    }
    Table_slave
    {
        Cmu             0.09;
        kappa           0.41;
        E               9.8;
        type            epsilonWallFunction;
        value           nonuniform List<scalar> 9(0.000442287 0.000353553 0.000296497 0.00025647 0.000224585 0.000197811 0.000173247 0.000148612 0.000122448);
    }
    inlet
    {
        type            turbulentMixingLengthDissipationRateInlet;
        mixingLength    0.01;
        phi             phi;
        k               k;
        value           uniform 0.00129426;
    }
    outlet
    {
        type            zeroGradient;
    }
}


// ************************************************************************* //
