/*--------------------------------*- C++ -*----------------------------------*\
  =========                 |
  \\      /  F ield         | OpenFOAM: The Open Source CFD Toolbox
   \\    /   O peration     | Website:  https://openfoam.org
    \\  /    A nd           | Version:  6
     \\/     M anipulation  |
\*---------------------------------------------------------------------------*/
FoamFile
{
    version     2.0;
    format      ascii;
    class       volScalarField;
    location    "700";
    object      nut;
}
// * * * * * * * * * * * * * * * * * * * * * * * * * * * * * * * * * * * * * //

dimensions      [0 2 -1 0 0 0 0];

internalField   nonuniform List<scalar> 
458
(
0.0012239
0.00134954
0.00140774
0.0014823
0.00155247
0.00162306
0.0016987
0.00176942
0.00182865
0.00186522
0.00186462
0.00172777
0.00156569
0.00138002
0.0012038
0.000473257
0.000555813
0.000642173
0.000707624
0.000731417
0.000671413
0.000607605
0.000553751
0.000509335
0.000472037
0.000439871
0.000411048
0.000383984
0.000356274
0.000325387
0.000288384
0.000259322
0.000233152
0.00154102
0.00352242
0.00334443
0.00382699
0.00433815
0.00482014
0.00517673
0.0055872
0.00601939
0.00643115
0.00679432
0.00693817
0.00649681
0.00532319
0.00344803
0.00141744
0.00124492
0.00104152
0.000466117
0.000875085
0.00156116
0.00207383
0.00230167
0.0015708
0.00127972
0.00108022
0.000936144
0.000831244
0.000756938
0.000700367
0.00063384
0.000559174
0.000495154
0.00044477
0.000542103
0.000342834
0.0018007
0.00469173
0.00403157
0.00454375
0.00478976
0.00496457
0.00512672
0.00541283
0.00582235
0.006374
0.00704797
0.00763674
0.00765352
0.00719445
0.0058848
0.00410073
0.0030027
0.00116284
0.000500296
0.000915843
0.00153346
0.00229188
0.00267841
0.000897231
0.000770653
0.000660293
0.000568001
0.000491561
0.000429555
0.000382589
0.00035158
0.000332323
0.000377081
0.000413592
0.0006577
0.000407002
0.00204574
0.00572198
0.00398738
0.00452304
0.00446576
0.00437551
0.00444642
0.00467511
0.00508834
0.00575025
0.00659529
0.00730995
0.00752978
0.0073781
0.00676108
0.00561662
0.00432952
0.00231981
0.0012083
0.00116711
0.001525
0.00226729
0.00316593
0.00357286
0.00107727
0.000999759
0.000942772
0.000898265
0.000859368
0.000823754
0.00078813
0.000748839
0.000702017
0.000634463
0.000559333
0.000784864
0.000477066
0.00229597
0.00710465
0.00399448
0.00433231
0.00416442
0.00393885
0.00401788
0.00424036
0.00467521
0.00541713
0.00632187
0.00697655
0.00720277
0.00710331
0.00679625
0.00617641
0.00525463
0.00391327
0.00323315
0.00333317
0.00382353
0.00455028
0.00524336
0.00561192
0.00517459
0.00487412
0.00469197
0.00455094
0.00438357
0.0041084
0.00369896
0.00316301
0.0025322
0.00190294
0.00138856
0.00110119
0.000851292
0.000597737
0.000619103
0.000619659
0.0025712
0.00875872
0.00498329
0.0041223
0.00410193
0.00393969
0.00391686
0.00412012
0.00457748
0.00535324
0.00623265
0.00684871
0.00700431
0.00684372
0.00663948
0.0064107
0.00600049
0.00540858
0.00527936
0.00576802
0.00639996
0.00695988
0.00730283
0.00737257
0.00719501
0.00698671
0.00678003
0.00653383
0.00621868
0.00580325
0.00528204
0.00466074
0.0039443
0.0031748
0.00245915
0.00184377
0.00142038
0.00134646
0.00170472
0.000828373
0.00285377
0.0100043
0.00701901
0.00464524
0.00410007
0.00413731
0.00409451
0.00421554
0.00466552
0.00546486
0.0063428
0.00690518
0.00698309
0.00682977
0.0068694
0.00701035
0.00699754
0.00697757
0.00732693
0.00793982
0.00841064
0.00862984
0.00860764
0.00839058
0.00806653
0.00772069
0.00734873
0.00692762
0.00645344
0.00594349
0.00543814
0.0049709
0.00445224
0.00387539
0.00326828
0.0026891
0.00222379
0.00196944
0.00209116
0.00104318
0.00293622
0.00914873
0.00770977
0.00622711
0.00528232
0.00481116
0.00442129
0.00441986
0.00490041
0.00575761
0.00661874
0.00707478
0.00708959
0.00726041
0.00770098
0.00794436
0.00809449
0.00832383
0.00873356
0.00914574
0.00931979
0.0091945
0.00885187
0.00836183
0.00779979
0.00722894
0.00665827
0.00607829
0.00550944
0.00499655
0.00459068
0.00432453
0.00418811
0.00403282
0.00374714
0.00352561
0.00340599
0.00317248
0.0036784
0.00131729
0.00289631
0.00352939
0.00405676
0.00424837
0.00419635
0.00411334
0.00413532
0.00449551
0.00525493
0.00624539
0.00700884
0.00721392
0.00736037
0.00779361
0.00823924
0.00843366
0.00861273
0.00882983
0.00902804
0.00907971
0.00889043
0.00846363
0.00786484
0.00717293
0.00646184
0.00577853
0.00513681
0.00453765
0.00400361
0.00356855
0.00324118
0.00300515
0.00282839
0.00270083
0.00259154
0.00248468
0.00235874
0.00220338
0.00205073
0.0012738
0.00127602
0.00219231
0.0028715
0.00341719
0.00417275
0.00509043
0.00611889
0.00703328
0.00729211
0.00716712
0.00731122
0.00765052
0.00780445
0.00791682
0.00802575
0.00807337
0.00798035
0.00769401
0.00721632
0.00660586
0.00594699
0.00531209
0.00474038
0.00423861
0.00380111
0.00342523
0.00310428
0.00283525
0.00262646
0.00248557
0.00241235
0.00237726
0.00235463
0.00231801
0.00223473
0.00207421
0.00180835
0.00107511
0.00196554
0.00409961
0.0049992
0.0060637
0.00668447
0.00678098
0.00718623
0.00740602
0.0068411
0.00632078
0.00608113
0.00594609
0.00589774
0.00590532
0.00590849
0.0058506
0.00569129
0.00542576
0.00508852
0.0047342
0.00440965
0.0041381
0.00392075
0.00374611
0.00359685
0.0034527
0.00329402
0.00311103
0.00291255
0.00272319
0.00257031
0.00246631
0.0024003
0.00233864
0.00225418
0.00214799
0.00169061
0.00111538
0.00240004
0.0024283
0.00246446
0.00289234
0.0026251
0.00221595
0.00182155
0.00170342
0.00159383
0.00145335
0.001313
0.00121528
0.00115847
0.00113499
0.00112713
0.00112454
0.00112093
0.00111249
0.00109783
0.00107819
0.00105647
0.00103554
0.00101711
0.00100133
0.000987257
0.000973563
0.000959222
0.000944146
0.000929783
0.000919312
0.000916799
0.000925606
0.000947154
0.000980951
0.00102409
0.00106858
0.00108795
0.000994613
0.000946389
0.00115699
)
;

boundaryField
{
    floor
    {
        type            nutkWallFunction;
        Cmu             0.09;
        kappa           0.41;
        E               9.8;
        value           nonuniform List<scalar> 
36
(
0.00014444
5.62719e-05
6.67874e-05
7.7582e-05
8.56477e-05
8.856e-05
8.11971e-05
7.32813e-05
6.65222e-05
6.08871e-05
5.61077e-05
5.19472e-05
4.81858e-05
4.4622e-05
4.09384e-05
3.67876e-05
3.17472e-05
2.77405e-05
2.4088e-05
2.40879e-05
3.91757e-05
4.76861e-05
5.67804e-05
7.20637e-05
7.47251e-05
7.47917e-05
0.00014444
0.000168827
0.000149172
0.000125598
5.62719e-05
0.000125598
5.53537e-05
0.000139718
5.974e-05
0.000144965
)
;
    }
    ceiling
    {
        type            nutkWallFunction;
        Cmu             0.09;
        kappa           0.41;
        E               9.8;
        value           nonuniform List<scalar> 
43
(
0.000276376
0.00027939
0.000283243
0.000328497
0.000300424
0.0002568
0.000213899
0.000200866
0.00018868
0.000172915
0.000156989
0.000145789
0.000139231
0.00013651
0.000135597
0.000135297
0.000134879
0.000133899
0.000132193
0.000129905
0.000127367
0.000124917
0.000122754
0.000120899
0.000119243
0.000117628
0.000115935
0.000114152
0.00011245
0.000111206
0.000110906
0.00011195
0.000114502
0.000118493
0.000123565
0.000128773
0.00013103
0.000120096
0.000114402
0.000139061
0.000329221
0.000394895
0.000229446
)
;
    }
    sWall
    {
        type            nutkWallFunction;
        Cmu             0.09;
        kappa           0.41;
        E               9.8;
        value           uniform 0.000276448;
    }
    nWall
    {
        type            nutkWallFunction;
        Cmu             0.09;
        kappa           0.41;
        E               9.8;
        value           nonuniform List<scalar> 6(7.47875e-05 0.00010031 0.000125797 0.000129544 0.000134237 0.00013907);
    }
    sideWalls
    {
        type            empty;
    }
    glass1
    {
        type            nutkWallFunction;
        Cmu             0.09;
        kappa           0.41;
        E               9.8;
        value           nonuniform List<scalar> 9(0.000146904 0.000182973 0.00021189 0.000238759 0.000265845 0.000295277 0.000325153 0.00033382 0.000329649);
    }
    glass2
    {
        type            nutkWallFunction;
        Cmu             0.09;
        kappa           0.41;
        E               9.8;
        value           nonuniform List<scalar> 2(0.000157503 0.000152534);
    }
    sun
    {
        type            nutkWallFunction;
        Cmu             0.09;
        kappa           0.41;
        E               9.8;
        value           nonuniform List<scalar> 
14
(
0.000146753
0.000161113
0.000167716
0.000176131
0.000184009
0.000191894
0.000200301
0.000208125
0.000214653
0.000218672
0.00021861
0.000203532
0.000185498
0.000164583
)
;
    }
    Table_master
    {
        type            nutkWallFunction;
        Cmu             0.09;
        kappa           0.41;
        E               9.8;
        value           nonuniform List<scalar> 9(0.000108544 9.33311e-05 7.98249e-05 6.83203e-05 5.86186e-05 5.06123e-05 4.44542e-05 4.03364e-05 3.77545e-05);
    }
    Table_slave
    {
        type            nutkWallFunction;
        Cmu             0.09;
        kappa           0.41;
        E               9.8;
        value           nonuniform List<scalar> 9(0.000129768 0.00012069 0.000113964 0.000108678 0.000104033 9.97588e-05 9.5461e-05 9.0694e-05 8.49741e-05);
    }
    inlet
    {
        type            calculated;
        value           uniform 0.000234787;
    }
    outlet
    {
        type            calculated;
        value           nonuniform List<scalar> 2(0.00240004 0.0024283);
    }
}


// ************************************************************************* //
