/*--------------------------------*- C++ -*----------------------------------*=========                 |
  \      /  F ield         | OpenFOAM: The Open Source CFD Toolbox
   \    /   O peration     | Website:  https://openfoam.org
    \  /    A nd           | Version:  6
     \/     M anipulation  |
\*---------------------------------------------------------------------------*/
FoamFile
{
    version     2.0;
    format      ascii;
    class       volScalarField;
    location    "700";
    object      PMV;
}
// * * * * * * * * * * * * * * * * * * * * * * * * * * * * * * * * * * * * * //

dimensions      [0 0 0 0 0 0 0];

internalField   nonuniform List<scalar> 
458
(
1.6016720134337288
1.3785893634293909
1.33853404432678
1.3088804537871301
1.290013765168797
1.2820894201188442
1.2852975439200063
1.3028659445492208
1.3393575818984291
1.3997022150832363
1.4798931224540643
1.5456123962112358
1.539035822947285
1.547346142191936
1.557153892053002
1.9400244738660744
1.9161470666438332
1.897039120274347
1.88748320606437
1.8908279208770546
1.9003833875944458
1.908649854985534
1.9077629514089987
1.912590398617615
1.9195493148821312
1.9285996587288552
1.940177809844244
1.9537883437572743
1.9702097173556552
1.9899421019801138
2.00969509079774
2.0073104518493943
2.0025408773164113
1.5525657027073079
1.3878976988292921
1.3628650411683456
1.3321726721117049
1.3127278868030912
1.3019263582868161
1.3013414828286012
1.3068525090169048
1.320625671191194
1.350601191235717
1.4103495359230764
1.5238377307547013
1.574314070795981
1.5599160832926204
1.526913336495106
1.522939715039375
1.561543242113242
1.6228057202822324
1.9429899208219379
1.9166246977498345
1.8669337435410274
1.8573314898825048
1.8504052897052028
1.8653793056786143
1.878358571885114
1.8893651570683234
1.9005369058386976
1.9121758598318999
1.923983351370382
1.937363032366392
1.95141124580273
1.9663549908325715
1.9818562806119677
2.0010605348000805
2.004448754435055
1.980844974917614
1.5777245062798295
1.3830791607535584
1.3907041961979576
1.3741925953748544
1.3633128946072015
1.3539645520147696
1.3478297775841448
1.3285718984896406
1.298719250201674
1.2917742138686472
1.3459930379247702
1.471290117458257
1.570094012583601
1.6037625263779167
1.577495170175164
1.57094733879627
1.58324550357656
1.5951679589689247
1.893889902242013
1.8510815086446348
1.8007921141920034
1.7878469585231913
1.7951363858349538
1.813288812478332
1.850829877202617
1.8849805285507995
1.9032497762805551
1.9194904141971105
1.93715963780996
1.955301461705163
1.9715292296613585
1.9844129437181055
1.9895356462555391
1.9977818605531108
1.9875862922715635
1.949688256699003
1.643622453904147
1.3821357434598132
1.4140158002689207
1.4263283206165518
1.4408879226973188
1.4453958189024667
1.4321596232382325
1.3709288769250332
1.2830132984771632
1.2412684974185928
1.2982294411246724
1.4356271638406708
1.5609606982302875
1.63760679537344
1.6349757411040138
1.6120129876739606
1.5868897663074857
1.5629547342849839
1.5606221230805146
1.638999534215646
1.6729449631224405
1.7034180775527101
1.745684320910091
1.7951631603722031
1.8380445882615615
1.849838370862464
1.8598432295467915
1.8726748188873699
1.8861081419568007
1.8995813077777792
1.9135203578174418
1.9292921711912059
1.9485730830412484
1.9681756046121957
1.9781284817961218
1.9641460173374252
1.9407274876512166
1.7311206387836267
1.3942150556911952
1.4327788266073862
1.473737854713576
1.5329994405735738
1.5747774240968175
1.5461602116242548
1.4164744112044052
1.2706878345546793
1.2029612026572511
1.2660422419635673
1.4137993382795797
1.5664499536032506
1.6756806989284676
1.7056896709093614
1.6758289424726758
1.6382533877272285
1.6120965428805787
1.6223395813816401
1.6484912421644313
1.6841315793143345
1.733142700138246
1.7917157647902542
1.8513962486506548
1.9024814894500273
1.9329625271894513
1.9551100028912018
1.9743354478964534
1.990383383651977
2.0013607719068993
2.008602644837378
2.0111858831833467
2.009648124872958
2.000148904396503
1.9861223801398904
1.9557021135784654
1.959332800726828
1.933234920506296
1.9247643483313281
1.9185488041587635
1.824397992866013
1.4244340101740967
1.461735683087012
1.5041473693451113
1.5939674542174935
1.6769710800382995
1.6211515537374277
1.4292636138207444
1.2523129734799967
1.1767213972609596
1.2439751188804529
1.4122063251145955
1.5957839538850658
1.7352465492438913
1.7827681041127859
1.774155522256623
1.7294623210969005
1.7022419452164719
1.7113316634671045
1.7415892217289568
1.7870724082529075
1.8437574876814795
1.904730966126751
1.9635433343439157
2.0087412471301396
2.0354427587624495
2.0568898681039505
2.073564881241857
2.0859484834184694
2.093091460745265
2.094996078263419
2.088253959779123
2.071908344766001
2.046821639013395
2.0180202793189825
1.981785527499496
1.971358582042778
1.980277420179295
1.9679297868892314
1.9341194106637702
1.915322672319604
1.5034904757649237
1.5591571224146903
1.552970119443968
1.6134549135677057
1.6879387133684556
1.5817030626955688
1.397832362318063
1.2148628932194188
1.146718101122445
1.2372756825386042
1.4400847915197657
1.659938882361625
1.8299409903136576
1.854983786956754
1.8439881882016922
1.828209218621204
1.825818195679956
1.8473348389426203
1.88748320606437
1.9342946768431168
1.9810729844205215
2.0235240208821965
2.059748824900812
2.087377162056375
2.1083262910815455
2.1235562105621253
2.1354510749581093
2.1430621361136177
2.1463915639594444
2.143537784074417
2.134499601018476
2.1221286180998247
2.1059461689399206
2.0688532059824767
2.0299413312093146
2.0067151492083
2.0009125230460527
1.965046930263686
1.9525439832012141
2.0474066169349956
1.8341488897018383
1.758122978017088
1.6660189400252743
1.6566321181473678
1.6436802118451266
1.5194940229619036
1.3016195928048369
1.1254408343148519
1.1054764906645
1.2580300843163212
1.515891618403347
1.7777606566091217
1.9180575710321253
1.9357271728980916
1.9256990512181018
1.917102325518621
1.9242663395117772
1.9548241109446867
2.0001559426183637
2.0464056932308345
2.0840435142475977
2.115465936014539
2.140208140894746
2.157804816547808
2.170165744434958
2.1777706605872504
2.1825230221518668
2.1834734282647204
2.180622143604006
2.174443681160536
2.164936561532738
2.1516230107835628
2.134975340511201
2.1178455753364998
2.1035659274554206
2.09451993088627
2.0854447285676523
2.000070728967104
1.9235861234545482
2.2423016330258374
2.0970880275106643
1.9493969913983666
1.8176248651286577
1.734993778061539
1.6409310228121938
1.3490867376403826
1.0693443265623084
0.9660421951660068
1.0779017441047312
1.3486801614087578
1.6837307494651983
1.948140825068439
2.0027634408027337
2.0026755045577356
1.9998867959457085
2.0082194958859794
2.0322611779566846
2.0691380112376625
2.106950787111452
2.1378963421114126
2.1590385473159417
2.1725566565713588
2.1806436850830346
2.185041010547729
2.1858893739449887
2.183564261597748
2.1783265331254826
2.169159094426072
2.1567798926340527
2.141337881868078
2.1248175708021875
2.1071728134561383
2.09048985267627
2.073432769028486
2.0570474989692857
2.042838214213241
2.0319515611566707
2.0206855900961
2.000909578131916
-1.2638180974160744
-0.474799955460568
-0.04545447407208019
0.07094021369240625
0.21228443751031295
0.4428978088490228
0.7890493391324633
1.2061180711429842
1.6375245341667362
1.9546444820017617
2.0259892449620716
2.0470961005008026
2.0527919983417724
2.060414715293433
2.074083402259295
2.0965400769774996
2.1234969940050883
2.1502959878187595
2.1722612585034837
2.1865936021028483
2.194837879520958
2.1983410278237963
2.1972026281373993
2.1922784492831844
2.184836351791195
2.1742693162879996
2.1618671337938835
2.1488769228611218
2.135287316453522
2.1228441712063746
2.11159447958238
2.1021824485347014
2.095731695083973
2.092041676477395
2.094428386926837
2.1092456714313066
2.1482493483355243
2.1551202160617193
-1.218521892372798
-0.2676769531754786
0.17712954006902756
0.4794480856187584
0.7168831922503205
1.0702717294283806
1.508900943727305
1.8219750750896908
1.9682261799674958
2.0531117343974694
2.0881492112835756
2.103898748945254
2.1148162967205195
2.126546079622256
2.141860750925548
2.1598375490347967
2.1789364918484098
2.1953511895860536
2.2080819681484596
2.2153275252404625
2.2182960600300423
2.2176009521967517
2.21371317180895
2.2070152992180523
2.1984332224120835
2.1875654933912516
2.1767084922962283
2.165332247413828
2.154944927191227
2.1470332850530163
2.1416025696061585
2.141138378595882
2.1448239833636165
2.154315139980593
2.169150440492957
2.2067513537554047
2.1690755103704893
2.209068130417923
-0.6401847588692252
-0.6152782849852574
-0.5135367570982361
0.1558289118706122
0.7451680320303293
1.310365048983147
1.7237388901828568
1.8917741560369485
2.000106821248827
2.0708274493387258
2.1095118384431264
2.132678065090883
2.1477680532893157
2.1591587290309313
2.168781313380335
2.1783271564262576
2.187334940364257
2.196231465780057
2.204326839294214
2.209951227540595
2.2125942232586335
2.212875812818675
2.2109184546600766
2.2067955280283384
2.2015632555143356
2.1947225502407037
2.187407003247977
2.1793216147799184
2.1708229964639076
2.163377329285564
2.1563177037772943
2.151393501673704
2.148107381819074
2.1471918093048523
2.1471858085833095
2.145951553661602
2.1484212046219553
2.1642653041398487
2.1749315094833754
2.1933670855560656
)
;

boundaryField
{
    ".*"
    {
        type            zeroGradient;
    }
}


// ************************************************************************* //
