/*--------------------------------*- C++ -*----------------------------------*\
  =========                 |
  \\      /  F ield         | OpenFOAM: The Open Source CFD Toolbox
   \\    /   O peration     | Website:  https://openfoam.org
    \\  /    A nd           | Version:  6
     \\/     M anipulation  |
\*---------------------------------------------------------------------------*/
FoamFile
{
    version     2.0;
    format      ascii;
    class       volVectorField;
    location    "700";
    object      U;
}
// * * * * * * * * * * * * * * * * * * * * * * * * * * * * * * * * * * * * * //

dimensions      [0 1 -1 0 0 0 0];

internalField   nonuniform List<vector> 
458
(
(0.00736013 0.0965314 0)
(-0.190196 0.0344341 0)
(-0.233358 0.0208683 0)
(-0.272809 0.0100117 0)
(-0.297297 -0.0012654 0)
(-0.303856 -0.0135815 0)
(-0.288029 -0.0278007 0)
(-0.248426 -0.0444453 0)
(-0.186566 -0.061165 0)
(-0.110731 -0.0741697 0)
(-0.0307459 -0.0775731 0)
(0.0510916 -0.0483652 0)
(0.0853633 -0.0237069 0)
(0.0929423 0.00435413 0)
(0.0806748 0.0558209 0)
(-0.0214784 0.0177639 0)
(-0.0501575 -0.0066896 0)
(-0.0352789 -0.0221766 0)
(-0.0134379 -0.0303674 0)
(0.0225587 -0.0269928 0)
(0.0398906 -0.0142974 0)
(0.0536066 -0.00777295 0)
(0.0617856 -0.00562248 0)
(0.0662577 -0.0049215 0)
(0.069313 -0.00438224 0)
(0.0715871 -0.00368213 0)
(0.07263 -0.00266215 0)
(0.0715721 -0.00104605 0)
(0.06773 0.0013907 0)
(0.0601183 0.00489878 0)
(0.047564 0.00826355 0)
(0.0396823 0.00790254 0)
(-0.0274398 0.0158136 0)
(0.175506 0.197868 0)
(-0.169368 0.0928827 0)
(-0.188916 0.071045 0)
(-0.229754 0.0505221 0)
(-0.255339 0.0272581 0)
(-0.264192 -0.00030381 0)
(-0.251743 -0.0335575 0)
(-0.217823 -0.0699852 0)
(-0.164739 -0.102688 0)
(-0.100974 -0.122671 0)
(-0.0385052 -0.120688 0)
(0.0238092 -0.0804553 0)
(0.0617875 -0.0369594 0)
(0.0918091 0.00897592 0)
(0.114571 0.0588509 0)
(0.130912 0.0579182 0)
(0.100199 0.060135 0)
(0.0323101 0.0766645 0)
(0.0270219 0.0454257 0)
(-0.023833 0.00117363 0)
(0.0207333 -0.0390965 0)
(0.0326626 -0.0446957 0)
(0.0486213 -0.0405154 0)
(0.055957 -0.0200635 0)
(0.0581429 -0.00678429 0)
(0.0589065 -0.00221606 0)
(0.0595712 -0.000957624 0)
(0.06023 -0.000184746 0)
(0.0607755 0.00101803 0)
(0.0611564 0.00304372 0)
(0.0609364 0.00569394 0)
(0.0597738 0.00937935 0)
(0.0557798 0.0159288 0)
(0.0459953 0.021401 0)
(0.0448319 0.0228242 0)
(-0.0559029 0.0371721 0)
(0.333299 0.295934 0)
(-0.17488 0.144305 0)
(-0.142312 0.113199 0)
(-0.18223 0.0783921 0)
(-0.207262 0.0398825 0)
(-0.218378 -0.00489976 0)
(-0.208475 -0.0569728 0)
(-0.178533 -0.113028 0)
(-0.132826 -0.159806 0)
(-0.0803289 -0.183333 0)
(-0.0313875 -0.174156 0)
(0.0147913 -0.124997 0)
(0.0491889 -0.0703327 0)
(0.0763956 -0.0184005 0)
(0.0991997 0.0269561 0)
(0.106734 0.03894 0)
(0.0916952 0.0575945 0)
(0.0367274 0.102097 0)
(0.0859158 0.0192052 0)
(0.063894 -0.0247223 0)
(0.0677532 -0.0473479 0)
(0.0726547 -0.0545855 0)
(0.0790736 -0.0546127 0)
(0.0785618 -0.0413471 0)
(0.0632805 -0.0267352 0)
(0.0515263 -0.0187344 0)
(0.0459771 -0.0143629 0)
(0.0428093 -0.0114572 0)
(0.0402454 -0.00903486 0)
(0.0390032 -0.00630632 0)
(0.0407805 -0.00274141 0)
(0.046254 0.00307542 0)
(0.049519 0.0203716 0)
(0.0422764 0.0318952 0)
(0.0501461 0.0391096 0)
(-0.0789769 0.060093 0)
(0.483003 0.374539 0)
(-0.200868 0.186996 0)
(-0.0913562 0.150818 0)
(-0.129245 0.105901 0)
(-0.150325 0.0570261 0)
(-0.161946 -0.00195418 0)
(-0.153208 -0.0730912 0)
(-0.125613 -0.148617 0)
(-0.0881569 -0.207032 0)
(-0.0484652 -0.232148 0)
(-0.013325 -0.216392 0)
(0.0185574 -0.161696 0)
(0.0447267 -0.0989828 0)
(0.0654636 -0.0401386 0)
(0.0831701 0.00932967 0)
(0.0941969 0.0409129 0)
(0.103353 0.0696379 0)
(0.104709 0.108824 0)
(0.139312 0.0928549 0)
(0.121557 0.0283091 0)
(0.112041 -0.013913 0)
(0.105828 -0.0389923 0)
(0.0966227 -0.0486606 0)
(0.0835834 -0.0473728 0)
(0.0795003 -0.028043 0)
(0.0916719 -0.0171857 0)
(0.101009 -0.0114445 0)
(0.104791 -0.00810332 0)
(0.10575 -0.00569541 0)
(0.104995 -0.00350159 0)
(0.102058 -0.00103324 0)
(0.0955502 0.00233254 0)
(0.0841213 0.00730539 0)
(0.0680214 0.0242851 0)
(0.0547657 0.0413134 0)
(0.0629475 0.0573628 0)
(-0.0722908 0.0869823 0)
(0.622966 0.433531 0)
(-0.242154 0.217943 0)
(-0.0376058 0.174879 0)
(-0.0725329 0.124437 0)
(-0.0857946 0.0702882 0)
(-0.0955826 0.00174461 0)
(-0.0818913 -0.0861389 0)
(-0.0560945 -0.177987 0)
(-0.0296871 -0.241986 0)
(-0.00558233 -0.264957 0)
(0.0138419 -0.242533 0)
(0.0300568 -0.186342 0)
(0.044501 -0.118218 0)
(0.0559654 -0.0547545 0)
(0.06681 -0.00307917 0)
(0.0771779 0.0344192 0)
(0.0897073 0.061474 0)
(0.104952 0.0752841 0)
(0.121124 0.0372624 0)
(0.121129 0.000762739 0)
(0.116336 -0.0219891 0)
(0.107041 -0.0344276 0)
(0.0943164 -0.0380287 0)
(0.080879 -0.0329644 0)
(0.0737026 -0.01715 0)
(0.0736321 -0.00707971 0)
(0.0744617 -0.00267593 0)
(0.0742996 -0.000616366 0)
(0.0739544 0.00110078 0)
(0.0738338 0.00338068 0)
(0.0734789 0.00690649 0)
(0.0721137 0.0124442 0)
(0.0693142 0.0210005 0)
(0.0657359 0.0352307 0)
(0.0616812 0.0511247 0)
(0.0804277 0.0695131 0)
(0.0392536 0.0889059 0)
(0.0904909 0.101862 0)
(0.115377 0.111107 0)
(-0.174105 0.140904 0)
(0.737602 0.479853 0)
(-0.291998 0.234682 0)
(0.0105714 0.176679 0)
(-0.0153656 0.132846 0)
(-0.0194055 0.0814643 0)
(-0.0270024 0.0118903 0)
(0.00590304 -0.10259 0)
(0.0269057 -0.202108 0)
(0.039209 -0.262308 0)
(0.0453759 -0.279043 0)
(0.0465195 -0.253301 0)
(0.0455874 -0.195179 0)
(0.0440609 -0.124148 0)
(0.0427148 -0.0590979 0)
(0.0436991 -0.00927669 0)
(0.0490456 0.0252929 0)
(0.0593793 0.0464093 0)
(0.0751911 0.0510825 0)
(0.0886281 0.0280368 0)
(0.092039 0.00526792 0)
(0.0878962 -0.011175 0)
(0.0782761 -0.0210035 0)
(0.066093 -0.0241182 0)
(0.053907 -0.0208521 0)
(0.0451843 -0.0123327 0)
(0.0411095 -0.00591562 0)
(0.0395024 -0.00298154 0)
(0.0390806 -0.00182018 0)
(0.0398332 -0.000901754 0)
(0.0420886 0.000898834 0)
(0.0454217 0.00459998 0)
(0.049138 0.0109534 0)
(0.0529392 0.0204909 0)
(0.0575958 0.0336586 0)
(0.0628186 0.0484098 0)
(0.0803074 0.0648584 0)
(0.0804995 0.0667485 0)
(0.0901456 0.0315563 0)
(0.116356 0.00916774 0)
(-0.18675 0.0843973 0)
(0.810632 0.520363 0)
(-0.325734 0.211918 0)
(0.0512837 0.126345 0)
(0.0507869 0.119592 0)
(0.0518714 0.0773831 0)
(0.0695292 -0.0117115 0)
(0.102507 -0.124432 0)
(0.116353 -0.213192 0)
(0.113883 -0.264636 0)
(0.100625 -0.274219 0)
(0.0807049 -0.244358 0)
(0.0586561 -0.184842 0)
(0.0377168 -0.11339 0)
(0.0213369 -0.0502522 0)
(0.012224 -0.00641946 0)
(0.0128187 0.0202425 0)
(0.0217535 0.0344407 0)
(0.0356135 0.0361066 0)
(0.045984 0.0225159 0)
(0.0484131 0.00693712 0)
(0.044849 -0.00471024 0)
(0.0365503 -0.0112614 0)
(0.0260186 -0.0130541 0)
(0.0155625 -0.0108842 0)
(0.00761947 -0.00629064 0)
(0.00328743 -0.00288875 0)
(0.00163428 -0.00184383 0)
(0.00175139 -0.00228627 0)
(0.00346299 -0.00308653 0)
(0.00690489 -0.00313075 0)
(0.012589 -0.00101285 0)
(0.0210161 0.00470499 0)
(0.0300488 0.0136296 0)
(0.0404667 0.0248075 0)
(0.0518339 0.0367087 0)
(0.0689705 0.0491694 0)
(0.0825236 0.0508006 0)
(0.0931952 0.0369324 0)
(0.141051 0.0480506 0)
(-0.125168 0.136952 0)
(0.920487 0.514346 0)
(-0.0507216 0.188059 0)
(0.128747 0.0677053 0)
(0.17248 0.0510896 0)
(0.16432 0.00539267 0)
(0.192734 -0.0749214 0)
(0.217206 -0.151834 0)
(0.214275 -0.213608 0)
(0.189621 -0.246996 0)
(0.150945 -0.245749 0)
(0.105128 -0.211578 0)
(0.0588497 -0.152319 0)
(0.017014 -0.0838047 0)
(-0.0126749 -0.0272937 0)
(-0.0252526 0.0012949 0)
(-0.0253779 0.0163151 0)
(-0.0183415 0.024254 0)
(-0.00803021 0.0250443 0)
(-0.000778513 0.0174809 0)
(0.000269744 0.00804905 0)
(-0.00368258 0.000996789 0)
(-0.0101802 -0.00280408 0)
(-0.0183894 -0.00369313 0)
(-0.0262432 -0.00267396 0)
(-0.0320688 -0.00111195 0)
(-0.0352882 -0.000581222 0)
(-0.0365755 -0.00153796 0)
(-0.0366423 -0.0036211 0)
(-0.0356746 -0.00620793 0)
(-0.0336212 -0.00854888 0)
(-0.0301329 -0.00968616 0)
(-0.0244306 -0.00852363 0)
(-0.0137487 -0.00403367 0)
(0.000838588 0.0030691 0)
(0.0143852 0.00991998 0)
(0.0301687 0.0148999 0)
(0.0434803 0.0121326 0)
(0.0525512 0.00479935 0)
(0.129533 0.0696079 0)
(-0.442182 0.227386 0)
(1.06753 0.453945 0)
(0.536031 0.309112 0)
(0.541652 0.271827 0)
(0.512069 0.186219 0)
(0.462082 0.0943755 0)
(0.420006 -0.00300748 0)
(0.369698 -0.093618 0)
(0.312429 -0.159362 0)
(0.24635 -0.190423 0)
(0.173317 -0.18618 0)
(0.0986972 -0.152435 0)
(0.029488 -0.0970663 0)
(-0.0287625 -0.0355229 0)
(-0.0535933 -0.00660501 0)
(-0.06318 0.00661951 0)
(-0.0628122 0.0135638 0)
(-0.0580659 0.017435 0)
(-0.0517491 0.0179417 0)
(-0.0475943 0.0147893 0)
(-0.0473429 0.0104077 0)
(-0.0504109 0.006668 0)
(-0.0553797 0.00429396 0)
(-0.0609349 0.00317314 0)
(-0.0659157 0.00262343 0)
(-0.069717 0.00192059 0)
(-0.072414 0.000466813 0)
(-0.0744392 -0.00182861 0)
(-0.0764597 -0.00460753 0)
(-0.0790888 -0.00733543 0)
(-0.0827246 -0.00929229 0)
(-0.0879925 -0.00939037 0)
(-0.0956399 -0.006327 0)
(-0.106345 0.00121657 0)
(-0.119009 0.0131575 0)
(-0.135823 0.0293429 0)
(-0.162362 0.0501017 0)
(-0.201555 0.0747527 0)
(-0.25091 0.100662 0)
(-0.323102 0.120999 0)
(-0.595714 0.123951 0)
(0.503883 0.187446 0)
(0.46117 0.190004 0)
(0.422875 0.114322 0)
(0.384412 0.0277902 0)
(0.337852 -0.046296 0)
(0.274286 -0.0966016 0)
(0.196394 -0.117411 0)
(0.110262 -0.108397 0)
(0.0239346 -0.0743936 0)
(-0.051921 -0.0231898 0)
(-0.0848083 0.0010059 0)
(-0.0976246 0.00913803 0)
(-0.100474 0.0123919 0)
(-0.0991628 0.0147442 0)
(-0.0957513 0.0167551 0)
(-0.0918119 0.0177456 0)
(-0.0891159 0.0173345 0)
(-0.0885101 0.01626 0)
(-0.0897477 0.0152805 0)
(-0.0921123 0.0148046 0)
(-0.0948711 0.0148635 0)
(-0.097513 0.0151743 0)
(-0.09988 0.0153938 0)
(-0.102138 0.0152477 0)
(-0.104569 0.0146462 0)
(-0.107316 0.0136074 0)
(-0.110605 0.0123778 0)
(-0.114749 0.0115145 0)
(-0.119747 0.0117337 0)
(-0.125158 0.0139367 0)
(-0.129908 0.019133 0)
(-0.133946 0.0290707 0)
(-0.136942 0.0443701 0)
(-0.138514 0.0638844 0)
(-0.136459 0.0828466 0)
(-0.126331 0.0873506 0)
(-0.113161 0.0406748 0)
(-0.164722 -0.179725 0)
(0.30216 0.452504 0)
(0.0231881 0.255702 0)
(0.0683154 0.129204 0)
(0.0868337 0.0264293 0)
(0.0883506 -0.0356637 0)
(0.0619034 -0.0609717 0)
(0.00649019 -0.0606902 0)
(-0.0594198 -0.0430456 0)
(-0.10517 -0.0283335 0)
(-0.129629 -0.0205523 0)
(-0.135509 -0.020248 0)
(-0.135883 -0.0214775 0)
(-0.134264 -0.0220523 0)
(-0.131368 -0.021614 0)
(-0.127487 -0.0209423 0)
(-0.123167 -0.021057 0)
(-0.119184 -0.0225625 0)
(-0.11604 -0.0253156 0)
(-0.113788 -0.0288659 0)
(-0.112209 -0.0327347 0)
(-0.111025 -0.0366 0)
(-0.110064 -0.0403971 0)
(-0.109347 -0.0442241 0)
(-0.109064 -0.0481411 0)
(-0.109466 -0.0519057 0)
(-0.110736 -0.0548531 0)
(-0.112843 -0.0559925 0)
(-0.115393 -0.0542587 0)
(-0.117596 -0.0488376 0)
(-0.118324 -0.039323 0)
(-0.116161 -0.0256811 0)
(-0.109539 -0.00806737 0)
(-0.0968734 0.0129579 0)
(-0.0768567 0.0350272 0)
(-0.0489984 0.0506718 0)
(-0.00789607 0.0410865 0)
(0.130144 -0.028851 0)
(-0.0490114 -0.0881918 0)
(-0.67933 -0.669498 0)
(-0.825529 -0.163302 0)
(-0.543477 0.28217 0)
(-0.454752 0.118621 0)
(-0.243602 0.0370873 0)
(-0.168059 0.00175538 0)
(-0.151704 0.0199802 0)
(-0.159015 0.0444375 0)
(-0.177752 0.0655928 0)
(-0.188698 0.0810035 0)
(-0.189709 0.0909779 0)
(-0.1847 0.0969469 0)
(-0.178161 0.10066 0)
(-0.172195 0.103196 0)
(-0.166839 0.105477 0)
(-0.16135 0.108076 0)
(-0.155117 0.111531 0)
(-0.148048 0.116148 0)
(-0.140484 0.121907 0)
(-0.132878 0.128502 0)
(-0.125565 0.13546 0)
(-0.118721 0.14229 0)
(-0.112399 0.148649 0)
(-0.106607 0.154426 0)
(-0.101377 0.159658 0)
(-0.0968041 0.164335 0)
(-0.0930075 0.168203 0)
(-0.0900636 0.17067 0)
(-0.0879226 0.17085 0)
(-0.0863352 0.167816 0)
(-0.0847362 0.161112 0)
(-0.0819808 0.151251 0)
(-0.0760584 0.139946 0)
(-0.0645331 0.129797 0)
(-0.0464307 0.123676 0)
(-0.0243137 0.123285 0)
(0.0119128 0.125135 0)
(0.041397 0.12073 0)
(0.177848 0.0892636 0)
(-0.509729 0.191633 0)
)
;

boundaryField
{
    floor
    {
        type            noSlip;
    }
    ceiling
    {
        type            noSlip;
    }
    sWall
    {
        type            noSlip;
    }
    nWall
    {
        type            noSlip;
    }
    sideWalls
    {
        type            empty;
    }
    glass1
    {
        type            noSlip;
    }
    glass2
    {
        type            noSlip;
    }
    sun
    {
        type            noSlip;
    }
    Table_master
    {
        type            noSlip;
    }
    Table_slave
    {
        type            noSlip;
    }
    inlet
    {
        type            fixedValue;
        value           uniform (0.7 0 0);
    }
    outlet
    {
        type            zeroGradient;
    }
}


// ************************************************************************* //
