/*--------------------------------*- C++ -*----------------------------------*\
  =========                 |
  \\      /  F ield         | OpenFOAM: The Open Source CFD Toolbox
   \\    /   O peration     | Website:  https://openfoam.org
    \\  /    A nd           | Version:  6
     \\/     M anipulation  |
\*---------------------------------------------------------------------------*/
FoamFile
{
    version     2.0;
    format      ascii;
    class       volScalarField;
    location    "1600";
    object      T;
}
// * * * * * * * * * * * * * * * * * * * * * * * * * * * * * * * * * * * * * //

dimensions      [0 0 0 1 0 0 0];

internalField   nonuniform List<scalar> 
458
(
301.195
300.791
300.783
300.789
300.794
300.799
300.802
300.805
300.808
300.81
300.811
300.81
300.807
300.803
300.799
300.561
300.537
300.539
300.543
300.536
300.521
300.507
300.491
300.473
300.45
300.42
300.379
300.331
300.279
300.229
300.189
300.171
300.192
301.471
300.829
300.794
300.804
300.815
300.825
300.834
300.841
300.847
300.851
300.851
300.846
300.835
300.817
300.793
300.774
300.752
300.772
300.566
300.546
300.552
300.564
300.553
300.507
300.473
300.446
300.422
300.397
300.369
300.338
300.305
300.269
300.234
300.197
300.176
300.188
301.73
300.897
300.826
300.84
300.859
300.877
300.894
300.908
300.919
300.926
300.928
300.92
300.901
300.871
300.832
300.789
300.751
300.729
300.583
300.581
300.596
300.603
300.591
300.488
300.429
300.402
300.38
300.36
300.339
300.318
300.296
300.274
300.261
300.241
300.218
300.201
301.967
300.985
300.863
300.876
300.904
300.933
300.96
300.984
301.004
301.017
301.022
301.016
300.995
300.958
300.908
300.848
300.781
300.714
300.664
300.63
300.645
300.657
300.649
300.624
300.595
300.564
300.537
300.527
300.521
300.515
300.509
300.5
300.489
300.46
300.416
300.357
300.258
302.183
301.09
300.909
300.907
300.94
300.978
301.016
301.052
301.083
301.107
301.12
301.12
301.103
301.069
301.021
300.963
300.899
300.839
300.79
300.758
300.747
300.737
300.718
300.687
300.648
300.604
300.572
300.558
300.551
300.546
300.539
300.529
300.513
300.491
300.457
300.404
300.323
300.34
300.48
300.502
302.365
301.219
300.996
300.945
300.969
301.009
301.053
301.097
301.139
301.177
301.202
301.212
301.204
301.177
301.134
301.08
301.02
300.961
300.911
300.873
300.847
300.822
300.792
300.752
300.7
300.635
300.596
300.581
300.576
300.572
300.566
300.554
300.535
300.51
300.479
300.435
300.38
300.356
300.392
300.434
302.514
301.431
301.221
301.093
301.039
301.049
301.083
301.125
301.171
301.22
301.261
301.281
301.28
301.262
301.229
301.185
301.132
301.077
301.025
300.982
300.945
300.91
300.871
300.823
300.757
300.665
300.615
300.6
300.598
300.597
300.593
300.581
300.56
300.527
300.494
300.457
300.417
300.387
300.387
300.424
302.772
301.966
301.761
301.551
301.365
301.255
301.211
301.21
301.234
301.277
301.314
301.332
301.331
301.317
301.293
301.26
301.219
301.172
301.124
301.08
301.039
300.997
300.95
300.896
300.821
300.697
300.632
300.617
300.617
300.62
300.619
300.613
300.596
300.562
300.52
300.493
300.471
300.459
300.476
300.736
303.136
302.791
302.474
302.206
301.951
301.749
301.607
301.517
301.467
301.439
301.414
301.392
301.37
301.348
301.324
301.298
301.267
301.233
301.196
301.158
301.119
301.078
301.029
300.971
300.895
300.734
300.648
300.633
300.636
300.643
300.65
300.654
300.66
300.67
300.684
300.712
300.76
300.814
300.863
300.972
295.752
300.023
301.047
301.332
301.413
301.427
301.421
301.41
301.397
301.38
301.362
301.343
301.323
301.302
301.28
301.256
301.23
301.202
301.172
301.137
301.096
301.049
300.982
300.782
300.665
300.647
300.653
300.664
300.677
300.69
300.703
300.716
300.734
300.76
300.793
300.825
300.843
300.85
297.204
299.891
300.821
301.139
301.263
301.309
301.325
301.326
301.322
301.316
301.308
301.299
301.288
301.277
301.265
301.251
301.236
301.22
301.201
301.177
301.147
301.114
301.082
300.844
300.684
300.664
300.667
300.675
300.684
300.696
300.708
300.721
300.737
300.758
300.782
300.805
300.792
300.828
299.056
299.006
299.003
300.451
300.906
301.118
301.212
301.242
301.255
301.26
301.262
301.261
301.261
301.26
301.258
301.256
301.253
301.249
301.245
301.239
301.231
301.22
301.204
301.188
301.16
300.933
300.712
300.706
300.709
300.713
300.716
300.719
300.723
300.729
300.736
300.753
300.766
300.775
300.776
300.816
)
;

boundaryField
{
    floor
    {
        type            wallHeatTransfer;
        Tinf            uniform 305.2;
        alphaWall       uniform 0.24;
        value           nonuniform List<scalar> 
36
(
301.317
301.308
301.177
301.148
301.151
301.171
301.217
301.264
301.318
301.379
301.447
301.52
301.591
301.649
301.686
301.691
301.5
301.027
301.161
301.161
300.996
300.924
300.867
300.855
301.05
301.038
301.317
301.263
301.259
301.368
301.308
301.368
301.247
301.201
301.07
301.092
)
;
    }
    ceiling
    {
        type            wallHeatTransfer;
        Tinf            uniform 303.2;
        alphaWall       uniform 0.24;
        value           nonuniform List<scalar> 
43
(
299.281
299.219
299.205
300.579
301.021
301.231
301.328
301.365
301.385
301.398
301.408
301.415
301.422
301.428
301.434
301.438
301.442
301.443
301.442
301.439
301.432
301.42
301.403
301.39
301.372
301.17
300.956
300.945
300.946
300.949
300.95
300.948
300.944
300.94
300.938
300.944
300.953
300.964
300.977
301.025
303.138
302.806
297.466
)
;
    }
    sWall
    {
        type            wallHeatTransfer;
        Tinf            uniform 315.2;
        alphaWall       uniform 0.36;
        value           uniform 300.34;
    }
    nWall
    {
        type            wallHeatTransfer;
        Tinf            uniform 307.2;
        alphaWall       uniform 0.36;
        value           nonuniform List<scalar> 6(301.588 301.495 301.35 301.644 301.612 301.622);
    }
    sideWalls
    {
        type            empty;
    }
    glass1
    {
        type            wallHeatTransfer;
        Tinf            uniform 315.2;
        alphaWall       uniform 4.3;
        value           nonuniform List<scalar> 9(311.728 310.485 309.704 309.138 308.722 308.396 308.144 308.233 308.519);
    }
    glass2
    {
        type            wallHeatTransfer;
        Tinf            uniform 307.2;
        alphaWall       uniform 4.3;
        value           nonuniform List<scalar> 2(304.529 304.704);
    }
    sun
    {
        type            wallHeatTransfer;
        Tinf            uniform 305.2;
        alphaWall       uniform 0.24;
        value           nonuniform List<scalar> 
14
(
301.761
301.404
301.432
301.42
301.407
301.396
301.386
301.376
301.367
301.357
301.348
301.34
301.332
301.323
)
;
    }
    Table_master
    {
        type            zeroGradient;
    }
    Table_slave
    {
        type            zeroGradient;
    }
    inlet
    {
        type            fixedValue;
        value           uniform 290.15;
    }
    outlet
    {
        type            zeroGradient;
    }
}


// ************************************************************************* //
