/*--------------------------------*- C++ -*----------------------------------*\
  =========                 |
  \\      /  F ield         | OpenFOAM: The Open Source CFD Toolbox
   \\    /   O peration     | Website:  https://openfoam.org
    \\  /    A nd           | Version:  6
     \\/     M anipulation  |
\*---------------------------------------------------------------------------*/
FoamFile
{
    version     2.0;
    format      ascii;
    class       volScalarField;
    location    "2700";
    object      epsilon;
}
// * * * * * * * * * * * * * * * * * * * * * * * * * * * * * * * * * * * * * //

dimensions      [0 2 -3 0 0 0 0];

internalField   nonuniform List<scalar> 
458
(
0.000283458
0.000354306
0.000358858
0.000407796
0.000456308
0.000503664
0.000550993
0.000600276
0.000651521
0.000690796
0.000709972
0.000701681
0.000664694
0.000608639
0.000547784
2.41927e-05
4.73403e-05
5.5705e-05
5.16335e-05
4.57815e-05
3.87235e-05
3.2334e-05
2.71353e-05
2.29796e-05
1.96431e-05
1.69645e-05
1.47715e-05
1.29363e-05
1.1353e-05
9.92138e-06
8.52963e-06
7.56403e-06
5.71152e-06
0.000812998
0.00131922
0.000334563
0.000311675
0.000320382
0.000334526
0.000354258
0.000382775
0.000421496
0.000460355
0.000488517
0.000494769
0.000474931
0.000442752
0.00044957
0.000594169
0.000336092
0.000183338
6.80704e-05
7.8118e-05
6.88828e-05
5.76559e-05
4.77247e-05
4.24011e-05
3.41819e-05
2.72299e-05
2.18082e-05
1.76246e-05
1.44249e-05
1.19515e-05
1.00315e-05
8.62624e-06
7.8739e-06
7.68564e-06
1.81435e-05
1.26415e-05
0.0016036
0.00361729
0.000465162
0.000303949
0.000306048
0.000328511
0.000361619
0.000407407
0.000466093
0.00052631
0.000570707
0.00058522
0.000566459
0.000525419
0.000486413
0.000447447
0.00034483
0.000460388
0.000260019
0.000153884
0.000104098
7.52855e-05
5.97135e-05
0.000101467
7.15869e-05
5.20804e-05
3.91596e-05
3.03763e-05
2.4242e-05
1.98506e-05
1.66585e-05
1.43567e-05
1.11989e-05
9.56781e-06
3.13027e-05
1.94754e-05
0.00277127
0.00786746
0.000843823
0.000321597
0.000301499
0.000331311
0.000377473
0.000443247
0.000531708
0.000617958
0.000673725
0.00068722
0.000660696
0.000604387
0.000534428
0.000454561
0.0003596
0.000344524
0.000587559
0.00030735
0.000170934
0.000108629
7.6401e-05
6.16354e-05
0.000131034
0.00010243
8.67122e-05
7.69583e-05
6.95268e-05
6.22614e-05
5.53513e-05
4.85376e-05
4.10762e-05
2.55705e-05
1.66762e-05
4.54174e-05
2.73197e-05
0.00445055
0.014224
0.00185264
0.000420229
0.000316796
0.000339593
0.000395891
0.000496078
0.00064672
0.00076627
0.000823723
0.000823304
0.000777169
0.000694608
0.000588419
0.000470189
0.000353778
0.000266236
0.000215245
0.000160387
0.000116694
8.59075e-05
6.59219e-05
5.41351e-05
5.20686e-05
5.03517e-05
4.94386e-05
4.84472e-05
4.65947e-05
4.33572e-05
3.92834e-05
3.53928e-05
3.18906e-05
2.65093e-05
2.06363e-05
3.38124e-05
4.55925e-05
6.43933e-05
9.36427e-05
0.000122853
0.00683101
0.0210596
0.0044578
0.000952448
0.000522455
0.000463843
0.000497293
0.000657909
0.000899205
0.0010213
0.00104773
0.00101033
0.000928378
0.000811974
0.000669988
0.000515861
0.000371098
0.000256929
0.00018046
0.000132114
9.91529e-05
7.6272e-05
6.19944e-05
5.45427e-05
5.29602e-05
5.47373e-05
5.73387e-05
5.92377e-05
5.94197e-05
5.68221e-05
5.04298e-05
4.29334e-05
3.59338e-05
2.97512e-05
2.51918e-05
2.84442e-05
3.93958e-05
5.2404e-05
0.000136956
0.000132071
0.00969344
0.0250649
0.009675
0.00359446
0.00201409
0.00139398
0.00119803
0.00134705
0.001455
0.00145395
0.001382
0.00126881
0.00112676
0.000959418
0.000771657
0.000577151
0.000400253
0.000262168
0.000171897
0.000119752
9.03016e-05
7.31451e-05
6.44305e-05
6.1751e-05
6.35249e-05
6.7971e-05
7.32524e-05
7.84018e-05
8.2597e-05
8.44036e-05
8.16615e-05
7.10816e-05
6.02137e-05
5.11886e-05
4.63513e-05
4.84321e-05
6.16733e-05
9.07372e-05
0.000184856
0.000192981
0.0103497
0.027879
0.0156685
0.0110926
0.00758253
0.00513623
0.00380336
0.00303727
0.00251181
0.00213622
0.00184576
0.00159631
0.00135998
0.00111992
0.000872311
0.00062872
0.000416671
0.000255901
0.000159205
0.000108948
8.81857e-05
7.8853e-05
7.56801e-05
7.62912e-05
7.95388e-05
8.47989e-05
9.17305e-05
0.00010045
0.000111219
0.000124037
0.000138135
0.000149699
0.000152854
0.000163677
0.000191314
0.000268244
0.000445207
0.000750178
0.00242697
0.000789691
0.00956246
0.0160087
0.0140233
0.010684
0.00816493
0.00624962
0.0048842
0.00389479
0.00320215
0.00268692
0.00226992
0.00190666
0.00157096
0.00124458
0.000924455
0.000624175
0.000385169
0.000215686
0.000143511
0.000113933
0.000102822
9.90657e-05
9.8408e-05
9.91254e-05
0.000100829
0.000103878
0.000109116
0.000117771
0.000131285
0.000151192
0.000179163
0.000217183
0.000268746
0.000343529
0.000457071
0.000615959
0.000807442
0.00099347
0.00114938
0.000718437
0.00500874
0.0112699
0.00822316
0.00654564
0.00543476
0.00459076
0.0038206
0.00312695
0.00253656
0.00204091
0.00160791
0.00120126
0.000820046
0.000471578
0.000277402
0.000192292
0.000163645
0.000156243
0.000155006
0.000154781
0.000153522
0.0001502
0.000144781
0.000138132
0.000131914
0.000128367
0.000129989
0.000139336
0.000159166
0.000191738
0.000239571
0.000306992
0.000398468
0.00050987
0.000617946
0.000684122
0.000695151
0.000479595
0.00351451
0.00794923
0.00647374
0.00528427
0.00455735
0.00389982
0.00329512
0.00271396
0.00224523
0.0018629
0.00149094
0.00109986
0.000766874
0.000532254
0.00041141
0.000365783
0.000356809
0.000359598
0.000362846
0.00036413
0.000361583
0.000352886
0.000336885
0.000314149
0.000287144
0.000259784
0.000236416
0.000220859
0.000216058
0.000226107
0.000253288
0.000299801
0.000366027
0.000445411
0.000517576
0.000600991
0.00069581
0.000522713
0.00191229
0.00243377
0.00287807
0.00352372
0.00322471
0.00288072
0.00235302
0.00170719
0.00120064
0.00101043
0.000886966
0.000779101
0.000667486
0.000548487
0.000444031
0.000349589
0.000285109
0.000248391
0.000228228
0.000216289
0.000209048
0.000202608
0.000195011
0.000186151
0.000176718
0.000167988
0.000161503
0.000158742
0.000160966
0.00016939
0.000185508
0.000207899
0.000237232
0.000275048
0.000322668
0.000381788
0.000419771
0.000397411
0.00033526
0.000285415
)
;

boundaryField
{
    floor
    {
        Cmu             0.09;
        kappa           0.41;
        E               9.8;
        type            epsilonWallFunction;
        value           nonuniform List<scalar> 
36
(
0.000547784
2.41927e-05
4.73403e-05
5.5705e-05
5.16335e-05
4.57815e-05
3.87235e-05
3.2334e-05
2.71353e-05
2.29796e-05
1.96431e-05
1.69645e-05
1.47715e-05
1.29363e-05
1.1353e-05
9.92138e-06
8.52963e-06
7.56403e-06
5.71152e-06
5.71152e-06
1.26415e-05
1.94754e-05
2.73197e-05
6.43933e-05
9.36427e-05
0.000122853
0.000547784
0.000594169
0.000336092
0.000183338
2.41927e-05
0.000183338
6.80704e-05
0.000460388
0.000260019
0.000587559
)
;
    }
    ceiling
    {
        Cmu             0.09;
        kappa           0.41;
        E               9.8;
        type            epsilonWallFunction;
        value           nonuniform List<scalar> 
43
(
0.00191229
0.00243377
0.00287807
0.00352372
0.00322471
0.00288072
0.00235302
0.00170719
0.00120064
0.00101043
0.000886966
0.000779101
0.000667486
0.000548487
0.000444031
0.000349589
0.000285109
0.000248391
0.000228228
0.000216289
0.000209048
0.000202608
0.000195011
0.000186151
0.000176718
0.000167988
0.000161503
0.000158742
0.000160966
0.00016939
0.000185508
0.000207899
0.000237232
0.000275048
0.000322668
0.000381788
0.000419771
0.000397411
0.00033526
0.000285415
0.00956246
0.0160087
0.00351451
)
;
    }
    sWall
    {
        Cmu             0.09;
        kappa           0.41;
        E               9.8;
        type            epsilonWallFunction;
        value           uniform 0.00191229;
    }
    nWall
    {
        Cmu             0.09;
        kappa           0.41;
        E               9.8;
        type            epsilonWallFunction;
        value           nonuniform List<scalar> 6(0.000122853 0.000132071 0.000192981 0.000479595 0.000522713 0.000285415);
    }
    sideWalls
    {
        type            empty;
    }
    glass1
    {
        Cmu             0.09;
        kappa           0.41;
        E               9.8;
        type            epsilonWallFunction;
        value           nonuniform List<scalar> 9(0.000283458 0.000812998 0.0016036 0.00277127 0.00445055 0.00683101 0.00969344 0.0103497 0.00956246);
    }
    glass2
    {
        Cmu             0.09;
        kappa           0.41;
        E               9.8;
        type            epsilonWallFunction;
        value           nonuniform List<scalar> 2(0.000789691 0.000718437);
    }
    sun
    {
        Cmu             0.09;
        kappa           0.41;
        E               9.8;
        type            epsilonWallFunction;
        value           nonuniform List<scalar> 
14
(
0.000283458
0.000354306
0.000358858
0.000407796
0.000456308
0.000503664
0.000550993
0.000600276
0.000651521
0.000690796
0.000709972
0.000701681
0.000664694
0.000608639
)
;
    }
    Table_master
    {
        Cmu             0.09;
        kappa           0.41;
        E               9.8;
        type            epsilonWallFunction;
        value           nonuniform List<scalar> 9(0.000101467 7.15869e-05 5.20804e-05 3.91596e-05 3.03763e-05 2.4242e-05 1.98506e-05 1.66585e-05 1.43567e-05);
    }
    Table_slave
    {
        Cmu             0.09;
        kappa           0.41;
        E               9.8;
        type            epsilonWallFunction;
        value           nonuniform List<scalar> 9(0.000131034 0.00010243 8.67122e-05 7.69583e-05 6.95268e-05 6.22614e-05 5.53513e-05 4.85376e-05 4.10762e-05);
    }
    inlet
    {
        type            turbulentMixingLengthDissipationRateInlet;
        mixingLength    0.01;
        phi             phi;
        k               k;
        value           uniform 0.000101881;
    }
    outlet
    {
        type            zeroGradient;
    }
}


// ************************************************************************* //
