/*--------------------------------*- C++ -*----------------------------------*\
  =========                 |
  \\      /  F ield         | OpenFOAM: The Open Source CFD Toolbox
   \\    /   O peration     | Website:  https://openfoam.org
    \\  /    A nd           | Version:  6
     \\/     M anipulation  |
\*---------------------------------------------------------------------------*/
FoamFile
{
    version     2.0;
    format      ascii;
    class       volScalarField;
    location    "2400";
    object      epsilon;
}
// * * * * * * * * * * * * * * * * * * * * * * * * * * * * * * * * * * * * * //

dimensions      [0 2 -3 0 0 0 0];

internalField   nonuniform List<scalar> 
458
(
0.000123084
0.00013174
9.92259e-05
0.000109777
0.000122277
0.00013493
0.000147624
0.000160573
0.000174251
0.000189526
0.000203706
0.000215888
0.000226081
0.000235432
0.000243288
1.36878e-05
1.77957e-05
1.95428e-05
1.11826e-05
5.46189e-06
3.90723e-06
3.10708e-06
2.82895e-06
3.24224e-06
4.40458e-06
6.43858e-06
9.31156e-06
1.2169e-05
1.60126e-05
2.20406e-05
2.8264e-05
2.87034e-05
2.0364e-05
0.000637604
0.00149024
0.000136244
8.48902e-05
8.69584e-05
9.20771e-05
9.79347e-05
0.000105046
0.000114203
0.00012634
0.000140563
0.000156617
0.000174496
0.000195149
0.000228347
0.000313747
0.000276569
0.000108233
3.99942e-05
6.0974e-05
4.737e-05
3.10331e-05
1.73295e-05
6.59958e-06
4.50451e-06
4.9541e-06
6.93011e-06
1.11057e-05
1.74819e-05
2.58829e-05
3.73136e-05
5.04386e-05
5.79949e-05
6.63622e-05
9.12206e-05
4.46626e-05
0.0016687
0.00510874
0.000358927
0.000100259
8.96251e-05
9.46147e-05
0.000102077
0.000111362
0.000122645
0.000136009
0.000150704
0.000165252
0.000179096
0.000192854
0.000209626
0.000236689
0.000278613
0.000364864
0.000195986
0.000175471
9.02462e-05
6.60807e-05
5.46866e-05
2.45992e-05
7.55663e-06
1.00096e-05
1.47608e-05
2.115e-05
3.00436e-05
4.29726e-05
6.32766e-05
9.93199e-05
8.11521e-05
9.21097e-05
0.000108495
9.29834e-05
0.00334906
0.0113789
0.000919103
0.000140748
9.97325e-05
0.000104638
0.00011531
0.000128556
0.000144027
0.000161455
0.000179453
0.00019483
0.000206984
0.000217204
0.000227504
0.000242269
0.00027236
0.000337812
0.00045601
0.00018894
0.000101948
8.15936e-05
7.91394e-05
8.88486e-05
0.000118484
0.00011804
0.000119243
0.000121543
0.00012573
0.000133234
0.000146215
0.000168598
0.000215916
0.000166872
0.000199786
0.000260497
0.000348877
0.00568558
0.01956
0.00208515
0.000233813
0.000118286
0.00011923
0.000134173
0.00015439
0.000178832
0.000206777
0.000233064
0.000251223
0.000261764
0.000267816
0.00027059
0.0002693
0.000262102
0.00024281
0.000198974
0.000131471
9.71789e-05
8.15652e-05
7.63982e-05
7.6848e-05
8.04231e-05
8.47152e-05
9.14303e-05
0.000101293
0.000115443
0.000135732
0.000164711
0.000205427
0.000260703
0.000319608
0.00041619
0.000497147
0.000571846
0.00092302
0.000689057
0.000495309
0.00869303
0.0268416
0.00429208
0.000545817
0.000192719
0.000162738
0.000176895
0.000204721
0.000242682
0.000291073
0.000326481
0.000341029
0.000341832
0.000338043
0.000334274
0.0003299
0.000318684
0.000288934
0.000237087
0.00018068
0.000139159
0.000114161
0.000101764
9.73065e-05
9.79808e-05
0.000102816
0.000112323
0.000127387
0.000149748
0.000182426
0.000229659
0.000296211
0.000386084
0.00050058
0.000644765
0.000810769
0.000925657
0.000889783
0.000580928
0.000551506
0.0122283
0.0299909
0.00875781
0.00221763
0.00076731
0.000437363
0.000372983
0.000376832
0.000413603
0.000483674
0.000502252
0.000485704
0.000453911
0.000421766
0.000397174
0.000381378
0.000367028
0.000339392
0.000291995
0.000237461
0.000190705
0.000157849
0.000138188
0.000128608
0.000126741
0.00013187
0.000144509
0.000165734
0.000197188
0.000241474
0.000302237
0.000383423
0.000487202
0.00061043
0.000740958
0.000850003
0.000885554
0.000801211
0.000572139
0.000496641
0.0129808
0.0360429
0.0179379
0.0104464
0.00515103
0.0025439
0.00154074
0.00115269
0.00100845
0.000918218
0.000814029
0.00070701
0.000609007
0.000526444
0.000462301
0.000417386
0.000387848
0.000361198
0.000323007
0.00027698
0.000233722
0.000199505
0.000176201
0.000163019
0.000158936
0.000164131
0.000180262
0.000210146
0.000256717
0.000321369
0.000401607
0.000489807
0.00057555
0.000652768
0.000723762
0.000801921
0.000877823
0.00095927
0.00101304
0.000735693
0.0117303
0.0193057
0.0221712
0.0165924
0.0109844
0.00700068
0.00453193
0.00307026
0.00219561
0.00161984
0.00123632
0.000968551
0.000774179
0.000629611
0.000521526
0.000442241
0.000386243
0.000346409
0.00031348
0.000281573
0.000250913
0.000224176
0.000203652
0.000190325
0.000184526
0.000186953
0.000199497
0.000226054
0.000271409
0.000337165
0.000427827
0.000547791
0.000702552
0.000898233
0.00111581
0.0012638
0.001386
0.00162862
0.0021793
0.00118693
0.0345619
0.046951
0.0187914
0.0101246
0.00612834
0.00398646
0.00274449
0.00197063
0.00145679
0.00110468
0.000856598
0.00067746
0.000545607
0.000447606
0.000375057
0.000322213
0.000284237
0.000256744
0.000236459
0.000221455
0.000210853
0.000204384
0.000202117
0.00020443
0.000212257
0.000227583
0.000253557
0.000293632
0.000351248
0.00042625
0.000516298
0.000617052
0.000719341
0.000814297
0.000848832
0.000783602
0.00133591
0.0011712
0.0298486
0.0334468
0.0149284
0.00852218
0.00542011
0.00366091
0.00258654
0.00189669
0.00143571
0.00111582
0.000886925
0.000718844
0.00059293
0.000497488
0.000425112
0.000371017
0.000331961
0.000305484
0.000289383
0.000281438
0.000279183
0.000280313
0.000282989
0.000285709
0.000287401
0.00028811
0.00028911
0.000294387
0.000308894
0.000335194
0.000370745
0.000407837
0.00043428
0.000436848
0.000416618
0.000409223
0.0010388
0.000789542
0.00564717
0.00917505
0.0152742
0.010691
0.00784833
0.00573058
0.00414759
0.00305478
0.00229327
0.00174786
0.00135548
0.00107353
0.000861846
0.000698755
0.000571475
0.000471868
0.00039437
0.000334902
0.000290285
0.000257925
0.000235655
0.000221633
0.000214539
0.000212758
0.000214684
0.000219332
0.000226347
0.000236203
0.000250697
0.000271989
0.00030106
0.00033669
0.000374238
0.000405622
0.000419938
0.000405288
0.000381392
0.000348855
0.000362554
0.000314256
)
;

boundaryField
{
    floor
    {
        Cmu             0.09;
        kappa           0.41;
        E               9.8;
        type            epsilonWallFunction;
        value           nonuniform List<scalar> 
36
(
0.000243288
1.36878e-05
1.77957e-05
1.95428e-05
1.11826e-05
5.46189e-06
3.90723e-06
3.10708e-06
2.82895e-06
3.24224e-06
4.40458e-06
6.43858e-06
9.31156e-06
1.2169e-05
1.60126e-05
2.20406e-05
2.8264e-05
2.87034e-05
2.0364e-05
2.0364e-05
4.46626e-05
9.29834e-05
0.000348877
0.00092302
0.000689057
0.000495309
0.000243288
0.000313747
0.000276569
0.000108233
1.36878e-05
0.000108233
3.99942e-05
0.000364864
0.000195986
0.00045601
)
;
    }
    ceiling
    {
        Cmu             0.09;
        kappa           0.41;
        E               9.8;
        type            epsilonWallFunction;
        value           nonuniform List<scalar> 
43
(
0.00564717
0.00917505
0.0152742
0.010691
0.00784833
0.00573058
0.00414759
0.00305478
0.00229327
0.00174786
0.00135548
0.00107353
0.000861846
0.000698755
0.000571475
0.000471868
0.00039437
0.000334902
0.000290285
0.000257925
0.000235655
0.000221633
0.000214539
0.000212758
0.000214684
0.000219332
0.000226347
0.000236203
0.000250697
0.000271989
0.00030106
0.00033669
0.000374238
0.000405622
0.000419938
0.000405288
0.000381392
0.000348855
0.000362554
0.000314256
0.0117303
0.0193057
0.0298486
)
;
    }
    sWall
    {
        Cmu             0.09;
        kappa           0.41;
        E               9.8;
        type            epsilonWallFunction;
        value           uniform 0.00564717;
    }
    nWall
    {
        Cmu             0.09;
        kappa           0.41;
        E               9.8;
        type            epsilonWallFunction;
        value           nonuniform List<scalar> 6(0.000495309 0.000551506 0.000496641 0.0011712 0.000789542 0.000314256);
    }
    sideWalls
    {
        type            empty;
    }
    glass1
    {
        Cmu             0.09;
        kappa           0.41;
        E               9.8;
        type            epsilonWallFunction;
        value           nonuniform List<scalar> 9(0.000123084 0.000637604 0.0016687 0.00334906 0.00568558 0.00869303 0.0122283 0.0129808 0.0117303);
    }
    glass2
    {
        Cmu             0.09;
        kappa           0.41;
        E               9.8;
        type            epsilonWallFunction;
        value           nonuniform List<scalar> 2(0.000735693 0.00118693);
    }
    sun
    {
        Cmu             0.09;
        kappa           0.41;
        E               9.8;
        type            epsilonWallFunction;
        value           nonuniform List<scalar> 
14
(
0.000123084
0.00013174
9.92259e-05
0.000109777
0.000122277
0.00013493
0.000147624
0.000160573
0.000174251
0.000189526
0.000203706
0.000215888
0.000226081
0.000235432
)
;
    }
    Table_master
    {
        Cmu             0.09;
        kappa           0.41;
        E               9.8;
        type            epsilonWallFunction;
        value           nonuniform List<scalar> 9(2.45992e-05 7.55663e-06 1.00096e-05 1.47608e-05 2.115e-05 3.00436e-05 4.29726e-05 6.32766e-05 9.93199e-05);
    }
    Table_slave
    {
        Cmu             0.09;
        kappa           0.41;
        E               9.8;
        type            epsilonWallFunction;
        value           nonuniform List<scalar> 9(0.000118484 0.00011804 0.000119243 0.000121543 0.00012573 0.000133234 0.000146215 0.000168598 0.000215916);
    }
    inlet
    {
        type            turbulentMixingLengthDissipationRateInlet;
        mixingLength    0.01;
        phi             phi;
        k               k;
        value           uniform 3.77337e-06;
    }
    outlet
    {
        type            zeroGradient;
    }
}


// ************************************************************************* //
