/*--------------------------------*- C++ -*----------------------------------*=========                 |
  \      /  F ield         | OpenFOAM: The Open Source CFD Toolbox
   \    /   O peration     | Website:  https://openfoam.org
    \  /    A nd           | Version:  6
     \/     M anipulation  |
\*---------------------------------------------------------------------------*/
FoamFile
{
    version     2.0;
    format      ascii;
    class       volScalarField;
    location    "2400";
    object      PMV;
}
// * * * * * * * * * * * * * * * * * * * * * * * * * * * * * * * * * * * * * //

dimensions      [0 0 0 0 0 0 0];

internalField   nonuniform List<scalar> 
458
(
1.8336783907490386
1.661566088407945
1.6805584642903073
1.673465793848947
1.666717386634224
1.6611333922284424
1.656703807635065
1.6546883767931473
1.6548391489888499
1.6580996288025902
1.6640214968777107
1.6748407663165534
1.693101233639181
1.7086629469724515
1.6898876343881948
1.1034117171388322
1.1034117171388322
1.1096521277906377
1.0957311332047572
1.084690149985137
1.0904506835264645
1.0962111721668584
1.0851701961190707
1.076529320687274
1.0717287944072624
1.0707686858490257
1.0736490082455137
1.078449523344656
1.090930725985726
1.1144524032115468
1.1350931603817958
1.1331731205266786
1.131253074201266
1.8486370361593158
1.6748388992998058
1.7113208429668363
1.701256176444607
1.6976692401668818
1.6953767018936563
1.6948116687384729
1.6944368207225218
1.6958662127878188
1.697846687365378
1.7001543021714798
1.7023221292264377
1.7027529674349031
1.6952712805777237
1.6791083581448123
1.692472384144742
1.7223781627856367
1.6828994328102123
1.0688393206011972
1.1768522914746167
1.186451579281061
1.1926910040987782
1.1778122294664366
1.1331731205266786
1.1331731205266786
1.132213098168534
1.1293330214735497
1.130293048633437
1.1374932009979088
1.1518932226528051
1.18501169930217
1.2296456390998642
1.2781128512435773
1.268995804757204
1.2094889943494596
1.0835250637136418
1.9251296923343137
1.6841888043862445
1.7506217922772538
1.7371345761226382
1.7389497904971536
1.7427521752617037
1.747135285090405
1.7518757259451145
1.7564161429032945
1.7603461437262755
1.762116224576873
1.7591789768494879
1.7492069721400672
1.729292424666237
1.7008726796009823
1.6750180720800456
1.641068444459135
1.5925341580730519
1.3860938784587458
1.3625514290320107
1.361112369479075
1.37790083937929
1.3932491970467136
1.265636826107895
1.172052571481922
1.1955707079631788
1.2253264486464195
1.2522005627598016
1.2785926883446654
1.3064219095116318
1.3376065091683105
1.378380491729854
1.4201061498263268
1.347201011579766
1.3021037932459891
1.1456115269582776
2.0169646891902127
1.7046478322033638
1.7878587430600288
1.7720333108972957
1.7804900323588895
1.7920985966893161
1.8038796220791222
1.8160918994809832
1.8265961061767841
1.834876226159657
1.8392375555201697
1.8360886552557556
1.82328725555509
1.7987445512965727
1.763588604610306
1.7199461731459027
1.6613608360866614
1.5909535570034847
1.5461631180390187
1.539158260016617
1.5634642728370503
1.616493458850223
1.6619540657378584
1.6909089103838648
1.7175411513087064
1.7349565661944741
1.7520690366750913
1.7544607325149517
1.7573306866001008
1.7602005519290307
1.764026900091977
1.76689655634658
1.7563740450752232
1.701351183321684
1.6553965948882796
1.6151711233806267
1.6103814906018712
2.1106430571179082
1.7373620695058825
1.8175377965293542
1.8028980669025614
1.8181308664278204
1.837589023622653
1.8582520007918975
1.879324061106279
1.8980483078395127
1.9138841983348067
1.923220903893912
1.9238440248603268
1.9133001022766585
1.891347296542721
1.8600470349092602
1.8210749021807786
1.775888061172938
1.7338426409882164
1.7075738913980982
1.6961859847586327
1.7041813066771465
1.7199394760457267
1.7337512891043074
1.743472791703572
1.7517856299149182
1.761116321196521
1.771845314490245
1.785349676379291
1.7917630659568107
1.7970223864175816
1.8027594588954272
1.8080181010554852
1.8104082841965095
1.8056278498192961
1.800847144325281
1.796066170230795
1.7534312342934484
1.715577756012112
1.6866132179029891
1.7137881750505415
2.195968665421704
1.7846986134483174
1.8558154976056012
1.835421491035715
1.8518527538440992
1.8786468839911583
1.908213232860984
1.9384148117636184
1.967453687857399
1.993213059326882
2.0083362345971016
2.0118908994941376
2.004433690041971
1.9868418172673419
1.9602957399086376
1.9257695565277466
1.8867382411422515
1.8499841498893275
1.8225667684561975
1.8052817387640723
1.798537498578078
1.7963583540211943
1.795596793665716
1.7941333270261872
1.7930111311952053
1.7931174345700056
1.7949332295026112
1.7993299872650659
1.8064987186664871
1.8146557895765123
1.8236053865331303
1.8317518412775904
1.8391096927482875
1.8456200585808082
1.8546722503246562
1.8639499415840983
1.8560605972863908
1.8468201247448508
1.7871637899095416
1.7155692565338474
2.2703971327422323
1.874444482086804
1.9761008832116769
1.9036787179447616
1.898501027132436
1.9305798594906325
1.9670388801403562
1.9913601292535628
2.0175776511563828
2.045688233517046
2.066166265229501
2.0785443606796274
2.078977491633016
2.068265204515029
2.051834121645075
2.02774333385393
1.9979782478698327
1.9666874153132257
1.9390628218364991
1.9174440401276676
1.9010962492309458
1.8873337887544352
1.8734833762418148
1.8610635534308293
1.8505528773006705
1.8414743222203616
1.8340043164380766
1.8275182638033427
1.8236125612456517
1.8217486803834406
1.8203222368188927
1.8185225311054285
1.8155130768761671
1.8118428888271656
1.8075732154442297
1.8025707335952474
1.7970914931102266
1.8014780937564578
1.8777191445880996
1.6552588796001169
2.393360389466246
2.155073475481135
2.14735022189476
2.039852219732458
2.002262143277534
2.0118474750800637
2.0228197014256915
2.0337787435215335
2.0498563575370277
2.0587850067464215
2.069046005933363
2.077352803736688
2.083514436217462
2.0874300612503447
2.0887801765069516
2.0859292620594045
2.075688147734027
2.05092756529077
2.0213901003332664
1.99374403199076
1.9684698118744905
1.9465252526827062
1.926959630364647
1.9097753106587694
1.893541732324609
1.8787372906622142
1.8653629561909288
1.8553306365462285
1.8510306665781173
1.8534195685102148
1.8403057650526673
1.8245335687209996
1.8078171164649468
1.7911723616852402
1.775746501048628
1.7632897562178438
1.7534182489575494
1.7479789556926577
1.7310894175547122
1.6779153433353309
2.5689969602840352
2.441099217126905
2.3357323167438366
2.234924653532891
2.1507540250093435
2.100594433852466
2.071496729882794
2.057315657465583
2.053352066893111
2.0540273848068775
2.058286568990795
2.06403398149957
2.0694183748261805
2.0744143601171436
2.0783722645675122
2.0806555361459043
2.081095682349251
2.077830979520583
2.071670971218544
2.054261413542902
2.030443615119907
2.0075687410079444
1.9856383694840658
1.9651309195185598
1.9450938214670626
1.9260050609244777
1.9069108363493592
1.8892439826455705
1.8753939340368782
1.866796035778437
1.8644075545818892
1.8663183456298063
1.870617446900382
1.8753939340368782
1.8811253089540845
1.8595117209769305
1.8371666291634918
1.8250468537632154
1.7897139996939113
1.7149653474027293
1.3158360984219917
2.0671109604626663
2.1223807523226426
2.118367665721917
2.102318747030814
2.0885788437978805
2.0805751217380832
2.075568397423444
2.0727411866050556
2.0708445973001988
2.070850396304526
2.071109111263779
2.071494731616719
2.0718784529850454
2.071641816104053
2.069141885465627
2.0641472359063235
2.0564298150376468
2.0459632285580747
2.034355868465618
2.0214429760821773
2.0089544213916346
1.996640370735191
1.9784853965942388
1.9570214331452058
1.9360273540779434
1.9164586193495905
1.8992716603167588
1.8859011100102334
1.8777820614761664
1.8739610203329033
1.8688751612754917
1.8660647388798324
1.866796110440135
1.8635199562408065
1.8522501965589835
1.7823366235899762
1.7432144816197193
1.5279779435709628
2.0089489000470193
2.112346427979183
2.118484382317854
2.1064122580515257
2.0939549234914234
2.0847650011299916
2.078689170121678
2.074049868804377
2.0705886072647
2.068957400253546
2.0672304711440543
2.066065905824187
2.0651097850476385
2.063031269828631
2.0600944312202696
2.05568012342853
2.049342643558819
2.041298646795013
2.0318198490555703
2.021163546322863
2.008972986757408
1.9957600907310515
1.9824122910158357
1.9677319462483072
1.9516436737780327
1.9343707277797064
1.9142777236593973
1.8920332710467374
1.8688195126519953
1.8468890709846575
1.8286685257746673
1.815060974785267
1.8059874894939159
1.802438428173571
1.8053812490069079
1.7715107216134611
1.747940123176698
1.7137845161532614
1.6882583739825299
1.644708486435145
2.0078503434340234
2.155892850129505
2.1321071908008964
2.1090140983088257
2.090891789674036
2.07922740485515
2.071583608367065
2.0671020302311183
2.0640664522094676
2.0621724978153875
2.0597579582510335
2.057284032162249
2.0537433365687616
2.0492927646024923
2.0428072518287177
2.03496457616988
2.02665924533057
2.0173264758343783
2.0078402609289285
1.9984669165925617
1.9892434329842477
1.9790653272634742
1.9688456387108062
1.9579730397490616
1.94577255042717
1.9319543706335613
1.9158696465297103
1.8970443789883564
1.8757983861242278
1.8538500213585871
1.8333894800207828
1.81666356470497
1.8054539114110977
1.8008870837933357
1.805453746116789
1.7832463116048887
1.7537262075096132
)
;

boundaryField
{
    ".*"
    {
        type            zeroGradient;
    }
}


// ************************************************************************* //
