/*--------------------------------*- C++ -*----------------------------------*=========                 |
  \      /  F ield         | OpenFOAM: The Open Source CFD Toolbox
   \    /   O peration     | Website:  https://openfoam.org
    \  /    A nd           | Version:  6
     \/     M anipulation  |
\*---------------------------------------------------------------------------*/
FoamFile
{
    version     2.0;
    format      ascii;
    class       volScalarField;
    location    "2400";
    object      PPD;
}
// * * * * * * * * * * * * * * * * * * * * * * * * * * * * * * * * * * * * * //

dimensions      [0 0 0 0 0 0 0];

internalField   nonuniform List<scalar> 
458
(
68.73565560041317
59.67545815683361
60.69888361860157
60.3171503481862
59.95342496069035
59.65209742984693
59.412844426041836
59.303923941437674
59.31207347719911
59.48825668848101
59.80798707848897
60.39119736300885
61.37246488095438
62.2052866616773
61.200074179346046
30.66698732467873
30.66698732467873
30.95358790815031
30.31605624889275
29.815127431969344
30.075958501152243
30.337930633631586
29.836819565150037
29.44758646019787
29.232473039698746
29.189547538664954
29.318421337145026
29.533857887501824
30.09774604739401
31.174938454528032
32.135417560996615
32.04548395902543
31.955669684236966
69.4927227826106
60.39109683210268
62.34718608232736
61.80931506217383
61.61727805742177
61.49444879628362
61.464164737649114
61.4440716864554
61.52068165411709
61.62678234234997
61.75034186160722
61.86634965116494
61.88939745610075
61.488798856532355
60.62088502405209
61.33874134113861
62.93636165727119
60.824747407043546
29.103385935696465
34.120279737703996
34.58412217434042
34.88708109668352
34.1665401808186
32.04548395902543
32.04548395902543
32.00056188354702
31.865975090955317
31.910807405332434
32.248001824588016
32.92737165643241
34.51437122362772
36.70431224500892
39.14312921719828
38.67985594972045
35.708340378806
29.762513242427346
73.25953607198747
60.89404317609544
64.43209429708106
63.7195682102942
63.81565576023958
64.01674422124339
64.24822080504875
64.49816939237749
64.73717317397755
64.94372344480837
65.03665494333495
64.88241184110468
64.35750596124235
63.30379390724916
61.788791910119045
60.400744344624336
58.56691276209945
55.93040590282615
44.76597814610747
43.521003808356774
43.44520955177329
44.33166990173506
45.14614274861229
38.50968345409983
33.889393921307615
35.02729190646231
36.48995174653558
37.831790405281005
39.167567064804096
40.59403549018217
42.2125418224696
44.357066095315226
46.57972810356364
42.714437006066
40.37154836646683
32.63019913383634
77.5113911673682
61.99073267899788
66.38084691935452
65.55614582413641
65.99752030618028
66.60085914198494
67.21001980593437
67.83797318516787
68.37511340341183
68.79650301470801
69.01772276226424
68.85805257724726
68.20621791229128
66.94490005233163
65.11390928016243
62.80693925542398
59.66437707179599
55.844359452489684
53.40440524127005
53.02284926823119
54.347026843248656
57.23355292861766
59.696402985082436
61.2548740876804
62.678860316613026
63.60420037761541
64.508353116862
64.634290359733
64.78526602703363
64.93607693104325
65.1368978341067
65.28731528726703
64.73495899711358
61.81439911824821
59.342202697589116
57.161700455325665
56.90136707321258
81.48922414059749
63.73161363429396
67.9120767829121
67.15939122914295
67.94245695595669
68.93416470601117
69.97604566942304
71.02582514550207
71.94719009874689
72.7175801370522
73.16785125303652
73.1977954692783
72.68931310306424
71.61872974279397
70.06598409439188
68.09313411957815
65.75752213636724
63.545164772774136
62.14711431998233
61.53781648470928
61.96578814103702
62.80658272867126
63.54032237723125
64.0548247112244
64.49342283840463
64.98416637221962
65.54631671438182
66.25045771775356
66.583462797202
66.85584701627607
67.15223998202612
67.423227930287
67.54617728065851
67.3001361934737
67.05353074122131
66.80637131250792
64.58009441029938
62.5742334807842
61.0242853304683
62.47881749998847
84.75759907401626
66.21660094366018
69.85381798467057
68.82418854269261
69.65466256438893
70.99229747684805
72.44265238370369
73.89413024936832
75.25902823404331
76.44304745174496
77.12594232170812
77.28510678598205
76.95060642109645
76.15260908822991
74.92548903967821
73.29024242302387
71.39197825799442
69.56059735869954
68.16940421090997
67.28230093714001
66.93419703508495
66.82149148343268
66.78207748061763
66.70629920395731
66.64815855150648
66.65366733744536
66.7477242609313
66.97515710632456
67.3449996808647
67.7643193094566
68.22246874649576
68.63771080867116
69.0112445061583
69.3405273408405
69.79640790177571
70.2612111470182
69.86612119509842
69.40109671655007
66.34474619154706
62.573780425424886
87.31348310453208
70.78391848174542
75.65936475536151
72.22204899565604
71.96932862412032
73.52062675705278
75.23975226114221
76.35874604535846
77.53865639271537
78.77205643030466
79.64912290555907
80.17026431414962
80.18837533398134
79.73797468851205
79.0372110559929
77.988552555701
76.65921652375876
75.22341470157508
73.92492413203715
72.88960737524282
72.09610954726647
71.42131514875706
70.73618577675379
70.11687420894684
69.58923744845347
69.13097796017729
68.7522157121722
68.42213293335988
68.22283521662266
68.12758737620027
68.05463330791247
67.96251521979116
67.8082932711867
67.61990511139827
67.40032795640582
67.14250228197197
66.85942185116875
67.08610847168956
70.94634135328121
59.33475963585801
90.91607323057767
83.23517629725987
82.93847005967812
78.51875799894805
76.8527737378902
77.2831655332483
77.77119026847444
78.2536014172585
78.95206272283698
79.33510939862089
79.77097730065582
80.12039665401058
80.37757408208535
80.54011166277573
80.59599301465276
80.47789595131789
80.0506222807979
78.99820240067126
77.70788772417426
76.46717953432635
75.30621955440667
74.27845558781965
73.34731488335
72.51848916278269
71.72645209815349
70.99677441125979
70.33178114300162
69.82947444821889
69.61329099660713
69.73345944073031
69.0718269363146
68.2698674296582
67.41288307555169
66.55283018131979
65.75013243120776
65.09823250334767
64.57941069311076
64.2927355233814
63.39915901706102
60.55669644995226
94.75830477201114
92.1079348837267
89.32402925694387
86.13035933554309
83.06959083017956
81.08142089957872
79.87438676544967
79.27231327720784
79.10244715482592
79.1314376454026
79.31381812668158
79.55865906006004
79.78670686763402
79.9971470418105
80.16306590405011
80.25846138296035
80.27682366961537
80.14041640457704
79.88172873739572
79.14147952923072
78.10732776288788
77.09150895406673
76.09756884661432
75.15100599589479
74.21079776437507
73.3015404320358
72.37936070211722
71.51533651572845
70.83104485277926
70.40329292997224
70.28407210009402
70.37946258423216
70.59368542150784
70.83104485277926
71.11493777051552
70.0391725025576
68.9127432217504
68.29606935568877
66.47716886796204
62.54158688159535
41.080499425375955
79.68913778000001
81.95959646708076
81.79950637831804
81.1517320263336
80.58766511971203
80.25510565875328
80.04559811523593
79.9267943697975
79.84689593101618
79.84714047351109
79.8580488854951
79.87430255703556
79.89046958214327
79.8805003288878
79.77502802508684
79.56346904265418
79.23440884394306
78.78395568410406
78.27886528749166
77.71023057572546
77.15365957842431
76.5986165385177
75.76925403166858
74.77227505650498
73.78054730565418
72.84203052090311
72.00699822344167
71.35072202162232
70.94945881379793
70.75991116640743
70.50693439869666
70.36680825042826
70.40329665406233
70.2397247679156
69.6746570112379
66.09369361837918
64.0411755666927
52.414078900553484
77.15341209051718
81.55788557942738
81.80417315845365
81.31809804136046
80.80940404821317
80.42956082229112
80.1763203459965
79.9818318153068
79.83609940010109
79.76723351774777
79.69419711755228
79.64486960574371
79.60432611611832
79.51604849837155
79.39099064731555
79.20230327184133
78.92991801964551
78.58167344870421
78.16774447061562
77.6978481071008
77.15449174039291
76.55870456573507
75.94974220035908
75.27195514539297
74.51977085233571
73.70161442417621
72.73661810627641
71.65241996902355
70.50416207247147
69.40457533096179
68.48075202780285
67.78510529311049
67.31866552913746
67.13567518521603
67.28742903939758
65.52882120605776
64.29068688653385
62.478622366842906
61.112623339491584
58.764039270081064
77.1041457563983
83.26648472773883
82.34444009935538
81.4234353437503
80.6832258549355
80.19882139914115
79.87804771642392
79.68875970411639
79.56003816873837
79.47951930665442
79.3766384777649
79.27096065117912
79.11924626686726
78.92776727279443
78.64719761875782
78.30549634158201
77.94078104762775
77.527485721362
77.10369336369652
76.68133316216006
76.26227747020056
75.79594658737656
75.32366393762878
74.81684460570301
74.24288774698658
73.58630866382848
72.81357872190723
71.8980730626623
70.8511116346001
69.75509516179865
68.72097382743038
67.86727785110816
67.29117343045131
67.05559320976093
67.29116491275829
66.14104420016295
64.59562477583398
)
;

boundaryField
{
    ".*"
    {
        type            zeroGradient;
    }
}


// ************************************************************************* //
