/*--------------------------------*- C++ -*----------------------------------*\
  =========                 |
  \\      /  F ield         | OpenFOAM: The Open Source CFD Toolbox
   \\    /   O peration     | Website:  https://openfoam.org
    \\  /    A nd           | Version:  6
     \\/     M anipulation  |
\*---------------------------------------------------------------------------*/
FoamFile
{
    version     2.0;
    format      ascii;
    class       volScalarField;
    location    "700";
    object      k;
}
// * * * * * * * * * * * * * * * * * * * * * * * * * * * * * * * * * * * * * //

dimensions      [0 2 -2 0 0 0 0];

internalField   nonuniform List<scalar> 
458
(
0.00300148
0.00364037
0.00384006
0.00424744
0.00464795
0.00504775
0.00546834
0.00588001
0.00619822
0.00638058
0.00638872
0.00619103
0.00576289
0.00508762
0.00411595
0.000737206
0.00107533
0.00140895
0.00145029
0.00135976
0.00117496
0.000995331
0.00084777
0.000729377
0.000633756
0.000555758
0.00049187
0.000438545
0.000392688
0.000351524
0.000312071
0.000283313
0.000232385
0.00535327
0.0100334
0.00622047
0.00670251
0.00739891
0.00817999
0.00901529
0.00986603
0.010644
0.0112232
0.011503
0.0114105
0.0108978
0.00996274
0.00862524
0.00527055
0.0035159
0.00219325
0.000771961
0.00183183
0.00236853
0.0025546
0.00246817
0.00205924
0.00165391
0.00133334
0.00109041
0.000905421
0.000762602
0.000649244
0.000556808
0.000481139
0.000427378
0.000393932
0.000646045
0.000386587
0.00781319
0.0179511
0.0077368
0.00761654
0.00830012
0.00918288
0.0101751
0.0111768
0.0120407
0.0126614
0.0129984
0.0130018
0.0125992
0.0117496
0.0105611
0.00904084
0.00749549
0.00380559
0.00253961
0.00298522
0.00322393
0.00326387
0.00307546
0.0023383
0.00175625
0.00134378
0.00105338
0.000846583
0.00069681
0.000586685
0.000504962
0.000445028
0.000399136
0.000387511
0.000932595
0.000516231
0.01061
0.0288927
0.00992554
0.00812597
0.00866474
0.00967908
0.0109297
0.0120506
0.01286
0.0133862
0.0137016
0.0137611
0.013419
0.0126689
0.0116538
0.0105466
0.00938075
0.00733227
0.00573796
0.00507074
0.0047894
0.00457587
0.00428233
0.0038548
0.00296592
0.0023907
0.00200617
0.00172585
0.00150504
0.00132432
0.00116473
0.00101394
0.000859555
0.000623101
0.000494891
0.00126072
0.000642599
0.0139401
0.0433417
0.0151708
0.00956254
0.0096809
0.0109188
0.0125543
0.0135577
0.0140788
0.0143975
0.0146338
0.0146758
0.0143149
0.013461
0.0122321
0.0108852
0.00961517
0.00848519
0.00782078
0.00711651
0.00649345
0.00588361
0.00523588
0.00455336
0.00389392
0.00340837
0.0030583
0.00276697
0.0024871
0.0021968
0.00189556
0.00158845
0.00128196
0.000955059
0.000702347
0.00103204
0.00111137
0.00107469
0.00122573
0.00142347
0.0179685
0.0585636
0.0272992
0.0153085
0.014274
0.0155245
0.016161
0.0161943
0.0160587
0.0160567
0.0161926
0.0161998
0.0157228
0.014581
0.0129045
0.0110759
0.00951454
0.00851663
0.00805819
0.00769834
0.00716527
0.00643652
0.00560963
0.00479961
0.00414249
0.00371181
0.00341179
0.00314954
0.00288207
0.00258018
0.00224941
0.00190293
0.00155551
0.0012179
0.00095859
0.000960758
0.00108579
0.00114889
0.00180385
0.00152162
0.0217058
0.0668737
0.0440666
0.0308002
0.0268239
0.0240218
0.0215872
0.0197926
0.0187715
0.018481
0.0185937
0.0185542
0.0178279
0.0161961
0.0138821
0.0114849
0.00960629
0.008575
0.0081568
0.00777038
0.00712678
0.00626818
0.00536242
0.00456431
0.00399145
0.00365402
0.00344046
0.00326479
0.00309089
0.00289325
0.00263732
0.002335
0.00200534
0.00167077
0.00142233
0.00132792
0.00142681
0.00171954
0.0023406
0.00208944
0.0221114
0.0582612
0.0433774
0.0361496
0.0312972
0.0271578
0.0240084
0.022141
0.0215408
0.0218281
0.0222833
0.0220937
0.0207107
0.0181007
0.0147433
0.011644
0.00946884
0.00831875
0.00773458
0.00712113
0.00631108
0.00542374
0.00461991
0.00400399
0.00360973
0.00339612
0.00328714
0.0032362
0.0032281
0.00325841
0.00330132
0.00328376
0.00319741
0.00310568
0.00314461
0.00368438
0.00503958
0.0072726
0.0149856
0.00522143
0.0207715
0.0273656
0.0238041
0.0207543
0.0191349
0.0192656
0.020889
0.0234955
0.0263227
0.028394
0.0287837
0.0270911
0.0235585
0.0188833
0.0137908
0.0103888
0.0084279
0.0073258
0.00656111
0.00581755
0.00504386
0.00431951
0.00373972
0.00333896
0.00309764
0.0029682
0.0029092
0.00290177
0.00294205
0.00303102
0.00316743
0.00336275
0.00364486
0.00407546
0.00469141
0.0054715
0.00623433
0.00672437
0.00691568
0.00446426
0.00444489
0.0103094
0.020721
0.0329164
0.0419609
0.0454869
0.0437369
0.0383738
0.0314125
0.0248094
0.0189994
0.0142597
0.0107276
0.00846453
0.00707749
0.00617559
0.00547341
0.0048338
0.00424721
0.0037522
0.00337415
0.00310498
0.00291265
0.00277026
0.00266608
0.00260334
0.0025958
0.00266388
0.00282427
0.00308008
0.00343529
0.00389652
0.0044362
0.00494153
0.00519784
0.00500325
0.00435408
0.00290377
0.0311613
0.0522492
0.0456559
0.0411687
0.0381225
0.034586
0.0298711
0.0245386
0.0194052
0.015074
0.0117091
0.00929363
0.00767699
0.00665162
0.00599108
0.00551568
0.00511533
0.00474756
0.00440762
0.00409693
0.00382464
0.0035958
0.00340223
0.00324132
0.00311804
0.00304095
0.00301828
0.00306307
0.00319452
0.00342382
0.00376092
0.00420759
0.00473668
0.00527591
0.00565655
0.00599936
0.00452655
0.00297772
0.0145496
0.0167224
0.0187303
0.0171904
0.0158576
0.0150602
0.0140266
0.0124871
0.0105535
0.00854964
0.00675651
0.00532011
0.00425276
0.00349768
0.00297374
0.00260535
0.002334
0.00212104
0.00194765
0.00180915
0.00170599
0.00163825
0.00159721
0.00157536
0.00157129
0.00158527
0.00161891
0.00167499
0.00175803
0.00187014
0.00201162
0.00218605
0.00239792
0.00265358
0.00295812
0.00334405
0.00357472
0.00345785
0.00300061
0.00257114
)
;

boundaryField
{
    floor
    {
        type            kqRWallFunction;
        value           nonuniform List<scalar> 
36
(
0.00411595
0.000737206
0.00107533
0.00140895
0.00145029
0.00135976
0.00117496
0.000995331
0.00084777
0.000729377
0.000633756
0.000555758
0.00049187
0.000438545
0.000392688
0.000351524
0.000312071
0.000283313
0.000232385
0.000232385
0.000386587
0.000516231
0.000642599
0.00107469
0.00122573
0.00142347
0.00411595
0.00527055
0.0035159
0.00219325
0.000737206
0.00219325
0.000771961
0.00380559
0.00253961
0.00573796
)
;
    }
    ceiling
    {
        type            kqRWallFunction;
        value           nonuniform List<scalar> 
43
(
0.0145496
0.0167224
0.0187303
0.0171904
0.0158576
0.0150602
0.0140266
0.0124871
0.0105535
0.00854964
0.00675651
0.00532011
0.00425276
0.00349768
0.00297374
0.00260535
0.002334
0.00212104
0.00194765
0.00180915
0.00170599
0.00163825
0.00159721
0.00157536
0.00157129
0.00158527
0.00161891
0.00167499
0.00175803
0.00187014
0.00201162
0.00218605
0.00239792
0.00265358
0.00295812
0.00334405
0.00357472
0.00345785
0.00300061
0.00257114
0.0207715
0.0273656
0.0311613
)
;
    }
    sWall
    {
        type            kqRWallFunction;
        value           uniform 0.0145496;
    }
    nWall
    {
        type            kqRWallFunction;
        value           nonuniform List<scalar> 6(0.00142347 0.00152162 0.00208944 0.00290377 0.00297772 0.00257114);
    }
    sideWalls
    {
        type            empty;
    }
    glass1
    {
        type            kqRWallFunction;
        value           nonuniform List<scalar> 9(0.00300148 0.00535327 0.00781319 0.01061 0.0139401 0.0179685 0.0217058 0.0221114 0.0207715);
    }
    glass2
    {
        type            kqRWallFunction;
        value           nonuniform List<scalar> 2(0.00522143 0.00446426);
    }
    sun
    {
        type            kqRWallFunction;
        value           nonuniform List<scalar> 
14
(
0.00300148
0.00364037
0.00384006
0.00424744
0.00464795
0.00504775
0.00546834
0.00588001
0.00619822
0.00638058
0.00638872
0.00619103
0.00576289
0.00508762
)
;
    }
    Table_master
    {
        type            kqRWallFunction;
        value           nonuniform List<scalar> 9(0.0023383 0.00175625 0.00134378 0.00105338 0.000846583 0.00069681 0.000586685 0.000504962 0.000445028);
    }
    Table_slave
    {
        type            kqRWallFunction;
        value           nonuniform List<scalar> 9(0.00296592 0.0023907 0.00200617 0.00172585 0.00150504 0.00132432 0.00116473 0.00101394 0.000859555);
    }
    inlet
    {
        type            turbulentIntensityKineticEnergyInlet;
        intensity       0.05;
        value           uniform 0.0024;
    }
    outlet
    {
        type            zeroGradient;
    }
}


// ************************************************************************* //
