// -*- C++ -*-
// File generated by PyFoam - sorry for the ugliness

FoamFile
{
 version 2.0;
 format ascii;
 class volScalarField;
 location "1200";
 object T;
}

dimensions [ 0 0 0 1 0 0 0 ];

internalField nonuniform List<scalar> 458
(
  304.555
  304.324
  304.313
  304.31
  304.307
  304.304
  304.301
  304.298
  304.292
  304.285
  304.278
  304.275
  304.279
  304.29
  304.319
  304.493
  304.475
  304.464
  304.466
  304.472
  304.479
  304.486
  304.493
  304.5
  304.507
  304.514
  304.521
  304.528
  304.536
  304.544
  304.553
  304.564
  304.585
  304.708
  304.354
  304.334
  304.335
  304.336
  304.336
  304.333
  304.329
  304.317
  304.298
  304.277
  304.264
  304.266
  304.28
  304.299
  304.309
  304.318
  304.331
  304.496
  304.449
  304.443
  304.449
  304.458
  304.465
  304.472
  304.478
  304.485
  304.491
  304.498
  304.505
  304.512
  304.52
  304.529
  304.54
  304.554
  304.579
  304.869
  304.393
  304.36
  304.368
  304.378
  304.386
  304.389
  304.386
  304.365
  304.327
  304.284
  304.256
  304.254
  304.273
  304.296
  304.31
  304.318
  304.328
  304.448
  304.426
  304.427
  304.441
  304.458
  304.463
  304.469
  304.475
  304.482
  304.489
  304.497
  304.504
  304.512
  304.52
  304.53
  304.54
  304.553
  304.577
  305.035
  304.441
  304.388
  304.403
  304.427
  304.451
  304.467
  304.468
  304.436
  304.37
  304.296
  304.247
  304.242
  304.268
  304.297
  304.318
  304.327
  304.333
  304.341
  304.359
  304.385
  304.416
  304.448
  304.476
  304.499
  304.517
  304.532
  304.546
  304.558
  304.57
  304.58
  304.59
  304.597
  304.586
  304.573
  304.567
  304.579
  305.199
  304.503
  304.417
  304.431
  304.468
  304.51
  304.548
  304.559
  304.512
  304.412
  304.305
  304.237
  304.23
  304.263
  304.305
  304.336
  304.353
  304.361
  304.376
  304.399
  304.428
  304.461
  304.494
  304.525
  304.553
  304.575
  304.593
  304.609
  304.622
  304.631
  304.637
  304.64
  304.638
  304.625
  304.605
  304.588
  304.585
  304.638
  304.718
  304.718
  305.349
  304.584
  304.461
  304.455
  304.49
  304.54
  304.602
  304.63
  304.561
  304.431
  304.302
  304.226
  304.219
  304.262
  304.32
  304.369
  304.398
  304.414
  304.435
  304.462
  304.493
  304.526
  304.558
  304.587
  304.613
  304.634
  304.651
  304.665
  304.676
  304.682
  304.684
  304.681
  304.673
  304.659
  304.637
  304.614
  304.601
  304.622
  304.65
  304.679
  305.48
  304.717
  304.576
  304.535
  304.543
  304.581
  304.648
  304.661
  304.569
  304.415
  304.271
  304.196
  304.204
  304.269
  304.351
  304.419
  304.462
  304.489
  304.514
  304.541
  304.57
  304.6
  304.628
  304.653
  304.674
  304.692
  304.705
  304.716
  304.723
  304.726
  304.723
  304.716
  304.705
  304.689
  304.669
  304.646
  304.629
  304.631
  304.641
  304.665
  305.675
  305.098
  304.93
  304.812
  304.751
  304.744
  304.764
  304.69
  304.522
  304.328
  304.187
  304.142
  304.191
  304.296
  304.408
  304.493
  304.544
  304.575
  304.599
  304.624
  304.649
  304.673
  304.696
  304.715
  304.73
  304.742
  304.75
  304.756
  304.758
  304.757
  304.753
  304.745
  304.733
  304.717
  304.7
  304.683
  304.67
  304.67
  304.68
  304.759
  305.95
  305.683
  305.484
  305.287
  305.131
  305.025
  304.871
  304.594
  304.309
  304.106
  304.03
  304.078
  304.207
  304.368
  304.506
  304.591
  304.633
  304.658
  304.679
  304.7
  304.72
  304.738
  304.753
  304.765
  304.774
  304.779
  304.782
  304.782
  304.78
  304.776
  304.771
  304.765
  304.761
  304.758
  304.76
  304.767
  304.782
  304.8
  304.817
  304.855
  300.924
  302.125
  302.849
  303.156
  303.248
  303.342
  303.466
  303.633
  303.852
  304.094
  304.326
  304.53
  304.63
  304.682
  304.71
  304.729
  304.745
  304.761
  304.774
  304.785
  304.793
  304.799
  304.802
  304.802
  304.802
  304.799
  304.796
  304.793
  304.789
  304.786
  304.784
  304.784
  304.787
  304.794
  304.805
  304.82
  304.839
  304.871
  301.037
  302.141
  302.642
  302.924
  303.116
  303.34
  303.599
  303.87
  304.164
  304.41
  304.567
  304.667
  304.719
  304.747
  304.764
  304.777
  304.788
  304.797
  304.804
  304.809
  304.812
  304.813
  304.814
  304.813
  304.812
  304.81
  304.808
  304.805
  304.803
  304.801
  304.8
  304.799
  304.8
  304.804
  304.811
  304.824
  304.832
  304.856
  302.086
  302.05
  302.048
  302.73
  303.12
  303.484
  303.861
  304.15
  304.336
  304.482
  304.595
  304.673
  304.722
  304.752
  304.77
  304.781
  304.789
  304.794
  304.799
  304.801
  304.803
  304.804
  304.804
  304.803
  304.802
  304.801
  304.8
  304.799
  304.799
  304.798
  304.798
  304.798
  304.799
  304.799
  304.801
  304.803
  304.808
  304.813
  304.818
  304.858
)
;

boundaryField
{
  floor
  {
    type wallHeatTransfer;
    Tinf uniform 305.2;
    alphaWall uniform 0.24;
    value nonuniform List<scalar> 36
(
  304.419
  304.637
  304.606
  304.583
  304.58
  304.586
  304.597
  304.61
  304.623
  304.635
  304.647
  304.658
  304.67
  304.68
  304.691
  304.702
  304.715
  304.729
  304.755
  304.755
  304.739
  304.73
  304.722
  304.746
  304.799
  304.792
  304.419
  304.391
  304.413
  304.443
  304.637
  304.443
  304.641
  304.421
  304.559
  304.423
)
;
  }
  ceiling
  {
    type wallHeatTransfer;
    Tinf uniform 303.2;
    alphaWall uniform 0.24;
    value nonuniform List<scalar> 43
(
  302.161
  302.125
  302.123
  302.758
  303.124
  303.465
  303.812
  304.076
  304.247
  304.382
  304.483
  304.551
  304.589
  304.61
  304.622
  304.629
  304.634
  304.639
  304.642
  304.644
  304.645
  304.645
  304.644
  304.643
  304.641
  304.639
  304.636
  304.633
  304.63
  304.627
  304.624
  304.622
  304.621
  304.622
  304.624
  304.628
  304.632
  304.633
  304.634
  304.668
  305.815
  305.579
  301.193
)
;
  }
  sWall
  {
    type wallHeatTransfer;
    Tinf uniform 315.2;
    alphaWall uniform 0.36;
    value uniform 303.368;
  }
  nWall
  {
    type wallHeatTransfer;
    Tinf uniform 307.2;
    alphaWall uniform 0.36;
    value nonuniform List<scalar> 6
(
  305.253
  305.213
  305.147
  305.208
  305.18
  305.239
)
;
  }
  sideWalls
  {
    type empty;
  }
  glass1
  {
    type wallHeatTransfer;
    Tinf uniform 315.2;
    alphaWall uniform 4.3;
    value nonuniform List<scalar> 9
(
  311.921
  311.397
  311.059
  310.797
  310.577
  310.373
  310.199
  310.243
  310.425
)
;
  }
  glass2
  {
    type wallHeatTransfer;
    Tinf uniform 307.2;
    alphaWall uniform 4.3;
    value nonuniform List<scalar> 2
(
  306.385
  306.417
)
;
  }
  sun
  {
    type wallHeatTransfer;
    Tinf uniform 305.2;
    alphaWall uniform 0.24;
    value nonuniform List<scalar> 14
(
  304.625
  304.413
  304.402
  304.396
  304.391
  304.386
  304.381
  304.375
  304.368
  304.36
  304.354
  304.352
  304.357
  304.373
)
;
  }
  Table_master
  {
    type zeroGradient;
  }
  Table_slave
  {
    type zeroGradient;
  }
  inlet
  {
    type fixedValue;
    value uniform 296.15;
  }
  outlet
  {
    type zeroGradient;
  }
} 	// ************************************************************************* //

