/*--------------------------------*- C++ -*----------------------------------*\
  =========                 |
  \\      /  F ield         | OpenFOAM: The Open Source CFD Toolbox
   \\    /   O peration     | Website:  https://openfoam.org
    \\  /    A nd           | Version:  6
     \\/     M anipulation  |
\*---------------------------------------------------------------------------*/
FoamFile
{
    version     2.0;
    format      ascii;
    class       volScalarField;
    location    "1600";
    object      alphat;
}
// * * * * * * * * * * * * * * * * * * * * * * * * * * * * * * * * * * * * * //

dimensions      [1 -1 -1 0 0 0 0];

internalField   nonuniform List<scalar> 
458
(
0.00143927
0.00158685
0.00165502
0.00174115
0.00182069
0.00189863
0.00198124
0.00206308
0.0021376
0.00219456
0.00221947
0.00216328
0.00195158
0.00169587
0.00146641
0.000628892
0.000733515
0.000858373
0.000940653
0.000953599
0.000894532
0.000826087
0.000765593
0.000714077
0.000670082
0.000632398
0.000599903
0.000571504
0.000546242
0.000522599
0.00049856
0.000473743
0.000432442
0.00181305
0.00405272
0.00377852
0.00427031
0.00479899
0.00532529
0.00573581
0.00615012
0.00661232
0.00707591
0.00751269
0.00789649
0.00781605
0.00664705
0.00426764
0.00173016
0.00151006
0.00125949
0.000610386
0.00134414
0.00224042
0.00292934
0.00317898
0.0022272
0.0018625
0.00162129
0.00144806
0.0013181
0.00121638
0.00113457
0.00106645
0.000990069
0.000911344
0.000839404
0.000876738
0.000483262
0.00211731
0.00540519
0.00458567
0.00511417
0.00535957
0.00552328
0.00566825
0.00590774
0.00627687
0.0067814
0.00744338
0.00824806
0.00889828
0.00856026
0.00713384
0.00503843
0.00367255
0.00140157
0.000696418
0.001438
0.0023761
0.003355
0.00371083
0.00117708
0.00102741
0.000899859
0.000795616
0.000711273
0.000642866
0.000586877
0.000541098
0.000507967
0.0005852
0.000697553
0.00100407
0.000522938
0.00239968
0.00657658
0.00458682
0.00516423
0.0050783
0.00492013
0.00488823
0.00505295
0.00538838
0.0059429
0.00674518
0.00771097
0.0085225
0.00859046
0.00805539
0.00679218
0.00527857
0.00285343
0.00147433
0.00164274
0.00231955
0.003408
0.00451916
0.00482322
0.00135643
0.00124705
0.00116478
0.00109811
0.00104006
0.000988101
0.000937177
0.000883365
0.000822113
0.000767841
0.000744671
0.00111768
0.000582228
0.00268228
0.00813013
0.00456698
0.00500758
0.00478279
0.0044431
0.0043394
0.00451486
0.00485551
0.00546176
0.00634231
0.00731616
0.00797758
0.00810948
0.00789982
0.00732601
0.00634919
0.00488161
0.00430399
0.00468967
0.00542769
0.00629962
0.00699083
0.00720749
0.00635481
0.00581385
0.00546899
0.00519905
0.00490537
0.00449784
0.00397966
0.00335673
0.00265897
0.00199676
0.00149043
0.00132422
0.000945308
0.000702401
0.000729393
0.00073476
0.00298903
0.0100217
0.00558013
0.00478488
0.00469025
0.00431821
0.00412447
0.00431451
0.00465803
0.00530311
0.00621592
0.00711786
0.00763074
0.00766842
0.00754457
0.00742858
0.00716642
0.00673531
0.00690216
0.00767639
0.00841727
0.00892804
0.0091156
0.00897774
0.0085643
0.00816956
0.00782536
0.00747243
0.00704632
0.00651385
0.00586789
0.00510326
0.00423482
0.00333382
0.00254531
0.00192851
0.00143165
0.00141101
0.00191884
0.000976023
0.00331083
0.0114773
0.00789849
0.00521839
0.00444022
0.00434001
0.00427499
0.0044094
0.00472042
0.00534556
0.00624901
0.0071013
0.00750223
0.0074685
0.00756224
0.00803222
0.00837392
0.00866751
0.00932006
0.0100652
0.0104454
0.0104814
0.0102323
0.00979791
0.00929962
0.00884231
0.00841496
0.00797744
0.00750171
0.00697813
0.00640791
0.00576119
0.00503959
0.00424884
0.00349298
0.00280984
0.00224322
0.00201998
0.00229517
0.00121089
0.00340584
0.0105258
0.0089398
0.00718865
0.00575877
0.00516511
0.0048705
0.00472957
0.00494469
0.00556119
0.00645787
0.00723596
0.00750253
0.00752958
0.00830675
0.0091949
0.00968808
0.010158
0.010716
0.0111032
0.0110686
0.0107044
0.0101232
0.00943998
0.00875875
0.00814495
0.00759186
0.00706486
0.00654988
0.00606463
0.00564548
0.00530913
0.00496156
0.0044842
0.00406143
0.00374347
0.0035975
0.0035139
0.00413355
0.00162864
0.00336298
0.00411189
0.00495044
0.0052744
0.00517258
0.00500388
0.00482488
0.00482155
0.00518813
0.00590995
0.00681646
0.00743372
0.00747439
0.00796309
0.00901928
0.00974084
0.0101247
0.0104413
0.0106446
0.0105859
0.0101976
0.00954133
0.00873457
0.00788735
0.00709463
0.00640008
0.00578703
0.00522652
0.00470975
0.00424276
0.00383131
0.00348898
0.00323129
0.00304194
0.00290475
0.00280943
0.00271151
0.00257485
0.00242777
0.00157901
0.00130809
0.00234812
0.00311011
0.00359749
0.00406738
0.00482683
0.00564646
0.00651169
0.00730655
0.00743589
0.00741254
0.0080525
0.00875281
0.00904207
0.00918394
0.00920384
0.00901923
0.00857946
0.00791957
0.00713549
0.00631954
0.00555652
0.00489424
0.00433008
0.00384725
0.00344151
0.00311994
0.00288628
0.00273718
0.00265501
0.00261473
0.00259921
0.00258769
0.00254899
0.00243879
0.00222878
0.00194819
0.00127783
0.00252124
0.00458299
0.00508958
0.00606766
0.00725891
0.00730045
0.0070144
0.00716762
0.00742275
0.00683385
0.00657448
0.00662149
0.00660967
0.00657702
0.00651587
0.00635802
0.00605265
0.00560472
0.00507489
0.00453986
0.00405346
0.00363807
0.00329154
0.00300845
0.00278455
0.00261675
0.0025008
0.00243231
0.00240612
0.00241659
0.00245765
0.00252028
0.00258449
0.00261391
0.00258977
0.00251375
0.0024253
0.00129982
0.00332227
0.0033279
0.00335556
0.00391812
0.00354665
0.00314954
0.00253936
0.00203408
0.00183535
0.00167637
0.00150749
0.00135456
0.00125939
0.00120071
0.00116913
0.00114739
0.00112514
0.0010964
0.00105957
0.00101757
0.000975774
0.000939105
0.000910343
0.000890332
0.000878868
0.000875692
0.000880604
0.000893462
0.000914143
0.000942601
0.000978836
0.00102294
0.00107513
0.0011357
0.00120426
0.0012767
0.00135057
0.00132562
0.00121816
0.00112508
)
;

boundaryField
{
    floor
    {
        type            compressible::alphatWallFunction;
        Prt             0.85;
        value           nonuniform List<scalar> 
36
(
0.000206429
8.86856e-05
0.000104107
0.00012217
0.000133903
0.00013574
0.000127346
0.000117536
0.000108785
0.000101268
9.47962e-05
8.92123e-05
8.43648e-05
8.0102e-05
7.62883e-05
7.26991e-05
6.9029e-05
6.52164e-05
5.88145e-05
5.88138e-05
6.66796e-05
7.27481e-05
8.17148e-05
9.95584e-05
0.000103513
0.000104303
0.000206426
0.000241657
0.000212311
0.00017831
8.86846e-05
0.000178308
8.59249e-05
0.000197676
9.86588e-05
0.000207511
)
;
    }
    ceiling
    {
        type            compressible::alphatWallFunction;
        Prt             0.85;
        value           nonuniform List<scalar> 
43
(
0.000444323
0.000445017
0.00044843
0.000517312
0.00047202
0.000423061
0.000346532
0.000281676
0.000255712
0.000234714
0.000212158
0.000191485
0.000178487
0.000170418
0.000166057
0.000163048
0.00015996
0.000155961
0.000150821
0.000144931
0.000139042
0.000133851
0.000129762
0.000126908
0.000125269
0.000124814
0.000125515
0.00012735
0.000130295
0.000134336
0.000139461
0.000145669
0.000152977
0.000161406
0.000170887
0.000180837
0.000190921
0.000187525
0.000172805
0.000159939
0.000449642
0.000541007
0.000343978
)
;
    }
    sWall
    {
        type            compressible::alphatWallFunction;
        Prt             0.85;
        value           uniform 0.000443049;
    }
    nWall
    {
        type            compressible::alphatWallFunction;
        Prt             0.85;
        value           nonuniform List<scalar> 6(0.00010411 0.000138715 0.000171443 0.000180683 0.000183689 0.000159621);
    }
    sideWalls
    {
        type            empty;
    }
    glass1
    {
        type            compressible::alphatWallFunction;
        Prt             0.85;
        value           nonuniform List<scalar> 9(0.000197663 0.000246807 0.00028609 0.000322075 0.000357696 0.000395952 0.000435676 0.000447461 0.000442452);
    }
    glass2
    {
        type            compressible::alphatWallFunction;
        Prt             0.85;
        value           nonuniform List<scalar> 2(0.000226677 0.000220158);
    }
    sun
    {
        type            compressible::alphatWallFunction;
        Prt             0.85;
        value           nonuniform List<scalar> 
14
(
0.000202765
0.000222574
0.000231663
0.000243085
0.00025358
0.000263813
0.000274611
0.000285261
0.000294918
0.000302277
0.000305491
0.00029825
0.000270757
0.000237106
)
;
    }
    Table_master
    {
        type            compressible::alphatWallFunction;
        Prt             0.85;
        value           nonuniform List<scalar> 9(0.000167119 0.000146274 0.00012823 0.000113259 0.000100973 9.08796e-05 8.25198e-05 7.56107e-05 7.05652e-05);
    }
    Table_slave
    {
        type            compressible::alphatWallFunction;
        Prt             0.85;
        value           nonuniform List<scalar> 9(0.000191707 0.000176761 0.000165422 0.000156164 0.00014805 0.000140744 0.00013354 0.000125877 0.000117087);
    }
    inlet
    {
        type            fixedValue;
        value           uniform 1.94e-05;
    }
    outlet
    {
        type            zeroGradient;
    }
}


// ************************************************************************* //
