/*--------------------------------*- C++ -*----------------------------------*\
  =========                 |
  \\      /  F ield         | OpenFOAM: The Open Source CFD Toolbox
   \\    /   O peration     | Website:  https://openfoam.org
    \\  /    A nd           | Version:  6
     \\/     M anipulation  |
\*---------------------------------------------------------------------------*/
FoamFile
{
    version     2.0;
    format      ascii;
    class       surfaceScalarField;
    location    "1400";
    object      phi;
}
// * * * * * * * * * * * * * * * * * * * * * * * * * * * * * * * * * * * * * //

dimensions      [1 0 -1 0 0 0 0];

internalField   nonuniform List<scalar> 
850
(
-0.00260946
0.00266829
-0.00315657
0.000547127
-0.00373021
0.000573651
-0.00426858
0.000538394
-0.00473219
0.00046362
-0.00510402
0.000371852
-0.00536845
0.00026445
-0.00550655
0.000138113
-0.0054955
-1.10297e-05
-0.00530591
-0.00018958
-0.00491326
-0.000392631
-0.00430476
-0.000608487
-0.00344534
-0.000859406
-0.00215789
-0.00128743
-0.00215655
0.000723739
-0.000721775
0.00123759
-0.000513829
0.00158868
-0.000351068
0.0018744
-0.000285691
0.00210585
-0.000231422
0.00221594
-0.000110067
0.00224026
-2.4296e-05
0.00223517
5.11154e-06
0.00221885
1.63425e-05
0.00219375
2.5129e-05
0.00216007
3.37044e-05
0.0021143
4.57923e-05
0.00204395
7.03826e-05
0.00191919
0.000124784
0.00169031
0.000228901
0.00132659
0.000363747
0.000837742
0.000488876
0.000840659
-0.0019057
0.00473057
-0.00265469
0.00129613
-0.00333786
0.00125683
-0.00390505
0.0011056
-0.00438303
0.000941623
-0.00477226
0.000761092
-0.00506245
0.000554662
-0.0052373
0.000312976
-0.00527708
2.87691e-05
-0.0051696
-0.000297038
-0.00491122
-0.000651
-0.00450655
-0.00101313
-0.00397543
-0.00139051
-0.00347633
-0.00178651
-0.00374045
-0.00189242
-0.00238061
-0.00135724
-0.00115253
-0.00122528
-0.0011451
0.00063454
-0.00135111
0.000978672
-0.000857936
0.00126626
-0.000638633
0.00154347
-0.00056287
0.00178344
-0.000471367
0.00183603
-0.000162635
0.0018446
-3.28428e-05
0.00185211
-2.37139e-06
0.00185744
1.10354e-05
0.00185942
2.31805e-05
0.00185887
3.42752e-05
0.00185541
4.9287e-05
0.00184438
8.14383e-05
0.00179179
0.0001774
0.00158465
0.000436064
0.00121824
0.000730187
0.000730166
0.000976975
0.00157876
-0.00139152
0.00635836
-0.0021562
0.00206083
-0.00278904
0.00188969
-0.00328479
0.00160138
-0.00370576
0.00136261
-0.00405534
0.00111069
-0.00432278
0.000822118
-0.00449149
0.000481703
-0.00454245
7.97525e-05
-0.00445722
-0.000382256
-0.00423014
-0.000878061
-0.00387799
-0.00136527
-0.00345739
-0.0018111
-0.00308972
-0.00215416
-0.00274999
-0.00223214
-0.0020131
-0.00209411
-0.00114825
-0.00209012
-0.0022867
0.000298471
-0.00164169
0.000609054
-0.00116849
0.000878278
-0.000907832
0.00113467
-0.000819234
0.00151584
-0.000852516
0.00135339
0.00132072
0.00131853
0.00132974
0.0013531
0.00138756
0.00143702
0.00151864
0.00169622
0.00146287
0.00066944
0.00114373
0.00104936
0.000663505
0.00145722
0.00225469
-0.00102766
0.00768743
-0.00174012
0.0027733
-0.00217193
0.00232151
-0.00253108
0.00196055
-0.00285409
0.00168564
-0.00313614
0.00139276
-0.00336386
0.00104986
-0.00351858
0.000636441
-0.00357485
0.000136039
-0.00350244
-0.000454646
-0.00329756
-0.00108292
-0.00299578
-0.00166704
-0.00265989
-0.00214698
-0.00234334
-0.0024707
-0.00198655
-0.00258892
-0.00152235
-0.0025583
-0.00112221
-0.00249025
-0.00123164
-0.00217724
0.000230515
-0.00145395
0.000192696
-0.00160385
0.000366796
-0.00134257
0.000554537
-0.00109555
0.000687117
-0.000951789
0.00064025
-0.000805623
0.00110192
-0.000461799
0.00144483
-0.000343033
0.0017405
-0.000295803
0.00199161
-0.000251237
0.00218116
-0.000189671
0.00228073
-9.96966e-05
0.00225485
2.57528e-05
0.00206969
0.000185033
0.00166708
0.000402474
0.00150302
0.000833531
0.00120927
0.00134313
0.000777904
0.00188862
0.00304896
-0.000760043
0.00880252
-0.00139307
0.00340635
-0.00151484
0.0024433
-0.00169855
0.00214428
-0.00189878
0.00188589
-0.00208676
0.00158076
-0.0022448
0.00120792
-0.00235667
0.000748335
-0.00239611
0.000175496
-0.00231707
-0.000533669
-0.00212619
-0.00127378
-0.00187813
-0.00191508
-0.00162608
-0.00239902
-0.00139114
-0.00270562
-0.00114552
-0.00283453
-0.000883425
-0.00282039
-0.000679986
-0.00269368
-0.000468686
-0.00238853
2.06848e-05
-0.00194331
0.000134193
-0.00171734
0.000212427
-0.00142078
0.000310679
-0.00119377
0.000405194
-0.00104628
0.000511564
-0.000911967
0.00078297
-0.00073318
0.00105757
-0.000617603
0.00130776
-0.000545976
0.00153085
-0.000474301
0.00171666
-0.000375455
0.00184428
-0.000227295
0.00188196
-1.18948e-05
0.00181163
0.00025538
0.00165683
0.000557307
0.00153391
0.000956477
0.00144992
0.00142715
0.00140209
0.00193648
0.00229418
0.0021569
0.00142737
0.000883678
0.00136735
7.62709e-05
0.00143795
-0.000683105
0.0098853
-0.00120315
0.00392641
-0.000868452
0.00210862
-0.000780636
0.00205648
-0.000858239
0.00196351
-0.000955122
0.00167766
-0.00102036
0.00127317
-0.00104897
0.000776969
-0.00102145
0.000147998
-0.000899179
-0.000655923
-0.000723878
-0.00144906
-0.000552023
-0.00208692
-0.000414744
-0.00253629
-0.000313458
-0.0028069
-0.000229561
-0.00291842
-0.000158362
-0.00289158
-0.000114696
-0.00273734
-4.98527e-05
-0.00245336
7.33999e-05
-0.00206654
7.81076e-05
-0.00172202
5.96882e-05
-0.00140233
6.98733e-05
-0.00120393
0.000110182
-0.00108656
0.000191697
-0.000993457
0.000350584
-0.000892042
0.000543081
-0.000810075
0.000738623
-0.000741494
0.000927595
-0.000663248
0.00110552
-0.00055336
0.00126204
-0.000383784
0.00137595
-0.000125781
0.00142538
0.000205972
0.00143574
0.000546968
0.00147811
0.000914131
0.00162302
0.00128227
0.0018912
0.00166832
0.00220117
0.00184696
0.00178505
0.00129983
0.000968566
0.00089278
0.00246254
-0.000877178
0.0112011
-0.000910919
0.00396017
4.72214e-05
0.0011505
0.000442383
0.00166134
0.000423358
0.00198255
0.00036493
0.00173611
0.000376398
0.00126172
0.00044405
0.000709337
0.000592035
3.34314e-08
0.000773487
-0.000837354
0.000894996
-0.00157055
0.000936863
-0.00212877
0.000906445
-0.00250586
0.000823197
-0.00272365
0.000709865
-0.00280509
0.000578985
-0.0027607
0.000433631
-0.00259198
0.000293763
-0.00231348
0.000175856
-0.00194861
1.97971e-05
-0.00156594
-0.000117098
-0.00126541
-0.000202731
-0.00111827
-0.000242328
-0.00104694
-0.000237764
-0.000997995
-0.000181034
-0.000948747
-8.85701e-05
-0.000902514
2.35886e-05
-0.000853629
0.000147808
-0.000787443
0.000284357
-0.000689885
0.000440647
-0.000540051
0.000625164
-0.000310274
0.000802531
2.86296e-05
0.000957215
0.000392309
0.00114285
0.000728518
0.0014062
0.00101895
0.00175234
0.0013222
0.00215337
0.00144596
0.0023461
0.00110713
0.00184898
0.00138992
0.00436966
0.00218651
0.00950309
0.00270347
0.00344323
0.00297083
0.000883152
0.00287101
0.00176117
0.00261832
0.00223526
0.00247138
0.00188307
0.0024433
0.00128982
0.00252975
0.000622914
0.00268785
-0.000158051
0.00275777
-0.000907252
0.00269301
-0.00150578
0.00250587
-0.00194162
0.00223463
-0.00223462
0.0019167
-0.00240572
0.0015798
-0.00246819
0.00123629
-0.00241719
0.000887956
-0.00224364
0.000545749
-0.00197127
0.0002211
-0.00162395
-9.55975e-05
-0.00124921
-0.000343844
-0.00101714
-0.000523568
-0.000938523
-0.000652429
-0.000918051
-0.000740113
-0.000910286
-0.000789912
-0.000898923
-0.000811599
-0.000880802
-0.000814071
-0.000851132
-0.000799417
-0.000802074
-0.000764111
-0.000725167
-0.00069432
-0.000609818
-0.000560527
-0.000444044
-0.000315649
-0.000216224
-1.88827e-05
9.55662e-05
0.000298844
0.000410816
0.000658824
0.000658993
0.00108251
0.000898538
0.00153232
0.000996169
0.0017707
0.00086878
0.00104988
0.00211076
0.00566462
0.0100341
0.0134667
0.012336
0.00201388
0.010141
0.00395624
0.00856396
0.00381229
0.00747177
0.00297527
0.00670583
0.00205578
0.00617589
0.00115287
0.00568123
0.000336629
0.00512751
-0.000353521
0.00453494
-0.000913205
0.00392987
-0.00133654
0.00333094
-0.00163569
0.00275272
-0.0018275
0.00220246
-0.00191793
0.0016689
-0.00188363
0.00113816
-0.0017129
0.000619249
-0.00145234
0.000125686
-0.00113036
-0.000303283
-0.000820215
-0.000625178
-0.000695212
-0.00088034
-0.000683333
-0.0010947
-0.000703664
-0.0012802
-0.000724764
-0.00144248
-0.000736617
-0.00158785
-0.0007354
-0.00172277
-0.000716193
-0.0018529
-0.000671922
-0.0019843
-0.000593737
-0.00212385
-0.000470243
-0.00228086
-0.000287016
-0.00246468
-3.23754e-05
-0.00266449
0.000295397
-0.00294858
0.000694931
-0.00346371
0.00117415
-0.0043042
0.00173906
-0.00561269
0.00230468
-0.00735372
0.00260983
-0.00723848
0.00199555
-0.00130465
0.00303696
0.00334516
0.00414186
0.00285133
0.00546975
0.00248439
0.00587222
0.0025728
0.00587247
0.00205553
0.00575334
0.00127201
0.00553918
0.000550783
0.00519764
-1.19735e-05
0.00472238
-0.000437944
0.00415165
-0.00076581
0.00353072
-0.00101477
0.00290094
-0.00119772
0.00229378
-0.00131078
0.00168894
-0.00127879
0.00104873
-0.00107267
0.000420449
-0.000824048
-0.000145627
-0.000564258
-0.000573867
-0.000391945
-0.000901668
-0.000367382
-0.00119373
-0.000391247
-0.00147198
-0.00042538
-0.00174177
-0.000454954
-0.00200343
-0.000474927
-0.00225689
-0.000481915
-0.00250179
-0.000471271
-0.00273685
-0.000436833
-0.00295927
-0.000371291
-0.00316286
-0.000266624
-0.00333644
-0.000113415
-0.00346878
9.99898e-05
-0.00355444
0.000381081
-0.00361663
0.000757145
-0.00367788
0.00123543
-0.00373325
0.00179445
-0.00377157
0.00234303
-0.00368914
0.00252743
-0.00221876
0.000525197
-0.00345123
-0.000313849
0.0037041
0.00127624
0.00126123
0.00224069
0.00151993
0.00306164
0.00175185
0.00369174
0.00142544
0.00408979
0.000873952
0.0042228
0.000417773
0.00413129
7.9544e-05
0.00385536
-0.000162021
0.00343166
-0.000342108
0.00290155
-0.000484654
0.00231097
-0.000607138
0.0017304
-0.000730205
0.00118588
-0.000734262
0.000515244
-0.000402015
-4.98736e-05
-0.000258902
-0.00045992
-0.000154181
-0.0007493
-0.000102534
-0.00101553
-0.000101121
-0.00128959
-0.000117165
-0.00157628
-0.000138663
-0.00187073
-0.000160469
-0.00216643
-0.000179202
-0.00245666
-0.000191667
-0.00273322
-0.000194683
-0.00298503
-0.000184997
-0.0031974
-0.000158897
-0.00335207
-0.000111924
-0.00342597
-3.94902e-05
-0.00340239
7.64317e-05
-0.0032706
0.000249322
-0.00299719
0.000483753
-0.00256511
0.000803375
-0.00195695
0.00118631
-0.00103366
0.00141977
0.00052633
0.000967458
0.00144061
-0.000389059
-0.00193135
-0.00597298
-0.00819583
-0.00446032
-0.00318805
-0.00166224
9.21799e-05
0.00151724
0.00238975
0.00280541
0.00288234
0.00271726
0.00237163
0.00188294
0.00127118
0.000535592
-0.000205425
-0.000615925
-0.00088377
-0.00104743
-0.00116013
-0.00127201
-0.00140047
-0.00155085
-0.00172336
-0.00191479
-0.00211876
-0.00232571
-0.00252285
-0.00269371
-0.00281736
-0.00286831
-0.00280302
-0.0025645
-0.00209121
-0.00129799
-0.000121535
0.00128859
0.00224625
0.00184682
)
;

boundaryField
{
    floor
    {
        type            calculated;
        value           nonuniform List<scalar> 
36
(
0
0
0
0
0
0
0
0
0
0
0
0
0
0
0
0
0
0
0
-2.89071e-06
-7.90567e-06
-1.24026e-05
-1.63425e-05
-1.68422e-05
-1.62265e-05
-1.53889e-05
-1.32766e-06
-2.58862e-06
-2.77927e-06
-2.93665e-06
-1.94013e-06
-4.48123e-06
-5.17592e-06
-6.6288e-06
-7.86793e-06
-8.18671e-06
)
;
    }
    ceiling
    {
        type            calculated;
        value           nonuniform List<scalar> 
43
(
-3.46836e-05
-3.30976e-05
-3.14079e-05
-1.10448e-05
-5.87788e-06
-2.57639e-06
3.8308e-07
1.44378e-06
2.12297e-06
2.61192e-06
3.06378e-06
3.53064e-06
4.03902e-06
4.6275e-06
5.38667e-06
6.78511e-06
8.52007e-06
8.97494e-06
9.51264e-06
1.019e-05
1.07968e-05
1.13164e-05
1.17465e-05
1.20664e-05
1.22592e-05
1.23274e-05
1.22894e-05
1.21688e-05
1.19863e-05
1.1756e-05
1.14841e-05
1.11655e-05
1.0827e-05
1.04945e-05
1.01731e-05
9.88725e-06
9.6696e-06
9.82265e-06
1.03978e-05
1.17073e-05
1.42523e-05
1.0624e-05
-4.51096e-05
)
;
    }
    sWall
    {
        type            calculated;
        value           uniform -0.000244585;
    }
    nWall
    {
        type            calculated;
        value           nonuniform List<scalar> 6(-5.51848e-05 -5.59937e-05 -5.81159e-05 -7.21554e-05 -7.92432e-05 -9.62139e-05);
    }
    sideWalls
    {
        type            empty;
        value           nonuniform 0();
    }
    glass1
    {
        type            calculated;
        value           nonuniform List<scalar> 9(-5.88139e-05 -0.000156557 -0.00023626 -0.000301397 -0.000355031 -0.000399661 -0.000438585 -0.000488514 -0.000545271);
    }
    glass2
    {
        type            calculated;
        value           nonuniform List<scalar> 2(-0.000245054 -0.000269185);
    }
    sun
    {
        type            calculated;
        value           uniform 0;
    }
    Table_master
    {
        type            calculated;
        value           nonuniform List<scalar> 9(-1.52708e-07 -1.52799e-07 -1.52822e-07 -1.5283e-07 -1.52832e-07 -1.52829e-07 -1.52821e-07 -1.52802e-07 -1.52749e-07);
    }
    Table_slave
    {
        type            calculated;
        value           nonuniform List<scalar> 9(1.52817e-07 1.52733e-07 1.52637e-07 1.52555e-07 1.52495e-07 1.52466e-07 1.52472e-07 1.5249e-07 1.52563e-07);
    }
    inlet
    {
        type            calculated;
        value           uniform -0.00436826;
    }
    outlet
    {
        type            calculated;
        value           nonuniform List<scalar> 2(0.00625225 0.00225594);
    }
}


// ************************************************************************* //
