/*--------------------------------*- C++ -*----------------------------------*\
  =========                 |
  \\      /  F ield         | OpenFOAM: The Open Source CFD Toolbox
   \\    /   O peration     | Website:  https://openfoam.org
    \\  /    A nd           | Version:  6
     \\/     M anipulation  |
\*---------------------------------------------------------------------------*/
FoamFile
{
    version     2.0;
    format      ascii;
    class       volScalarField;
    location    "1300";
    object      k;
}
// * * * * * * * * * * * * * * * * * * * * * * * * * * * * * * * * * * * * * //

dimensions      [0 2 -2 0 0 0 0];

internalField   nonuniform List<scalar> 
458
(
0.00352267
0.00434405
0.00464128
0.00520202
0.00583874
0.00644542
0.00683512
0.00694422
0.0067567
0.00590558
0.00516057
0.00440712
0.00360047
0.00294597
0.00230842
0.000795232
0.00109203
0.00151063
0.00181814
0.00184281
0.00162745
0.00139669
0.00120626
0.00105396
0.000931138
0.000831028
0.000748159
0.000678294
0.00061781
0.000562571
0.000508021
0.000452077
0.00037069
0.00608774
0.0113986
0.00759495
0.00829938
0.00949593
0.0107216
0.0115468
0.01181
0.011521
0.0104522
0.0092064
0.00794517
0.00673878
0.00544225
0.0039861
0.00330404
0.00262159
0.00189091
0.00072865
0.00150001
0.0023996
0.0029513
0.00312836
0.00268834
0.00217789
0.00177096
0.00146585
0.00123538
0.00105909
0.000921941
0.000809893
0.000709179
0.000629696
0.000577766
0.000662222
0.000449633
0.00876965
0.01999
0.00972674
0.00971494
0.0110598
0.0122968
0.0128464
0.0128991
0.0124997
0.0116346
0.0104797
0.00920025
0.00796119
0.00670354
0.00539869
0.00440378
0.00373482
0.00243838
0.00105971
0.00193895
0.00277715
0.00339529
0.00359667
0.00280535
0.00211731
0.00161288
0.00125305
0.000995474
0.000808626
0.000670883
0.000570642
0.000506994
0.000478997
0.000488445
0.000784759
0.000505062
0.0118381
0.0317809
0.0133251
0.0116762
0.013163
0.0138916
0.013833
0.0135836
0.0131503
0.0123438
0.0111443
0.00976157
0.00842877
0.0072052
0.00604461
0.00504901
0.00426625
0.00329486
0.00296196
0.00290948
0.00339869
0.00403715
0.00448794
0.00453241
0.00365329
0.00303693
0.00260136
0.00226502
0.00199662
0.00176269
0.00154506
0.00133273
0.00111437
0.000794988
0.000606269
0.000978217
0.000576716
0.015446
0.0469652
0.0211389
0.016152
0.0170608
0.016154
0.0153144
0.0147809
0.0142409
0.0132892
0.0118489
0.0101868
0.00862775
0.00732278
0.00626444
0.00542806
0.00481574
0.00446831
0.00491714
0.00527621
0.00568431
0.00600775
0.00604935
0.0057362
0.00513989
0.00460372
0.00419936
0.00384665
0.00346308
0.00304061
0.00258434
0.00210696
0.00162837
0.00115656
0.000812396
0.000912691
0.000803717
0.000807106
0.000961355
0.00114331
0.0195994
0.0625522
0.0371194
0.0265123
0.0220653
0.019011
0.0173268
0.0165062
0.0158185
0.0146135
0.0127679
0.0106674
0.00879056
0.00737255
0.00644601
0.00592315
0.00577846
0.00607912
0.0068253
0.0074931
0.0078257
0.00775423
0.00729947
0.00656542
0.00577552
0.00517718
0.00473176
0.00430989
0.0038608
0.00337621
0.00286372
0.00234191
0.0018379
0.0013784
0.00103963
0.000933105
0.000884809
0.000882872
0.00146113
0.00122202
0.022664
0.0693003
0.0518228
0.0347667
0.0259975
0.0214316
0.0193975
0.0185989
0.0178686
0.0163013
0.0138339
0.0111291
0.00893789
0.00754175
0.00690912
0.00679802
0.00710474
0.00779803
0.00863843
0.00913727
0.00905037
0.00849821
0.00763571
0.00664603
0.00575922
0.00513169
0.00467492
0.00426366
0.00384432
0.00340824
0.00296245
0.00251977
0.00209629
0.00170841
0.00142471
0.00127915
0.00125957
0.00139581
0.00181504
0.00159969
0.0226648
0.0555561
0.040419
0.0303084
0.0245539
0.0219133
0.0212296
0.0211671
0.0204688
0.0181495
0.0145734
0.0110007
0.00879289
0.00783826
0.00757675
0.00773597
0.00820691
0.0088753
0.00941654
0.00944991
0.00889352
0.0079667
0.00690742
0.00591638
0.00514187
0.00461088
0.00422957
0.00391494
0.00362946
0.00337204
0.00314856
0.00296037
0.00280185
0.00266859
0.00262803
0.00293898
0.00371774
0.00503452
0.0102136
0.00397517
0.0210617
0.0262836
0.0236648
0.0210714
0.0207749
0.0224427
0.0244364
0.0250392
0.0233275
0.0184584
0.0129584
0.00988337
0.00845704
0.00792062
0.00784685
0.00803297
0.0083451
0.00861767
0.00860947
0.0081738
0.00739163
0.00643209
0.00548013
0.0046755
0.00407181
0.00364991
0.0033429
0.00309408
0.00288952
0.00274067
0.00266759
0.00269062
0.00282885
0.00310395
0.00353579
0.00412168
0.00475009
0.00524172
0.00549168
0.00358499
0.00436056
0.0165321
0.0250448
0.0296589
0.028812
0.0232923
0.0174231
0.0128089
0.00987059
0.00831089
0.00757251
0.00727548
0.00719981
0.00720522
0.00717358
0.006984
0.00653762
0.00584371
0.0050236
0.00421834
0.00352663
0.00298721
0.00259708
0.00231917
0.00212399
0.00199853
0.00194248
0.00195794
0.00204674
0.00221248
0.00246239
0.00280342
0.00322454
0.00366208
0.00397273
0.00399571
0.00371641
0.00237494
0.0156468
0.0284645
0.0235964
0.0195727
0.0159313
0.0127192
0.010016
0.00812788
0.00695554
0.00627552
0.00589306
0.00566758
0.00549752
0.00530515
0.00502848
0.0046251
0.0040914
0.00348108
0.00288215
0.00237124
0.00198605
0.00172496
0.00156501
0.00148026
0.00145324
0.0014749
0.00154168
0.00165383
0.00181528
0.002034
0.00232117
0.00268512
0.00311303
0.00354294
0.0038764
0.00420876
0.003818
0.00244468
0.00704429
0.00780908
0.00854397
0.00736072
0.00655369
0.00587294
0.00524312
0.00449503
0.00385354
0.00339278
0.00308184
0.00286855
0.00271025
0.00257279
0.00242927
0.00226061
0.00205737
0.00182311
0.00157718
0.00135009
0.00116872
0.00104448
0.000972837
0.000941479
0.000938545
0.000956234
0.000990686
0.00104063
0.0011064
0.0011895
0.00129248
0.001419
0.00157408
0.00176419
0.00199555
0.0022745
0.00250569
0.00243297
0.00209626
0.00182063
)
;

boundaryField
{
    floor
    {
        type            kqRWallFunction;
        value           nonuniform List<scalar> 
36
(
0.00230842
0.000795232
0.00109203
0.00151063
0.00181814
0.00184281
0.00162745
0.00139669
0.00120626
0.00105396
0.000931138
0.000831028
0.000748159
0.000678294
0.00061781
0.000562571
0.000508021
0.000452077
0.00037069
0.00037069
0.000449633
0.000505062
0.000576716
0.000807106
0.000961355
0.00114331
0.00230842
0.00330404
0.00262159
0.00189091
0.000795232
0.00189091
0.00072865
0.00243838
0.00105971
0.00296196
)
;
    }
    ceiling
    {
        type            kqRWallFunction;
        value           nonuniform List<scalar> 
43
(
0.00704429
0.00780908
0.00854397
0.00736072
0.00655369
0.00587294
0.00524312
0.00449503
0.00385354
0.00339278
0.00308184
0.00286855
0.00271025
0.00257279
0.00242927
0.00226061
0.00205737
0.00182311
0.00157718
0.00135009
0.00116872
0.00104448
0.000972837
0.000941479
0.000938545
0.000956234
0.000990686
0.00104063
0.0011064
0.0011895
0.00129248
0.001419
0.00157408
0.00176419
0.00199555
0.0022745
0.00250569
0.00243297
0.00209626
0.00182063
0.0210617
0.0262836
0.0156468
)
;
    }
    sWall
    {
        type            kqRWallFunction;
        value           uniform 0.00704429;
    }
    nWall
    {
        type            kqRWallFunction;
        value           nonuniform List<scalar> 6(0.00114331 0.00122202 0.00159969 0.00237494 0.00244468 0.00182063);
    }
    sideWalls
    {
        type            empty;
    }
    glass1
    {
        type            kqRWallFunction;
        value           nonuniform List<scalar> 9(0.00352267 0.00608774 0.00876965 0.0118381 0.015446 0.0195994 0.022664 0.0226648 0.0210617);
    }
    glass2
    {
        type            kqRWallFunction;
        value           nonuniform List<scalar> 2(0.00397517 0.00358499);
    }
    sun
    {
        type            kqRWallFunction;
        value           nonuniform List<scalar> 
14
(
0.00352267
0.00434405
0.00464128
0.00520202
0.00583874
0.00644542
0.00683512
0.00694422
0.0067567
0.00590558
0.00516057
0.00440712
0.00360047
0.00294597
)
;
    }
    Table_master
    {
        type            kqRWallFunction;
        value           nonuniform List<scalar> 9(0.00280535 0.00211731 0.00161288 0.00125305 0.000995474 0.000808626 0.000670883 0.000570642 0.000506994);
    }
    Table_slave
    {
        type            kqRWallFunction;
        value           nonuniform List<scalar> 9(0.00365329 0.00303693 0.00260136 0.00226502 0.00199662 0.00176269 0.00154506 0.00133273 0.00111437);
    }
    inlet
    {
        type            turbulentIntensityKineticEnergyInlet;
        intensity       0.05;
        value           uniform 0.000937501;
    }
    outlet
    {
        type            zeroGradient;
    }
}


// ************************************************************************* //
