/*--------------------------------*- C++ -*----------------------------------*\
  =========                 |
  \\      /  F ield         | OpenFOAM: The Open Source CFD Toolbox
   \\    /   O peration     | Website:  https://openfoam.org
    \\  /    A nd           | Version:  6
     \\/     M anipulation  |
\*---------------------------------------------------------------------------*/
FoamFile
{
    version     2.0;
    format      ascii;
    class       volScalarField;
    location    "2700";
    object      alphat;
}
// * * * * * * * * * * * * * * * * * * * * * * * * * * * * * * * * * * * * * //

dimensions      [1 -1 -1 0 0 0 0];

internalField   nonuniform List<scalar> 
458
(
0.00130307
0.00143419
0.00146978
0.00154452
0.00161459
0.00168154
0.00174926
0.00180805
0.00184611
0.00185765
0.00183891
0.00178768
0.0017022
0.00158002
0.00141319
0.000583878
0.000715721
0.000828554
0.000851898
0.000836135
0.000784201
0.000726775
0.000674896
0.000629591
0.000589985
0.00055517
0.000524537
0.00049717
0.000471967
0.000447648
0.000422268
0.000396512
0.000353184
0.00174887
0.00448235
0.0043956
0.00514688
0.005901
0.00663065
0.00722097
0.00769713
0.00810745
0.00842218
0.00861378
0.00865532
0.00850696
0.00806433
0.006745
0.00157558
0.0012678
0.000974468
0.000601352
0.0015095
0.00220738
0.00271101
0.00283939
0.00207722
0.00174977
0.00152895
0.00136621
0.00124148
0.00114275
0.00105653
0.000973723
0.000889642
0.000813495
0.000750271
0.000803332
0.000421914
0.00211667
0.00613481
0.00556319
0.00688017
0.00759464
0.00813138
0.0085355
0.00888887
0.00925414
0.00961001
0.00992246
0.0101496
0.0102338
0.0100858
0.00949291
0.00783098
0.00612707
0.00135619
0.00110996
0.00189739
0.00271586
0.00340745
0.00350991
0.00109063
0.000948274
0.000832147
0.000739103
0.000664549
0.000604483
0.000556019
0.000517251
0.000487462
0.000534764
0.000616681
0.000883966
0.000468353
0.00246718
0.00773347
0.00568072
0.00730832
0.00789234
0.00813345
0.00830392
0.00853818
0.00886535
0.0092508
0.00965738
0.0100292
0.0102836
0.0103529
0.0102191
0.00973811
0.00860425
0.00507627
0.00165689
0.00218171
0.00307876
0.0040361
0.00475316
0.00464038
0.00121812
0.00109771
0.00101223
0.00094744
0.000893901
0.000845624
0.000801214
0.000756381
0.000706305
0.000660242
0.000647538
0.000942632
0.000518328
0.00282524
0.00976247
0.00629871
0.0071806
0.00784622
0.00793821
0.00792107
0.00810099
0.0084095
0.00881675
0.0092807
0.00971658
0.0100293
0.0101671
0.0101368
0.0099464
0.0094973
0.00837101
0.00728455
0.00703589
0.00709887
0.00720032
0.00717317
0.00682931
0.00560667
0.00496426
0.00459076
0.0043315
0.00410038
0.0038213
0.00342529
0.00292461
0.00234496
0.00175856
0.00129991
0.00113335
0.000811692
0.000607077
0.000636943
0.000659693
0.00320581
0.0119946
0.00857925
0.00750306
0.00790663
0.00791431
0.00791168
0.00799623
0.00822708
0.00863168
0.00914391
0.00963681
0.00997851
0.0100972
0.0100135
0.00982124
0.00962534
0.0094561
0.0093632
0.0093432
0.00924333
0.00898929
0.00857912
0.00802773
0.00733997
0.00678407
0.00635748
0.00599787
0.00565969
0.00530758
0.00487058
0.00432209
0.00365659
0.00290777
0.00221245
0.00166813
0.00123636
0.00116259
0.00156196
0.000887032
0.00353794
0.0134874
0.0116694
0.00965072
0.00907944
0.00857231
0.00819241
0.0080834
0.0082845
0.00875207
0.00935348
0.00990503
0.0102448
0.0103011
0.0101276
0.00989565
0.00982357
0.0100035
0.0102519
0.0103069
0.010065
0.00956687
0.00890732
0.00818315
0.00748523
0.00690851
0.00644402
0.00604616
0.00568397
0.00534636
0.00502857
0.00467535
0.00419588
0.00359085
0.00296002
0.00237742
0.00189099
0.0016817
0.00189551
0.00108619
0.00359012
0.0115892
0.0106734
0.00967659
0.00883598
0.00817251
0.00787011
0.00799396
0.0084985
0.00924204
0.0100104
0.0105818
0.0108171
0.0107103
0.0104047
0.0101644
0.0102095
0.0104518
0.0105579
0.0103369
0.00978995
0.00902044
0.0081534
0.0073118
0.00659504
0.00603968
0.00560459
0.00523971
0.00492486
0.00466433
0.00447281
0.00435584
0.00420167
0.00383881
0.00347217
0.00318854
0.00306123
0.00298982
0.00354382
0.00148921
0.00348438
0.00409079
0.00443973
0.00461995
0.00503644
0.00579867
0.00687118
0.00815687
0.00948105
0.0106242
0.0113804
0.0116296
0.0114186
0.0109411
0.0105319
0.0103698
0.0102621
0.010078
0.00971963
0.0091407
0.00834679
0.00744686
0.00657484
0.00583855
0.00527141
0.00483644
0.00447374
0.00414591
0.00384379
0.00357019
0.00332415
0.00309633
0.00289764
0.00272788
0.00259595
0.00251023
0.00243374
0.002327
0.00220811
0.00146778
0.00149003
0.00544376
0.00899875
0.0111356
0.0124884
0.0132514
0.0134827
0.0132893
0.0127824
0.0120734
0.0111852
0.0103761
0.00978542
0.00932572
0.00881466
0.00822054
0.00755419
0.00683828
0.00613279
0.00548456
0.00494035
0.00451174
0.00416243
0.00385163
0.00355453
0.00326641
0.00299822
0.00276881
0.00259524
0.00248704
0.00242373
0.00238609
0.0023618
0.00232959
0.00225072
0.00209366
0.0018803
0.00126848
0.00232159
0.00936145
0.0115956
0.0123285
0.0125493
0.0123677
0.0118368
0.0110981
0.0102716
0.00945456
0.00867117
0.00796963
0.0073411
0.00676071
0.00623713
0.00578427
0.00539857
0.00507739
0.00482055
0.00461547
0.00443519
0.00424984
0.00404001
0.00379952
0.0035357
0.00326633
0.0030136
0.00279722
0.00262895
0.00251329
0.00244858
0.00242727
0.00243151
0.00242937
0.00239885
0.00234396
0.00249159
0.00130579
0.0020522
0.00222893
0.00235621
0.00259245
0.0025556
0.00253037
0.00247593
0.00236763
0.0022157
0.00203431
0.00183886
0.00165176
0.00149497
0.00137684
0.0012933
0.00123536
0.00119405
0.00116245
0.00113614
0.00111274
0.00109092
0.00106962
0.00104784
0.00102506
0.00100231
0.000981794
0.000966389
0.000958811
0.000960742
0.000972573
0.000993959
0.00102362
0.00106127
0.00110688
0.00115989
0.0012165
0.00127284
0.00125494
0.00116984
0.00109593
)
;

boundaryField
{
    floor
    {
        type            compressible::alphatWallFunction;
        Prt             0.85;
        value           nonuniform List<scalar> 
36
(
0.000199334
8.19946e-05
0.000101547
0.00011793
0.000121283
0.000119018
0.000111521
0.000103162
9.55411e-05
8.88278e-05
8.29104e-05
7.76682e-05
7.30221e-05
6.88426e-05
6.49677e-05
6.12041e-05
5.72484e-05
5.32029e-05
4.63188e-05
4.63182e-05
5.71949e-05
6.44133e-05
7.20802e-05
8.54761e-05
8.99285e-05
9.33053e-05
0.000199332
0.000221156
0.000179506
0.000138723
8.19936e-05
0.000138722
8.46167e-05
0.000191578
0.000157736
0.00023201
)
;
    }
    ceiling
    {
        type            compressible::alphatWallFunction;
        Prt             0.85;
        value           nonuniform List<scalar> 
43
(
0.000283867
0.000306718
0.000323057
0.000353262
0.00034863
0.000345449
0.000338539
0.000324729
0.000305232
0.000281761
0.000256212
0.00023147
0.000210495
0.000194528
0.000183144
0.0001752
0.000169509
0.000165142
0.000161496
0.000158246
0.000155207
0.000152235
0.000149188
0.000145992
0.000142794
0.000139901
0.000137724
0.000136652
0.000136925
0.000138598
0.000141617
0.00014579
0.000151068
0.000157432
0.000164791
0.000172608
0.000180347
0.000177892
0.00016617
0.000155911
0.00046468
0.000538558
0.000318327
)
;
    }
    sWall
    {
        type            compressible::alphatWallFunction;
        Prt             0.85;
        value           uniform 0.000282687;
    }
    nWall
    {
        type            compressible::alphatWallFunction;
        Prt             0.85;
        value           nonuniform List<scalar> 6(9.31299e-05 0.000126138 0.000154229 0.00017944 0.000184541 0.000155604);
    }
    sideWalls
    {
        type            empty;
    }
    glass1
    {
        type            compressible::alphatWallFunction;
        Prt             0.85;
        value           nonuniform List<scalar> 9(0.000180076 0.000239188 0.00028682 0.000331465 0.000376438 0.00042363 0.00046439 0.000470886 0.000458198);
    }
    glass2
    {
        type            compressible::alphatWallFunction;
        Prt             0.85;
        value           nonuniform List<scalar> 2(0.000208338 0.000205508);
    }
    sun
    {
        type            compressible::alphatWallFunction;
        Prt             0.85;
        value           nonuniform List<scalar> 
14
(
0.000184354
0.000202154
0.000206956
0.000217
0.000226368
0.000235276
0.000244247
0.000252005
0.000257012
0.000258528
0.000256067
0.000249322
0.000238021
0.00022176
)
;
    }
    Table_master
    {
        type            compressible::alphatWallFunction;
        Prt             0.85;
        value           nonuniform List<scalar> 9(0.000155109 0.000135103 0.000118522 0.000105039 9.40866e-05 8.5154e-05 7.7867e-05 7.19811e-05 6.74207e-05);
    }
    Table_slave
    {
        type            compressible::alphatWallFunction;
        Prt             0.85;
        value           nonuniform List<scalar> 9(0.000172773 0.000156099 0.000144134 0.000134987 0.000127373 0.000120461 0.000114062 0.000107558 0.000100239);
    }
    inlet
    {
        type            fixedValue;
        value           uniform 1.94e-05;
    }
    outlet
    {
        type            zeroGradient;
    }
}


// ************************************************************************* //
