/*--------------------------------*- C++ -*----------------------------------*\
  =========                 |
  \\      /  F ield         | OpenFOAM: The Open Source CFD Toolbox
   \\    /   O peration     | Website:  https://openfoam.org
    \\  /    A nd           | Version:  6
     \\/     M anipulation  |
\*---------------------------------------------------------------------------*/
FoamFile
{
    version     2.0;
    format      ascii;
    class       volScalarField;
    location    "2700";
    object      k;
}
// * * * * * * * * * * * * * * * * * * * * * * * * * * * * * * * * * * * * * //

dimensions      [0 2 -2 0 0 0 0];

internalField   nonuniform List<scalar> 
458
(
0.00250787
0.00303299
0.003185
0.00351696
0.00384311
0.00416822
0.00451045
0.00481846
0.00502311
0.00508575
0.00498339
0.00470947
0.00426993
0.00367932
0.00294412
0.000503108
0.000755844
0.00101282
0.00107069
0.00103147
0.00090737
0.000779395
0.000672138
0.000584963
0.00051371
0.000454896
0.000406105
0.000364854
0.000328816
0.00029582
0.000263242
0.000232125
0.000184191
0.00452245
0.00846139
0.00516606
0.00554902
0.00612537
0.00678916
0.00750391
0.00821317
0.00880165
0.00914361
0.00916918
0.00885733
0.00822382
0.0073129
0.00615891
0.00365844
0.00236906
0.00139996
0.000533736
0.00133712
0.00172314
0.00187994
0.0018498
0.001566
0.00127347
0.00103889
0.000859187
0.000720849
0.00061297
0.000526386
0.000454618
0.000394647
0.000351822
0.000325856
0.000413708
0.000262859
0.00663251
0.0151283
0.00641351
0.00629803
0.00685982
0.00762671
0.00851515
0.00939149
0.010087
0.0104845
0.0105547
0.0102854
0.0096858
0.00879649
0.00774531
0.00652712
0.00528162
0.00271147
0.00181754
0.0021363
0.00233661
0.00239451
0.00228924
0.00175491
0.00132678
0.00102179
0.000806125
0.000651742
0.000539286
0.000456308
0.000394918
0.000350758
0.000320997
0.000314028
0.000519176
0.000323916
0.00902178
0.0242222
0.00810705
0.00665583
0.00709676
0.00799389
0.00914824
0.0101524
0.0108468
0.0112057
0.0112703
0.0110172
0.0104199
0.00957958
0.00863
0.00767744
0.0067256
0.00518362
0.00404717
0.00355362
0.00339265
0.00328477
0.00311827
0.00284398
0.00218978
0.00177848
0.00151244
0.00132515
0.00117971
0.0010558
0.000947878
0.000844812
0.00073669
0.000552698
0.000431925
0.000630864
0.000396741
0.0118443
0.0361579
0.0120008
0.00754574
0.00768267
0.00886952
0.0104083
0.0113392
0.0118491
0.0120734
0.0120643
0.0117635
0.0111185
0.0101735
0.00906496
0.00795814
0.0069581
0.00607983
0.00552458
0.00503132
0.00461608
0.00422256
0.00380605
0.00335492
0.00289959
0.00256479
0.0023344
0.00215384
0.00198773
0.00181091
0.00160943
0.0013878
0.00115332
0.000892246
0.000666138
0.000644905
0.000567138
0.00054427
0.000599172
0.000642949
0.0152664
0.0487874
0.0210692
0.0113061
0.0106174
0.0122408
0.0131061
0.0133675
0.0134069
0.0133964
0.0132706
0.0128701
0.012072
0.0108902
0.00948187
0.00808415
0.00692394
0.00615434
0.00575836
0.00547309
0.00511477
0.00465014
0.00411926
0.00358273
0.00313535
0.00284573
0.00265877
0.00250898
0.00236043
0.00219079
0.00197552
0.00172548
0.00145704
0.00118203
0.000938076
0.000777531
0.000674718
0.000785308
0.00195932
0.0011625
0.0186126
0.0565238
0.035139
0.0228575
0.0200594
0.0186403
0.0172631
0.0162311
0.015624
0.015319
0.0150314
0.0144447
0.0133693
0.0118259
0.0100265
0.00830802
0.00698716
0.00622526
0.00587836
0.00560037
0.00519392
0.0046571
0.00407284
0.00353411
0.00313211
0.00289592
0.00275996
0.00266144
0.0025695
0.00246614
0.00233057
0.00213257
0.00189609
0.00164364
0.00142288
0.00126422
0.00117986
0.00132208
0.0027133
0.00174318
0.0191928
0.0532812
0.039552
0.0323665
0.0273255
0.0232297
0.0204261
0.0188462
0.0181623
0.0178941
0.0175044
0.0165696
0.0149541
0.0128029
0.0104447
0.00836913
0.00692585
0.00614631
0.00574025
0.00534795
0.00484652
0.00427623
0.0037296
0.00328427
0.00298346
0.00281436
0.00272576
0.00268061
0.00266612
0.00268098
0.00272582
0.00278243
0.00278955
0.00276902
0.00283138
0.00312975
0.00381542
0.00464657
0.00949746
0.0032791
0.0181153
0.0249275
0.0234572
0.021011
0.019546
0.0192524
0.0197841
0.0207484
0.021642
0.0218925
0.0210442
0.0189897
0.0161062
0.0129032
0.00978196
0.00757255
0.00632101
0.00562246
0.00515717
0.00471275
0.00422592
0.00374153
0.00332136
0.00300269
0.00278801
0.00265311
0.0025698
0.0025245
0.00251664
0.00254984
0.0026256
0.00274123
0.00290841
0.00314864
0.00350137
0.00397187
0.00448534
0.00490847
0.005215
0.00318774
0.00566192
0.0178295
0.0254391
0.0292415
0.0310988
0.0312021
0.0294032
0.0260425
0.021566
0.01662
0.0125966
0.00954812
0.00743049
0.00610422
0.00531282
0.00480299
0.00440447
0.0040372
0.00369564
0.00339495
0.00314682
0.00293976
0.00275451
0.00257734
0.00240866
0.00226219
0.00215826
0.00211669
0.00215231
0.0022686
0.00246384
0.00273465
0.00307582
0.00344802
0.00374512
0.00382037
0.00364317
0.00238105
0.00755124
0.0270733
0.0297753
0.0285014
0.0269752
0.0246151
0.0214598
0.0178831
0.0142916
0.0110847
0.00863683
0.00694041
0.00586539
0.00523397
0.00487848
0.00467576
0.00455073
0.00446473
0.00439908
0.00433378
0.00424492
0.00411058
0.00391635
0.00366494
0.0033766
0.0030847
0.00282612
0.00263083
0.00251605
0.00249594
0.00257541
0.00275547
0.00302042
0.00331654
0.00357963
0.00376115
0.00412136
0.00252301
0.00608468
0.00717345
0.00801592
0.00982112
0.00958174
0.0094119
0.00902403
0.00826132
0.00724167
0.00610896
0.00499433
0.00403133
0.00330323
0.0028023
0.00247287
0.00225645
0.00210816
0.00199815
0.0019088
0.00183105
0.00175997
0.00169197
0.00162378
0.00155396
0.00148578
0.00142558
0.00138121
0.00135965
0.00136515
0.00139899
0.00146122
0.00154974
0.00166587
0.00181215
0.00198992
0.00218898
0.00239656
0.00232971
0.00202449
0.00177719
)
;

boundaryField
{
    floor
    {
        type            kqRWallFunction;
        value           nonuniform List<scalar> 
36
(
0.00294412
0.000503108
0.000755844
0.00101282
0.00107069
0.00103147
0.00090737
0.000779395
0.000672138
0.000584963
0.00051371
0.000454896
0.000406105
0.000364854
0.000328816
0.00029582
0.000263242
0.000232125
0.000184191
0.000184191
0.000262859
0.000323916
0.000396741
0.00054427
0.000599172
0.000642949
0.00294412
0.00365844
0.00236906
0.00139996
0.000503108
0.00139996
0.000533736
0.00271147
0.00181754
0.00404717
)
;
    }
    ceiling
    {
        type            kqRWallFunction;
        value           nonuniform List<scalar> 
43
(
0.00608468
0.00717345
0.00801592
0.00982112
0.00958174
0.0094119
0.00902403
0.00826132
0.00724167
0.00610896
0.00499433
0.00403133
0.00330323
0.0028023
0.00247287
0.00225645
0.00210816
0.00199815
0.0019088
0.00183105
0.00175997
0.00169197
0.00162378
0.00155396
0.00148578
0.00142558
0.00138121
0.00135965
0.00136515
0.00139899
0.00146122
0.00154974
0.00166587
0.00181215
0.00198992
0.00218898
0.00239656
0.00232971
0.00202449
0.00177719
0.0181153
0.0249275
0.00755124
)
;
    }
    sWall
    {
        type            kqRWallFunction;
        value           uniform 0.00608468;
    }
    nWall
    {
        type            kqRWallFunction;
        value           nonuniform List<scalar> 6(0.000642949 0.0011625 0.00174318 0.00238105 0.00252301 0.00177719);
    }
    sideWalls
    {
        type            empty;
    }
    glass1
    {
        type            kqRWallFunction;
        value           nonuniform List<scalar> 9(0.00250787 0.00452245 0.00663251 0.00902178 0.0118443 0.0152664 0.0186126 0.0191928 0.0181153);
    }
    glass2
    {
        type            kqRWallFunction;
        value           nonuniform List<scalar> 2(0.0032791 0.00318774);
    }
    sun
    {
        type            kqRWallFunction;
        value           nonuniform List<scalar> 
14
(
0.00250787
0.00303299
0.003185
0.00351696
0.00384311
0.00416822
0.00451045
0.00481846
0.00502311
0.00508575
0.00498339
0.00470947
0.00426993
0.00367932
)
;
    }
    Table_master
    {
        type            kqRWallFunction;
        value           nonuniform List<scalar> 9(0.00175491 0.00132678 0.00102179 0.000806125 0.000651742 0.000539286 0.000456308 0.000394918 0.000350758);
    }
    Table_slave
    {
        type            kqRWallFunction;
        value           nonuniform List<scalar> 9(0.00218978 0.00177848 0.00151244 0.00132515 0.00117971 0.0010558 0.000947878 0.000844812 0.00073669);
    }
    inlet
    {
        type            turbulentIntensityKineticEnergyInlet;
        intensity       0.05;
        value           uniform 0.0003375;
    }
    outlet
    {
        type            zeroGradient;
    }
}


// ************************************************************************* //
