/*--------------------------------*- C++ -*----------------------------------*\
  =========                 |
  \\      /  F ield         | OpenFOAM: The Open Source CFD Toolbox
   \\    /   O peration     | Website:  https://openfoam.org
    \\  /    A nd           | Version:  6
     \\/     M anipulation  |
\*---------------------------------------------------------------------------*/
FoamFile
{
    version     2.0;
    format      ascii;
    class       volScalarField;
    location    "2700";
    object      nut;
}
// * * * * * * * * * * * * * * * * * * * * * * * * * * * * * * * * * * * * * //

dimensions      [0 2 -1 0 0 0 0];

internalField   nonuniform List<scalar> 
458
(
0.00112462
0.00123677
0.00126739
0.0013318
0.00139219
0.00144988
0.00150823
0.00155887
0.00159163
0.00160152
0.00158531
0.00154111
0.00146742
0.00136212
0.00121836
0.000503717
0.000617399
0.000714697
0.000734846
0.000721267
0.000676488
0.000626968
0.000582231
0.000543162
0.000509007
0.000478984
0.000452568
0.000428967
0.000407231
0.000386258
0.000364369
0.000342156
0.000304787
0.00151021
0.00386595
0.00379075
0.00443859
0.00508887
0.00571799
0.00622687
0.00663716
0.00699046
0.0072612
0.00742579
0.00746116
0.00733307
0.00695158
0.00581452
0.00135831
0.00109307
0.000840287
0.000518807
0.00130201
0.00190392
0.00233837
0.0024492
0.00179182
0.0015094
0.00131896
0.0011786
0.00107103
0.000985884
0.000911519
0.000840099
0.000767577
0.000701897
0.000647369
0.000693183
0.000364094
0.00182889
0.00529217
0.00479835
0.0059343
0.00655066
0.00701365
0.00736207
0.00766633
0.00798037
0.00828601
0.00855419
0.00874905
0.00882126
0.00869371
0.00818295
0.00675076
0.00528231
0.00116936
0.00095732
0.0016364
0.00234236
0.00293903
0.00302761
0.000940788
0.000818016
0.000717863
0.000637617
0.000573316
0.000521511
0.000479713
0.000446276
0.000420585
0.000461409
0.000532105
0.000762762
0.000404171
0.00213302
0.00667279
0.00490049
0.0063047
0.00680894
0.00701731
0.00716443
0.00736582
0.00764651
0.00797707
0.00832589
0.00864514
0.00886375
0.00892349
0.00880861
0.00839456
0.0074177
0.00437665
0.0014286
0.00188125
0.00265504
0.00348102
0.00409995
0.00400308
0.00105092
0.000947095
0.000873389
0.000817524
0.000771356
0.000729723
0.00069142
0.000652747
0.000609546
0.000569772
0.000558789
0.000813427
0.000447305
0.002444
0.00842596
0.00543464
0.00619567
0.00677071
0.00685083
0.00683623
0.00699038
0.00725435
0.00760319
0.00800108
0.00837531
0.00864416
0.00876295
0.00873737
0.00857407
0.00818769
0.00721735
0.00628119
0.00606747
0.00612259
0.00621096
0.00618836
0.00589239
0.00483797
0.00428396
0.00396188
0.00373832
0.00353898
0.00329819
0.00295643
0.00252429
0.00202398
0.00151779
0.00112187
0.000978077
0.000700489
0.000523914
0.000549703
0.000569429
0.00277469
0.0103564
0.00740461
0.0064756
0.00682475
0.0068323
0.00682951
0.00690063
0.00709715
0.00744329
0.00788252
0.0083058
0.0085997
0.00870232
0.00863109
0.00846653
0.00829875
0.00815387
0.00807481
0.00805871
0.00797377
0.00775578
0.00740289
0.00692788
0.00633492
0.00585554
0.00548762
0.00517741
0.00488562
0.00458173
0.00420448
0.00373096
0.00315641
0.00250991
0.00190962
0.00143972
0.00106704
0.00100337
0.00134807
0.000765682
0.00306372
0.0116518
0.0100777
0.00833388
0.007841
0.0074025
0.00707232
0.00697511
0.00714518
0.00754522
0.00806129
0.00853543
0.00882825
0.00887784
0.00872993
0.0085317
0.00847117
0.00862776
0.00884341
0.00889227
0.00868487
0.00825622
0.00768794
0.00706358
0.0064616
0.00596405
0.00556325
0.00521989
0.00490725
0.00461577
0.00434136
0.00403632
0.00362226
0.00309982
0.00255511
0.00205209
0.00163215
0.0014515
0.00163605
0.000937612
0.00311111
0.0100252
0.00922943
0.00836533
0.00763539
0.00705774
0.00679181
0.00689405
0.00732515
0.00796314
0.00862385
0.00911638
0.00932066
0.00923098
0.00897026
0.00876557
0.00880656
0.00901734
0.00911031
0.00892091
0.00844998
0.00778665
0.00703882
0.00631267
0.0056941
0.00521476
0.00483917
0.00452414
0.00425229
0.00402731
0.00386188
0.0037608
0.00362757
0.00331416
0.0029975
0.00275252
0.00264254
0.0025809
0.00305917
0.00128596
0.00302251
0.00354555
0.00384457
0.00399492
0.00434818
0.00499959
0.00591876
0.00702242
0.00816084
0.00914552
0.00979921
0.0100177
0.00984007
0.00943254
0.00908348
0.0089465
0.00885546
0.00869793
0.00838967
0.0078908
0.00720612
0.00642964
0.00567704
0.00504147
0.00455184
0.00417629
0.00386311
0.00358
0.0033191
0.00308282
0.00287033
0.00267359
0.00250201
0.00235544
0.00224155
0.00216762
0.0021017
0.00200967
0.00190712
0.00126792
0.00124613
0.0045836
0.00763627
0.00949652
0.0106862
0.0113666
0.0115858
0.0114349
0.0110097
0.0104069
0.00964592
0.00895138
0.00844405
0.00804896
0.00760897
0.0070969
0.00652221
0.00590452
0.00529565
0.00473608
0.00426624
0.00389617
0.00359454
0.00332615
0.00306959
0.00282077
0.00258916
0.00239104
0.00224116
0.00214772
0.00209305
0.00206057
0.00203964
0.00201189
0.00194388
0.00180834
0.00162417
0.0010958
0.00195147
0.00794654
0.00990172
0.0105639
0.0107769
0.010637
0.0101913
0.00956303
0.00885639
0.00815565
0.0074823
0.00687853
0.00633712
0.00583683
0.00538529
0.00499462
0.00466182
0.00438464
0.00416295
0.00398592
0.00383028
0.00367023
0.00348903
0.00328135
0.00305352
0.00282089
0.00260263
0.00241576
0.00227044
0.00217056
0.00211468
0.00209629
0.00209999
0.00209818
0.00207189
0.00202457
0.00215215
0.00112799
0.00175173
0.001902
0.00201059
0.00222549
0.00219818
0.00217859
0.00213322
0.00204106
0.00191094
0.00175512
0.00158694
0.00142576
0.00129061
0.00118875
0.00111671
0.00106674
0.0010311
0.00100384
0.000981135
0.000960943
0.000942105
0.000923722
0.000904915
0.000885246
0.000865608
0.000847892
0.000834593
0.000828055
0.000829728
0.000839951
0.000858428
0.000884047
0.000916573
0.000955968
0.00100176
0.00105067
0.00109937
0.00108392
0.00101043
0.0009467
)
;

boundaryField
{
    floor
    {
        type            nutkWallFunction;
        Cmu             0.09;
        kappa           0.41;
        E               9.8;
        value           nonuniform List<scalar> 
36
(
0.000146145
6.01755e-05
7.45106e-05
8.65223e-05
8.89827e-05
8.73235e-05
8.18274e-05
7.56985e-05
7.01109e-05
6.51885e-05
6.08493e-05
5.70052e-05
5.3598e-05
5.05328e-05
4.76909e-05
4.49305e-05
4.20288e-05
3.90613e-05
3.40111e-05
3.4011e-05
4.1993e-05
4.72904e-05
5.29172e-05
6.27482e-05
6.60165e-05
6.85035e-05
0.000146146
0.000162133
0.000131621
0.000101742
6.01754e-05
0.000101742
6.21012e-05
0.000140479
0.000115701
0.000170109
)
;
    }
    ceiling
    {
        type            nutkWallFunction;
        Cmu             0.09;
        kappa           0.41;
        E               9.8;
        value           nonuniform List<scalar> 
43
(
0.000206092
0.00022261
0.00023446
0.00025782
0.000254911
0.000252815
0.000247922
0.000237934
0.000223741
0.000206603
0.000187914
0.000169797
0.000154429
0.000142726
0.000134381
0.000128556
0.000124384
0.000121181
0.000118507
0.000116122
0.000113893
0.000111712
0.000109476
0.000107131
0.000104784
0.000102661
0.000101064
0.000100277
0.000100479
0.000101707
0.000103923
0.000106987
0.000110862
0.000115535
0.000120938
0.000126678
0.000132362
0.000130563
0.000121957
0.000114438
0.000342509
0.000396659
0.000227803
)
;
    }
    sWall
    {
        type            nutkWallFunction;
        Cmu             0.09;
        kappa           0.41;
        E               9.8;
        value           uniform 0.000206148;
    }
    nWall
    {
        type            nutkWallFunction;
        Cmu             0.09;
        kappa           0.41;
        E               9.8;
        value           nonuniform List<scalar> 6(6.84978e-05 9.27379e-05 0.000113362 0.000131955 0.0001357 0.000114443);
    }
    sideWalls
    {
        type            empty;
    }
    glass1
    {
        type            nutkWallFunction;
        Cmu             0.09;
        kappa           0.41;
        E               9.8;
        value           nonuniform List<scalar> 9(0.000135408 0.000179523 0.000215024 0.000248275 0.000281754 0.000316866 0.000347197 0.00035215 0.000342917);
    }
    glass2
    {
        type            nutkWallFunction;
        Cmu             0.09;
        kappa           0.41;
        E               9.8;
        value           nonuniform List<scalar> 2(0.000153937 0.000151871);
    }
    sun
    {
        type            nutkWallFunction;
        Cmu             0.09;
        kappa           0.41;
        E               9.8;
        value           nonuniform List<scalar> 
14
(
0.000135297
0.000148246
0.000151757
0.000159116
0.000165979
0.000172505
0.000179075
0.000184756
0.00018842
0.000189524
0.000187714
0.000182768
0.000174486
0.000162573
)
;
    }
    Table_master
    {
        type            nutkWallFunction;
        Cmu             0.09;
        kappa           0.41;
        E               9.8;
        value           nonuniform List<scalar> 9(0.000113731 9.90646e-05 8.69092e-05 7.70242e-05 6.89952e-05 6.24465e-05 5.71043e-05 5.27891e-05 4.94458e-05);
    }
    Table_slave
    {
        type            nutkWallFunction;
        Cmu             0.09;
        kappa           0.41;
        E               9.8;
        value           nonuniform List<scalar> 9(0.000126697 0.000114477 0.000105708 9.90041e-05 9.34236e-05 8.83571e-05 8.36656e-05 7.88972e-05 7.35298e-05);
    }
    inlet
    {
        type            calculated;
        value           uniform 0.000100623;
    }
    outlet
    {
        type            calculated;
        value           nonuniform List<scalar> 2(0.00175173 0.001902);
    }
}


// ************************************************************************* //
