/*--------------------------------*- C++ -*----------------------------------*\
  =========                 |
  \\      /  F ield         | OpenFOAM: The Open Source CFD Toolbox
   \\    /   O peration     | Website:  https://openfoam.org
    \\  /    A nd           | Version:  6
     \\/     M anipulation  |
\*---------------------------------------------------------------------------*/
FoamFile
{
    version     2.0;
    format      ascii;
    class       volScalarField;
    location    "900";
    object      alphat;
}
// * * * * * * * * * * * * * * * * * * * * * * * * * * * * * * * * * * * * * //

dimensions      [1 -1 -1 0 0 0 0];

internalField   nonuniform List<scalar> 
458
(
0.00132928
0.00145307
0.00150098
0.00157328
0.0016395
0.0017036
0.00177091
0.0018355
0.00189055
0.00192654
0.0019326
0.0018656
0.00168128
0.00146531
0.00126695
0.000593186
0.000697141
0.000799488
0.000839875
0.000834938
0.000793132
0.000744345
0.000699383
0.000659422
0.000623911
0.000592329
0.000564188
0.000538615
0.000514678
0.000491265
0.000466671
0.000445192
0.000404046
0.00173003
0.00371995
0.00335761
0.00375222
0.00416149
0.00456711
0.00487106
0.00516774
0.00547602
0.00575196
0.00599563
0.00625488
0.00620604
0.00506392
0.00321399
0.0014278
0.0012532
0.00106041
0.000578675
0.00144134
0.00217891
0.00272807
0.00287256
0.00209017
0.00178229
0.00157984
0.00143192
0.00131856
0.00122674
0.0011414
0.0010571
0.000968116
0.000886871
0.000819814
0.000940256
0.00049615
0.00205593
0.00489996
0.00398312
0.00445826
0.00459974
0.00469229
0.00478448
0.00493792
0.00515024
0.00540907
0.00577006
0.00631938
0.00689844
0.00661731
0.0053162
0.00372496
0.00275711
0.00112734
0.000829893
0.00161532
0.00246577
0.00323894
0.00337985
0.00102289
0.00090615
0.000807255
0.000726301
0.00066053
0.00060702
0.000563812
0.000529348
0.000503747
0.000568759
0.000673156
0.00107573
0.00056419
0.00235847
0.00602338
0.00391025
0.00451006
0.0043897
0.00425308
0.00423356
0.00434272
0.00452577
0.00477869
0.00518045
0.00581337
0.00651817
0.00665903
0.00606737
0.00493913
0.00376198
0.00207115
0.00117369
0.00173771
0.00258209
0.00354568
0.00429649
0.00425677
0.00112305
0.00103756
0.000981446
0.000941075
0.000906496
0.000870213
0.000834982
0.000796557
0.0007501
0.000703564
0.000704424
0.0011953
0.000634458
0.00265798
0.00756031
0.00385763
0.00438426
0.00416165
0.00390996
0.00386183
0.00400217
0.00420206
0.0044508
0.00483854
0.005446
0.00605967
0.00625898
0.00603717
0.00545011
0.00460456
0.00355013
0.00359052
0.00414968
0.00486238
0.00550026
0.00585127
0.00579302
0.00495091
0.0045598
0.00438089
0.00426314
0.00412777
0.0039253
0.00352759
0.00299627
0.00238174
0.0017847
0.0013404
0.00125266
0.00100448
0.000775417
0.000830846
0.00082804
0.00297585
0.00943694
0.00474058
0.00417679
0.00408036
0.00376146
0.00366659
0.0038727
0.00410629
0.00434556
0.0046901
0.00523295
0.00569823
0.00578493
0.00574312
0.00566146
0.00542207
0.00517967
0.00563952
0.0063643
0.00686562
0.0070427
0.00691964
0.00658291
0.00614342
0.00585122
0.00566562
0.00550745
0.00533387
0.00512029
0.00479572
0.0043019
0.00364963
0.00290072
0.00222629
0.0016882
0.0013231
0.00141219
0.00205857
0.00106094
0.00331775
0.0109409
0.00703843
0.00444131
0.00378524
0.00371014
0.00368304
0.00392994
0.00416645
0.00437222
0.00464634
0.00508822
0.00544428
0.00543883
0.00568665
0.00620578
0.0064584
0.00676703
0.00739334
0.00781316
0.00784626
0.00754981
0.0070404
0.00645214
0.00593946
0.00563146
0.00545577
0.00532344
0.00519256
0.0050549
0.00490708
0.00466617
0.00422528
0.00361505
0.00298577
0.00241676
0.00199029
0.0019038
0.00238382
0.00132605
0.00341934
0.0103508
0.00852489
0.00655854
0.00498511
0.00430867
0.00421428
0.00423357
0.00434233
0.00445091
0.00463204
0.00500332
0.00528911
0.0052973
0.00603751
0.00687726
0.00729207
0.00765547
0.00798306
0.007945
0.00753673
0.00687449
0.00612687
0.00546925
0.00502997
0.00480463
0.00469083
0.00461721
0.00456202
0.00452837
0.00452783
0.00455324
0.00446985
0.00410284
0.00375813
0.00355958
0.00362465
0.00380016
0.00466995
0.00177576
0.00338219
0.00414965
0.00496016
0.00520686
0.00498405
0.00473192
0.00459558
0.00451597
0.00451677
0.00448864
0.00456511
0.00490395
0.00516905
0.00548629
0.006444
0.00704729
0.00727623
0.00736612
0.00724733
0.0068068
0.00611204
0.00533344
0.00466449
0.00421464
0.00396798
0.00384286
0.00376731
0.00370471
0.00364056
0.00356757
0.00347859
0.00336523
0.00324047
0.00312533
0.00304328
0.00299515
0.00292164
0.00277333
0.00259831
0.00170155
0.00140134
0.00251213
0.00327971
0.00371662
0.0040531
0.00442385
0.00449355
0.00430425
0.0042959
0.00465799
0.00525404
0.00568251
0.00624864
0.0063287
0.0062168
0.0059674
0.00553444
0.00494193
0.00429315
0.00375217
0.00339291
0.00319049
0.00308431
0.00302485
0.00298333
0.00294652
0.00291009
0.00287515
0.00284716
0.00283774
0.00284201
0.00284157
0.00282639
0.00276634
0.00261137
0.00233544
0.00198469
0.00134674
0.00258988
0.00448227
0.00471577
0.00511407
0.0056432
0.00513049
0.0041913
0.00345761
0.00342574
0.00390403
0.00438135
0.00470992
0.00470107
0.00454005
0.00429902
0.00396551
0.00355112
0.00312348
0.00275382
0.00249803
0.00234855
0.00227587
0.00225449
0.00226841
0.00230854
0.00236896
0.00244407
0.00252662
0.00260565
0.0026976
0.00279488
0.00288904
0.0029628
0.00298382
0.00292814
0.00282837
0.00241098
0.00135933
0.0033296
0.00332696
0.00334883
0.00389875
0.00352942
0.00322334
0.00269597
0.00211155
0.00133539
0.00107984
0.000989581
0.00094951
0.000917123
0.000879987
0.000851364
0.000828136
0.000806141
0.000784673
0.000766919
0.00075791
0.000760384
0.000771426
0.000789229
0.000812221
0.000839419
0.00087032
0.000904775
0.000942937
0.000985338
0.0010331
0.00108837
0.00114936
0.00121619
0.00128895
0.00136757
0.00145279
0.00152068
0.00149215
0.00137067
0.00125804
)
;

boundaryField
{
    floor
    {
        type            compressible::alphatWallFunction;
        Prt             0.85;
        value           nonuniform List<scalar> 
36
(
0.000179295
8.33132e-05
9.87377e-05
0.000113654
0.000119478
0.000118769
0.000112738
0.000105651
9.90704e-05
9.31788e-05
8.79067e-05
8.31871e-05
7.89557e-05
7.50878e-05
7.14466e-05
6.78646e-05
6.40789e-05
6.07521e-05
5.43211e-05
5.43204e-05
6.86146e-05
7.89576e-05
8.94789e-05
0.000110177
0.000118188
0.000117787
0.000179293
0.000201192
0.000177414
0.000150716
8.33122e-05
0.000150714
8.11339e-05
0.000160043
0.000118036
0.00016647
)
;
    }
    ceiling
    {
        type            compressible::alphatWallFunction;
        Prt             0.85;
        value           nonuniform List<scalar> 
43
(
0.000445217
0.00044489
0.00044759
0.000514943
0.000469875
0.000432152
0.000366246
0.000291577
0.00018879
0.000153585
0.000140925
0.00013526
0.000130661
0.000125365
0.000121265
0.000117926
0.000114754
0.000111647
0.000109071
0.00010776
0.00010812
0.000109726
0.000112308
0.000115632
0.00011955
0.000123983
0.000128904
0.000134329
0.000140326
0.000147045
0.000154777
0.000163256
0.000172488
0.000182474
0.000193192
0.000204732
0.000213871
0.000210038
0.000193615
0.000178244
0.000451996
0.000545551
0.000352694
)
;
    }
    sWall
    {
        type            compressible::alphatWallFunction;
        Prt             0.85;
        value           uniform 0.000443935;
    }
    nWall
    {
        type            compressible::alphatWallFunction;
        Prt             0.85;
        value           nonuniform List<scalar> 6(0.000117568 0.000150585 0.000187166 0.000190015 0.000191726 0.000177896);
    }
    sideWalls
    {
        type            empty;
    }
    glass1
    {
        type            compressible::alphatWallFunction;
        Prt             0.85;
        value           nonuniform List<scalar> 9(0.000182833 0.000235832 0.00027805 0.000316678 0.000354464 0.00039412 0.000436309 0.000448898 0.000444596);
    }
    glass2
    {
        type            compressible::alphatWallFunction;
        Prt             0.85;
        value           nonuniform List<scalar> 2(0.000245741 0.000236051);
    }
    sun
    {
        type            compressible::alphatWallFunction;
        Prt             0.85;
        value           nonuniform List<scalar> 
14
(
0.000187819
0.000204588
0.000211041
0.000220737
0.000229573
0.000238089
0.000246995
0.000255504
0.000262732
0.000267446
0.00026824
0.000259469
0.00023514
0.000206252
)
;
    }
    Table_master
    {
        type            compressible::alphatWallFunction;
        Prt             0.85;
        value           nonuniform List<scalar> 9(0.000145638 0.000129125 0.000114939 0.000103172 9.34954e-05 8.55361e-05 7.9046e-05 7.3825e-05 6.99193e-05);
    }
    Table_slave
    {
        type            compressible::alphatWallFunction;
        Prt             0.85;
        value           nonuniform List<scalar> 9(0.000159636 0.000147701 0.000139806 0.000134093 0.000129177 0.000123995 0.000118938 0.000113395 0.000106649);
    }
    inlet
    {
        type            fixedValue;
        value           uniform 1.94e-05;
    }
    outlet
    {
        type            zeroGradient;
    }
}


// ************************************************************************* //
