/*--------------------------------*- C++ -*----------------------------------*\
  =========                 |
  \\      /  F ield         | OpenFOAM: The Open Source CFD Toolbox
   \\    /   O peration     | Website:  https://openfoam.org
    \\  /    A nd           | Version:  6
     \\/     M anipulation  |
\*---------------------------------------------------------------------------*/
FoamFile
{
    version     2.0;
    format      ascii;
    class       surfaceScalarField;
    location    "400";
    object      phi;
}
// * * * * * * * * * * * * * * * * * * * * * * * * * * * * * * * * * * * * * //

dimensions      [1 0 -1 0 0 0 0];

internalField   nonuniform List<scalar> 
850
(
-0.00314632
0.00321392
-0.00418091
0.00103455
-0.00510802
0.000927053
-0.00591716
0.000809097
-0.00658054
0.000663331
-0.0070767
0.000496113
-0.00737843
0.000301679
-0.00745013
7.16529e-05
-0.00724596
-0.000204208
-0.00671781
-0.000528193
-0.00584085
-0.000877002
-0.00463271
-0.00120818
-0.00315856
-0.00147418
-0.00153294
-0.00162563
-0.00153029
-0.000817421
0.000822105
-0.000243176
-0.000574234
0.00062383
-0.000866993
0.00126063
-0.000636787
0.00167354
-0.000412887
0.00188231
-0.000208754
0.00196322
-8.0899e-05
0.00199953
-3.63059e-05
0.00201915
-1.96075e-05
0.00202648
-7.32988e-06
0.00201955
6.93284e-06
0.00198805
3.14912e-05
0.00190745
8.06021e-05
0.00172974
0.000177719
0.00138777
0.000342029
0.000884409
0.000503559
0.000538844
0.000345923
0.000545792
-0.002275
0.0056718
-0.00335042
0.00210993
-0.00433726
0.00191383
-0.00515197
0.00162376
-0.00581283
0.00132414
-0.00631311
0.000996354
-0.00662946
0.000617984
-0.00672708
0.000169229
-0.00656593
-0.000365401
-0.00610647
-0.000987691
-0.00532886
-0.00165466
-0.00425536
-0.00228173
-0.002959
-0.00277058
-0.0016061
-0.00297855
-0.000499603
-0.00263678
0.00094852
-0.00144315
0.00114148
-0.000187368
0.00115766
0.000562195
0.000273314
0.00102879
-0.00104082
0.00134847
-0.00118666
0.00167237
-0.00096067
0.00192032
-0.000660803
0.00196813
-0.000256537
0.00197093
-8.36726e-05
0.00197585
-4.12071e-05
0.00197982
-2.35595e-05
0.0019809
-8.396e-06
0.00197867
9.17745e-06
0.00197134
3.88194e-05
0.00195349
9.84466e-05
0.00188573
0.000245481
0.00162782
0.00059997
0.00121625
0.000915236
0.000666752
0.00089561
0.00122836
-0.00161485
0.00756613
-0.00257429
0.00306932
-0.00347357
0.00281306
-0.00419459
0.00234474
-0.0047984
0.0019279
-0.00527879
0.00147671
-0.00560721
0.000946362
-0.00574426
0.000306244
-0.00564433
-0.000465372
-0.00526682
-0.00136525
-0.00460166
-0.00231987
-0.00368881
-0.00319464
-0.00260761
-0.00385182
-0.00148972
-0.00409645
-0.000538699
-0.00358777
0.000228379
-0.00221017
0.000448718
-0.000407733
0.001621
0.00159889
-0.0013107
0.00182928
-0.00127121
0.00180503
-0.00116241
0.00185798
-0.0010136
0.00209244
-0.000895226
0.00183609
0.00175261
0.00171159
0.00168821
0.00167999
0.00168933
0.00172831
0.00182692
0.00207256
0.00176143
0.000911111
0.00136693
0.0013098
0.000736605
0.00152605
0.00198872
-0.00114267
0.00906921
-0.00194037
0.00386697
-0.00256191
0.00343455
-0.00308449
0.00286727
-0.00356652
0.00240989
-0.003987
0.00189715
-0.00430686
0.00126619
-0.00447774
0.000477081
-0.00444104
-0.000502106
-0.00414732
-0.00165902
-0.00360621
-0.00286105
-0.00288109
-0.00391984
-0.00204102
-0.00469197
-0.00116905
-0.00496844
-0.000407057
-0.00434969
0.000210375
-0.00282751
0.000761517
-0.000958872
0.00213365
0.00024882
0.00250331
-0.000354989
0.00203162
-0.000839051
0.00185386
-0.00109349
0.00168565
-0.000994214
0.00151635
-0.000844288
0.00126358
-0.00064243
0.00154504
-0.000281567
0.00173407
-0.000189152
0.00192898
-0.000195025
0.00213705
-0.000208197
0.00233507
-0.000198157
0.00247881
-0.000143891
0.00250156
-2.28995e-05
0.0023294
0.000171994
0.00186988
0.000459355
0.0017497
0.0010313
0.00142864
0.00163089
0.000834568
0.00212019
0.0028541
-0.000793853
0.0102908
-0.0014302
0.00450326
-0.00160275
0.00360705
-0.00185542
0.00311989
-0.00217004
0.00272447
-0.0024899
0.00221697
-0.00276279
0.00153904
-0.00294187
0.000656136
-0.00295032
-0.000493693
-0.00272166
-0.00188773
-0.00231157
-0.00327122
-0.00180213
-0.00442941
-0.0012372
-0.005257
-0.000653992
-0.00555167
-0.000144777
-0.00485882
0.000343969
-0.00331614
0.000985617
-0.00160047
0.00176342
-0.000528996
0.0018813
-0.000472893
0.00172159
-0.000679376
0.00142217
-0.000794085
0.00116237
-0.000734413
0.00095179
-0.000633702
0.000829174
-0.000519793
0.000934805
-0.000387173
0.00110423
-0.00035856
0.0013029
-0.000393673
0.001522
-0.000427284
0.0017423
-0.000418453
0.00193108
-0.000332672
0.0020429
-0.000134731
0.00203214
0.00018274
0.00190395
0.000587535
0.00181056
0.00112468
0.00174802
0.00169343
0.0016369
0.00223135
0.00245758
0.00203348
0.00186582
0.000621878
0.00192002
-2.50957e-05
0.00202009
-0.000672885
0.0114467
-0.00110279
0.00493311
-0.000630369
0.00313459
-0.000512182
0.00300166
-0.000666219
0.00287847
-0.000895407
0.00244612
-0.00109245
0.00173606
-0.00123019
0.000793855
-0.00122196
-0.000501954
-0.00103157
-0.00207817
-0.000770503
-0.00353239
-0.000507176
-0.00469288
-0.000249767
-0.00551457
-3.22358e-06
-0.00579824
0.00019525
-0.00505719
0.000405717
-0.00352645
0.000681482
-0.00187614
0.000985513
-0.000832987
0.00102718
-0.000514549
0.000863679
-0.000515883
0.000610057
-0.000540469
0.000396151
-0.000520506
0.000259327
-0.000496867
0.000223042
-0.000483492
0.00031472
-0.000478835
0.0004754
-0.000519228
0.000664891
-0.000583154
0.000871646
-0.000634034
0.00108862
-0.000635427
0.00130442
-0.000548464
0.00150045
-0.000330772
0.00163394
4.92454e-05
0.00169822
0.000523242
0.00179235
0.00103054
0.00199619
0.00148958
0.00234513
0.00188242
0.00259562
0.00178302
0.00208941
0.00112812
0.00120383
0.000860508
0.00329691
-0.000889043
0.0128656
-0.00072617
0.00477018
0.000676931
0.00173143
0.00108606
0.00259249
0.000974128
0.00299036
0.000773533
0.00264668
0.000641918
0.00186764
0.000627872
0.000807872
0.000739243
-0.000613336
0.000878369
-0.00221734
0.000945874
-0.0036
0.000919822
-0.004667
0.000836226
-0.00543115
0.000719397
-0.00568143
0.000559324
-0.00489701
0.000392573
-0.00335952
0.00024155
-0.00172497
0.000176091
-0.000767454
9.7043e-05
-0.000435472
-4.31335e-05
-0.000375702
-0.000201899
-0.000381699
-0.000321781
-0.000400617
-0.000381144
-0.000437494
-0.000375572
-0.000489052
-0.000305359
-0.000549036
-0.000199057
-0.00062552
-7.49722e-05
-0.00070723
6.34887e-05
-0.000772487
0.000219394
-0.000791326
0.00040071
-0.000729776
0.000618215
-0.000548275
0.000867973
-0.000200515
0.00112016
0.000271051
0.00138974
0.000760938
0.00173241
0.0011469
0.00217846
0.00143637
0.00259602
0.00136547
0.00276326
0.000960887
0.00207219
0.00155159
0.00544082
0.00293527
0.0105192
0.00356811
0.00413729
0.00405332
0.00124617
0.00383477
0.002811
0.0033908
0.00343429
0.00301486
0.00302259
0.00281988
0.0020626
0.00287703
0.000750708
0.00304061
-0.00077693
0.00301145
-0.00218824
0.00276365
-0.00335233
0.00235381
-0.00425734
0.00189174
-0.00496926
0.00142122
-0.00521091
0.000853636
-0.00432929
0.000239173
-0.00274483
-0.000292304
-0.00119331
-0.000565904
-0.00049377
-0.000693131
-0.000308207
-0.000777533
-0.000291286
-0.00085586
-0.000303367
-0.000919236
-0.000337236
-0.000955811
-0.000400911
-0.000965129
-0.000479724
-0.000955219
-0.000558936
-0.000942258
-0.000638471
-0.000933614
-0.000715864
-0.000927428
-0.000778664
-0.000913235
-0.00080551
-0.000870652
-0.000772353
-0.000762105
-0.000656817
-0.000525285
-0.000437334
-0.000176646
-7.7592e-05
0.00022101
0.000363275
0.000643664
0.000724242
0.00107479
0.00100524
0.0013828
0.00105747
0.00144328
0.000900414
0.000628794
0.0023661
0.0064141
0.0111721
0.0153097
0.0140962
0.00245961
0.0121456
0.0047616
0.0103057
0.00527411
0.0088436
0.00448463
0.00783705
0.00306912
0.00709727
0.00149047
0.00634261
-2.23312e-05
0.00548194
-0.00132769
0.00451994
-0.0023905
0.0035222
-0.0032598
0.00265249
-0.00409974
0.00189173
-0.00445007
0.000904355
-0.00334175
-0.00017265
-0.00166753
-0.000885846
-0.000479958
-0.00119998
-0.000179556
-0.00129616
-0.000211994
-0.0013161
-0.000271331
-0.00135833
-0.000261143
-0.00142369
-0.000271873
-0.00148613
-0.000338461
-0.00154292
-0.000422922
-0.00161346
-0.000488388
-0.00171566
-0.00053626
-0.001854
-0.000577508
-0.00202649
-0.000606164
-0.00223051
-0.000601473
-0.00246591
-0.000536953
-0.00273687
-0.000385843
-0.00305269
-0.000121509
-0.00339844
0.000268166
-0.00381987
0.000784706
-0.00450938
0.00141377
-0.0056068
0.00210267
-0.00725908
0.00270978
-0.00931039
0.00295174
-0.00896623
0.00202197
-0.00217274
0.0136664
0.00550167
0.0114671
0.00696075
0.0099974
0.00674374
0.00905042
0.0054315
0.00838615
0.00373327
0.00785433
0.00202215
0.00720061
0.00063125
0.00623726
-0.000364508
0.00500781
-0.00116123
0.00369814
-0.00195029
0.00265128
-0.00305302
0.00177378
-0.00357231
0.000429008
-0.00199675
-0.000890229
-0.000347977
-0.00152273
0.00015267
-0.00177516
7.29331e-05
-0.00175771
-0.00022941
-0.00168187
-0.000347184
-0.00172782
-0.000215196
-0.00184518
-0.000154513
-0.00194198
-0.00024165
-0.00202145
-0.000343444
-0.0021354
-0.000374421
-0.00230925
-0.000362399
-0.00253852
-0.000348219
-0.00281177
-0.000332896
-0.00311558
-0.00029765
-0.00342858
-0.000223937
-0.00371596
-9.84544e-05
-0.00393591
9.84508e-05
-0.0040925
0.000424769
-0.00421361
0.000905833
-0.00433609
0.00153626
-0.00447736
0.00224396
-0.00459794
0.00283038
-0.00448641
0.00284024
-0.00280207
0.00033766
-0.0048777
-0.0024306
0.00798893
-0.000106351
0.00463645
0.00216456
0.00447273
0.00360351
0.00399245
0.00446754
0.00286913
0.00490638
0.00158319
0.00487239
0.00066511
0.00444449
6.32702e-05
0.0037255
-0.000442366
0.00277861
-0.00100352
0.00176592
-0.00204039
0.000448675
-0.00225449
-0.000962825
-0.000584889
-0.00177847
0.000467822
-0.00202771
0.000402
-0.00205828
0.000103561
-0.00199663
-0.000291045
-0.00197951
-0.000364313
-0.0020406
-0.000154123
-0.00213966
-5.54553e-05
-0.00223819
-0.000143107
-0.002339
-0.000242616
-0.00245957
-0.000253838
-0.00260335
-0.000218603
-0.00276455
-0.000187001
-0.0029358
-0.000161621
-0.00310724
-0.000126199
-0.00326346
-6.76915e-05
-0.00338442
2.25212e-05
-0.00342953
0.000143578
-0.00333597
0.000331232
-0.00305689
0.000626766
-0.00257658
0.00105597
-0.00192401
0.00159141
-0.000919663
0.00182606
0.000805406
0.0011152
0.00157589
-0.000432802
-0.00319492
-0.0182231
-0.0228625
-0.0148299
-0.010159
-0.0056554
-0.00163386
0.00126398
0.00287695
0.00357348
0.00367036
0.00326366
0.00229796
0.000297642
-0.00192285
-0.00248095
-0.00198837
-0.00156235
-0.00143453
-0.00170092
-0.00204058
-0.00217008
-0.00220083
-0.00231898
-0.00253642
-0.00276505
-0.00295858
-0.00312076
-0.00325795
-0.00336019
-0.00340451
-0.00335931
-0.00319385
-0.00284155
-0.00219457
-0.0011192
0.000490797
0.00233465
0.00346776
0.003054
)
;

boundaryField
{
    floor
    {
        type            calculated;
        value           nonuniform List<scalar> 
36
(
0
0
0
0
0
0
0
0
0
0
0
0
0
0
0
0
0
0
0
-6.64927e-06
-1.56043e-05
-2.36099e-05
-3.07031e-05
-3.00613e-05
-2.90429e-05
-2.85856e-05
-2.65368e-06
-4.94556e-06
-5.61212e-06
-6.46319e-06
-4.67813e-06
-9.77196e-06
-1.33875e-05
-1.46701e-05
-1.48659e-05
-1.47254e-05
)
;
    }
    ceiling
    {
        type            calculated;
        value           nonuniform List<scalar> 
43
(
-4.47094e-05
-4.42293e-05
-4.37895e-05
-3.44681e-05
-3.09299e-05
-2.91762e-05
-2.88124e-05
-2.98738e-05
-3.15255e-05
-3.37085e-05
-3.57583e-05
-3.79027e-05
-4.00695e-05
-3.28261e-05
-2.66802e-05
-2.46899e-05
-2.39334e-05
-2.41897e-05
-2.46286e-05
-2.46659e-05
-2.46227e-05
-2.47047e-05
-2.49446e-05
-2.5158e-05
-2.51941e-05
-2.50579e-05
-2.47931e-05
-2.44165e-05
-2.39335e-05
-2.33495e-05
-2.26601e-05
-2.18649e-05
-2.10374e-05
-2.01965e-05
-1.93736e-05
-1.85677e-05
-1.77726e-05
-1.78826e-05
-1.90149e-05
-1.95954e-05
1.78139e-06
-3.81293e-07
-5.66796e-05
)
;
    }
    sWall
    {
        type            calculated;
        value           uniform -0.000218198;
    }
    nWall
    {
        type            calculated;
        value           nonuniform List<scalar> 6(-7.14306e-05 -7.29471e-05 -7.16855e-05 -9.708e-05 -0.000106859 -0.000121303);
    }
    sideWalls
    {
        type            empty;
        value           nonuniform 0();
    }
    glass1
    {
        type            calculated;
        value           nonuniform List<scalar> 9(-6.7662e-05 -0.000182946 -0.000279541 -0.000360474 -0.000427783 -0.00048314 -0.000529873 -0.000588995 -0.000654709);
    }
    glass2
    {
        type            calculated;
        value           nonuniform List<scalar> 2(-0.00034446 -0.000379362);
    }
    sun
    {
        type            calculated;
        value           uniform 0;
    }
    Table_master
    {
        type            calculated;
        value           nonuniform List<scalar> 9(-1.54457e-07 -1.54581e-07 -1.54624e-07 -1.54651e-07 -1.54669e-07 -1.54677e-07 -1.5467e-07 -1.54642e-07 -1.54563e-07);
    }
    Table_slave
    {
        type            calculated;
        value           nonuniform List<scalar> 9(1.5449e-07 1.54453e-07 1.54376e-07 1.54293e-07 1.54216e-07 1.54161e-07 1.54152e-07 1.54156e-07 1.54225e-07);
    }
    inlet
    {
        type            calculated;
        value           uniform -0.0167085;
    }
    outlet
    {
        type            calculated;
        value           nonuniform List<scalar> 2(0.018486 0.00468363);
    }
}


// ************************************************************************* //
