/*--------------------------------*- C++ -*----------------------------------*\
  =========                 |
  \\      /  F ield         | OpenFOAM: The Open Source CFD Toolbox
   \\    /   O peration     | Website:  https://openfoam.org
    \\  /    A nd           | Version:  6
     \\/     M anipulation  |
\*---------------------------------------------------------------------------*/
FoamFile
{
    version     2.0;
    format      ascii;
    class       volScalarField;
    location    "2400";
    object      epsilon;
}
// * * * * * * * * * * * * * * * * * * * * * * * * * * * * * * * * * * * * * //

dimensions      [0 2 -3 0 0 0 0];

internalField   nonuniform List<scalar> 
458
(
0.000401881
0.000518011
0.000533378
0.000610842
0.000689254
0.000767343
0.000847323
0.000933611
0.00100892
0.00105601
0.00106228
0.00102004
0.000932297
0.000816365
0.000693558
2.98279e-05
5.73923e-05
7.7079e-05
7.25121e-05
6.42006e-05
5.31554e-05
4.32034e-05
3.53036e-05
2.91592e-05
2.43513e-05
2.05898e-05
1.7587e-05
1.51371e-05
1.30806e-05
1.12769e-05
9.59253e-06
8.69735e-06
6.69173e-06
0.00108402
0.00159992
0.000492375
0.000467813
0.000488338
0.000518811
0.000559655
0.000615127
0.000675524
0.000723901
0.000743756
0.000724107
0.000665948
0.000591709
0.000566381
0.000742191
0.000356966
0.000203722
4.93366e-05
9.75589e-05
9.41341e-05
8.16562e-05
6.87612e-05
6.16027e-05
4.88742e-05
3.8126e-05
2.98957e-05
2.36867e-05
1.90305e-05
1.55029e-05
1.28144e-05
1.08568e-05
9.68984e-06
9.20073e-06
2.42832e-05
1.63269e-05
0.00204808
0.00409725
0.000663229
0.000461264
0.000475893
0.000524594
0.000593041
0.000681653
0.000777087
0.000853273
0.000888386
0.000872367
0.000809048
0.000719418
0.00063659
0.00056442
0.000426733
0.000586404
0.000365487
0.000223598
0.000153815
0.000112276
8.96849e-05
0.000151335
0.000103003
7.2668e-05
5.32313e-05
4.03804e-05
3.16109e-05
2.54506e-05
2.10369e-05
1.78889e-05
1.38575e-05
1.18075e-05
4.49921e-05
2.61584e-05
0.00340122
0.00859502
0.00114451
0.000498629
0.000484368
0.000552311
0.000656287
0.000797529
0.000940043
0.0010399
0.00107787
0.00105218
0.000972036
0.00085732
0.000730843
0.000601256
0.000482206
0.00047911
0.000889078
0.000468044
0.00026451
0.000169788
0.000119669
9.64189e-05
0.00020372
0.000153167
0.000125346
0.00010825
9.58056e-05
8.44917e-05
7.396e-05
6.3907e-05
5.32584e-05
3.251e-05
2.11443e-05
6.79575e-05
3.75514e-05
0.00527981
0.0152072
0.00237978
0.000673494
0.000546568
0.000618192
0.000772372
0.00101413
0.00120857
0.0013103
0.00132769
0.00127253
0.00115986
0.00100492
0.00082755
0.000647427
0.000487897
0.000377637
0.000321843
0.000248336
0.000184838
0.000137415
0.000104546
8.37638e-05
7.8438e-05
7.28519e-05
6.89397e-05
6.57133e-05
6.20876e-05
5.72196e-05
5.14528e-05
4.59917e-05
4.10975e-05
3.38504e-05
2.63744e-05
4.73624e-05
7.01264e-05
8.55185e-05
0.000112043
0.000146481
0.00787712
0.0222902
0.00536718
0.00147994
0.000963414
0.000956063
0.00119538
0.00152303
0.00168485
0.00171745
0.00166934
0.00156168
0.0014002
0.00119149
0.000954352
0.000717418
0.000512957
0.000363672
0.000267968
0.000204151
0.000156104
0.000119378
9.36013e-05
7.76735e-05
7.10781e-05
7.02573e-05
7.16992e-05
7.31508e-05
7.31732e-05
7.03342e-05
6.32809e-05
5.42488e-05
4.58033e-05
3.81912e-05
3.26259e-05
3.82696e-05
5.70306e-05
7.22677e-05
0.000162127
0.000160828
0.0107866
0.0264067
0.0108044
0.00476764
0.00318504
0.00262904
0.00267492
0.00264224
0.00251132
0.00233977
0.00215467
0.00194887
0.00170458
0.00141651
0.00110307
0.000800193
0.000545424
0.000362697
0.000247985
0.000178784
0.000134261
0.000104043
8.51521e-05
7.57752e-05
7.43864e-05
7.83389e-05
8.45603e-05
9.13205e-05
9.74754e-05
0.000101326
0.000100195
8.9122e-05
7.7095e-05
6.70265e-05
6.21314e-05
6.67685e-05
8.77091e-05
0.000127797
0.000244066
0.000259355
0.0113397
0.0281546
0.0161562
0.0118077
0.00900789
0.00700818
0.00549874
0.00441159
0.00366949
0.00316325
0.00278275
0.002437
0.00206823
0.00166064
0.00124061
0.000855559
0.000544622
0.000334336
0.000212822
0.000145713
0.000110988
9.0986e-05
8.09592e-05
7.85652e-05
8.20309e-05
8.9676e-05
0.000100214
0.000113258
0.000128921
0.000147253
0.000167688
0.00018721
0.000194813
0.0002129
0.00025554
0.000367321
0.000614625
0.00100836
0.00302577
0.000992148
0.0103615
0.0169309
0.0141715
0.0107722
0.00833219
0.00664979
0.0055083
0.00477345
0.00428178
0.00388515
0.00347479
0.00299426
0.00243562
0.00183286
0.00126032
0.000789409
0.000439284
0.000247967
0.000160678
0.000117519
9.54263e-05
8.44263e-05
8.07064e-05
8.22479e-05
8.78363e-05
9.68434e-05
0.000109269
0.000125795
0.000147701
0.000176811
0.00021545
0.000266391
0.000334283
0.000428498
0.000568291
0.000757754
0.000977353
0.00118331
0.00135961
0.000857177
0.003706
0.00879015
0.00826244
0.00778357
0.00740186
0.0068539
0.00609132
0.00516149
0.00416326
0.00316905
0.00223004
0.00138909
0.000769466
0.000428745
0.000246103
0.000158631
0.000118952
0.00010017
9.14387e-05
8.7773e-05
8.69319e-05
8.80503e-05
9.10028e-05
9.59231e-05
0.000103347
0.000114214
0.000129902
0.000152358
0.000184316
0.000229511
0.000292343
0.000377244
0.000488026
0.000616191
0.000730241
0.000785917
0.000772545
0.000505242
0.0032202
0.00719511
0.00718079
0.00624811
0.00580358
0.0051754
0.00429607
0.00335659
0.00248365
0.00174487
0.00116113
0.000722748
0.000434911
0.000278042
0.00020185
0.00017031
0.000159865
0.000157595
0.000157317
0.000156578
0.000154482
0.000151519
0.000148903
0.000147299
0.000147537
0.000150651
0.00015794
0.000171144
0.000192686
0.000226386
0.000276267
0.000346112
0.000436659
0.000540195
0.000624764
0.000719226
0.000712375
0.000538635
0.0019504
0.0024615
0.00287813
0.00363434
0.00353997
0.00333684
0.00309135
0.002699
0.00223404
0.00178519
0.00137439
0.00101178
0.000712395
0.0004844
0.00032908
0.000234741
0.000180389
0.000148914
0.000129999
0.000117997
0.000110048
0.000104704
0.000101786
0.000101284
0.000102673
0.000106282
0.00011254
0.000121991
0.000135389
0.000153927
0.000179729
0.000213099
0.000255024
0.000307591
0.000372658
0.00045662
0.000497843
0.000466154
0.000383935
0.000314063
)
;

boundaryField
{
    floor
    {
        Cmu             0.09;
        kappa           0.41;
        E               9.8;
        type            epsilonWallFunction;
        value           nonuniform List<scalar> 
36
(
0.000693558
2.98279e-05
5.73923e-05
7.7079e-05
7.25121e-05
6.42006e-05
5.31554e-05
4.32034e-05
3.53036e-05
2.91592e-05
2.43513e-05
2.05898e-05
1.7587e-05
1.51371e-05
1.30806e-05
1.12769e-05
9.59253e-06
8.69735e-06
6.69173e-06
6.69173e-06
1.63269e-05
2.61584e-05
3.75514e-05
8.55185e-05
0.000112043
0.000146481
0.000693558
0.000742191
0.000356966
0.000203722
2.98279e-05
0.000203722
4.93366e-05
0.000586404
0.000365487
0.000889078
)
;
    }
    ceiling
    {
        Cmu             0.09;
        kappa           0.41;
        E               9.8;
        type            epsilonWallFunction;
        value           nonuniform List<scalar> 
43
(
0.0019504
0.0024615
0.00287813
0.00363434
0.00353997
0.00333684
0.00309135
0.002699
0.00223404
0.00178519
0.00137439
0.00101178
0.000712395
0.0004844
0.00032908
0.000234741
0.000180389
0.000148914
0.000129999
0.000117997
0.000110048
0.000104704
0.000101786
0.000101284
0.000102673
0.000106282
0.00011254
0.000121991
0.000135389
0.000153927
0.000179729
0.000213099
0.000255024
0.000307591
0.000372658
0.00045662
0.000497843
0.000466154
0.000383935
0.000314063
0.0103615
0.0169309
0.0032202
)
;
    }
    sWall
    {
        Cmu             0.09;
        kappa           0.41;
        E               9.8;
        type            epsilonWallFunction;
        value           uniform 0.0019504;
    }
    nWall
    {
        Cmu             0.09;
        kappa           0.41;
        E               9.8;
        type            epsilonWallFunction;
        value           nonuniform List<scalar> 6(0.000146481 0.000160828 0.000259355 0.000505242 0.000538635 0.000314063);
    }
    sideWalls
    {
        type            empty;
    }
    glass1
    {
        Cmu             0.09;
        kappa           0.41;
        E               9.8;
        type            epsilonWallFunction;
        value           nonuniform List<scalar> 9(0.000401881 0.00108402 0.00204808 0.00340122 0.00527981 0.00787712 0.0107866 0.0113397 0.0103615);
    }
    glass2
    {
        Cmu             0.09;
        kappa           0.41;
        E               9.8;
        type            epsilonWallFunction;
        value           nonuniform List<scalar> 2(0.000992148 0.000857177);
    }
    sun
    {
        Cmu             0.09;
        kappa           0.41;
        E               9.8;
        type            epsilonWallFunction;
        value           nonuniform List<scalar> 
14
(
0.000401881
0.000518011
0.000533378
0.000610842
0.000689254
0.000767343
0.000847323
0.000933611
0.00100892
0.00105601
0.00106228
0.00102004
0.000932297
0.000816365
)
;
    }
    Table_master
    {
        Cmu             0.09;
        kappa           0.41;
        E               9.8;
        type            epsilonWallFunction;
        value           nonuniform List<scalar> 9(0.000151335 0.000103003 7.2668e-05 5.32313e-05 4.03804e-05 3.16109e-05 2.54506e-05 2.10369e-05 1.78889e-05);
    }
    Table_slave
    {
        Cmu             0.09;
        kappa           0.41;
        E               9.8;
        type            epsilonWallFunction;
        value           nonuniform List<scalar> 9(0.00020372 0.000153167 0.000125346 0.00010825 9.58056e-05 8.44917e-05 7.396e-05 6.3907e-05 5.32584e-05);
    }
    inlet
    {
        type            turbulentMixingLengthDissipationRateInlet;
        mixingLength    0.01;
        phi             phi;
        k               k;
        value           uniform 0.000101881;
    }
    outlet
    {
        type            zeroGradient;
    }
}


// ************************************************************************* //
