// -*- C++ -*-
// File generated by PyFoam - sorry for the ugliness

FoamFile
{
 version 2.0;
 format ascii;
 class volScalarField;
 location "2400";
 object T;
}

dimensions [ 0 0 0 1 0 0 0 ];

internalField nonuniform List<scalar> 458
(
  303.723
  303.464
  303.452
  303.45
  303.448
  303.446
  303.443
  303.439
  303.434
  303.427
  303.417
  303.407
  303.398
  303.391
  303.388
  303.425
  303.411
  303.409
  303.41
  303.411
  303.411
  303.411
  303.411
  303.411
  303.41
  303.41
  303.409
  303.408
  303.408
  303.407
  303.405
  303.404
  303.415
  303.898
  303.505
  303.48
  303.484
  303.488
  303.491
  303.491
  303.489
  303.481
  303.468
  303.448
  303.427
  303.406
  303.39
  303.38
  303.379
  303.384
  303.397
  303.421
  303.407
  303.406
  303.407
  303.409
  303.407
  303.404
  303.402
  303.398
  303.395
  303.392
  303.389
  303.386
  303.383
  303.382
  303.381
  303.382
  303.401
  304.079
  303.554
  303.511
  303.519
  303.532
  303.543
  303.551
  303.553
  303.545
  303.524
  303.491
  303.455
  303.421
  303.396
  303.38
  303.373
  303.373
  303.38
  303.399
  303.402
  303.408
  303.415
  303.42
  303.417
  303.413
  303.408
  303.404
  303.4
  303.395
  303.391
  303.386
  303.382
  303.38
  303.378
  303.376
  303.395
  304.259
  303.616
  303.542
  303.552
  303.575
  303.598
  303.618
  303.629
  303.621
  303.59
  303.54
  303.484
  303.436
  303.4
  303.38
  303.372
  303.372
  303.376
  303.384
  303.393
  303.406
  303.42
  303.432
  303.441
  303.448
  303.454
  303.458
  303.463
  303.466
  303.468
  303.468
  303.468
  303.467
  303.439
  303.411
  303.39
  303.395
  304.432
  303.696
  303.585
  303.585
  303.613
  303.647
  303.682
  303.705
  303.696
  303.65
  303.581
  303.505
  303.443
  303.4
  303.376
  303.369
  303.372
  303.38
  303.393
  303.408
  303.425
  303.442
  303.457
  303.469
  303.479
  303.486
  303.492
  303.497
  303.5
  303.5
  303.498
  303.494
  303.486
  303.467
  303.438
  303.409
  303.398
  303.455
  303.518
  303.523
  304.587
  303.801
  303.665
  303.642
  303.663
  303.7
  303.746
  303.771
  303.747
  303.683
  303.596
  303.509
  303.437
  303.39
  303.367
  303.364
  303.373
  303.389
  303.408
  303.43
  303.451
  303.471
  303.487
  303.499
  303.509
  303.516
  303.521
  303.525
  303.526
  303.525
  303.52
  303.513
  303.502
  303.486
  303.461
  303.431
  303.412
  303.432
  303.452
  303.485
  304.731
  303.967
  303.839
  303.8
  303.795
  303.81
  303.839
  303.828
  303.769
  303.675
  303.57
  303.474
  303.402
  303.361
  303.348
  303.356
  303.378
  303.405
  303.434
  303.461
  303.484
  303.504
  303.519
  303.53
  303.537
  303.543
  303.546
  303.548
  303.547
  303.544
  303.538
  303.528
  303.516
  303.5
  303.479
  303.453
  303.434
  303.434
  303.441
  303.466
  304.942
  304.371
  304.235
  304.14
  304.068
  304.019
  303.955
  303.853
  303.723
  303.587
  303.467
  303.378
  303.328
  303.313
  303.325
  303.356
  303.395
  303.435
  303.47
  303.5
  303.521
  303.536
  303.548
  303.555
  303.56
  303.563
  303.564
  303.564
  303.562
  303.558
  303.552
  303.544
  303.531
  303.517
  303.501
  303.484
  303.472
  303.473
  303.486
  303.607
  305.243
  304.975
  304.691
  304.425
  304.206
  304.016
  303.831
  303.622
  303.436
  303.302
  303.227
  303.204
  303.221
  303.265
  303.322
  303.38
  303.438
  303.483
  303.514
  303.536
  303.552
  303.563
  303.57
  303.575
  303.577
  303.579
  303.578
  303.577
  303.575
  303.573
  303.571
  303.57
  303.571
  303.575
  303.586
  303.603
  303.63
  303.658
  303.681
  303.736
  295.258
  298.428
  300.135
  300.934
  301.445
  301.898
  302.283
  302.597
  302.843
  303.032
  303.18
  303.302
  303.395
  303.457
  303.501
  303.531
  303.551
  303.566
  303.575
  303.582
  303.586
  303.589
  303.591
  303.592
  303.593
  303.594
  303.594
  303.596
  303.597
  303.599
  303.603
  303.609
  303.62
  303.635
  303.655
  303.676
  303.694
  303.712
  296.632
  299.305
  300.818
  301.503
  301.97
  302.362
  302.674
  302.915
  303.098
  303.235
  303.338
  303.418
  303.476
  303.516
  303.544
  303.562
  303.575
  303.583
  303.589
  303.592
  303.595
  303.598
  303.6
  303.602
  303.604
  303.606
  303.608
  303.61
  303.612
  303.614
  303.617
  303.622
  303.63
  303.641
  303.654
  303.67
  303.666
  303.694
  299.993
  299.898
  299.893
  301.705
  302.289
  302.586
  302.818
  303.014
  303.166
  303.279
  303.364
  303.427
  303.475
  303.511
  303.536
  303.553
  303.563
  303.57
  303.575
  303.578
  303.581
  303.583
  303.586
  303.589
  303.592
  303.595
  303.599
  303.602
  303.605
  303.608
  303.611
  303.614
  303.617
  303.621
  303.627
  303.635
  303.643
  303.648
  303.649
  303.687
)
;

boundaryField
{
  floor
  {
    type wallHeatTransfer;
    Tinf uniform 305.2;
    alphaWall uniform 0.24;
    value nonuniform List<scalar> 36
(
  303.559
  303.779
  303.72
  303.698
  303.703
  303.712
  303.725
  303.74
  303.755
  303.769
  303.783
  303.796
  303.808
  303.82
  303.832
  303.844
  303.857
  303.865
  303.897
  303.897
  303.808
  303.765
  303.738
  303.73
  303.767
  303.756
  303.559
  303.548
  303.587
  303.628
  303.779
  303.628
  303.739
  303.559
  303.599
  303.545
)
;
  }
  ceiling
  {
    type wallHeatTransfer;
    Tinf uniform 303.2;
    alphaWall uniform 0.24;
    value nonuniform List<scalar> 43
(
  300.222
  300.12
  300.105
  301.796
  302.345
  302.625
  302.842
  303.026
  303.168
  303.273
  303.351
  303.408
  303.45
  303.479
  303.498
  303.509
  303.515
  303.519
  303.521
  303.523
  303.524
  303.526
  303.528
  303.53
  303.533
  303.536
  303.54
  303.543
  303.548
  303.552
  303.557
  303.562
  303.567
  303.573
  303.579
  303.589
  303.598
  303.601
  303.6
  303.631
  305.15
  304.904
  297.038
)
;
  }
  sWall
  {
    type wallHeatTransfer;
    Tinf uniform 315.2;
    alphaWall uniform 0.36;
    value uniform 301.57;
  }
  nWall
  {
    type wallHeatTransfer;
    Tinf uniform 307.2;
    alphaWall uniform 0.36;
    value nonuniform List<scalar> 6
(
  304.24
  304.195
  304.105
  304.222
  304.199
  304.263
)
;
  }
  sideWalls
  {
    type empty;
  }
  glass1
  {
    type wallHeatTransfer;
    Tinf uniform 315.2;
    alphaWall uniform 4.3;
    value nonuniform List<scalar> 9
(
  311.643
  310.98
  310.562
  310.243
  309.979
  309.744
  309.578
  309.655
  309.885
)
;
  }
  glass2
  {
    type wallHeatTransfer;
    Tinf uniform 307.2;
    alphaWall uniform 4.3;
    value nonuniform List<scalar> 2
(
  305.868
  305.949
)
;
  }
  sun
  {
    type wallHeatTransfer;
    Tinf uniform 305.2;
    alphaWall uniform 0.24;
    value nonuniform List<scalar> 14
(
  303.883
  303.64
  303.629
  303.621
  303.614
  303.607
  303.6
  303.593
  303.585
  303.577
  303.568
  303.56
  303.555
  303.555
)
;
  }
  Table_master
  {
    type zeroGradient;
  }
  Table_slave
  {
    type zeroGradient;
  }
  inlet
  {
    type fixedValue;
    value uniform 292.15;
  }
  outlet
  {
    type zeroGradient;
  }
} 	// ************************************************************************* //

