// -*- C++ -*-
// File generated by PyFoam - sorry for the ugliness

FoamFile
{
 version 2.0;
 format ascii;
 class volScalarField;
 location "1800";
 object T;
}

dimensions [ 0 0 0 1 0 0 0 ];

internalField nonuniform List<scalar> 458
(
  304.164
  303.903
  303.893
  303.891
  303.89
  303.888
  303.886
  303.884
  303.881
  303.877
  303.87
  303.862
  303.851
  303.841
  303.833
  303.842
  303.823
  303.821
  303.821
  303.82
  303.82
  303.82
  303.82
  303.819
  303.819
  303.818
  303.818
  303.817
  303.816
  303.816
  303.814
  303.813
  303.819
  304.352
  303.94
  303.92
  303.924
  303.928
  303.932
  303.934
  303.934
  303.932
  303.926
  303.914
  303.895
  303.872
  303.848
  303.827
  303.816
  303.812
  303.815
  303.825
  303.819
  303.818
  303.817
  303.817
  303.815
  303.813
  303.81
  303.807
  303.805
  303.802
  303.8
  303.797
  303.796
  303.795
  303.795
  303.795
  303.808
  304.541
  303.985
  303.948
  303.958
  303.972
  303.984
  303.994
  304
  304.002
  303.996
  303.978
  303.948
  303.909
  303.87
  303.837
  303.816
  303.806
  303.806
  303.815
  303.817
  303.82
  303.823
  303.824
  303.821
  303.817
  303.814
  303.81
  303.806
  303.802
  303.798
  303.795
  303.792
  303.79
  303.788
  303.788
  303.802
  304.726
  304.042
  303.975
  303.989
  304.011
  304.035
  304.056
  304.073
  304.082
  304.077
  304.053
  304.008
  303.951
  303.893
  303.847
  303.817
  303.804
  303.802
  303.807
  303.812
  303.82
  303.827
  303.832
  303.836
  303.837
  303.837
  303.837
  303.837
  303.836
  303.834
  303.833
  303.83
  303.827
  303.812
  303.798
  303.789
  303.799
  304.899
  304.115
  304.006
  304.012
  304.04
  304.071
  304.104
  304.133
  304.153
  304.154
  304.123
  304.062
  303.986
  303.912
  303.853
  303.815
  303.801
  303.801
  303.808
  303.818
  303.829
  303.839
  303.846
  303.85
  303.852
  303.853
  303.852
  303.851
  303.849
  303.846
  303.843
  303.838
  303.832
  303.821
  303.807
  303.793
  303.795
  303.842
  303.889
  303.893
  305.049
  304.211
  304.067
  304.042
  304.061
  304.092
  304.128
  304.166
  304.202
  304.21
  304.172
  304.095
  304.004
  303.917
  303.85
  303.81
  303.796
  303.799
  303.812
  303.827
  303.842
  303.853
  303.861
  303.864
  303.866
  303.866
  303.865
  303.863
  303.86
  303.855
  303.85
  303.843
  303.836
  303.826
  303.813
  303.799
  303.795
  303.817
  303.832
  303.862
  305.176
  304.368
  304.226
  304.156
  304.133
  304.137
  304.16
  304.193
  304.234
  304.236
  304.186
  304.098
  303.997
  303.903
  303.834
  303.797
  303.788
  303.799
  303.819
  303.841
  303.857
  303.868
  303.874
  303.877
  303.878
  303.877
  303.875
  303.873
  303.869
  303.863
  303.856
  303.847
  303.839
  303.829
  303.818
  303.806
  303.799
  303.806
  303.813
  303.836
  305.377
  304.777
  304.622
  304.486
  304.379
  304.317
  304.292
  304.295
  304.294
  304.252
  304.167
  304.056
  303.946
  303.856
  303.797
  303.773
  303.779
  303.803
  303.832
  303.857
  303.872
  303.881
  303.886
  303.888
  303.888
  303.888
  303.886
  303.883
  303.879
  303.874
  303.867
  303.858
  303.848
  303.84
  303.831
  303.823
  303.819
  303.825
  303.84
  303.958
  305.66
  305.394
  305.096
  304.862
  304.685
  304.557
  304.469
  304.406
  304.324
  304.2
  304.061
  303.932
  303.832
  303.767
  303.739
  303.746
  303.776
  303.816
  303.851
  303.872
  303.884
  303.891
  303.895
  303.897
  303.899
  303.899
  303.898
  303.897
  303.895
  303.893
  303.891
  303.892
  303.896
  303.903
  303.917
  303.937
  303.965
  303.993
  304.016
  304.066
  296.676
  301.133
  302.72
  303.311
  303.568
  303.667
  303.696
  303.694
  303.671
  303.647
  303.64
  303.653
  303.686
  303.737
  303.795
  303.84
  303.866
  303.882
  303.891
  303.898
  303.902
  303.906
  303.91
  303.912
  303.914
  303.916
  303.918
  303.92
  303.922
  303.926
  303.93
  303.938
  303.95
  303.967
  303.986
  304.006
  304.02
  304.032
  297.635
  301.024
  302.185
  302.829
  303.157
  303.313
  303.378
  303.418
  303.445
  303.49
  303.558
  303.629
  303.704
  303.779
  303.825
  303.856
  303.874
  303.885
  303.893
  303.9
  303.906
  303.911
  303.916
  303.921
  303.925
  303.929
  303.932
  303.935
  303.938
  303.942
  303.946
  303.952
  303.96
  303.971
  303.984
  303.998
  303.993
  304.016
  300.26
  300.172
  300.166
  302.06
  302.604
  302.928
  303.149
  303.272
  303.315
  303.344
  303.38
  303.511
  303.68
  303.749
  303.792
  303.823
  303.842
  303.855
  303.864
  303.871
  303.877
  303.883
  303.889
  303.895
  303.9
  303.906
  303.911
  303.916
  303.921
  303.926
  303.931
  303.936
  303.941
  303.946
  303.953
  303.961
  303.97
  303.974
  303.972
  304.009
)
;

boundaryField
{
  floor
  {
    type wallHeatTransfer;
    Tinf uniform 305.2;
    alphaWall uniform 0.24;
    value nonuniform List<scalar> 36
(
  303.981
  304.132
  304.072
  304.072
  304.077
  304.083
  304.091
  304.099
  304.107
  304.115
  304.123
  304.13
  304.137
  304.143
  304.15
  304.157
  304.165
  304.173
  304.196
  304.196
  304.143
  304.113
  304.091
  304.074
  304.093
  304.085
  303.981
  303.962
  303.975
  303.997
  304.132
  303.997
  304.042
  303.958
  303.996
  303.961
)
;
  }
  ceiling
  {
    type wallHeatTransfer;
    Tinf uniform 303.2;
    alphaWall uniform 0.24;
    value nonuniform List<scalar> 43
(
  300.46
  300.365
  300.349
  302.125
  302.64
  302.945
  303.152
  303.267
  303.306
  303.331
  303.362
  303.476
  303.626
  303.689
  303.727
  303.753
  303.767
  303.776
  303.782
  303.787
  303.792
  303.796
  303.8
  303.804
  303.807
  303.811
  303.814
  303.818
  303.822
  303.828
  303.834
  303.841
  303.848
  303.856
  303.865
  303.876
  303.886
  303.889
  303.884
  303.913
  305.543
  305.304
  297.948
)
;
  }
  sWall
  {
    type wallHeatTransfer;
    Tinf uniform 315.2;
    alphaWall uniform 0.36;
    value uniform 301.743;
  }
  nWall
  {
    type wallHeatTransfer;
    Tinf uniform 307.2;
    alphaWall uniform 0.36;
    value nonuniform List<scalar> 6
(
  304.571
  304.537
  304.474
  304.505
  304.481
  304.548
)
;
  }
  sideWalls
  {
    type empty;
  }
  glass1
  {
    type wallHeatTransfer;
    Tinf uniform 315.2;
    alphaWall uniform 4.3;
    value nonuniform List<scalar> 9
(
  312.219
  311.543
  311.095
  310.736
  310.434
  310.167
  309.949
  309.998
  310.197
)
;
  }
  glass2
  {
    type wallHeatTransfer;
    Tinf uniform 307.2;
    alphaWall uniform 4.3;
    value nonuniform List<scalar> 2
(
  306.064
  306.118
)
;
  }
  sun
  {
    type wallHeatTransfer;
    Tinf uniform 305.2;
    alphaWall uniform 0.24;
    value nonuniform List<scalar> 14
(
  304.297
  304.062
  304.054
  304.048
  304.042
  304.038
  304.033
  304.028
  304.023
  304.017
  304.01
  304.002
  303.994
  303.987
)
;
  }
  Table_master
  {
    type zeroGradient;
  }
  Table_slave
  {
    type zeroGradient;
  }
  inlet
  {
    type fixedValue;
    value uniform 292.15;
  }
  outlet
  {
    type zeroGradient;
  }
} 	// ************************************************************************* //

