/*--------------------------------*- C++ -*----------------------------------*\
  =========                 |
  \\      /  F ield         | OpenFOAM: The Open Source CFD Toolbox
   \\    /   O peration     | Website:  https://openfoam.org
    \\  /    A nd           | Version:  6
     \\/     M anipulation  |
\*---------------------------------------------------------------------------*/
FoamFile
{
    version     2.0;
    format      ascii;
    class       surfaceScalarField;
    location    "2400";
    object      phi;
}
// * * * * * * * * * * * * * * * * * * * * * * * * * * * * * * * * * * * * * //

dimensions      [1 0 -1 0 0 0 0];

internalField   nonuniform List<scalar> 
850
(
-0.00217704
0.00220629
-0.00269788
0.000521179
-0.00281153
0.000113994
-0.0027778
-3.33832e-05
-0.00257799
-0.000199469
-0.00224157
-0.000336068
-0.00188766
-0.000353575
-0.00156446
-0.000322867
-0.00128808
-0.00027606
-0.00106062
-0.000227142
-0.000876776
-0.000183532
-0.000724483
-0.00015199
-0.000590136
-0.000134045
-0.000445542
-0.000144286
-0.000450303
0.000116593
-0.000119642
-9.64138e-05
0.000213176
-0.000173542
7.72898e-05
-0.000177367
3.98394e-06
-0.000112159
-6.50242e-05
2.96527e-05
-0.000141595
0.000250085
-0.00022016
0.000408146
-0.000157806
0.000519338
-0.000110955
0.00059698
-7.74203e-05
0.000651379
-5.41878e-05
0.00069575
-4.41686e-05
0.000729415
-3.34621e-05
0.000720528
9.08282e-06
0.000584822
0.000135896
0.000362693
0.000222316
-5.28504e-05
0.00041573
-5.58372e-05
-0.000374169
0.00265766
-0.00107001
0.00121739
-0.00161256
0.000656918
-0.002059
0.000413428
-0.00213688
-0.000121209
-0.00191311
-0.000559468
-0.00167761
-0.000588696
-0.00145249
-0.000547616
-0.00126414
-0.000464034
-0.00112054
-0.000370385
-0.00102294
-0.000280773
-0.000970468
-0.000204108
-0.000948724
-0.000155434
-0.000920327
-0.000172317
-0.00101767
-0.000352571
-0.000594104
-0.000432337
-7.30167e-05
-0.000529634
-9.49778e-05
-8.49331e-05
-4.34127e-05
8.90691e-05
3.93923e-05
5.22277e-05
0.000114361
-6.51583e-05
0.000121613
-0.000336773
0.00020684
-0.000105867
-0.000372234
2.91526e-05
-0.00035493
8.20034e-05
-0.000210402
0.000108205
-0.000136907
0.000121694
-9.06678e-05
0.000122775
-5.50362e-05
0.000101365
-2.25347e-05
5.35115e-05
1.46052e-05
1.00541e-05
5.27639e-05
-1.81663e-05
0.000164346
-1.18836e-05
0.000216262
4.34896e-05
0.000360586
-2.12114e-05
0.00381797
-0.00107556
0.00367475
0.00136113
0.00227823
0.00205388
0.000639912
0.00205213
-0.000759734
0.00127871
-0.00133929
2.04497e-05
-0.0013347
-0.000592881
-0.00123314
-0.000648765
-0.00114044
-0.000556331
-0.00107474
-0.000435688
-0.00103257
-0.000322549
-0.00100329
-0.000232991
-0.000970359
-0.000187968
-0.000917824
-0.000224446
-0.000889516
-0.000380458
-0.00070593
-0.000615488
-0.000453981
-0.000781142
-0.000570128
-0.0004924
0.000432948
-0.000434206
-1.84512e-05
-0.0002988
-2.07083e-05
-0.000148418
-2.84492e-05
0.000151111
-9.23867e-05
-0.000220617
-0.00057519
-0.000785203
-0.000921697
-0.00101194
-0.00106654
-0.00108863
-0.00107358
-0.00102037
-0.000752956
-0.000102756
-0.000488498
-4.79001e-05
0.000110055
-0.000237669
7.20671e-05
0.0020945
-0.00315106
0.00291075
0.000545166
0.00250611
0.00245871
0.00148037
0.00307806
0.000248247
0.00251105
-0.000702477
0.000971452
-0.000947036
-0.0003479
-0.000985127
-0.000610232
-0.00100529
-0.000535726
-0.00104579
-0.000394753
-0.00110799
-0.000259921
-0.00118711
-0.000153429
-0.0012801
-9.45439e-05
-0.00139635
-0.000107745
-0.00157107
-0.000205282
-0.00183303
-0.000353063
-0.0021625
-0.000451209
-0.00224697
-0.000485202
-0.00212585
-0.000145568
-0.00172695
3.4482e-05
-0.00174861
3.66068e-06
-0.0018188
4.99494e-05
-0.0019037
5.69463e-05
-0.00203961
4.40335e-05
-0.00207765
3.84167e-05
-0.00208135
4.09067e-06
-0.00205936
-2.1604e-05
-0.00201997
-3.90072e-05
-0.00196807
-5.15044e-05
-0.00190587
-6.18098e-05
-0.00183204
-7.34489e-05
-0.00173772
-9.39338e-05
-0.00159619
-0.000141151
-0.00144048
-0.000257952
-0.00108435
-0.000403515
-0.000745646
-0.000575852
-0.00070131
0.00167996
-0.00481947
0.00272369
-0.000498131
0.00257038
0.00261226
0.00172129
0.00392733
0.00072635
0.00350619
-0.000135869
0.00183393
-0.000575149
9.17921e-05
-0.000727811
-0.000457095
-0.000852522
-0.00041054
-0.000981202
-0.000265601
-0.00111015
-0.000130492
-0.00123483
-2.8266e-05
-0.00135499
2.61073e-05
-0.00148249
2.0258e-05
-0.00163936
-4.79088e-05
-0.00184156
-0.000150347
-0.00206089
-0.000231349
-0.00229222
-0.000253347
-0.00227569
-0.000161567
-0.00219931
-4.13707e-05
-0.00219244
-2.6678e-06
-0.00217717
3.52193e-05
-0.00216547
4.57992e-05
-0.00215759
3.67123e-05
-0.00213304
1.44312e-05
-0.00211027
-1.81131e-05
-0.00208457
-4.67368e-05
-0.00205573
-6.72757e-05
-0.00202682
-7.98414e-05
-0.00200277
-8.52795e-05
-0.00198991
-8.57244e-05
-0.0019957
-8.75563e-05
-0.00203182
-0.00010443
-0.00214036
-0.000148811
-0.00231969
-0.000223579
-0.0025476
-0.000347315
-0.00264053
-0.000607744
-0.00210033
-0.000566975
-0.00165754
-0.000469077
-0.00171629
0.001343
-0.00615278
0.00267223
-0.00182661
0.00255507
0.00272992
0.00167584
0.00480691
0.00081265
0.00436967
0.000242614
0.00240431
-0.000204988
0.000539853
-0.000481654
-0.000179913
-0.000706872
-0.000184809
-0.000901789
-7.01676e-05
-0.00106123
2.94797e-05
-0.00118673
9.77588e-05
-0.00129184
0.000131765
-0.00139708
0.00012604
-0.00152161
7.71823e-05
-0.00167033
-1.06693e-06
-0.00182702
-7.40908e-05
-0.00197347
-0.000106319
-0.00204492
-8.95428e-05
-0.00204319
-4.25188e-05
-0.00203
-1.52779e-05
-0.00199865
4.46202e-06
-0.00196059
8.31852e-06
-0.00192045
-2.8311e-06
-0.00187974
-2.56889e-05
-0.0018417
-5.55564e-05
-0.00180296
-8.48827e-05
-0.00175968
-0.000109957
-0.00170945
-0.000129463
-0.00165084
-0.000143288
-0.00158309
-0.000152862
-0.00150729
-0.00016274
-0.00143034
-0.00018077
-0.0013662
-0.000212331
-0.00132845
-0.000260701
-0.00132745
-0.000347671
-0.00141694
-0.00051761
-0.00126901
-0.000714254
-0.000934987
-0.000802441
-0.00268385
0.000849815
-0.00699405
0.00219459
-0.00317055
0.00217683
0.00274836
0.00112686
0.0058574
0.000471023
0.00502594
0.000219941
0.00265583
-3.31317e-05
0.000793453
-0.00034105
0.000128569
-0.000602459
7.71684e-05
-0.00079389
0.000121832
-0.00091947
0.00015563
-0.000994128
0.000172995
-0.0010406
0.000178821
-0.00108278
0.000168815
-0.00114174
0.000136743
-0.00122691
8.47137e-05
-0.001326
2.56203e-05
-0.00141451
-1.71856e-05
-0.00147098
-3.24523e-05
-0.00148501
-2.78684e-05
-0.00147685
-2.28139e-05
-0.00145132
-2.04335e-05
-0.00141653
-2.58529e-05
-0.00137876
-3.99712e-05
-0.00134178
-6.20457e-05
-0.00130702
-8.96878e-05
-0.00127234
-0.000118946
-0.00123423
-0.000147436
-0.00118895
-0.000174117
-0.00113265
-0.000198963
-0.00106156
-0.000223321
-0.000972872
-0.000250794
-0.000865633
-0.000287374
-0.000737778
-0.000339549
-0.000583385
-0.000414451
-0.000407399
-0.000523011
-0.000262
-0.000662358
-0.000163568
-0.000812031
4.24102e-05
-0.00100776
-0.00267536
-0.000893976
-0.00609268
0.000508927
-0.00457258
0.00114947
0.0021086
-0.000266007
0.00727354
-0.00039649
0.00515688
-0.000217762
0.00247758
-0.000235339
0.000811637
-0.000404605
0.000298465
-0.000530353
0.000203529
-0.000585651
0.000177742
-0.000589091
0.000159692
-0.000561487
0.000146024
-0.000519632
0.000137608
-0.000481919
0.000131752
-0.000463218
0.000118698
-0.000471026
9.31806e-05
-0.000503875
5.9132e-05
-0.000545981
2.55858e-05
-0.000577994
2.25871e-07
-0.000589957
-1.52379e-05
-0.000586919
-2.5186e-05
-0.000572047
-3.46411e-05
-0.00055027
-4.6968e-05
-0.000525987
-6.35936e-05
-0.000502464
-8.49107e-05
-0.000481583
-0.000109912
-0.000462774
-0.0001371
-0.000443715
-0.000165842
-0.000421029
-0.000196149
-0.000390626
-0.000228713
-0.000347909
-0.000265384
-0.000288064
-0.000309985
-0.000205579
-0.000369204
-9.09905e-05
-0.00045348
7.35017e-05
-0.000578284
0.000316462
-0.000765309
0.000687847
-0.00103308
0.00122016
-0.00134368
0.00167058
-0.0014575
-0.00125717
-0.00612774
-0.0107321
-0.00559549
-0.00302709
-0.00303053
0.00470925
-0.00169595
0.0038228
-0.000926761
0.00170899
-0.000563496
0.000449074
-0.000363829
9.94802e-05
-0.000174532
1.48931e-05
8.426e-06
-4.55231e-06
0.000173376
-4.56744e-06
0.000315819
4.27725e-06
0.000437167
1.69645e-05
0.000529674
3.9958e-05
0.000592461
5.66247e-05
0.000628505
5.78506e-05
0.000640598
4.77509e-05
0.000635449
3.14447e-05
0.000622584
1.37989e-05
0.000611112
-3.05925e-06
0.000604682
-1.80521e-05
0.000603655
-3.29128e-05
0.000606058
-4.86731e-05
0.000609415
-6.62563e-05
0.000611638
-8.64417e-05
0.000610507
-0.000108094
0.000605267
-0.000131174
0.000596983
-0.000156874
0.000587804
-0.000186288
0.000580545
-0.000220775
0.000578464
-0.000262626
0.000585019
-0.000315862
0.000603825
-0.000387333
0.000639251
-0.00048823
0.000697865
-0.00063622
0.000791164
-0.000857929
0.000951961
-0.0011932
0.00129552
-0.00168656
0.00194526
-0.00210657
0.000397436
-0.0080126
0.00317495
-0.00532536
0.00202275
-0.00240045
0.000898539
-0.00052118
-0.000169496
0.000404419
-0.000475777
0.000896723
-0.000392105
0.00123022
-0.000317886
0.00147553
-0.00024914
0.00165927
-0.000187571
0.00179632
-0.000132022
0.00189677
-8.27207e-05
0.00196469
-2.7184e-05
0.00200905
1.30272e-05
0.00203535
3.23134e-05
0.00204609
3.77646e-05
0.00204433
3.39543e-05
0.00203348
2.53885e-05
0.00201632
1.48442e-05
0.00199645
2.54897e-06
0.00197573
-1.14574e-05
0.0019538
-2.60167e-05
0.00192976
-4.14884e-05
0.00190288
-5.88412e-05
0.00187136
-7.58584e-05
0.00183435
-9.34471e-05
0.00179217
-0.000113981
0.00174544
-0.000138855
0.0016949
-0.000169528
0.00164109
-0.00020811
0.00158378
-0.000257849
0.00152088
-0.000323733
0.00144648
-0.000413135
0.00134738
-0.000536428
0.00119756
-0.000707415
0.000946003
-0.000940946
0.000486405
-0.00122628
-0.000496527
-0.00112296
-0.000157613
-0.000188325
0.00332317
0.00251095
-0.000675778
0.00347622
-6.59998e-05
0.00361313
-0.00030567
0.00363448
-0.000496404
0.00371082
-0.000467734
0.00375328
-0.000359623
0.0037552
-0.000250322
0.00372186
-0.000153492
0.00366412
-7.35143e-05
0.00359672
-1.45565e-05
0.00354408
2.62257e-05
0.00350907
4.88137e-05
0.00348485
5.73127e-05
0.00346696
5.64312e-05
0.00345024
5.14458e-05
0.00343113
4.5276e-05
0.0034077
3.90369e-05
0.00337852
3.24854e-05
0.00334131
2.65162e-05
0.00329608
1.996e-05
0.00324309
1.2259e-05
0.00318171
3.28267e-06
0.00311303
-6.44113e-06
0.00303799
-1.76644e-05
0.00295595
-3.12066e-05
0.00286549
-4.76589e-05
0.00276455
-6.78608e-05
0.00265011
-9.29407e-05
0.0025174
-0.000124421
0.00235872
-0.00016433
0.00216164
-0.000215342
0.00190671
-0.000280785
0.0015645
-0.000364499
0.00110295
-0.000478692
0.000563045
-0.000685679
5.04459e-05
-0.000609687
-0.000175056
0.000520501
0.00666811
0.00990921
0.00914875
0.00899229
0.00858963
0.00798931
0.00741062
0.00693346
0.00656016
0.00628007
0.00607861
0.00593684
0.00583812
0.00576477
0.00570248
0.00564141
0.00557705
0.00550793
0.00543379
0.00535421
0.00526971
0.00517967
0.0050829
0.00497809
0.0048645
0.0047406
0.00460404
0.00445185
0.0042802
0.00408416
0.00385727
0.00359107
0.00327443
0.00289298
0.00242856
0.00185106
0.00106867
0.000361104
)
;

boundaryField
{
    floor
    {
        type            calculated;
        value           nonuniform List<scalar> 
36
(
0
0
0
0
0
0
0
0
0
0
0
0
0
0
0
0
0
0
0
3.177e-06
9.09566e-06
1.71224e-05
2.82529e-05
2.74186e-05
2.69465e-05
2.75829e-05
5.08959e-06
9.1715e-06
8.95567e-06
8.97518e-06
3.23155e-06
1.33885e-05
8.93124e-06
2.15905e-05
1.63765e-05
2.49021e-05
)
;
    }
    ceiling
    {
        type            calculated;
        value           nonuniform List<scalar> 
43
(
0.000196768
0.000159263
8.26405e-05
8.5283e-05
9.10858e-05
9.76136e-05
0.000104567
0.000111609
0.0001182
0.000123664
0.000127296
0.000128664
0.00012795
0.000125697
0.000122934
0.000120386
0.000118284
0.00011659
0.000115187
0.000113967
0.000112854
0.000111799
0.000110783
0.000109805
0.000108866
0.000107926
0.000106998
0.000106117
0.000105298
0.000104544
0.000103852
0.000103215
0.000102617
0.000102031
0.000101405
0.000100643
9.95273e-05
9.74239e-05
9.85627e-05
0.000104313
4.07751e-05
3.26553e-05
4.11953e-05
)
;
    }
    sWall
    {
        type            calculated;
        value           uniform 8.66578e-05;
    }
    nWall
    {
        type            calculated;
        value           nonuniform List<scalar> 6(3.18372e-05 3.32493e-05 3.45996e-05 5.92e-05 6.8542e-05 8.23969e-05);
    }
    sideWalls
    {
        type            empty;
        value           nonuniform 0();
    }
    glass1
    {
        type            calculated;
        value           nonuniform List<scalar> 9(-2.89276e-05 -7.68661e-05 -8.41213e-05 -1.83203e-05 -1.0778e-05 -8.86455e-06 -7.70219e-06 -6.52844e-06 -4.8311e-06);
    }
    glass2
    {
        type            calculated;
        value           nonuniform List<scalar> 2(0.000253084 0.000291359);
    }
    sun
    {
        type            calculated;
        value           uniform 0;
    }
    Table_master
    {
        type            calculated;
        value           nonuniform List<scalar> 9(-1.48783e-07 -1.48801e-07 -1.48619e-07 -1.48457e-07 -1.48306e-07 -1.48158e-07 -1.48009e-07 -1.47852e-07 -1.47648e-07);
    }
    Table_slave
    {
        type            calculated;
        value           nonuniform List<scalar> 9(1.45542e-07 1.45509e-07 1.45477e-07 1.45457e-07 1.45445e-07 1.4544e-07 1.45441e-07 1.45449e-07 1.45451e-07);
    }
    inlet
    {
        type            calculated;
        value           uniform 0.00181183;
    }
    outlet
    {
        type            calculated;
        value           nonuniform List<scalar> 2(-0.000803759 -0.00630664);
    }
}


// ************************************************************************* //
