// -*- C++ -*-
// File generated by PyFoam - sorry for the ugliness

FoamFile
{
 version 2.0;
 format ascii;
 class volScalarField;
 location "1800";
 object T;
}

dimensions [ 0 0 0 1 0 0 0 ];

internalField nonuniform List<scalar> 458
(
  302.49
  302.136
  302.127
  302.13
  302.133
  302.135
  302.137
  302.138
  302.14
  302.141
  302.141
  302.139
  302.137
  302.133
  302.13
  301.807
  301.792
  301.783
  301.702
  301.457
  301.322
  301.287
  301.28
  301.282
  301.278
  301.275
  301.279
  301.294
  301.304
  301.324
  301.333
  301.328
  301.338
  302.732
  302.171
  302.138
  302.144
  302.151
  302.158
  302.163
  302.168
  302.171
  302.173
  302.173
  302.168
  302.159
  302.145
  302.126
  302.111
  302.095
  302.103
  301.854
  301.846
  301.844
  301.843
  301.758
  301.625
  301.524
  301.46
  301.404
  301.362
  301.339
  301.331
  301.332
  301.34
  301.398
  301.394
  301.362
  301.348
  302.961
  302.229
  302.163
  302.171
  302.184
  302.197
  302.209
  302.219
  302.226
  302.231
  302.231
  302.224
  302.21
  302.187
  302.157
  302.126
  302.098
  302.08
  301.94
  301.938
  301.954
  301.969
  301.968
  301.743
  301.646
  301.591
  301.551
  301.515
  301.48
  301.444
  301.405
  301.391
  301.516
  301.454
  301.404
  301.377
  303.172
  302.305
  302.192
  302.198
  302.218
  302.239
  302.258
  302.276
  302.29
  302.299
  302.302
  302.296
  302.278
  302.249
  302.212
  302.169
  302.122
  302.076
  302.043
  302.017
  302.026
  302.038
  302.046
  302.051
  302.054
  302.057
  302.061
  302.065
  302.068
  302.068
  302.068
  302.066
  302.061
  302.026
  301.928
  301.816
  301.789
  303.364
  302.399
  302.234
  302.223
  302.246
  302.273
  302.301
  302.328
  302.351
  302.369
  302.377
  302.374
  302.356
  302.326
  302.286
  302.241
  302.195
  302.152
  302.119
  302.097
  302.087
  302.084
  302.083
  302.082
  302.083
  302.084
  302.087
  302.09
  302.09
  302.091
  302.092
  302.093
  302.089
  302.073
  302.031
  301.962
  301.896
  301.899
  301.938
  302.081
  303.528
  302.518
  302.32
  302.264
  302.273
  302.3
  302.332
  302.365
  302.398
  302.425
  302.443
  302.445
  302.429
  302.398
  302.358
  302.312
  302.265
  302.22
  302.183
  302.155
  302.135
  302.123
  302.115
  302.109
  302.106
  302.105
  302.107
  302.108
  302.105
  302.106
  302.111
  302.114
  302.112
  302.101
  302.074
  302.03
  301.982
  301.952
  301.943
  301.97
  303.665
  302.714
  302.535
  302.419
  302.355
  302.346
  302.365
  302.394
  302.428
  302.465
  302.493
  302.499
  302.485
  302.456
  302.417
  302.373
  302.328
  302.283
  302.243
  302.21
  302.183
  302.163
  302.148
  302.137
  302.129
  302.124
  302.123
  302.122
  302.116
  302.119
  302.127
  302.132
  302.132
  302.122
  302.098
  302.063
  302.026
  301.993
  301.968
  301.985
  303.898
  303.19
  303.012
  302.831
  302.662
  302.553
  302.5
  302.485
  302.494
  302.518
  302.536
  302.536
  302.518
  302.489
  302.453
  302.414
  302.373
  302.333
  302.293
  302.258
  302.229
  302.204
  302.183
  302.166
  302.152
  302.143
  302.138
  302.135
  302.125
  302.129
  302.139
  302.147
  302.149
  302.142
  302.124
  302.088
  302.058
  302.034
  302.02
  302.181
  304.227
  303.919
  303.579
  303.325
  303.102
  302.927
  302.802
  302.719
  302.669
  302.636
  302.602
  302.565
  302.527
  302.489
  302.454
  302.419
  302.386
  302.354
  302.323
  302.292
  302.264
  302.239
  302.216
  302.196
  302.178
  302.162
  302.153
  302.149
  302.13
  302.135
  302.149
  302.161
  302.169
  302.174
  302.18
  302.188
  302.202
  302.23
  302.263
  302.348
  294.759
  300.283
  301.725
  302.21
  302.397
  302.468
  302.49
  302.49
  302.483
  302.469
  302.45
  302.428
  302.406
  302.384
  302.363
  302.342
  302.321
  302.3
  302.279
  302.258
  302.239
  302.22
  302.202
  302.184
  302.169
  302.167
  302.134
  302.135
  302.151
  302.167
  302.18
  302.191
  302.201
  302.211
  302.225
  302.243
  302.258
  302.267
  296.763
  300.165
  301.443
  301.94
  302.166
  302.269
  302.315
  302.333
  302.337
  302.338
  302.336
  302.332
  302.325
  302.318
  302.31
  302.301
  302.292
  302.282
  302.271
  302.26
  302.247
  302.235
  302.221
  302.205
  302.19
  302.189
  302.138
  302.13
  302.141
  302.155
  302.169
  302.181
  302.193
  302.205
  302.216
  302.228
  302.22
  302.248
  299.498
  299.435
  299.431
  301.109
  301.649
  301.927
  302.132
  302.188
  302.217
  302.232
  302.24
  302.244
  302.249
  302.252
  302.255
  302.257
  302.259
  302.26
  302.261
  302.261
  302.261
  302.259
  302.257
  302.253
  302.247
  302.239
  302.229
  302.219
  302.146
  302.142
  302.149
  302.158
  302.166
  302.174
  302.182
  302.193
  302.201
  302.205
  302.204
  302.237
)
;

boundaryField
{
  floor
  {
    type wallHeatTransfer;
    Tinf uniform 305.2;
    alphaWall uniform 0.24;
    value nonuniform List<scalar> 36
(
  302.502
  302.507
  302.431
  302.414
  302.426
  302.376
  302.366
  302.37
  302.36
  302.341
  302.346
  302.378
  302.425
  302.462
  302.355
  302.204
  302.137
  302.132
  302.187
  302.187
  302.033
  302.028
  302.188
  302.258
  302.315
  302.435
  302.502
  302.467
  302.467
  302.557
  302.507
  302.557
  302.406
  302.432
  302.341
  302.383
)
;
  }
  ceiling
  {
    type wallHeatTransfer;
    Tinf uniform 303.2;
    alphaWall uniform 0.24;
    value nonuniform List<scalar> 43
(
  299.718
  299.644
  299.629
  301.214
  301.73
  301.997
  302.196
  302.253
  302.284
  302.303
  302.314
  302.323
  302.331
  302.339
  302.346
  302.352
  302.359
  302.364
  302.369
  302.373
  302.375
  302.375
  302.373
  302.369
  302.363
  302.355
  302.346
  302.342
  302.274
  302.263
  302.267
  302.272
  302.274
  302.275
  302.276
  302.28
  302.285
  302.29
  302.294
  302.331
  304.182
  303.892
  297.076
)
;
  }
  sWall
  {
    type wallHeatTransfer;
    Tinf uniform 315.2;
    alphaWall uniform 0.36;
    value uniform 300.863;
  }
  nWall
  {
    type wallHeatTransfer;
    Tinf uniform 307.2;
    alphaWall uniform 0.36;
    value nonuniform List<scalar> 6
(
  302.908
  302.801
  302.713
  302.937
  302.913
  302.928
)
;
  }
  sideWalls
  {
    type empty;
  }
  glass1
  {
    type wallHeatTransfer;
    Tinf uniform 315.2;
    alphaWall uniform 4.3;
    value nonuniform List<scalar> 9
(
  312.044
  310.967
  310.287
  309.785
  309.407
  309.106
  308.876
  308.955
  309.212
)
;
  }
  glass2
  {
    type wallHeatTransfer;
    Tinf uniform 307.2;
    alphaWall uniform 4.3;
    value nonuniform List<scalar> 2
(
  305.259
  305.353
)
;
  }
  sun
  {
    type wallHeatTransfer;
    Tinf uniform 305.2;
    alphaWall uniform 0.24;
    value nonuniform List<scalar> 14
(
  302.873
  302.561
  302.575
  302.566
  302.558
  302.551
  302.544
  302.538
  302.532
  302.526
  302.521
  302.515
  302.51
  302.505
)
;
  }
  Table_master
  {
    type zeroGradient;
  }
  Table_slave
  {
    type zeroGradient;
  }
  inlet
  {
    type fixedValue;
    value uniform 299.15;
  }
  outlet
  {
    type zeroGradient;
  }
} 	// ************************************************************************* //

