// -*- C++ -*-
// File generated by PyFoam - sorry for the ugliness

FoamFile
{
 version 2.0;
 format ascii;
 class volVectorField;
 location "1800";
 object U;
}

dimensions [ 0 1 -1 0 0 0 0 ];

internalField nonuniform List<vector> 458
(
  (0.0996618 0.0694681 0)
  (-0.140579 0.00265853 0)
  (-0.123441 0.00640852 0)
  (-0.138834 0.00710473 0)
  (-0.153739 0.00595752 0)
  (-0.167043 0.00401933 0)
  (-0.177734 0.00150908 0)
  (-0.184995 -0.00157102 0)
  (-0.188014 -0.00529435 0)
  (-0.185831 -0.00980008 0)
  (-0.176767 -0.0154894 0)
  (-0.158292 -0.0227923 0)
  (-0.129358 -0.0331894 0)
  (-0.0998535 -0.0497927 0)
  (-0.103261 -0.0726983 0)
  (0.0341785 0.0101792 0)
  (-0.0266904 -0.00985272 0)
  (-0.0114197 -0.0112183 0)
  (-0.00395468 -0.00209601 0)
  (-0.000603458 0.00871876 0)
  (-0.0106944 0.00709955 0)
  (-0.0185734 -0.000720198 0)
  (-0.021275 -0.00432118 0)
  (-0.0192974 -0.00517041 0)
  (-0.0161256 -0.00584792 0)
  (-0.0116324 -0.00696107 0)
  (-0.0057231 -0.00902062 0)
  (0.00847412 -0.0135635 0)
  (0.0177745 -0.0152498 0)
  (0.0299788 -0.0131173 0)
  (0.0381243 -0.0124664 0)
  (0.048047 -0.00453973 0)
  (-0.0142522 0.0211614 0)
  (0.305553 0.152054 0)
  (-0.165148 0.0209928 0)
  (-0.114144 0.0235826 0)
  (-0.135795 0.0242697 0)
  (-0.152347 0.0226472 0)
  (-0.166842 0.0196528 0)
  (-0.178717 0.0154943 0)
  (-0.187398 0.0101184 0)
  (-0.192189 0.00339045 0)
  (-0.192225 -0.00486807 0)
  (-0.186769 -0.0145312 0)
  (-0.174966 -0.0255173 0)
  (-0.157754 -0.0386593 0)
  (-0.140461 -0.0552439 0)
  (-0.126001 -0.068123 0)
  (-0.0923099 -0.0486279 0)
  (-0.0371192 -0.0478775 0)
  (-0.0447781 0.074941 0)
  (0.117551 0.00838725 0)
  (0.0406833 0.00270471 0)
  (0.0178414 -0.00292606 0)
  (0.0176698 -0.0044774 0)
  (0.0294851 0.00414726 0)
  (0.0303967 0.0137577 0)
  (0.0239627 0.0110372 0)
  (0.0196758 0.00545335 0)
  (0.0155535 0.000618436 0)
  (0.0123361 -0.00295972 0)
  (0.0107237 -0.00574746 0)
  (0.0104595 -0.00902013 0)
  (0.0135273 -0.0140582 0)
  (0.0106021 -0.0173508 0)
  (0.0195897 -0.0140395 0)
  (0.020762 -0.016386 0)
  (0.0385387 -0.00271117 0)
  (-0.0743881 0.0481542 0)
  (0.478168 0.233162 0)
  (-0.211538 0.0504464 0)
  (-0.0947358 0.0448476 0)
  (-0.123607 0.0410435 0)
  (-0.140047 0.0369544 0)
  (-0.154635 0.0313228 0)
  (-0.166962 0.0239275 0)
  (-0.176586 0.0146389 0)
  (-0.18288 0.00341721 0)
  (-0.185016 -0.00959046 0)
  (-0.182435 -0.0242402 0)
  (-0.175545 -0.0401776 0)
  (-0.165954 -0.0569837 0)
  (-0.156497 -0.073505 0)
  (-0.146078 -0.08458 0)
  (-0.129313 -0.0847266 0)
  (-0.119636 -0.0899373 0)
  (-0.15177 -0.0856009 0)
  (0.0536542 0.00931456 0)
  (-0.0447639 0.00392891 0)
  (-0.0380343 -0.00337896 0)
  (-0.0296585 -0.0164278 0)
  (-0.0269026 -0.0263972 0)
  (0.0340854 0.00743324 0)
  (0.0370076 0.00753133 0)
  (0.0398782 0.00436098 0)
  (0.0427824 0.00160302 0)
  (0.0431269 -0.000711532 0)
  (0.0403362 -0.00304828 0)
  (0.034663 -0.00599374 0)
  (0.0251412 -0.0107043 0)
  (0.00140409 -0.00894044 0)
  (0.00517594 0.00528214 0)
  (-0.0186124 0.0117966 0)
  (-0.0644332 0.0233306 0)
  (-0.168658 0.0365739 0)
  (0.618269 0.301155 0)
  (-0.259636 0.0849954 0)
  (-0.0684803 0.0661587 0)
  (-0.104823 0.0577721 0)
  (-0.119551 0.051996 0)
  (-0.132705 0.0448304 0)
  (-0.144308 0.0355173 0)
  (-0.153884 0.023717 0)
  (-0.160807 0.00930668 0)
  (-0.164225 -0.00751478 0)
  (-0.163279 -0.0260532 0)
  (-0.15936 -0.0450954 0)
  (-0.154183 -0.0630248 0)
  (-0.149769 -0.0777128 0)
  (-0.146051 -0.0861422 0)
  (-0.142989 -0.0876031 0)
  (-0.147733 -0.0833022 0)
  (-0.164095 -0.0564205 0)
  (-0.155615 0.0128342 0)
  (-0.110487 0.00709515 0)
  (-0.100666 -0.000826214 0)
  (-0.0860924 -0.012366 0)
  (-0.0825721 -0.0230062 0)
  (-0.0868434 -0.0283844 0)
  (-0.0820115 -0.018391 0)
  (-0.061513 -0.0182205 0)
  (-0.0398056 -0.0219294 0)
  (-0.0167931 -0.0275843 0)
  (0.0227686 -0.031248 0)
  (0.0506914 -0.0273307 0)
  (0.0785458 -0.0236909 0)
  (0.103017 -0.0188238 0)
  (0.121134 -0.0111827 0)
  (0.125274 0.00319817 0)
  (0.110126 0.023331 0)
  (0.0855306 0.0360663 0)
  (-0.0125341 0.0407142 0)
  (0.727867 0.357471 0)
  (-0.300918 0.12081 0)
  (-0.0404184 0.082492 0)
  (-0.0802672 0.0714001 0)
  (-0.0926455 0.0643984 0)
  (-0.102989 0.0561307 0)
  (-0.112407 0.0453726 0)
  (-0.120423 0.0315165 0)
  (-0.1265 0.014344 0)
  (-0.129709 -0.00582955 0)
  (-0.128679 -0.0276283 0)
  (-0.125693 -0.0487185 0)
  (-0.122407 -0.0667691 0)
  (-0.120379 -0.0799847 0)
  (-0.119997 -0.087279 0)
  (-0.121678 -0.0893727 0)
  (-0.126593 -0.0866093 0)
  (-0.130868 -0.0730197 0)
  (-0.126489 -0.0429372 0)
  (-0.112283 -0.0222778 0)
  (-0.0960009 -0.0161694 0)
  (-0.0833769 -0.0198018 0)
  (-0.0769055 -0.025344 0)
  (-0.073079 -0.0283417 0)
  (-0.0655383 -0.0257062 0)
  (-0.0519776 -0.028217 0)
  (-0.0346399 -0.0346807 0)
  (-0.0142336 -0.0440775 0)
  (0.0132873 -0.0487172 0)
  (0.0373712 -0.0442585 0)
  (0.0607959 -0.0398544 0)
  (0.0833962 -0.0323422 0)
  (0.103746 -0.0172939 0)
  (0.120678 0.00729255 0)
  (0.127708 0.0343561 0)
  (0.130597 0.0549649 0)
  (0.108423 0.0680336 0)
  (0.129373 0.112353 0)
  (0.115434 0.162612 0)
  (-0.401749 0.0828142 0)
  (0.795994 0.407651 0)
  (-0.332719 0.151841 0)
  (-0.0197632 0.0855607 0)
  (-0.0468874 0.0814692 0)
  (-0.0578984 0.0748158 0)
  (-0.0659505 0.0647766 0)
  (-0.0724105 0.0525655 0)
  (-0.0774299 0.037245 0)
  (-0.0809674 0.0180673 0)
  (-0.0819142 -0.00488741 0)
  (-0.0791408 -0.029459 0)
  (-0.0761864 -0.0516075 0)
  (-0.0743298 -0.0687656 0)
  (-0.0744632 -0.0799274 0)
  (-0.0767093 -0.0850572 0)
  (-0.0809949 -0.0847563 0)
  (-0.0867472 -0.0787534 0)
  (-0.0906326 -0.0654781 0)
  (-0.0888085 -0.0477678 0)
  (-0.0814713 -0.0340277 0)
  (-0.0722477 -0.027935 0)
  (-0.0647872 -0.0280163 0)
  (-0.0602695 -0.0306818 0)
  (-0.0568539 -0.0332807 0)
  (-0.0515858 -0.0354729 0)
  (-0.0431288 -0.0411162 0)
  (-0.0316348 -0.0509887 0)
  (-0.0163722 -0.0639527 0)
  (0.00176322 -0.0698589 0)
  (0.019467 -0.065431 0)
  (0.0360455 -0.0619865 0)
  (0.054197 -0.0553608 0)
  (0.0737479 -0.0398217 0)
  (0.0947497 -0.011384 0)
  (0.114625 0.0245929 0)
  (0.127245 0.0526484 0)
  (0.128124 0.0637765 0)
  (0.128822 0.0677378 0)
  (0.140141 0.100612 0)
  (-0.0682173 0.0543618 0)
  (0.817889 0.453592 0)
  (-0.343218 0.148856 0)
  (-6.15105e-05 0.0439269 0)
  (0.0122522 0.0822473 0)
  (-0.00118945 0.0922813 0)
  (-0.0139614 0.0750858 0)
  (-0.019885 0.057154 0)
  (-0.0221778 0.0394419 0)
  (-0.0224559 0.0182493 0)
  (-0.0185918 -0.00744191 0)
  (-0.0133407 -0.0335298 0)
  (-0.0113775 -0.054588 0)
  (-0.0124072 -0.0692759 0)
  (-0.016166 -0.0777962 0)
  (-0.0221636 -0.0808942 0)
  (-0.0297351 -0.079366 0)
  (-0.0377501 -0.0732732 0)
  (-0.0439088 -0.0624648 0)
  (-0.0461354 -0.049632 0)
  (-0.0445926 -0.0391354 0)
  (-0.041546 -0.0332802 0)
  (-0.0390812 -0.0317386 0)
  (-0.0379732 -0.0328782 0)
  (-0.0374539 -0.0354609 0)
  (-0.0362131 -0.0398345 0)
  (-0.0337638 -0.0479666 0)
  (-0.029792 -0.0612802 0)
  (-0.0208247 -0.078476 0)
  (-0.0109311 -0.0842604 0)
  (-0.00246537 -0.0782838 0)
  (0.00381925 -0.0763379 0)
  (0.0128089 -0.0731386 0)
  (0.0251133 -0.0619889 0)
  (0.0419958 -0.0371155 0)
  (0.0696257 0.00308598 0)
  (0.0892088 0.0377843 0)
  (0.098647 0.0546227 0)
  (0.106936 0.0624073 0)
  (0.147915 0.0953512 0)
  (-0.0640121 0.150996 0)
  (0.918885 0.471168 0)
  (-0.119293 0.132535 0)
  (0.0884547 -0.0389126 0)
  (0.143697 0.0216817 0)
  (0.115762 0.0660946 0)
  (0.0850064 0.0629589 0)
  (0.0706139 0.0453685 0)
  (0.065218 0.0266984 0)
  (0.0638458 0.00511528 0)
  (0.0679139 -0.0182614 0)
  (0.0704726 -0.0384482 0)
  (0.0675097 -0.0540932 0)
  (0.0605577 -0.0647372 0)
  (0.0509284 -0.0705705 0)
  (0.0396047 -0.0721205 0)
  (0.0274755 -0.0700448 0)
  (0.015551 -0.0647818 0)
  (0.0053176 -0.0566393 0)
  (-0.00184458 -0.0470283 0)
  (-0.00563683 -0.0389281 0)
  (-0.00778616 -0.0337976 0)
  (-0.0097587 -0.0317689 0)
  (-0.0122643 -0.0322237 0)
  (-0.0151835 -0.0346048 0)
  (-0.0182475 -0.039262 0)
  (-0.0224158 -0.048054 0)
  (-0.027653 -0.0639782 0)
  (-0.0246681 -0.0858582 0)
  (-0.022677 -0.0891088 0)
  (-0.0250398 -0.0783273 0)
  (-0.0335941 -0.0765277 0)
  (-0.0404267 -0.0762674 0)
  (-0.0447512 -0.0715252 0)
  (-0.0440345 -0.0588756 0)
  (-0.0320604 -0.0372264 0)
  (0.00454583 -0.00591255 0)
  (0.0148877 0.013486 0)
  (0.0325769 0.0184154 0)
  (0.129342 0.0958557 0)
  (-0.476065 0.264741 0)
  (1.05882 0.430168 0)
  (0.495342 0.278381 0)
  (0.517289 0.199614 0)
  (0.51336 0.191841 0)
  (0.415288 0.176922 0)
  (0.32486 0.143562 0)
  (0.269656 0.104266 0)
  (0.236343 0.0669018 0)
  (0.215086 0.033607 0)
  (0.197242 0.00431461 0)
  (0.177038 -0.0201205 0)
  (0.157234 -0.0380545 0)
  (0.13782 -0.0496757 0)
  (0.118771 -0.0558997 0)
  (0.100301 -0.0578142 0)
  (0.0827842 -0.0564343 0)
  (0.066703 -0.0526145 0)
  (0.052703 -0.047132 0)
  (0.0414179 -0.0410123 0)
  (0.0328752 -0.0355365 0)
  (0.0261885 -0.0316589 0)
  (0.020328 -0.029794 0)
  (0.014586 -0.0298556 0)
  (0.00878727 -0.0315056 0)
  (0.00256205 -0.0345862 0)
  (-0.00763591 -0.0412073 0)
  (-0.0235369 -0.0573814 0)
  (-0.0236029 -0.0841955 0)
  (-0.0290235 -0.0827663 0)
  (-0.0417439 -0.0630208 0)
  (-0.0689663 -0.0580646 0)
  (-0.0983321 -0.0545249 0)
  (-0.131153 -0.0440511 0)
  (-0.16841 -0.0221689 0)
  (-0.208675 0.0118639 0)
  (-0.245533 0.0522069 0)
  (-0.282594 0.090764 0)
  (-0.327859 0.124858 0)
  (-0.397378 0.150324 0)
  (-0.714023 0.158227 0)
  (-0.625064 -0.108485 0)
  (0.21954 0.142634 0)
  (0.254694 0.174487 0)
  (0.238393 0.158109 0)
  (0.235303 0.122748 0)
  (0.235222 0.0825549 0)
  (0.232829 0.0465653 0)
  (0.226992 0.0179354 0)
  (0.216378 -0.00394618 0)
  (0.200787 -0.0195747 0)
  (0.182221 -0.0298387 0)
  (0.162291 -0.0356265 0)
  (0.142274 -0.037853 0)
  (0.123137 -0.037402 0)
  (0.105571 -0.0350846 0)
  (0.0900481 -0.0316646 0)
  (0.0768165 -0.0279224 0)
  (0.065763 -0.0245918 0)
  (0.0563716 -0.0221063 0)
  (0.0479771 -0.0205771 0)
  (0.0400806 -0.0199288 0)
  (0.0326683 -0.0200185 0)
  (0.025256 -0.0204433 0)
  (0.0132778 -0.0216689 0)
  (-0.0125721 -0.0331285 0)
  (-0.0112228 -0.06862 0)
  (-0.0268621 -0.0634519 0)
  (-0.0380843 -0.0328911 0)
  (-0.0699347 -0.0284628 0)
  (-0.0993899 -0.0259116 0)
  (-0.126175 -0.0183543 0)
  (-0.148921 -0.00233803 0)
  (-0.168124 0.0229152 0)
  (-0.185339 0.055 0)
  (-0.194576 0.081615 0)
  (-0.188198 0.0759897 0)
  (-0.17494 -0.0119618 0)
  (-0.292234 -0.233881 0)
  (-0.225921 0.181045 0)
  (0.0828207 0.1265 0)
  (0.0626875 0.132203 0)
  (0.0981876 0.132655 0)
  (0.138485 0.107537 0)
  (0.170429 0.0738049 0)
  (0.191654 0.0463929 0)
  (0.201561 0.027955 0)
  (0.201744 0.0172267 0)
  (0.195167 0.0106832 0)
  (0.184068 0.00655815 0)
  (0.170288 0.00464958 0)
  (0.155153 0.00481716 0)
  (0.139726 0.00691588 0)
  (0.124854 0.0107577 0)
  (0.111167 0.0160387 0)
  (0.0990627 0.0222006 0)
  (0.0886568 0.0283292 0)
  (0.0797396 0.0333267 0)
  (0.0718246 0.0362516 0)
  (0.0643314 0.0363872 0)
  (0.0569268 0.0335606 0)
  (0.0492331 0.0317733 0)
  (0.0384459 0.0403879 0)
  (0.0185639 0.0384984 0)
  (0.0151609 -0.0578622 0)
  (-0.0322181 -0.0505935 0)
  (-0.0352183 0.0312013 0)
  (-0.0502367 0.0433413 0)
  (-0.0619934 0.0372784 0)
  (-0.0705056 0.0340138 0)
  (-0.0759739 0.0347941 0)
  (-0.0769325 0.045686 0)
  (-0.0705145 0.0682788 0)
  (-0.0553449 0.0940836 0)
  (-0.0342504 0.105229 0)
  (0.130641 0.029351 0)
  (-0.209998 -0.156313 0)
  (-0.0499799 -0.306414 0)
  (-0.385527 -0.103837 0)
  (-0.325896 0.0749432 0)
  (-0.203168 0.0260765 0)
  (-0.139598 0.0447732 0)
  (-0.0522125 0.0601118 0)
  (0.0517069 0.0355556 0)
  (0.107126 0.00714976 0)
  (0.149571 -0.0163998 0)
  (0.174457 -0.0354902 0)
  (0.184705 -0.0519612 0)
  (0.185308 -0.0661047 0)
  (0.179812 -0.077929 0)
  (0.170493 -0.08852 0)
  (0.159054 -0.0986651 0)
  (0.146822 -0.108938 0)
  (0.134814 -0.119694 0)
  (0.123734 -0.130998 0)
  (0.113957 -0.142522 0)
  (0.105515 -0.153533 0)
  (0.0981186 -0.1631 0)
  (0.0912526 -0.170543 0)
  (0.0842453 -0.175849 0)
  (0.0762221 -0.179659 0)
  (0.0667071 -0.182336 0)
  (0.058708 -0.183167 0)
  (0.0579178 -0.186442 0)
  (0.0491859 -0.204302 0)
  (-0.0519617 -0.203241 0)
  (-0.063124 -0.178868 0)
  (-0.0621925 -0.168283 0)
  (-0.0625193 -0.158009 0)
  (-0.0594143 -0.133964 0)
  (-0.0476373 -0.103109 0)
  (-0.0255877 -0.0689264 0)
  (0.015498 -0.0233929 0)
  (0.0662646 -0.00343995 0)
  (0.116065 -0.0154844 0)
  (0.182544 -0.0691737 0)
  (-0.146071 -0.150648 0)
)
;

boundaryField
{
  floor
  {
    type noSlip;
  }
  ceiling
  {
    type noSlip;
  }
  sWall
  {
    type noSlip;
  }
  nWall
  {
    type noSlip;
  }
  sideWalls
  {
    type empty;
  }
  glass1
  {
    type noSlip;
  }
  glass2
  {
    type noSlip;
  }
  sun
  {
    type noSlip;
  }
  Table_master
  {
    type noSlip;
  }
  Table_slave
  {
    type noSlip;
  }
  inlet
  {
    type fixedValue;
    value uniform (0.092388 -0.0382683 0);
  }
  outlet
  {
    type zeroGradient;
  }
} 	// ************************************************************************* //

