/*--------------------------------*- C++ -*----------------------------------*\
  =========                 |
  \\      /  F ield         | OpenFOAM: The Open Source CFD Toolbox
   \\    /   O peration     | Website:  https://openfoam.org
    \\  /    A nd           | Version:  6
     \\/     M anipulation  |
\*---------------------------------------------------------------------------*/
FoamFile
{
    version     2.0;
    format      ascii;
    class       volScalarField;
    location    "2900";
    object      k;
}
// * * * * * * * * * * * * * * * * * * * * * * * * * * * * * * * * * * * * * //

dimensions      [0 2 -2 0 0 0 0];

internalField   nonuniform List<scalar> 
458
(
0.00309603
0.00378339
0.0040173
0.00446497
0.00493861
0.00547197
0.00588453
0.00610346
0.00608718
0.00580971
0.00507632
0.00425828
0.00345531
0.00266811
0.00200869
0.000626411
0.000867998
0.0012002
0.00142314
0.00142385
0.00125069
0.00106905
0.000919741
0.0008007
0.000705052
0.000627402
0.000563393
0.000509712
0.00046345
0.000421413
0.000380093
0.000338942
0.000277524
0.00539632
0.0100309
0.00648567
0.00702442
0.00791976
0.00893892
0.00986238
0.0104365
0.0105511
0.0101947
0.00923287
0.00800914
0.00679805
0.0054573
0.00393529
0.00310372
0.0023728
0.00165155
0.000579404
0.00124615
0.00194202
0.00234847
0.00245635
0.00209469
0.00169035
0.00136894
0.0011278
0.000945766
0.000806615
0.000698545
0.000610591
0.000533098
0.0004735
0.000435028
0.000519359
0.000347105
0.00776084
0.017471
0.00804072
0.00799346
0.00895194
0.0101917
0.0111402
0.011623
0.0116907
0.0113392
0.0104868
0.00937364
0.00816482
0.00692606
0.00553972
0.004419
0.00362336
0.00224168
0.000980702
0.00167327
0.00230709
0.00275788
0.00287812
0.00222106
0.00166461
0.00126318
0.00097954
0.000777674
0.000631751
0.000524453
0.000446481
0.000395828
0.000371081
0.000376103
0.000643781
0.00040017
0.0104167
0.0275649
0.0104014
0.00898851
0.0100486
0.0114964
0.0121977
0.0124212
0.0123874
0.0120232
0.0112455
0.0101109
0.00880898
0.00752007
0.00626674
0.00516423
0.00427719
0.00320638
0.0027862
0.00264512
0.00294937
0.00337867
0.00366903
0.00365343
0.00292745
0.00242434
0.0020716
0.00180077
0.00158427
0.00139481
0.00121785
0.00104484
0.000866555
0.000607822
0.000462665
0.000822343
0.000463294
0.0135313
0.0407582
0.0157969
0.011478
0.012856
0.0138286
0.0137948
0.0136361
0.0134479
0.0130244
0.0121378
0.0107874
0.00922941
0.00775216
0.00649125
0.0054776
0.00472123
0.00423004
0.00442004
0.00457091
0.00478487
0.00495286
0.0049203
0.00463104
0.00414364
0.00371241
0.00338217
0.0030875
0.00276535
0.00241136
0.00203227
0.00164161
0.00125743
0.000883845
0.000619577
0.000743279
0.000677977
0.000713424
0.000887065
0.00106353
0.0172024
0.0547872
0.0277176
0.0183765
0.0184385
0.0171691
0.016027
0.0153858
0.0150146
0.0144617
0.0133406
0.0116198
0.00966015
0.00788421
0.00653589
0.00567253
0.0052703
0.00532362
0.00578555
0.00621665
0.00640577
0.00629581
0.00590284
0.00530661
0.00467726
0.00419542
0.00382611
0.00347091
0.00309211
0.00268664
0.00226366
0.0018408
0.00144028
0.00107897
0.000819877
0.000756592
0.000751916
0.000777671
0.00135163
0.00113464
0.0204143
0.0624723
0.0441051
0.0315973
0.0248779
0.0207076
0.0184509
0.017482
0.0170399
0.0163568
0.01488
0.0125997
0.010106
0.00801091
0.0066652
0.00607503
0.00606425
0.00648149
0.00706795
0.00741411
0.00731958
0.00686986
0.00618176
0.00539636
0.00468952
0.00417773
0.00379654
0.00345508
0.00310722
0.00275426
0.00240108
0.002057
0.00173212
0.00143368
0.00122216
0.00112408
0.00114418
0.00130999
0.00176135
0.00154578
0.0207084
0.0534214
0.0400124
0.0308739
0.0249478
0.0215175
0.0200554
0.0197666
0.0196399
0.0187834
0.0166327
0.0133782
0.0101862
0.00783962
0.00685814
0.00660851
0.00679555
0.00723112
0.00761457
0.00763092
0.00720883
0.00649187
0.00565998
0.00486796
0.00423341
0.00378305
0.00346218
0.00320808
0.00299428
0.00282367
0.00269635
0.00260276
0.00253804
0.002501
0.00256369
0.00295018
0.00380981
0.00516451
0.0102758
0.00379727
0.0194394
0.0253838
0.0229199
0.0202081
0.0193134
0.0202316
0.0220043
0.0234603
0.0234473
0.021489
0.0174217
0.0120715
0.00899889
0.00748929
0.00691196
0.00680105
0.00692337
0.0070891
0.00707947
0.00675616
0.00615893
0.00541365
0.0046526
0.00398064
0.0034533
0.0030664
0.00277811
0.00256158
0.00241753
0.00235536
0.0023831
0.00250421
0.00272075
0.00304281
0.003478
0.0040132
0.00455381
0.00495732
0.00517703
0.00343282
0.00291568
0.0132734
0.0226739
0.0284486
0.0304288
0.0278077
0.0219609
0.0163394
0.0120258
0.00910261
0.00753066
0.00677112
0.00645516
0.0063442
0.00628455
0.00614697
0.00583113
0.00532387
0.00470312
0.00407166
0.00350495
0.00303642
0.00266489
0.00237358
0.00215057
0.00199752
0.00192129
0.00192596
0.0020132
0.00218515
0.00244521
0.00279425
0.00321587
0.00364979
0.00397311
0.0040631
0.00385874
0.00248461
0.0157877
0.0315547
0.0279004
0.0241708
0.0202523
0.0164177
0.0126987
0.00973861
0.00774941
0.0065462
0.00588587
0.00554514
0.00537579
0.00527367
0.00516628
0.00500073
0.00474908
0.00442122
0.00405769
0.00370333
0.0033876
0.00311945
0.00289398
0.00270259
0.00253993
0.00240642
0.00230771
0.00225393
0.00225895
0.00233852
0.00250655
0.00276723
0.00310029
0.00345165
0.00367447
0.00396487
0.00413502
0.00262021
0.00679714
0.00798828
0.00905252
0.00849115
0.00780236
0.00708113
0.00639184
0.00547289
0.00453793
0.0037913
0.0032934
0.00298349
0.00279042
0.00266514
0.00257113
0.00248056
0.00237391
0.00224115
0.00208441
0.00191765
0.00175882
0.00162081
0.00150795
0.00141848
0.0013488
0.00129653
0.0012616
0.00124579
0.0012519
0.00128297
0.00134208
0.00143252
0.00155832
0.00172364
0.00192875
0.00218515
0.0022893
0.00216616
0.0019224
0.00173535
)
;

boundaryField
{
    floor
    {
        type            kqRWallFunction;
        value           nonuniform List<scalar> 
36
(
0.00200869
0.000626411
0.000867998
0.0012002
0.00142314
0.00142385
0.00125069
0.00106905
0.000919741
0.0008007
0.000705052
0.000627402
0.000563393
0.000509712
0.00046345
0.000421413
0.000380093
0.000338942
0.000277524
0.000277524
0.000347105
0.00040017
0.000463294
0.000713424
0.000887065
0.00106353
0.00200869
0.00310372
0.0023728
0.00165155
0.000626411
0.00165155
0.000579404
0.00224168
0.000980702
0.0027862
)
;
    }
    ceiling
    {
        type            kqRWallFunction;
        value           nonuniform List<scalar> 
43
(
0.00679714
0.00798828
0.00905252
0.00849115
0.00780236
0.00708113
0.00639184
0.00547289
0.00453793
0.0037913
0.0032934
0.00298349
0.00279042
0.00266514
0.00257113
0.00248056
0.00237391
0.00224115
0.00208441
0.00191765
0.00175882
0.00162081
0.00150795
0.00141848
0.0013488
0.00129653
0.0012616
0.00124579
0.0012519
0.00128297
0.00134208
0.00143252
0.00155832
0.00172364
0.00192875
0.00218515
0.0022893
0.00216616
0.0019224
0.00173535
0.0194394
0.0253838
0.0157877
)
;
    }
    sWall
    {
        type            kqRWallFunction;
        value           uniform 0.00679714;
    }
    nWall
    {
        type            kqRWallFunction;
        value           nonuniform List<scalar> 6(0.00106353 0.00113464 0.00154578 0.00248461 0.00262021 0.00173535);
    }
    sideWalls
    {
        type            empty;
    }
    glass1
    {
        type            kqRWallFunction;
        value           nonuniform List<scalar> 9(0.00309603 0.00539632 0.00776084 0.0104167 0.0135313 0.0172024 0.0204143 0.0207084 0.0194394);
    }
    glass2
    {
        type            kqRWallFunction;
        value           nonuniform List<scalar> 2(0.00379727 0.00343282);
    }
    sun
    {
        type            kqRWallFunction;
        value           nonuniform List<scalar> 
14
(
0.00309603
0.00378339
0.0040173
0.00446497
0.00493861
0.00547197
0.00588453
0.00610346
0.00608718
0.00580971
0.00507632
0.00425828
0.00345531
0.00266811
)
;
    }
    Table_master
    {
        type            kqRWallFunction;
        value           nonuniform List<scalar> 9(0.00222106 0.00166461 0.00126318 0.00097954 0.000777674 0.000631751 0.000524453 0.000446481 0.000395828);
    }
    Table_slave
    {
        type            kqRWallFunction;
        value           nonuniform List<scalar> 9(0.00292745 0.00242434 0.0020716 0.00180077 0.00158427 0.00139481 0.00121785 0.00104484 0.000866555);
    }
    inlet
    {
        type            turbulentIntensityKineticEnergyInlet;
        intensity       0.05;
        value           uniform 0.000937501;
    }
    outlet
    {
        type            zeroGradient;
    }
}


// ************************************************************************* //
