/*--------------------------------*- C++ -*----------------------------------*\
  =========                 |
  \\      /  F ield         | OpenFOAM: The Open Source CFD Toolbox
   \\    /   O peration     | Website:  https://openfoam.org
    \\  /    A nd           | Version:  6
     \\/     M anipulation  |
\*---------------------------------------------------------------------------*/
FoamFile
{
    version     2.0;
    format      ascii;
    class       volScalarField;
    location    "2900";
    object      nut;
}
// * * * * * * * * * * * * * * * * * * * * * * * * * * * * * * * * * * * * * //

dimensions      [0 2 -1 0 0 0 0];

internalField   nonuniform List<scalar> 
458
(
0.0012495
0.00138126
0.00142331
0.00150051
0.00157809
0.00166112
0.00172261
0.00175437
0.00175205
0.00171166
0.00160008
0.00146547
0.00132009
0.00115997
0.00100646
0.000562042
0.000661608
0.000777975
0.000847146
0.000847349
0.000794154
0.000734222
0.000681022
0.000635422
0.000596263
0.00056247
0.000533005
0.000506976
0.000483422
0.000460976
0.000437793
0.000413417
0.00037409
0.00164963
0.00436904
0.00435387
0.0050713
0.00574907
0.00621325
0.00660775
0.00690767
0.00710066
0.00716941
0.00705134
0.00669615
0.00615544
0.00507995
0.0033996
0.00125113
0.00109391
0.000912625
0.000540545
0.00149992
0.00240449
0.00307631
0.00320504
0.0021543
0.00177327
0.00152966
0.00135675
0.00122817
0.00112915
0.00105152
0.000982767
0.000904411
0.00082433
0.000751128
0.00077332
0.000418378
0.0019783
0.00599376
0.00545471
0.00628886
0.00670475
0.00698536
0.00724494
0.0075007
0.00776551
0.00799505
0.00808863
0.00797226
0.00766846
0.00708873
0.00591445
0.00424358
0.00314632
0.00106328
0.000703315
0.00158575
0.00269761
0.00371832
0.00384999
0.00105831
0.000916198
0.000798115
0.00070282
0.000626228
0.000564427
0.000514267
0.000474501
0.000446775
0.000514503
0.000615154
0.00088053
0.000449231
0.00229194
0.00752934
0.00582045
0.00663415
0.00680402
0.00689707
0.00700752
0.0072006
0.00751072
0.00783866
0.00804693
0.00807786
0.00792723
0.00759127
0.00695226
0.00595007
0.0047208
0.00254492
0.00118543
0.00156044
0.00253929
0.00387792
0.00501273
0.00499441
0.00121501
0.00110568
0.00102208
0.00095293
0.000893811
0.000838666
0.000783665
0.000725872
0.000661049
0.000595
0.000598508
0.000981247
0.000483374
0.00261219
0.0094545
0.00682449
0.00712108
0.00710782
0.00696187
0.00687583
0.00701107
0.00733156
0.00770479
0.00796837
0.00803082
0.00790539
0.00765106
0.00727793
0.00673956
0.0059758
0.00482999
0.00451708
0.00515662
0.00605086
0.00690337
0.00744307
0.00740243
0.00614253
0.00541256
0.00492591
0.00453396
0.00407626
0.00356356
0.00300384
0.00240869
0.00180638
0.00127696
0.000941861
0.000998464
0.00071319
0.00059985
0.000668867
0.00073238
0.00294531
0.0115626
0.00928498
0.00840309
0.00775881
0.00718983
0.00690454
0.00699004
0.0073509
0.007785
0.00807923
0.00812702
0.00797474
0.00775385
0.00758441
0.0074775
0.00735698
0.00723602
0.00764428
0.00840222
0.00899372
0.00930455
0.00929695
0.00896171
0.00828932
0.00762253
0.00701551
0.00639881
0.005743
0.00504437
0.00430032
0.00351721
0.00272394
0.00199523
0.0014671
0.00119285
0.000934342
0.000802883
0.00104511
0.000756471
0.00320854
0.0127571
0.0118329
0.00967615
0.0081411
0.00719067
0.0068584
0.00704907
0.0075538
0.00809276
0.00841245
0.00842624
0.00826957
0.0082077
0.00843212
0.00876888
0.00909317
0.00946291
0.0100295
0.010529
0.0106896
0.0105419
0.0101384
0.00954848
0.00884851
0.00814512
0.00745837
0.00677971
0.0060933
0.00540188
0.0047016
0.00399351
0.0032893
0.00261398
0.00206947
0.00167355
0.001385
0.0012565
0.00118869
0.000882964
0.00323158
0.0101767
0.00901462
0.00761
0.00668611
0.00633963
0.0065647
0.00721902
0.00802894
0.00868168
0.0089525
0.0088855
0.00883441
0.00937258
0.00982756
0.0101748
0.0104875
0.010821
0.0111458
0.0112702
0.0110539
0.0105556
0.00985963
0.00905015
0.00820537
0.00738828
0.00663379
0.00593529
0.0052854
0.00470315
0.00419774
0.00374667
0.00333674
0.0029238
0.00259695
0.00243451
0.00244394
0.00256946
0.00312431
0.00138389
0.00313101
0.00357788
0.00371916
0.00381886
0.00435767
0.00541266
0.00677843
0.0081359
0.00913031
0.00954556
0.0094145
0.00947638
0.00977122
0.0101861
0.0104709
0.0106378
0.0107766
0.0108804
0.0108575
0.0105969
0.0100645
0.00931084
0.00840837
0.00743447
0.00646998
0.00557682
0.0047646
0.00403991
0.00342926
0.00295176
0.00260739
0.00237574
0.00222248
0.00212838
0.00208259
0.00206917
0.0020431
0.00196975
0.00185886
0.00131579
0.000771603
0.00412033
0.00746081
0.00964611
0.0107526
0.0110138
0.0106018
0.00984776
0.00923979
0.00926247
0.00952926
0.009678
0.00970369
0.009687
0.00963181
0.00947133
0.00912099
0.00853904
0.00775633
0.00685792
0.00594106
0.00508517
0.00433381
0.00369548
0.00316571
0.00274634
0.00243805
0.0022301
0.00210366
0.00203904
0.00201897
0.00202867
0.0020507
0.00205813
0.00201496
0.00190782
0.00174149
0.00111938
0.0028217
0.00902583
0.00987276
0.00997073
0.00947717
0.00876727
0.00811589
0.00760286
0.00731233
0.00720202
0.00708875
0.00696549
0.00686997
0.00678473
0.00665733
0.00642815
0.00605814
0.00555733
0.00498669
0.00442517
0.00392964
0.0035195
0.00318707
0.00291576
0.00269152
0.00250568
0.00235359
0.00223398
0.00214867
0.00210061
0.00209045
0.00211188
0.00214751
0.00217236
0.00214229
0.0021576
0.00223204
0.00114951
0.00185147
0.0020072
0.00213673
0.00206947
0.00198378
0.00188989
0.00179556
0.00166148
0.0015129
0.0013828
0.00128877
0.00122659
0.00118621
0.00115926
0.00113862
0.00111837
0.00109406
0.00106301
0.00102516
0.000983288
0.000941679
0.000903972
0.000871929
0.000845665
0.000824635
0.000808506
0.000797548
0.000792547
0.0007945
0.000804316
0.000822651
0.000849936
0.000886487
0.000932339
0.000986265
0.00104979
0.00107452
0.00104522
0.000984652
0.000935504
)
;

boundaryField
{
    floor
    {
        type            nutkWallFunction;
        Cmu             0.09;
        kappa           0.41;
        E               9.8;
        value           nonuniform List<scalar> 
36
(
0.00012148
6.75838e-05
8.00006e-05
9.42323e-05
0.000102571
0.000102597
9.61921e-05
8.89153e-05
8.23966e-05
7.67605e-05
7.18812e-05
6.76393e-05
6.39151e-05
6.06039e-05
5.75893e-05
5.46994e-05
5.1696e-05
4.8516e-05
4.33343e-05
4.33343e-05
4.91624e-05
5.31756e-05
5.75769e-05
7.23194e-05
8.08896e-05
8.86828e-05
0.00012148
0.000149871
0.000131708
0.000110386
6.75838e-05
0.000110386
6.48685e-05
0.000128134
8.51251e-05
0.000142311
)
;
    }
    ceiling
    {
        type            nutkWallFunction;
        Cmu             0.09;
        kappa           0.41;
        E               9.8;
        value           nonuniform List<scalar> 
43
(
0.000217236
0.000234202
0.000248238
0.000240973
0.000231656
0.000221394
0.000211027
0.000196187
0.000179588
0.000164909
0.000154204
0.00014708
0.000142432
0.000139319
0.000136929
0.000134581
0.000131753
0.000128132
0.000123699
0.000118774
0.000113856
0.000109377
0.000105553
0.000102407
9.98787e-05
9.79343e-05
9.66102e-05
9.60043e-05
9.62387e-05
9.74225e-05
9.96309e-05
0.000102907
0.000107278
0.000112733
0.000119108
0.000126568
0.000129458
0.000126033
0.000118917
0.000113108
0.000353734
0.000399872
0.000321082
)
;
    }
    sWall
    {
        type            nutkWallFunction;
        Cmu             0.09;
        kappa           0.41;
        E               9.8;
        value           uniform 0.000217288;
    }
    nWall
    {
        type            nutkWallFunction;
        Cmu             0.09;
        kappa           0.41;
        E               9.8;
        value           nonuniform List<scalar> 6(8.86817e-05 9.16164e-05 0.000106853 0.000134696 0.000138193 0.000113113);
    }
    sideWalls
    {
        type            empty;
    }
    glass1
    {
        type            nutkWallFunction;
        Cmu             0.09;
        kappa           0.41;
        E               9.8;
        value           nonuniform List<scalar> 9(0.000149857 0.000195134 0.000231407 0.000265416 0.000299634 0.000334761 0.000362227 0.000364631 0.000354192);
    }
    glass2
    {
        type            nutkWallFunction;
        Cmu             0.09;
        kappa           0.41;
        E               9.8;
        value           nonuniform List<scalar> 2(0.000165091 0.000157341);
    }
    sun
    {
        type            nutkWallFunction;
        Cmu             0.09;
        kappa           0.41;
        E               9.8;
        value           nonuniform List<scalar> 
14
(
0.000149697
0.00016472
0.000169482
0.000178186
0.000186882
0.000196137
0.000202957
0.000206469
0.00020621
0.00020174
0.000189322
0.000174231
0.000157755
0.000139376
)
;
    }
    Table_master
    {
        type            nutkWallFunction;
        Cmu             0.09;
        kappa           0.41;
        E               9.8;
        value           nonuniform List<scalar> 9(0.000127562 0.000110815 9.66697e-05 8.50749e-05 7.56196e-05 6.78882e-05 6.1537e-05 5.64474e-05 5.28674e-05);
    }
    Table_slave
    {
        type            nutkWallFunction;
        Cmu             0.09;
        kappa           0.41;
        E               9.8;
        value           nonuniform List<scalar> 9(0.000145735 0.000133088 0.00012332 0.000115172 0.000108152 0.000101554 9.49227e-05 8.78949e-05 7.99324e-05);
    }
    inlet
    {
        type            calculated;
        value           uniform 0.000167705;
    }
    outlet
    {
        type            calculated;
        value           nonuniform List<scalar> 2(0.00185147 0.0020072);
    }
}


// ************************************************************************* //
