/*--------------------------------*- C++ -*----------------------------------*\
  =========                 |
  \\      /  F ield         | OpenFOAM: The Open Source CFD Toolbox
   \\    /   O peration     | Website:  https://openfoam.org
    \\  /    A nd           | Version:  6
     \\/     M anipulation  |
\*---------------------------------------------------------------------------*/
FoamFile
{
    version     2.0;
    format      ascii;
    class       volScalarField;
    location    "300";
    object      alphat;
}
// * * * * * * * * * * * * * * * * * * * * * * * * * * * * * * * * * * * * * //

dimensions      [1 -1 -1 0 0 0 0];

internalField   nonuniform List<scalar> 
458
(
0.000856577
0.00088772
0.00087182
0.000904087
0.000931436
0.000954037
0.000972849
0.000988882
0.00100312
0.00101662
0.00102941
0.0010403
0.00105002
0.00106085
0.00107382
0.000994445
0.000943333
0.00090814
0.000885378
0.000865786
0.000840125
0.000813211
0.000788107
0.000764289
0.000741511
0.000719572
0.000698227
0.000677094
0.00065553
0.000632628
0.000606491
0.000578798
0.000526354
0.00133889
0.00192794
0.00150104
0.001698
0.00176479
0.00184424
0.00192738
0.00200658
0.00207204
0.0021118
0.00212484
0.00209421
0.00199385
0.00178448
0.00144813
0.00112817
0.00109876
0.00108265
0.00114156
0.00177844
0.00226041
0.00260392
0.00269101
0.00230274
0.0021351
0.00199866
0.00187753
0.00176386
0.00165442
0.00154453
0.00142568
0.00129003
0.00116208
0.00105623
0.00114062
0.000617117
0.00175261
0.00283991
0.0016295
0.00233123
0.00243675
0.00253499
0.00262585
0.0027059
0.00277234
0.00281982
0.00284394
0.00283747
0.00278544
0.00267511
0.00250576
0.00226197
0.00182286
0.00122036
0.00126876
0.00286151
0.00351448
0.00376338
0.00342114
0.00101143
0.000896744
0.000810736
0.000746491
0.000697818
0.000660085
0.000630532
0.000608327
0.000595247
0.000704669
0.000858668
0.00128494
0.000682861
0.00216806
0.00422374
0.00157549
0.00271448
0.00289413
0.00298766
0.00305557
0.0031036
0.00313578
0.0031552
0.00316365
0.0031565
0.00312542
0.00306098
0.00294567
0.00274579
0.00240392
0.00189732
0.00128245
0.00338363
0.00388526
0.00407803
0.00406666
0.00358569
0.000990501
0.000939585
0.000920822
0.000909944
0.000896027
0.000872905
0.000841076
0.000807508
0.00076676
0.000751747
0.000822212
0.00137712
0.000746578
0.00258538
0.00609016
0.00174626
0.00277959
0.00315819
0.00325724
0.00331321
0.0033439
0.00335492
0.00335383
0.00334314
0.00332352
0.0032988
0.00325899
0.00318243
0.00305854
0.00291878
0.00286813
0.00304574
0.00347437
0.00403378
0.00411204
0.00406249
0.00393069
0.00357514
0.00355803
0.00357966
0.00357637
0.00352499
0.00340872
0.00316545
0.00275672
0.00224394
0.00169141
0.0013088
0.00134277
0.00107264
0.00087087
0.000959255
0.000953214
0.00299935
0.00812492
0.00258528
0.00249238
0.00324091
0.00341238
0.00349888
0.00354866
0.00355438
0.00352033
0.00346257
0.00340642
0.00337855
0.0033552
0.003296
0.00316627
0.00295372
0.00271451
0.00270982
0.00328114
0.00408051
0.00410511
0.00400878
0.00394394
0.00394357
0.00400991
0.00407325
0.00410574
0.00410016
0.00405268
0.00394196
0.00365003
0.00317565
0.00254174
0.00195256
0.00155167
0.00125642
0.00139516
0.00209509
0.00116768
0.00345065
0.00981326
0.00486351
0.00226705
0.00255035
0.00315305
0.00349606
0.00370828
0.00381676
0.00378129
0.00353213
0.00341734
0.00338513
0.00338656
0.00337049
0.00328523
0.00307056
0.00268601
0.00245249
0.00304179
0.00415573
0.00416779
0.00402179
0.00393064
0.00391729
0.0039492
0.00398812
0.00401751
0.00403895
0.00405952
0.00407785
0.00399594
0.00365628
0.00310896
0.0025316
0.00204233
0.00167728
0.00163693
0.00216258
0.00141485
0.00359436
0.0106604
0.00763713
0.00463423
0.00272599
0.00230913
0.00277421
0.00330915
0.00368033
0.00369137
0.00346696
0.00334692
0.00331898
0.00333813
0.0033591
0.00333352
0.00318853
0.00275417
0.0022909
0.00276091
0.00425542
0.00431154
0.00412546
0.00398643
0.00390628
0.00385362
0.00381045
0.00377986
0.00377883
0.00382854
0.00394104
0.00408314
0.00400755
0.00356103
0.00310562
0.00285537
0.00289998
0.00322982
0.00459304
0.00189538
0.00355442
0.00442128
0.00492696
0.00476343
0.00405954
0.0033584
0.00293108
0.00278821
0.00283174
0.00292637
0.00301471
0.00309041
0.00316073
0.00322564
0.00327237
0.00327359
0.00317393
0.00281023
0.002197
0.0024589
0.00434182
0.00453043
0.00432295
0.00413605
0.00397973
0.00381916
0.00364782
0.0034756
0.00331759
0.00318492
0.00307537
0.00297035
0.00285056
0.00273508
0.00268741
0.00272571
0.00277204
0.00273042
0.00260087
0.0018206
0.00192934
0.00311259
0.00353885
0.00345781
0.00324913
0.00308711
0.00300103
0.00296794
0.00297939
0.00301949
0.00306815
0.00310741
0.00312137
0.00309241
0.00298065
0.0026375
0.00206271
0.00217699
0.00434568
0.00479238
0.00459836
0.00442734
0.00427037
0.00406815
0.00381911
0.0035423
0.00326421
0.00301521
0.00282513
0.00271659
0.00267395
0.002658
0.00265716
0.00263942
0.0025396
0.00230436
0.00196901
0.00149446
0.00265598
0.00443773
0.00434765
0.00405826
0.00378865
0.00356946
0.00340924
0.00329298
0.00317466
0.00303422
0.00288195
0.00272624
0.00257307
0.00242375
0.00226446
0.00204079
0.00173277
0.00191146
0.0038228
0.0042626
0.00413716
0.00404688
0.00395601
0.00383136
0.00368897
0.00354954
0.00342476
0.00331506
0.00321017
0.00312193
0.00307746
0.00306848
0.00307474
0.00306271
0.00301863
0.00296373
0.0023814
0.00151221
0.00298064
0.0029903
0.00301921
0.00343722
0.00312528
0.00271131
0.00250684
0.00235035
0.00222265
0.00211351
0.00201775
0.00193121
0.00184942
0.00176961
0.00168997
0.00160938
0.00152703
0.00144153
0.00134933
0.00123279
0.00125592
0.001268
0.00126386
0.00126155
0.00126144
0.00126414
0.00127126
0.00128403
0.00130337
0.00133044
0.00136746
0.00141359
0.00146728
0.00152833
0.00159638
0.00166988
0.00174689
0.00172875
0.00160227
0.00148824
)
;

boundaryField
{
    floor
    {
        type            compressible::alphatWallFunction;
        Prt             0.85;
        value           nonuniform List<scalar> 
36
(
0.000152508
0.000141384
0.00013416
0.000129161
0.000125915
0.000123113
0.000119432
0.000115556
0.000111927
0.000108472
0.000105155
0.000101949
9.88178e-05
9.57068e-05
9.25201e-05
8.91218e-05
8.52249e-05
8.10735e-05
7.31443e-05
7.31434e-05
8.68095e-05
9.65535e-05
0.000105889
0.000123836
0.000136412
0.00013556
0.000152506
0.000160077
0.000155988
0.000153742
0.000141382
0.00015374
0.000161942
0.000172819
0.000179473
0.000181346
)
;
    }
    ceiling
    {
        type            compressible::alphatWallFunction;
        Prt             0.85;
        value           nonuniform List<scalar> 
43
(
0.000401873
0.000403077
0.000406685
0.000458508
0.000419962
0.000368163
0.000342275
0.00032231
0.000305911
0.000291817
0.000279385
0.000268095
0.000257375
0.000246864
0.000236323
0.000225602
0.000214584
0.000203074
0.000190578
0.00017466
0.000177844
0.000179503
0.000178937
0.00017862
0.000178605
0.000178975
0.00017995
0.000181698
0.000184342
0.000188037
0.000193074
0.00019933
0.000206582
0.000214794
0.000223903
0.000233694
0.000243903
0.000241504
0.000224692
0.000209412
0.000473128
0.00057819
0.000361043
)
;
    }
    sWall
    {
        type            compressible::alphatWallFunction;
        Prt             0.85;
        value           uniform 0.000400592;
    }
    nWall
    {
        type            compressible::alphatWallFunction;
        Prt             0.85;
        value           nonuniform List<scalar> 6(0.000135292 0.000165281 0.000199073 0.000209846 0.00021223 0.000209007);
    }
    sideWalls
    {
        type            empty;
    }
    glass1
    {
        type            compressible::alphatWallFunction;
        Prt             0.85;
        value           nonuniform List<scalar> 9(0.000117866 0.000183851 0.000238501 0.000292109 0.000344968 0.000396599 0.000452077 0.000469749 0.000465142);
    }
    glass2
    {
        type            compressible::alphatWallFunction;
        Prt             0.85;
        value           nonuniform List<scalar> 2(0.000260579 0.000250928);
    }
    sun
    {
        type            compressible::alphatWallFunction;
        Prt             0.85;
        value           nonuniform List<scalar> 
14
(
0.000121806
0.000126239
0.000123965
0.000128572
0.000132462
0.000135666
0.000138327
0.00014059
0.000142596
0.000144495
0.00014629
0.000147817
0.00014918
0.000150695
)
;
    }
    Table_master
    {
        type            compressible::alphatWallFunction;
        Prt             0.85;
        value           nonuniform List<scalar> 9(0.000144031 0.000127786 0.000115443 0.000106122 9.89964e-05 9.34309e-05 8.90448e-05 8.57326e-05 8.37746e-05);
    }
    Table_slave
    {
        type            compressible::alphatWallFunction;
        Prt             0.85;
        value           nonuniform List<scalar> 9(0.000141084 0.000133882 0.000131217 0.000129669 0.000127685 0.000124381 0.000119816 0.000114979 0.000109075);
    }
    inlet
    {
        type            fixedValue;
        value           uniform 1.94e-05;
    }
    outlet
    {
        type            zeroGradient;
    }
}


// ************************************************************************* //
