/*--------------------------------*- C++ -*----------------------------------*\
  =========                 |
  \\      /  F ield         | OpenFOAM: The Open Source CFD Toolbox
   \\    /   O peration     | Website:  https://openfoam.org
    \\  /    A nd           | Version:  6
     \\/     M anipulation  |
\*---------------------------------------------------------------------------*/
FoamFile
{
    version     2.0;
    format      ascii;
    class       surfaceScalarField;
    location    "500";
    object      phi;
}
// * * * * * * * * * * * * * * * * * * * * * * * * * * * * * * * * * * * * * //

dimensions      [1 0 -1 0 0 0 0];

internalField   nonuniform List<scalar> 
850
(
-0.00314378
0.00320855
-0.0042582
0.00111443
-0.0051591
0.000900901
-0.00590024
0.000741146
-0.00644709
0.00054686
-0.00676823
0.000321153
-0.00682539
5.71581e-05
-0.0065684
-0.00025698
-0.00594834
-0.000620054
-0.00495765
-0.000990682
-0.00366499
-0.00129265
-0.00222018
-0.00144481
-0.000847148
-0.00137302
0.000118518
-0.000965659
0.000121392
-0.000951973
0.000956517
-0.000575853
-0.000376114
0.000224559
-0.000800407
0.000925058
-0.000700495
0.00144065
-0.000515594
0.001721
-0.000280344
0.00183529
-0.000114282
0.00188787
-5.25785e-05
0.00191463
-2.67613e-05
0.00192274
-8.1005e-06
0.00191613
6.61982e-06
0.00189535
2.07894e-05
0.00185175
4.36052e-05
0.00175931
9.24566e-05
0.00157446
0.000184865
0.00128075
0.000293736
0.0009118
0.000368963
0.000917696
-0.00227434
0.00565759
-0.00339807
0.00223817
-0.00434829
0.00185113
-0.00509961
0.00149248
-0.00565683
0.00110408
-0.00600294
0.000667269
-0.00610207
0.000156295
-0.0059082
-0.000450845
-0.0053789
-0.00114934
-0.004515
-0.00185458
-0.00340174
-0.00240591
-0.00219226
-0.00265427
-0.00105993
-0.00250535
-0.000122419
-0.00190316
0.000882246
-0.000883265
0.0012693
-0.000382444
0.00108623
0.000188439
0.0011019
0.000247917
0.000722117
0.000719377
-0.000847566
0.00110668
-0.0011877
0.00147471
-0.00106852
0.00177349
-0.000814365
0.00183823
-0.000345079
0.00184595
-0.000122
0.00185661
-6.32448e-05
0.00186592
-3.60644e-05
0.00187103
-1.32093e-05
0.00187245
5.20526e-06
0.00186994
2.33026e-05
0.00185994
5.36195e-05
0.00180787
0.000144536
0.0015991
0.000393646
0.00123674
0.000656117
0.000774511
0.000831209
0.00170735
-0.00160689
0.00753182
-0.00259227
0.00322356
-0.00345497
0.00271384
-0.00412572
0.00216323
-0.00464759
0.00162596
-0.00500351
0.0010232
-0.00514931
0.000302105
-0.00502588
-0.000574264
-0.0045819
-0.00159332
-0.00382485
-0.00261162
-0.00286128
-0.00336947
-0.00184041
-0.00367514
-0.000891939
-0.00345381
-8.64951e-05
-0.0027086
0.00060929
-0.00157904
0.000873119
-0.000646264
0.000721467
0.000340099
0.00183735
0.0016023
-0.000864306
0.00184339
-0.00108864
0.00182723
-0.00117154
0.00190364
-0.00114492
0.00217833
-0.00108906
0.00183341
0.00171157
0.00164848
0.00161257
0.00159952
0.00160488
0.00162834
0.00168213
0.00182683
0.00154049
0.000680001
0.0011719
0.00102472
0.000655266
0.00134785
0.00238551
-0.00112076
0.00899878
-0.00190654
0.00400935
-0.00249657
0.00330388
-0.00297783
0.0026445
-0.00339409
0.00204222
-0.00371868
0.00134779
-0.00389264
0.00047608
-0.00383176
-0.00063514
-0.00346428
-0.00196079
-0.00281713
-0.00325877
-0.00202607
-0.00416053
-0.0012229
-0.00447831
-0.000491582
-0.00418512
0.000122274
-0.00332245
0.000669271
-0.00212603
0.00101293
-0.000989918
0.00129524
5.78002e-05
0.00243284
0.000699754
0.00248174
-3.42416e-05
0.00219931
-0.000581873
0.0020855
-0.00097482
0.00196509
-0.00105112
0.00183216
-0.00101198
0.00158165
-0.000838538
0.00198822
-0.000406719
0.00222845
-0.000240378
0.00241963
-0.000191338
0.00257784
-0.000158361
0.00268738
-0.000109691
0.00271825
-3.10248e-05
0.0026333
8.47903e-05
0.00238738
0.000245768
0.00190528
0.000481946
0.00166587
0.000919425
0.00127509
0.00141551
0.000709716
0.00191324
0.00312454
-0.000768126
0.0101799
-0.00134978
0.00459101
-0.00149167
0.00344578
-0.00168008
0.00283292
-0.00191845
0.00228058
-0.00215074
0.00158009
-0.00230723
0.000632577
-0.00227063
-0.000671737
-0.00195894
-0.00227247
-0.00145242
-0.00376529
-0.000896914
-0.00471603
-0.000380575
-0.00499465
6.09302e-05
-0.00462662
0.000435863
-0.00369738
0.000792145
-0.00248231
0.00111143
-0.0013092
0.00153447
-0.000365229
0.00209572
0.000138509
0.00216797
-0.00010648
0.00208298
-0.000496867
0.00187337
-0.000765202
0.00167619
-0.00085393
0.00150012
-0.000835906
0.00138519
-0.000723611
0.00149882
-0.000520339
0.00164847
-0.000390031
0.00179426
-0.000337125
0.00193438
-0.000298473
0.00205639
-0.000231705
0.00213557
-0.000110202
0.0021407
7.96617e-05
0.00205372
0.000332752
0.00188812
0.000647546
0.00174216
0.00106539
0.00161424
0.00154343
0.00144662
0.00208087
0.00239308
0.0021781
0.00170311
0.000718704
0.00181643
-8.58623e-05
0.00191248
-0.000648776
0.0112977
-0.00100172
0.00494396
-0.000508684
0.00295275
-0.000270991
0.00259523
-0.000299474
0.00230907
-0.000412748
0.00169337
-0.000481759
0.000701594
-0.000375069
-0.000778419
-9.51912e-05
-0.00255234
0.000211353
-0.00407182
0.000461326
-0.00496599
0.000623979
-0.0051573
0.000710445
-0.00471308
0.000774395
-0.00376132
0.000844617
-0.00255253
0.000942225
-0.0014068
0.00113839
-0.000561383
0.00141758
-0.000140675
0.00149403
-0.000182922
0.00139828
-0.000401113
0.00121454
-0.00058146
0.00103125
-0.000670634
0.000880287
-0.000684934
0.00079647
-0.000639791
0.000829052
-0.000552919
0.000932894
-0.000493871
0.00106454
-0.00046877
0.00120764
-0.000441573
0.00135383
-0.000377886
0.00149218
-0.000248558
0.00159637
-2.45233e-05
0.0016501
0.000279032
0.0016783
0.000619341
0.00174174
0.00100197
0.00190524
0.00137994
0.00220558
0.00178054
0.00252574
0.00185795
0.00205236
0.00119209
0.00115539
0.000811118
0.00313949
-0.000738645
0.0125549
-0.000530435
0.00473575
0.000853014
0.00156931
0.00139616
0.0020521
0.00146218
0.00224306
0.00145416
0.0017014
0.00157634
0.000579428
0.00182584
-0.00102791
0.00203175
-0.00275824
0.00207317
-0.00411324
0.00195386
-0.00484667
0.00170075
-0.00490418
0.00137074
-0.00438306
0.00103404
-0.00342462
0.000740208
-0.0022587
0.00054148
-0.00120807
0.000494098
-0.000513995
0.000565484
-0.000212056
0.000587918
-0.00020535
0.000511848
-0.000325037
0.000376994
-0.000446601
0.000231546
-0.000525183
0.000108747
-0.000562133
3.76859e-05
-0.000568729
4.33951e-05
-0.000558626
0.000107803
-0.000558277
0.000202961
-0.000563926
0.000316848
-0.000555457
0.000449982
-0.000511016
0.000608338
-0.000406911
0.00079794
-0.000214121
0.00099374
8.32378e-05
0.00118691
0.000426176
0.00142158
0.000767307
0.00172885
0.00107267
0.00212931
0.00138009
0.0025722
0.00141507
0.00277243
0.000991878
0.0020988
0.00148476
0.00531003
0.00299768
0.0101361
0.00374204
0.00399139
0.00439182
0.000919547
0.00437884
0.00206509
0.00417151
0.00245039
0.00405114
0.00182178
0.00418975
0.000440826
0.00440002
-0.00123817
0.00436894
-0.00272716
0.00402699
-0.00377128
0.00342805
-0.00424772
0.00265619
-0.00413231
0.00182383
-0.0035507
0.00102997
-0.00263076
0.000355094
-0.00158382
-9.20351e-05
-0.000760941
-0.000279687
-0.000326341
-0.000314503
-0.000177237
-0.000335591
-0.000184259
-0.000401409
-0.000259216
-0.000505808
-0.000342201
-0.00062205
-0.00040894
-0.000725875
-0.000458306
-0.000799563
-0.00049504
-0.000833516
-0.000524672
-0.000838148
-0.000553643
-0.000825277
-0.000576793
-0.00079814
-0.00058259
-0.000750835
-0.000558316
-0.00066567
-0.000492071
-0.000508537
-0.000371247
-0.000251943
-0.00017335
6.00539e-05
0.000114186
0.000401687
0.000425681
0.000766166
0.0007082
0.00115559
0.000990676
0.00148997
0.0010807
0.00157277
0.000909085
0.000718109
0.00233943
0.00636762
0.0107806
0.0147725
0.0140248
0.00166724
0.0125705
0.00351947
0.0112052
0.00381567
0.0101175
0.00290944
0.00915577
0.00140261
0.008125
-0.000207396
0.00697286
-0.00157501
0.00572763
-0.00252605
0.00441362
-0.00293369
0.00302719
-0.00274588
0.00168476
-0.00220827
0.000473514
-0.00141952
-0.000417862
-0.000692444
-0.00089626
-0.000282542
-0.00108666
-0.000135942
-0.00115581
-0.000108089
-0.00120119
-0.000138876
-0.00126623
-0.000194176
-0.00135568
-0.000252751
-0.00145891
-0.000305701
-0.00156564
-0.000351582
-0.00166995
-0.000390724
-0.00177089
-0.000423733
-0.00187416
-0.000450368
-0.00198553
-0.000465421
-0.00210923
-0.000458877
-0.00225073
-0.000416815
-0.00241981
-0.000322984
-0.00263174
-0.000159312
-0.00289713
9.20403e-05
-0.00321521
0.000432276
-0.00366988
0.000880361
-0.00441128
0.0014496
-0.0055341
0.00211351
-0.00717472
0.00272133
-0.00921747
0.00295184
-0.00888456
0.00200653
-0.00214311
0.013941
0.00447649
0.0118712
0.00558929
0.0103016
0.00538524
0.00917367
0.00403742
0.00824449
0.00233181
0.00730027
0.000736833
0.00614945
-0.000424189
0.00481784
-0.00119442
0.00341536
-0.00153121
0.00185526
-0.00118578
0.000354729
-0.000707739
-0.00079445
-0.000270339
-0.00143487
-5.20256e-05
-0.00172416
6.75066e-06
-0.00185292
-7.18763e-06
-0.00191045
-5.05518e-05
-0.00195227
-9.70559e-05
-0.00200591
-0.00014054
-0.002079
-0.000179657
-0.00217166
-0.000213039
-0.00228383
-0.00023941
-0.00241652
-0.000258039
-0.00257143
-0.000268818
-0.00275066
-0.000271138
-0.00295387
-0.000262203
-0.00317619
-0.000236551
-0.00340702
-0.000185978
-0.00362874
-0.000101267
-0.00381162
2.3579e-05
-0.0039485
0.000228928
-0.00405777
0.000541549
-0.00416457
0.000987168
-0.00429253
0.00157756
-0.00444005
0.00226104
-0.00455875
0.00284003
-0.00445296
0.00284604
-0.00278644
0.000340019
-0.00483284
-0.00296048
0.00749036
-0.00121222
0.00384103
0.000596056
0.00357696
0.00167219
0.00296129
0.00209788
0.00190612
0.00208055
0.000754165
0.00173174
-7.53776e-05
0.00103191
-0.00049459
1.66763e-05
-0.000515978
-0.00106293
-0.000106179
-0.00184492
7.42437e-05
-0.00224787
0.000132619
-0.00240664
0.000106736
-0.00245147
5.1582e-05
-0.00246325
4.59533e-06
-0.00247469
-3.9112e-05
-0.0024968
-7.49417e-05
-0.00253512
-0.000102225
-0.00259122
-0.000123552
-0.00266453
-0.000139735
-0.00275357
-0.000150364
-0.00285648
-0.000155132
-0.00297116
-0.000154132
-0.00309522
-0.000147081
-0.00322496
-0.000132457
-0.00335413
-0.000107375
-0.00347262
-6.74864e-05
-0.0035681
-5.78704e-06
-0.00362019
7.56799e-05
-0.00358512
0.000193855
-0.0034269
0.000383334
-0.00310446
0.000664738
-0.00260118
0.00107428
-0.00193743
0.0015973
-0.000930438
0.00183304
0.000807411
0.0011082
0.0015929
-0.000445462
-0.00313334
-0.017825
-0.0226536
-0.0151208
-0.0112456
-0.00763712
-0.00464688
-0.00271334
-0.00193331
-0.0019846
-0.00245665
-0.00295085
-0.00303579
-0.00294066
-0.00278716
-0.00265922
-0.00258596
-0.00255924
-0.00257587
-0.002628
-0.00270711
-0.00280729
-0.00292347
-0.00305018
-0.00318165
-0.00331221
-0.00343589
-0.00354522
-0.00362981
-0.00367495
-0.0036589
-0.003562
-0.00334759
-0.00294441
-0.00226058
-0.00116796
0.000446899
0.00229664
0.00342157
0.00299384
)
;

boundaryField
{
    floor
    {
        type            calculated;
        value           nonuniform List<scalar> 
36
(
0
0
0
0
0
0
0
0
0
0
0
0
0
0
0
0
0
0
0
-5.88061e-06
-1.5125e-05
-2.28802e-05
-2.93038e-05
-2.87276e-05
-2.74464e-05
-2.71334e-05
-2.86466e-06
-4.60673e-06
-5.3552e-06
-6.23435e-06
-4.5374e-06
-9.4287e-06
-1.35102e-05
-1.3974e-05
-1.58712e-05
-1.46476e-05
)
;
    }
    ceiling
    {
        type            calculated;
        value           nonuniform List<scalar> 
43
(
-4.36655e-05
-4.2979e-05
-4.24083e-05
-3.42084e-05
-3.15002e-05
-2.89529e-05
-2.74147e-05
-2.58653e-05
-2.40981e-05
-2.25378e-05
-2.17798e-05
-2.12363e-05
-2.08872e-05
-2.08825e-05
-2.12092e-05
-2.16735e-05
-2.21249e-05
-2.24821e-05
-2.28145e-05
-2.3117e-05
-2.33694e-05
-2.35524e-05
-2.36521e-05
-2.36606e-05
-2.3575e-05
-2.33964e-05
-2.3129e-05
-2.27779e-05
-2.23467e-05
-2.18329e-05
-2.12201e-05
-2.05526e-05
-1.9839e-05
-1.9095e-05
-1.83338e-05
-1.75491e-05
-1.66969e-05
-1.67265e-05
-1.77338e-05
-1.81457e-05
1.50656e-06
-4.81003e-07
-5.33844e-05
)
;
    }
    sWall
    {
        type            calculated;
        value           uniform -0.000209748;
    }
    nWall
    {
        type            calculated;
        value           nonuniform List<scalar> 6(-6.891e-05 -7.16085e-05 -7.17334e-05 -9.67175e-05 -0.000106603 -0.000121347);
    }
    sideWalls
    {
        type            empty;
        value           nonuniform 0();
    }
    glass1
    {
        type            calculated;
        value           nonuniform List<scalar> 9(-6.47522e-05 -0.000174698 -0.000267341 -0.000346189 -0.000413019 -0.00046899 -0.000518508 -0.000578894 -0.000646062);
    }
    glass2
    {
        type            calculated;
        value           nonuniform List<scalar> 2(-0.000339471 -0.000373819);
    }
    sun
    {
        type            calculated;
        value           uniform 0;
    }
    Table_master
    {
        type            calculated;
        value           nonuniform List<scalar> 9(-1.54375e-07 -1.54542e-07 -1.54596e-07 -1.54628e-07 -1.54648e-07 -1.54658e-07 -1.54658e-07 -1.54646e-07 -1.54603e-07);
    }
    Table_slave
    {
        type            calculated;
        value           nonuniform List<scalar> 9(1.54277e-07 1.54243e-07 1.54172e-07 1.54113e-07 1.54072e-07 1.54061e-07 1.54065e-07 1.54101e-07 1.54195e-07);
    }
    inlet
    {
        type            calculated;
        value           uniform -0.0167503;
    }
    outlet
    {
        type            calculated;
        value           nonuniform List<scalar> 2(0.0180785 0.00487154);
    }
}


// ************************************************************************* //
