/*--------------------------------*- C++ -*----------------------------------*\
  =========                 |
  \\      /  F ield         | OpenFOAM: The Open Source CFD Toolbox
   \\    /   O peration     | Website:  https://openfoam.org
    \\  /    A nd           | Version:  6
     \\/     M anipulation  |
\*---------------------------------------------------------------------------*/
FoamFile
{
    version     2.0;
    format      ascii;
    class       volVectorField;
    location    "700";
    object      U;
}
// * * * * * * * * * * * * * * * * * * * * * * * * * * * * * * * * * * * * * //

dimensions      [0 1 -1 0 0 0 0];

internalField   nonuniform List<vector> 
458
(
(0.0118792 0.0978313 0)
(-0.191458 0.0354156 0)
(-0.235533 0.0230903 0)
(-0.27809 0.0130864 0)
(-0.307201 0.00259052 0)
(-0.320402 -0.00887971 0)
(-0.313441 -0.0219323 0)
(-0.28332 -0.0377051 0)
(-0.229168 -0.0551785 0)
(-0.156122 -0.0714208 0)
(-0.0761679 -0.0815254 0)
(0.0197692 -0.0685706 0)
(0.0726072 -0.0330262 0)
(0.0881933 -0.000699357 0)
(0.0774084 0.0522543 0)
(-0.0261876 0.0147207 0)
(-0.0468389 -0.0151635 0)
(-0.0211125 -0.0323277 0)
(0.0114037 -0.0339444 0)
(0.040758 -0.0259632 0)
(0.0615403 -0.0143112 0)
(0.0747867 -0.00806332 0)
(0.0813455 -0.00584514 0)
(0.0843693 -0.00504045 0)
(0.0862368 -0.0045288 0)
(0.0876243 -0.00409136 0)
(0.0884823 -0.00363291 0)
(0.0884785 -0.00290861 0)
(0.0868203 -0.00143168 0)
(0.0819924 0.00141577 0)
(0.0721374 0.00538727 0)
(0.0568434 0.0112432 0)
(0.0127351 0.0279467 0)
(0.182293 0.20039 0)
(-0.173699 0.0943995 0)
(-0.19463 0.0748644 0)
(-0.239228 0.0563398 0)
(-0.269632 0.0352702 0)
(-0.285032 0.0103588 0)
(-0.281527 -0.0198545 0)
(-0.256711 -0.0551216 0)
(-0.210652 -0.0912674 0)
(-0.148496 -0.119943 0)
(-0.0807093 -0.131163 0)
(-0.0155194 -0.111307 0)
(0.0411157 -0.0513395 0)
(0.0774943 0.00114118 0)
(0.106422 0.054694 0)
(0.125237 0.0559868 0)
(0.0986948 0.0605616 0)
(0.0273393 0.0803787 0)
(0.0337577 0.0487414 0)
(0.00892644 -0.0205868 0)
(0.0306989 -0.0466883 0)
(0.0484635 -0.0482695 0)
(0.0657303 -0.0398577 0)
(0.0750591 -0.0185419 0)
(0.0776176 -0.00517268 0)
(0.0778494 -0.000315012 0)
(0.0781578 0.00127197 0)
(0.078688 0.00205888 0)
(0.079092 0.00259215 0)
(0.0793046 0.00321552 0)
(0.0792774 0.00447069 0)
(0.0783463 0.0072932 0)
(0.0740669 0.0141209 0)
(0.0634916 0.022059 0)
(0.0504877 0.0321242 0)
(-0.0220626 0.0584557 0)
(0.341355 0.301038 0)
(-0.180758 0.148555 0)
(-0.149821 0.120767 0)
(-0.194135 0.0888768 0)
(-0.223948 0.0536547 0)
(-0.241431 0.0128279 0)
(-0.241752 -0.0350582 0)
(-0.22151 -0.0899924 0)
(-0.182158 -0.144422 0)
(-0.129792 -0.18313 0)
(-0.0744261 -0.192586 0)
(-0.0249803 -0.165064 0)
(0.0227261 -0.0939339 0)
(0.0564612 -0.0336269 0)
(0.0861791 0.0175476 0)
(0.0978153 0.0326183 0)
(0.0868791 0.0534876 0)
(0.0276017 0.100258 0)
(0.10126 0.000797471 0)
(0.07569 -0.0398015 0)
(0.076373 -0.0573965 0)
(0.0825943 -0.0599304 0)
(0.0901351 -0.0563295 0)
(0.0926425 -0.0416652 0)
(0.0785567 -0.0265756 0)
(0.0673519 -0.018371 0)
(0.0626416 -0.0137965 0)
(0.0607296 -0.0108287 0)
(0.0593886 -0.00878702 0)
(0.0583533 -0.00722636 0)
(0.058381 -0.00536515 0)
(0.0611459 -0.000471726 0)
(0.0613565 0.0186474 0)
(0.0519793 0.0342617 0)
(0.0486169 0.0511799 0)
(-0.0547552 0.0897853 0)
(0.492162 0.382743 0)
(-0.206829 0.194567 0)
(-0.09902 0.16243 0)
(-0.141857 0.12107 0)
(-0.167491 0.0764848 0)
(-0.185513 0.0231783 0)
(-0.189169 -0.0415625 0)
(-0.171814 -0.116152 0)
(-0.138649 -0.187983 0)
(-0.0969793 -0.234916 0)
(-0.0550958 -0.242659 0)
(-0.0188183 -0.208011 0)
(0.0159334 -0.132325 0)
(0.0443488 -0.0630103 0)
(0.068131 -0.00625522 0)
(0.0845568 0.0308726 0)
(0.09806 0.0627021 0)
(0.100905 0.10358 0)
(0.141983 0.088749 0)
(0.131409 0.0144963 0)
(0.117459 -0.0299036 0)
(0.108293 -0.0502449 0)
(0.0988962 -0.05504 0)
(0.0869579 -0.0502367 0)
(0.0837241 -0.0294039 0)
(0.0965095 -0.0180135 0)
(0.105958 -0.0119256 0)
(0.109426 -0.00829127 0)
(0.109633 -0.0055684 0)
(0.107628 -0.00304063 0)
(0.103151 -0.00030317 0)
(0.094878 0.00326488 0)
(0.0807682 0.008464 0)
(0.064042 0.0273516 0)
(0.0514057 0.0469061 0)
(0.0572735 0.069262 0)
(-0.0706363 0.120002 0)
(0.634792 0.444648 0)
(-0.247602 0.228618 0)
(-0.0428261 0.190551 0)
(-0.0830705 0.144357 0)
(-0.100059 0.0954318 0)
(-0.115748 0.0341847 0)
(-0.120593 -0.043853 0)
(-0.102433 -0.136312 0)
(-0.0761224 -0.221807 0)
(-0.0479948 -0.272697 0)
(-0.0224492 -0.277281 0)
(-0.000922548 -0.236328 0)
(0.0190163 -0.160702 0)
(0.0380613 -0.0850411 0)
(0.0544 -0.02351 0)
(0.0694817 0.0205345 0)
(0.0853529 0.051061 0)
(0.103577 0.0647294 0)
(0.122104 0.0238387 0)
(0.122536 -0.0148163 0)
(0.115152 -0.0348844 0)
(0.103892 -0.043499 0)
(0.09083 -0.0438766 0)
(0.0782107 -0.0363885 0)
(0.072316 -0.018582 0)
(0.0735655 -0.007477 0)
(0.075339 -0.00244551 0)
(0.0756629 0.000243232 0)
(0.0752426 0.00265979 0)
(0.0744869 0.00553419 0)
(0.0729975 0.0094434 0)
(0.0702137 0.0151488 0)
(0.0657262 0.0237576 0)
(0.060466 0.0386967 0)
(0.0554216 0.0566699 0)
(0.0780484 0.0795816 0)
(0.032972 0.117695 0)
(0.0964928 0.130936 0)
(0.121667 0.138497 0)
(-0.186907 0.16629 0)
(0.754709 0.49313 0)
(-0.298401 0.247187 0)
(0.0116398 0.195325 0)
(-0.0200034 0.15691 0)
(-0.0261772 0.110458 0)
(-0.0380912 0.0481299 0)
(-0.0377043 -0.0407485 0)
(-0.0140082 -0.15262 0)
(0.00352033 -0.24552 0)
(0.0151485 -0.294561 0)
(0.0217083 -0.293832 0)
(0.0251318 -0.249799 0)
(0.0280854 -0.174563 0)
(0.0325193 -0.0956877 0)
(0.0375769 -0.0333971 0)
(0.0454021 0.00834442 0)
(0.0572152 0.0331421 0)
(0.0743876 0.0381863 0)
(0.0879114 0.015457 0)
(0.0902869 -0.00647612 0)
(0.0839832 -0.0214542 0)
(0.0731414 -0.0292911 0)
(0.0609459 -0.0304152 0)
(0.0496764 -0.0253865 0)
(0.0424692 -0.0152938 0)
(0.0400852 -0.00785431 0)
(0.0399263 -0.00405628 0)
(0.0405167 -0.00183001 0)
(0.0418405 0.000429544 0)
(0.043777 0.00356093 0)
(0.0459236 0.00818164 0)
(0.0481337 0.0149842 0)
(0.05052 0.0246854 0)
(0.0539335 0.0382024 0)
(0.0578299 0.0542805 0)
(0.0782433 0.0739877 0)
(0.0760691 0.0847216 0)
(0.0923769 0.0388331 0)
(0.122727 -0.00290086 0)
(-0.207759 0.0846164 0)
(0.831943 0.535 0)
(-0.335092 0.223149 0)
(0.0602689 0.144029 0)
(0.0543726 0.150499 0)
(0.0516822 0.118426 0)
(0.0440659 0.0521991 0)
(0.063001 -0.0560298 0)
(0.0869816 -0.169951 0)
(0.0938466 -0.253845 0)
(0.0878694 -0.294994 0)
(0.0736945 -0.289995 0)
(0.0555802 -0.244219 0)
(0.0373197 -0.169433 0)
(0.0230677 -0.090548 0)
(0.0146273 -0.0314807 0)
(0.0136419 0.00328086 0)
(0.0215439 0.0209218 0)
(0.0345812 0.0235194 0)
(0.0437646 0.0111814 0)
(0.0451632 -0.00309514 0)
(0.0402984 -0.0137299 0)
(0.0314754 -0.0192675 0)
(0.0213535 -0.0199574 0)
(0.0120408 -0.0166968 0)
(0.00575888 -0.0110096 0)
(0.00325295 -0.00660775 0)
(0.00322399 -0.00440545 0)
(0.00459432 -0.003321 0)
(0.00710457 -0.00216983 0)
(0.011155 3.30598e-05 0)
(0.0167265 0.00414491 0)
(0.023007 0.0103924 0)
(0.0304922 0.0189848 0)
(0.0398345 0.0301049 0)
(0.0501635 0.0428114 0)
(0.068423 0.0579263 0)
(0.0827075 0.0635461 0)
(0.0980466 0.0430415 0)
(0.151392 0.0491702 0)
(-0.138252 0.143323 0)
(0.944888 0.528099 0)
(-0.0490806 0.196787 0)
(0.141398 0.0827518 0)
(0.182157 0.0891726 0)
(0.163438 0.0658188 0)
(0.151546 -0.00905219 0)
(0.185326 -0.100443 0)
(0.202351 -0.185332 0)
(0.192955 -0.248055 0)
(0.164887 -0.275026 0)
(0.125228 -0.262112 0)
(0.0807652 -0.214502 0)
(0.0374353 -0.141803 0)
(0.00293543 -0.0668793 0)
(-0.0165055 -0.018475 0)
(-0.0218657 0.00294172 0)
(-0.0174527 0.0127878 0)
(-0.0091942 0.0141447 0)
(-0.00347188 0.00748473 0)
(-0.00310113 -0.00106991 0)
(-0.00695473 -0.00767844 0)
(-0.013851 -0.0110747 0)
(-0.0215154 -0.0115506 0)
(-0.0282142 -0.0100085 0)
(-0.0325866 -0.00765972 0)
(-0.0344032 -0.006053 0)
(-0.0344543 -0.00557761 0)
(-0.0334358 -0.00580036 0)
(-0.0315713 -0.00614599 0)
(-0.0286656 -0.00601161 0)
(-0.0241378 -0.00469901 0)
(-0.0164928 -0.00154054 0)
(-0.00699631 0.00333909 0)
(0.00478748 0.00961308 0)
(0.0175367 0.0154786 0)
(0.0344278 0.0214624 0)
(0.0509192 0.0178752 0)
(0.0649392 -0.000832837 0)
(0.1462 0.0570263 0)
(-0.434762 0.23513 0)
(1.0937 0.461693 0)
(0.549805 0.316519 0)
(0.565606 0.338042 0)
(0.527952 0.268047 0)
(0.456036 0.170257 0)
(0.413712 0.0616237 0)
(0.381767 -0.0507643 0)
(0.344234 -0.143591 0)
(0.29303 -0.202097 0)
(0.228711 -0.221853 0)
(0.155979 -0.204597 0)
(0.0817832 -0.158153 0)
(0.0132106 -0.0901825 0)
(-0.0347518 -0.0294395 0)
(-0.0528583 -0.00547791 0)
(-0.0586328 0.00444989 0)
(-0.0569715 0.00857238 0)
(-0.0529574 0.00879603 0)
(-0.0503036 0.00554027 0)
(-0.0507457 0.00111868 0)
(-0.0534733 -0.00265833 0)
(-0.0581953 -0.0049451 0)
(-0.0633552 -0.00591144 0)
(-0.0679061 -0.00602124 0)
(-0.0712246 -0.00585401 0)
(-0.0733929 -0.00597815 0)
(-0.0750047 -0.00648793 0)
(-0.0766929 -0.00711801 0)
(-0.0790001 -0.00742779 0)
(-0.0824921 -0.00680828 0)
(-0.0879801 -0.00445709 0)
(-0.0960796 0.000506839 0)
(-0.106129 0.00870625 0)
(-0.119545 0.021039 0)
(-0.14036 0.0385501 0)
(-0.171623 0.0615474 0)
(-0.215891 0.0880371 0)
(-0.26828 0.115298 0)
(-0.339308 0.139765 0)
(-0.633275 0.159343 0)
(0.798504 0.128536 0)
(0.655592 0.226959 0)
(0.556619 0.191773 0)
(0.497992 0.104366 0)
(0.457646 0.00960455 0)
(0.392227 -0.0707358 0)
(0.309818 -0.122461 0)
(0.216541 -0.139677 0)
(0.1191 -0.122623 0)
(0.0251738 -0.0793239 0)
(-0.0536034 -0.0211997 0)
(-0.0825651 0.000474609 0)
(-0.0932303 0.00649705 0)
(-0.095887 0.00870692 0)
(-0.0952889 0.00989672 0)
(-0.0937263 0.0101703 0)
(-0.0930361 0.009289 0)
(-0.094073 0.00794282 0)
(-0.0964974 0.00692782 0)
(-0.0997219 0.00661895 0)
(-0.10327 0.00686337 0)
(-0.106713 0.00728625 0)
(-0.109866 0.00761468 0)
(-0.112905 0.00762857 0)
(-0.116153 0.00735889 0)
(-0.119875 0.00704749 0)
(-0.124207 0.00704779 0)
(-0.129004 0.00797474 0)
(-0.133872 0.0104242 0)
(-0.138384 0.0151302 0)
(-0.142708 0.023265 0)
(-0.146757 0.0359462 0)
(-0.151031 0.0535922 0)
(-0.155859 0.0742971 0)
(-0.158479 0.0900241 0)
(-0.148877 0.0801437 0)
(-0.132915 0.00293314 0)
(-0.269096 -0.196154 0)
(0.428178 0.599964 0)
(-0.0159632 0.376969 0)
(0.0807491 0.246767 0)
(0.124685 0.117278 0)
(0.126678 0.0130665 0)
(0.120931 -0.0499227 0)
(0.0844435 -0.0742775 0)
(0.0200694 -0.0678911 0)
(-0.0583784 -0.0373955 0)
(-0.104498 -0.0169804 0)
(-0.1262 -0.00841317 0)
(-0.12947 -0.00933916 0)
(-0.129533 -0.0117014 0)
(-0.128511 -0.0134858 0)
(-0.126946 -0.0148931 0)
(-0.125385 -0.0168358 0)
(-0.124551 -0.0199607 0)
(-0.124903 -0.0241053 0)
(-0.1264 -0.028586 0)
(-0.128666 -0.0326479 0)
(-0.131233 -0.0358011 0)
(-0.133744 -0.0377798 0)
(-0.136063 -0.0385575 0)
(-0.13811 -0.0381193 0)
(-0.139846 -0.0364614 0)
(-0.1412 -0.0335502 0)
(-0.14205 -0.0292794 0)
(-0.142274 -0.0236108 0)
(-0.141534 -0.0163222 0)
(-0.139132 -0.0070277 0)
(-0.133814 0.00489977 0)
(-0.123944 0.020436 0)
(-0.108351 0.0404462 0)
(-0.0870899 0.0636926 0)
(-0.0612909 0.0827316 0)
(-0.0338744 0.0828554 0)
(0.131282 0.00275645 0)
(-0.210658 -0.104824 0)
(-1.02384 -0.912646 0)
(-1.12718 -0.19994 0)
(-0.762529 0.409488 0)
(-0.643304 0.217527 0)
(-0.326347 0.109315 0)
(-0.179822 0.0109083 0)
(-0.120113 -0.0420477 0)
(-0.11094 -0.0239607 0)
(-0.136294 0.00807278 0)
(-0.16429 0.0333407 0)
(-0.178664 0.0486514 0)
(-0.179975 0.0566875 0)
(-0.174735 0.0608608 0)
(-0.168316 0.0632625 0)
(-0.162844 0.0657635 0)
(-0.158082 0.0690297 0)
(-0.153431 0.0732431 0)
(-0.148644 0.0784889 0)
(-0.143921 0.0846316 0)
(-0.139604 0.091233 0)
(-0.13592 0.0975885 0)
(-0.132921 0.102921 0)
(-0.130549 0.106619 0)
(-0.128703 0.108368 0)
(-0.127301 0.108146 0)
(-0.126289 0.10601 0)
(-0.125604 0.102108 0)
(-0.125117 0.0966941 0)
(-0.124559 0.0901696 0)
(-0.123457 0.0831722 0)
(-0.12101 0.0764537 0)
(-0.115783 0.0708786 0)
(-0.10539 0.0674241 0)
(-0.0869213 0.0672673 0)
(-0.0591367 0.0717462 0)
(-0.0249338 0.0814211 0)
(0.0322689 0.0918616 0)
(0.074315 0.0825169 0)
(0.156031 0.0608113 0)
(-0.229163 0.00835269 0)
)
;

boundaryField
{
    floor
    {
        type            noSlip;
    }
    ceiling
    {
        type            noSlip;
    }
    sWall
    {
        type            noSlip;
    }
    nWall
    {
        type            noSlip;
    }
    sideWalls
    {
        type            empty;
    }
    glass1
    {
        type            noSlip;
    }
    glass2
    {
        type            noSlip;
    }
    sun
    {
        type            noSlip;
    }
    Table_master
    {
        type            noSlip;
    }
    Table_slave
    {
        type            noSlip;
    }
    inlet
    {
        type            fixedValue;
        value           uniform (0.980785 -0.19509 0);
    }
    outlet
    {
        type            zeroGradient;
    }
}


// ************************************************************************* //
