/*--------------------------------*- C++ -*----------------------------------*=========                 |
  \      /  F ield         | OpenFOAM: The Open Source CFD Toolbox
   \    /   O peration     | Website:  https://openfoam.org
    \  /    A nd           | Version:  6
     \/     M anipulation  |
\*---------------------------------------------------------------------------*/
FoamFile
{
    version     2.0;
    format      ascii;
    class       volScalarField;
    location    "2100";
    object      PMV;
}
// * * * * * * * * * * * * * * * * * * * * * * * * * * * * * * * * * * * * * //

dimensions      [0 0 0 0 0 0 0];

internalField   nonuniform List<scalar> 
458
(
3.0
3.0
3.0
3.0
3.0
3.0
3.0
3.0
3.0
3.0
3.0
3.0
3.0
3.0
3.0
2.6496338361057488
2.670935608495486
2.659117755257642
2.6576990003900973
2.663845996744542
2.673298068801857
2.680383182471999
2.6817997927013564
2.680383182471999
2.6780218584350615
2.6766048807669574
2.6756601529917505
2.6761325244648053
2.677077221876867
2.6799109483058126
2.6860487878615045
2.7082170380023642
2.7151778239502584
3.0
3.0
3.0
3.0
3.0
3.0
3.0
3.0
3.0
3.0
3.0
3.0
3.0
3.0
3.0
3.0
3.0
3.0
2.6696656237634064
2.7039748380619253
2.706803121056861
2.71151559074231
2.7166973534908196
2.723289311304432
2.724701428395864
2.724701428395864
2.724701428395864
2.724701428395864
2.7256427516273183
2.7279957495466944
2.7345817607493377
2.7435141890093724
2.7505613254094388
2.750091649887612
2.752268626305849
2.7572783688024454
3.0
3.0
2.962030905842328
2.9465470289340994
2.9434341747950037
2.944031411844732
2.946135141488048
2.9487700837413158
2.954834906564489
2.9626658672610167
2.9722294326135734
2.9829144975902344
2.994632101320275
3.0
3.0
3.0
3.0
3.0
2.7230402366458897
2.7613584854924262
2.758073494500413
2.7585428384764974
2.7561959213085645
2.7421042512210256
2.747742984661218
2.7566653441341753
2.7655806041391924
2.774488534986095
2.782920646871127
2.7918124758201395
2.800697367075283
2.8109746532965114
2.823571631604972
2.8268345193921993
2.8306106694069517
2.8180294317964636
3.0
2.9106828023307902
2.890808263769795
2.907143556006314
2.923816343337964
2.933795863551867
2.9388810613801075
2.9416806636870323
2.944891493007088
2.9497974320057403
2.9569027774680854
2.966727530887808
2.9787295329679835
2.992416818064065
3.0
3.0
3.0
3.0
2.955871852698945
2.812305153209819
2.8514967593948026
2.860075004196744
2.868442338010541
2.8782635007748683
2.8841939033785735
2.8847021097079746
2.8845612626099206
2.885098263979017
2.884805692340648
2.8849957193875944
2.8842697559095347
2.883667232644997
2.882464454094133
2.880503451608552
2.8840819733871927
2.889501533524144
2.881686978168716
3.0
2.8303834115023663
2.864431919726498
2.921785829097147
2.9507226782287677
2.960120411813426
2.9614833147311947
2.9598725008893685
2.956846871586931
2.9555518184544796
2.9576395899717345
2.9634248210155167
2.972632070944056
2.98488459830549
2.9991463376650747
3.0
3.0
3.0
2.9681739825237523
2.8845930141365237
2.8820930895181975
2.883515023280735
2.885806817242259
2.8892252326748094
2.8916388198186405
2.8924450830114505
2.8933706248289726
2.893919386626952
2.8949287605681535
2.89585973473842
2.8966556226555458
2.8973419419326705
2.8984140171689337
2.899594051525492
2.900295301326671
2.9009972541541234
2.901540134816985
2.894155108442895
2.895515344903024
2.904735072064418
3.0
2.781452778593332
2.865888079652396
2.9583483934945645
2.971099873051139
2.9724493476512506
2.971984491253755
2.972855046873858
2.970137293452092
2.964290485792506
2.9621123859447875
2.9647138520275784
2.972357701780062
2.9834390375285684
2.9968114043111447
3.0
3.0
3.0
2.9680026419671814
2.8917723754258673
2.89087477067939
2.8921936780046282
2.8943477699354774
2.896800450265135
2.8986874962014677
2.899795567010227
2.900971844352755
2.9017023003951214
2.901973812018248
2.9026368737409065
2.9036122260068553
2.904396496054509
2.905347204675666
2.9059038331793414
2.905980600417646
2.905481080654014
2.905502625835549
2.907706096197641
2.913001246481308
2.9015589026299557
2.938537687886773
2.7637793070987042
2.8664188545286824
2.967516210496519
2.9737414330570613
2.9725708688082815
2.9699483189961717
2.9669494581231444
2.9647464765290508
2.964029824528794
2.9649334504599962
2.968496065290684
2.975269406902357
2.9855842633715834
2.996964477706078
3.0
3.0
3.0
2.959509764165515
2.895311664493732
2.8951375176872434
2.898661055310049
2.901948962955431
2.9047141461349915
2.9065568298077347
2.907477937441523
2.907477937441523
2.907477937441523
2.9065568298077347
2.906096217271376
2.906096217271376
2.9065568298077347
2.90701740323559
2.907477937441523
2.9079660727932284
2.904187300493031
2.900593870533095
2.898323468192982
2.895379070403748
2.8866803003838277
2.8717649630384106
2.7329476113091036
2.815899093412198
2.966822639017725
2.975960902874889
2.9747490986570075
2.9722163252122655
2.9695889088538325
2.967867120056699
2.9680591139174197
2.970067114268663
2.97448922143703
2.980880158806246
2.9893747419837795
2.9985526777971456
3.0
3.0
2.998851715641512
2.9505671338133492
2.8998653574067186
2.90043167768173
2.9051748753232047
2.908398887731319
2.911160785292241
2.913001246481308
2.913461260196891
2.913001246481308
2.912081096909351
2.911160785292241
2.9097800161322596
2.908398887731319
2.907477937441523
2.90701740323559
2.9065568298077347
2.9065568298077347
2.906096217271376
2.906096217271376
2.9048792952055336
2.8948807332030335
2.879316325506912
2.807282342705287
2.6394551867903355
2.624208659736217
2.955909137220641
2.9797341495942966
2.9803367316996083
2.978684873432368
2.9773414894859846
2.976433912792323
2.97660895751327
2.978364860130748
2.9817155775546134
2.987171139195189
2.9936502706303187
2.9995733663003725
3.0
3.0
2.9883221157931072
2.94488028027951
2.9080012225358014
2.909761450817659
2.913921233035557
2.9166802046963984
2.9189782005960314
2.919897103033424
2.9194376730836047
2.9185186857030367
2.9171398879032453
2.9153009050534155
2.913001246481308
2.911160785292241
2.9093196797578424
2.907477937441523
2.906096217271376
2.9042657909384193
2.902865448366446
2.901107117604963
2.8994992022322394
2.8980260826793365
2.8788998960740018
2.2218684496278587
2.946298834430918
2.9835508419172623
2.985209265382276
2.984811968202578
2.98427950699412
2.983728248424993
2.984342115697084
2.9855871715635542
2.988014823665935
2.9916115471222
2.995266188087048
2.998419500941809
2.999460962548517
2.995288046419717
2.980570271805765
2.946263504332821
2.9223568692692496
2.921171498366257
2.922213591966471
2.92291596698267
2.9231173436685554
2.922129367258392
2.921287420831316
2.919607365436621
2.917510571891057
2.9154189049429204
2.9128327977378112
2.9101495364129764
2.9072952367663225
2.904665540412844
2.90173351171104
2.899412584511689
2.896346938784064
2.893571863247137
2.8911030825933124
2.889063255295101
2.880488971106894
2.7482115209834843
2.973693832875419
2.9872908626596275
2.9876301120069377
2.9876409003335653
2.9879188751264496
2.9884355129579636
2.9886187316321067
2.989512927713855
2.9905241894306567
2.9922397697831737
2.994153815002883
2.9952655182975945
2.994673183302563
2.9916616422502864
2.9831260724636
2.958636575505607
2.934414587027342
2.925486466820684
2.921561223826815
2.919080417627282
2.917164914994591
2.9152864158876453
2.9127533489953223
2.9105752337524775
2.9073124820898766
2.9045002686460277
2.9011602865711845
2.897786836268993
2.8943645991133726
2.890878800451683
2.887827393337437
2.884692884835859
2.8819386403293494
2.879032182763046
2.8759417932867497
2.871187492917215
2.866376217304565
3.0
3.0
3.0
2.9888241603214887
2.984355910540023
2.983709660119327
2.9835578870565986
2.9837099981700708
2.9840996850587076
2.9847023316563064
2.9848958480900474
2.9851793913520135
2.9855483649065406
2.985427545499993
2.9847670337846215
2.9829008518289397
2.9785706841221633
2.9678529564074294
2.9452001518630446
2.9320478229364806
2.9235967857337224
2.916536951319948
2.910221067850691
2.905182402153987
2.9006255892033277
2.895921751397907
2.8910896957526964
2.886733696592362
2.881791451291262
2.877383737411341
2.872414172666302
2.8674321219114747
2.8629888601755664
2.85854214719146
2.854095785881972
2.850205256500077
2.8468885344489063
2.8430585542864173
2.8371567639367496
2.8210000029476383
)
;

boundaryField
{
    ".*"
    {
        type            zeroGradient;
    }
}


// ************************************************************************* //
