// -*- C++ -*-
// File generated by PyFoam - sorry for the ugliness

FoamFile
{
 version 2.0;
 format ascii;
 class volScalarField;
 location "2100";
 object T;
}

dimensions [ 0 0 0 1 0 0 0 ];

internalField nonuniform List<scalar> 458
(
  307.561
  307.157
  307.104
  307.08
  307.065
  307.056
  307.05
  307.046
  307.043
  307.04
  307.037
  307.033
  307.03
  307.027
  307.021
  306.203
  306.194
  306.169
  306.166
  306.179
  306.199
  306.214
  306.217
  306.214
  306.209
  306.206
  306.204
  306.205
  306.207
  306.213
  306.226
  306.273
  306.33
  307.357
  307.142
  307.037
  306.99
  306.966
  306.953
  306.948
  306.946
  306.948
  306.951
  306.956
  306.964
  306.973
  306.986
  307
  306.997
  306.992
  306.979
  306.263
  306.264
  306.27
  306.28
  306.291
  306.305
  306.308
  306.308
  306.308
  306.308
  306.31
  306.315
  306.329
  306.348
  306.363
  306.362
  306.374
  306.439
  307.203
  306.949
  306.861
  306.833
  306.827
  306.828
  306.832
  306.837
  306.848
  306.862
  306.879
  306.898
  306.919
  306.943
  306.966
  306.976
  306.98
  306.976
  306.375
  306.386
  306.379
  306.38
  306.375
  306.345
  306.357
  306.376
  306.395
  306.414
  306.432
  306.451
  306.47
  306.492
  306.519
  306.526
  306.544
  306.565
  307.115
  306.771
  306.725
  306.752
  306.78
  306.798
  306.808
  306.814
  306.821
  306.831
  306.845
  306.864
  306.887
  306.913
  306.94
  306.959
  306.969
  306.968
  306.827
  306.525
  306.579
  306.601
  306.621
  306.645
  306.66
  306.662
  306.662
  306.663
  306.662
  306.662
  306.66
  306.658
  306.654
  306.648
  306.656
  306.666
  306.679
  307.033
  306.633
  306.674
  306.771
  306.82
  306.836
  306.838
  306.835
  306.831
  306.831
  306.838
  306.852
  306.872
  306.897
  306.925
  306.947
  306.961
  306.961
  306.857
  306.663
  306.645
  306.651
  306.659
  306.668
  306.674
  306.676
  306.678
  306.679
  306.681
  306.683
  306.685
  306.687
  306.69
  306.694
  306.699
  306.705
  306.71
  306.714
  306.72
  306.751
  306.943
  306.55
  306.675
  306.834
  306.859
  306.858
  306.852
  306.845
  306.837
  306.835
  306.839
  306.85
  306.869
  306.893
  306.92
  306.942
  306.956
  306.954
  306.859
  306.684
  306.664
  306.668
  306.675
  306.681
  306.685
  306.687
  306.689
  306.69
  306.69
  306.691
  306.693
  306.695
  306.698
  306.701
  306.704
  306.706
  306.707
  306.708
  306.712
  306.731
  306.835
  306.515
  306.673
  306.853
  306.871
  306.867
  306.86
  306.852
  306.846
  306.845
  306.849
  306.859
  306.875
  306.897
  306.92
  306.94
  306.951
  306.942
  306.843
  306.695
  306.676
  306.681
  306.688
  306.694
  306.698
  306.7
  306.7
  306.7
  306.698
  306.697
  306.697
  306.698
  306.699
  306.7
  306.702
  306.703
  306.703
  306.703
  306.704
  306.707
  306.715
  306.459
  306.596
  306.86
  306.882
  306.878
  306.872
  306.866
  306.862
  306.862
  306.866
  306.875
  306.888
  306.905
  306.923
  306.938
  306.943
  306.923
  306.825
  306.705
  306.689
  306.695
  306.702
  306.708
  306.712
  306.713
  306.712
  306.71
  306.708
  306.705
  306.702
  306.7
  306.699
  306.698
  306.698
  306.697
  306.697
  306.697
  306.697
  306.701
  306.583
  306.32
  306.307
  306.846
  306.893
  306.892
  306.888
  306.885
  306.883
  306.883
  306.886
  306.892
  306.902
  306.914
  306.925
  306.933
  306.931
  306.902
  306.812
  306.72
  306.708
  306.714
  306.72
  306.725
  306.727
  306.726
  306.724
  306.721
  306.717
  306.712
  306.708
  306.704
  306.7
  306.697
  306.695
  306.694
  306.692
  306.69
  306.687
  306.69
  305.707
  306.829
  306.9
  306.902
  306.901
  306.9
  306.899
  306.9
  306.902
  306.906
  306.912
  306.918
  306.923
  306.924
  306.915
  306.885
  306.811
  306.747
  306.738
  306.739
  306.741
  306.742
  306.74
  306.738
  306.734
  306.729
  306.724
  306.718
  306.712
  306.706
  306.701
  306.696
  306.693
  306.689
  306.686
  306.683
  306.679
  306.677
  306.458
  306.877
  306.905
  306.907
  306.908
  306.909
  306.91
  306.91
  306.911
  306.912
  306.914
  306.916
  306.916
  306.912
  306.902
  306.878
  306.816
  306.784
  306.772
  306.766
  306.761
  306.756
  306.751
  306.745
  306.74
  306.733
  306.727
  306.72
  306.713
  306.706
  306.699
  306.693
  306.687
  306.682
  306.677
  306.672
  306.667
  306.669
  310.131
  309.552
  307.076
  306.905
  306.901
  306.902
  306.903
  306.904
  306.905
  306.906
  306.906
  306.906
  306.906
  306.905
  306.903
  306.899
  306.891
  306.872
  306.832
  306.809
  306.794
  306.781
  306.769
  306.759
  306.75
  306.741
  306.732
  306.724
  306.715
  306.707
  306.698
  306.689
  306.681
  306.673
  306.665
  306.658
  306.652
  306.645
  306.636
  306.623
)
;

boundaryField
{
  floor
  {
    type wallHeatTransfer;
    Tinf uniform 305.2;
    alphaWall uniform 0.24;
    value nonuniform List<scalar> 36
(
  306.858
  305.961
  305.943
  305.826
  305.751
  305.745
  305.762
  305.783
  305.799
  305.812
  305.824
  305.837
  305.854
  305.872
  305.89
  305.919
  305.96
  306.042
  306.081
  306.081
  306.221
  306.356
  306.468
  306.51
  306.515
  306.518
  306.858
  306.832
  306.816
  306.777
  305.961
  306.777
  306.05
  306.785
  306.157
  306.624
)
;
  }
  ceiling
  {
    type wallHeatTransfer;
    Tinf uniform 303.2;
    alphaWall uniform 0.24;
    value nonuniform List<scalar> 43
(
  309.509
  308.97
  306.747
  306.56
  306.554
  306.543
  306.536
  306.531
  306.528
  306.526
  306.525
  306.523
  306.52
  306.517
  306.513
  306.507
  306.499
  306.485
  306.473
  306.477
  306.481
  306.484
  306.483
  306.479
  306.473
  306.466
  306.458
  306.45
  306.442
  306.434
  306.426
  306.418
  306.41
  306.401
  306.393
  306.384
  306.375
  306.364
  306.352
  306.317
  306.448
  306.21
  306.292
)
;
  }
  sWall
  {
    type wallHeatTransfer;
    Tinf uniform 315.2;
    alphaWall uniform 0.36;
    value uniform 310.786;
  }
  nWall
  {
    type wallHeatTransfer;
    Tinf uniform 307.2;
    alphaWall uniform 0.36;
    value nonuniform List<scalar> 6
(
  306.845
  306.828
  306.782
  306.737
  306.722
  306.697
)
;
  }
  sideWalls
  {
    type empty;
  }
  glass1
  {
    type wallHeatTransfer;
    Tinf uniform 315.2;
    alphaWall uniform 4.3;
    value nonuniform List<scalar> 9
(
  312.194
  311.453
  311.145
  311.005
  310.895
  310.784
  310.653
  310.492
  310.271
)
;
  }
  glass2
  {
    type wallHeatTransfer;
    Tinf uniform 307.2;
    alphaWall uniform 4.3;
    value nonuniform List<scalar> 2
(
  307.027
  307.013
)
;
  }
  sun
  {
    type wallHeatTransfer;
    Tinf uniform 305.2;
    alphaWall uniform 0.24;
    value nonuniform List<scalar> 14
(
  307.376
  307.039
  306.986
  306.959
  306.942
  306.93
  306.921
  306.914
  306.908
  306.902
  306.895
  306.889
  306.881
  306.872
)
;
  }
  Table_master
  {
    type zeroGradient;
  }
  Table_slave
  {
    type zeroGradient;
  }
  inlet
  {
    type fixedValue;
    value uniform 293.15;
  }
  outlet
  {
    type zeroGradient;
  }
} 	// ************************************************************************* //

