/*--------------------------------*- C++ -*----------------------------------*\
  =========                 |
  \\      /  F ield         | OpenFOAM: The Open Source CFD Toolbox
   \\    /   O peration     | Website:  https://openfoam.org
    \\  /    A nd           | Version:  6
     \\/     M anipulation  |
\*---------------------------------------------------------------------------*/
FoamFile
{
    version     2.0;
    format      ascii;
    class       volScalarField;
    location    "2600";
    object      epsilon;
}
// * * * * * * * * * * * * * * * * * * * * * * * * * * * * * * * * * * * * * //

dimensions      [0 2 -3 0 0 0 0];

internalField   nonuniform List<scalar> 
458
(
0.000277915
0.000345428
0.000347313
0.000393497
0.000439119
0.000483395
0.00052735
0.000572789
0.000619996
0.000655558
0.000671919
0.00066245
0.000626554
0.000573856
0.000517604
2.35589e-05
4.53515e-05
5.18949e-05
4.81433e-05
4.29025e-05
3.65043e-05
3.06401e-05
2.58226e-05
2.194e-05
1.88169e-05
1.62867e-05
1.42002e-05
1.24445e-05
1.09244e-05
9.54759e-06
8.21116e-06
7.38211e-06
5.65525e-06
0.000809002
0.00132599
0.000325817
0.000301038
0.00030833
0.000320936
0.000338861
0.000365055
0.000400974
0.000436827
0.000462354
0.00046711
0.000447591
0.000417402
0.000424623
0.000555497
0.000320977
0.000189506
7.04589e-05
7.3556e-05
6.32438e-05
5.26882e-05
4.37944e-05
3.91982e-05
3.1833e-05
2.55425e-05
2.05929e-05
1.67574e-05
1.37972e-05
1.14892e-05
9.68764e-06
8.37099e-06
7.67415e-06
7.51774e-06
1.94606e-05
1.32313e-05
0.00160715
0.00366398
0.000459462
0.000295436
0.000296063
0.000316821
0.000347839
0.000390839
0.000445916
0.000502268
0.000543172
0.000555286
0.000535916
0.000496302
0.000458955
0.000422113
0.000325169
0.000450605
0.000238431
0.000138546
9.30616e-05
6.73919e-05
5.39585e-05
9.37595e-05
6.66556e-05
4.88711e-05
3.70348e-05
2.8951e-05
2.32766e-05
1.91914e-05
1.62041e-05
1.40374e-05
1.10418e-05
9.53023e-06
3.46637e-05
2.08394e-05
0.00278919
0.00797786
0.000840992
0.000314858
0.00029345
0.000321427
0.000365136
0.000427186
0.000510389
0.000592093
0.000643923
0.000654472
0.000626622
0.000571618
0.000502742
0.000426099
0.00033165
0.000317817
0.000523868
0.000272918
0.000149919
9.49788e-05
6.72027e-05
5.50396e-05
0.000119843
9.52106e-05
8.21726e-05
7.43454e-05
6.83301e-05
6.20597e-05
5.55939e-05
4.91205e-05
4.18901e-05
2.62858e-05
1.72562e-05
5.10906e-05
2.96834e-05
0.00448726
0.0144083
0.00184776
0.000412303
0.00030889
0.000330194
0.000383781
0.000477613
0.000619324
0.000735314
0.000789438
0.000786087
0.000738257
0.000658265
0.000554021
0.000440128
0.000327943
0.000244564
0.000195217
0.000142926
0.000102674
7.524e-05
5.81386e-05
4.85953e-05
4.79149e-05
4.74706e-05
4.76714e-05
4.76427e-05
4.65693e-05
4.38496e-05
3.99082e-05
3.61131e-05
3.273e-05
2.74234e-05
2.15349e-05
3.70205e-05
5.19222e-05
7.00372e-05
9.87003e-05
0.000129066
0.00688811
0.0212953
0.00443796
0.000928177
0.000502471
0.000444476
0.000476809
0.000622539
0.000854611
0.000979233
0.00100486
0.000965347
0.000882106
0.000767706
0.000630798
0.000483929
0.000346132
0.000237145
0.000163493
0.000117319
8.6922e-05
6.68203e-05
5.50944e-05
4.97168e-05
4.97249e-05
5.28116e-05
5.66139e-05
5.96558e-05
6.08612e-05
5.90163e-05
5.29479e-05
4.50573e-05
3.76938e-05
3.12202e-05
2.64972e-05
3.05307e-05
4.36818e-05
5.73908e-05
0.000143548
0.000139268
0.00978152
0.0253171
0.00966337
0.00351572
0.00192952
0.00131389
0.00112099
0.00126301
0.00138321
0.00139141
0.00132345
0.00121027
0.00106826
0.000904755
0.000725312
0.00054147
0.000374054
0.000242341
0.000155414
0.00010571
7.88718e-05
6.4327e-05
5.78528e-05
5.69621e-05
6.02366e-05
6.61233e-05
7.29203e-05
7.96561e-05
8.54231e-05
8.86417e-05
8.68782e-05
7.59359e-05
6.42847e-05
5.46038e-05
4.94798e-05
5.20191e-05
6.70058e-05
9.85483e-05
0.000197604
0.000207115
0.0104485
0.0282519
0.0158272
0.0111054
0.00746038
0.00496326
0.00362653
0.00290026
0.00240903
0.00205192
0.00176746
0.00151813
0.00128325
0.0010508
0.000816791
0.000588906
0.000389253
0.000236207
0.000142983
9.53784e-05
7.68822e-05
6.94479e-05
6.78441e-05
6.99236e-05
7.4761e-05
8.185e-05
9.08439e-05
0.000101764
0.000114771
0.000129816
0.000146172
0.000160446
0.0001637
0.000175108
0.000205538
0.000289859
0.000482591
0.000808018
0.00256975
0.000840014
0.00965514
0.0161803
0.0142546
0.0108568
0.00826682
0.00628412
0.00487442
0.00385808
0.00314061
0.00260432
0.00217096
0.00179981
0.00146834
0.00115855
0.000862001
0.000585035
0.000359584
0.000197877
0.000126271
9.81478e-05
8.81392e-05
8.52526e-05
8.55411e-05
8.7638e-05
9.13446e-05
9.7008e-05
0.000105288
0.000117164
0.000133887
0.000156976
0.000188255
0.000229924
0.000285672
0.000364909
0.000485201
0.000652676
0.000852721
0.00104511
0.00120667
0.000754197
0.00544089
0.0118997
0.00844659
0.00660515
0.00539154
0.00448053
0.00367739
0.00296693
0.00237342
0.00188941
0.00148473
0.00111574
0.000770546
0.000453236
0.000254147
0.000168088
0.000138302
0.000129781
0.000127435
0.000126656
0.000125505
0.000123426
0.000120722
0.000118265
0.00011734
0.000119532
0.000126659
0.000140813
0.000164579
0.00020095
0.000252996
0.000324991
0.000421427
0.00053716
0.000646678
0.000709492
0.00071395
0.000482504
0.00388795
0.0084831
0.00662285
0.00530739
0.00448028
0.00375312
0.00310471
0.0024981
0.00203033
0.00167095
0.00135974
0.00100355
0.000699251
0.000476346
0.000354614
0.000306947
0.000294758
0.000293395
0.000292218
0.00029015
0.000284963
0.000275478
0.000261774
0.000245126
0.000227728
0.000212241
0.000201324
0.000197418
0.000202852
0.000221154
0.000255856
0.000309746
0.000383471
0.000470173
0.000547216
0.000634943
0.000694079
0.000520809
0.00204997
0.00261604
0.00310852
0.00376995
0.00336992
0.00296217
0.00236519
0.00164084
0.00107386
0.000885509
0.000764464
0.000669121
0.000577174
0.000475964
0.000381391
0.000298563
0.000238478
0.000203177
0.000183658
0.000172329
0.000166117
0.000160379
0.000154408
0.000148394
0.000143048
0.000139342
0.000138278
0.000140762
0.000147638
0.000159923
0.000179303
0.000205655
0.000239133
0.00028147
0.000334211
0.000400053
0.000441076
0.000417315
0.000348471
0.000292176
)
;

boundaryField
{
    floor
    {
        Cmu             0.09;
        kappa           0.41;
        E               9.8;
        type            epsilonWallFunction;
        value           nonuniform List<scalar> 
36
(
0.000517604
2.35589e-05
4.53515e-05
5.18949e-05
4.81433e-05
4.29025e-05
3.65043e-05
3.06401e-05
2.58226e-05
2.194e-05
1.88169e-05
1.62867e-05
1.42002e-05
1.24445e-05
1.09244e-05
9.54759e-06
8.21116e-06
7.38211e-06
5.65525e-06
5.65525e-06
1.32313e-05
2.08394e-05
2.96834e-05
7.00372e-05
9.87003e-05
0.000129066
0.000517604
0.000555497
0.000320977
0.000189506
2.35589e-05
0.000189506
7.04589e-05
0.000450605
0.000238431
0.000523868
)
;
    }
    ceiling
    {
        Cmu             0.09;
        kappa           0.41;
        E               9.8;
        type            epsilonWallFunction;
        value           nonuniform List<scalar> 
43
(
0.00204997
0.00261604
0.00310852
0.00376995
0.00336992
0.00296217
0.00236519
0.00164084
0.00107386
0.000885509
0.000764464
0.000669121
0.000577174
0.000475964
0.000381391
0.000298563
0.000238478
0.000203177
0.000183658
0.000172329
0.000166117
0.000160379
0.000154408
0.000148394
0.000143048
0.000139342
0.000138278
0.000140762
0.000147638
0.000159923
0.000179303
0.000205655
0.000239133
0.00028147
0.000334211
0.000400053
0.000441076
0.000417315
0.000348471
0.000292176
0.00965514
0.0161803
0.00388795
)
;
    }
    sWall
    {
        Cmu             0.09;
        kappa           0.41;
        E               9.8;
        type            epsilonWallFunction;
        value           uniform 0.00204997;
    }
    nWall
    {
        Cmu             0.09;
        kappa           0.41;
        E               9.8;
        type            epsilonWallFunction;
        value           nonuniform List<scalar> 6(0.000129066 0.000139268 0.000207115 0.000482504 0.000520809 0.000292176);
    }
    sideWalls
    {
        type            empty;
    }
    glass1
    {
        Cmu             0.09;
        kappa           0.41;
        E               9.8;
        type            epsilonWallFunction;
        value           nonuniform List<scalar> 9(0.000277915 0.000809002 0.00160715 0.00278919 0.00448726 0.00688811 0.00978152 0.0104485 0.00965514);
    }
    glass2
    {
        Cmu             0.09;
        kappa           0.41;
        E               9.8;
        type            epsilonWallFunction;
        value           nonuniform List<scalar> 2(0.000840014 0.000754197);
    }
    sun
    {
        Cmu             0.09;
        kappa           0.41;
        E               9.8;
        type            epsilonWallFunction;
        value           nonuniform List<scalar> 
14
(
0.000277915
0.000345428
0.000347313
0.000393497
0.000439119
0.000483395
0.00052735
0.000572789
0.000619996
0.000655558
0.000671919
0.00066245
0.000626554
0.000573856
)
;
    }
    Table_master
    {
        Cmu             0.09;
        kappa           0.41;
        E               9.8;
        type            epsilonWallFunction;
        value           nonuniform List<scalar> 9(9.37595e-05 6.66556e-05 4.88711e-05 3.70348e-05 2.8951e-05 2.32766e-05 1.91914e-05 1.62041e-05 1.40374e-05);
    }
    Table_slave
    {
        Cmu             0.09;
        kappa           0.41;
        E               9.8;
        type            epsilonWallFunction;
        value           nonuniform List<scalar> 9(0.000119843 9.52106e-05 8.21726e-05 7.43454e-05 6.83301e-05 6.20597e-05 5.55939e-05 4.91205e-05 4.18901e-05);
    }
    inlet
    {
        type            turbulentMixingLengthDissipationRateInlet;
        mixingLength    0.01;
        phi             phi;
        k               k;
        value           uniform 0.000101881;
    }
    outlet
    {
        type            zeroGradient;
    }
}


// ************************************************************************* //
