/*--------------------------------*- C++ -*----------------------------------*\
  =========                 |
  \\      /  F ield         | OpenFOAM: The Open Source CFD Toolbox
   \\    /   O peration     | Website:  https://openfoam.org
    \\  /    A nd           | Version:  6
     \\/     M anipulation  |
\*---------------------------------------------------------------------------*/
FoamFile
{
    version     2.0;
    format      ascii;
    class       volScalarField;
    location    "2900";
    object      k;
}
// * * * * * * * * * * * * * * * * * * * * * * * * * * * * * * * * * * * * * //

dimensions      [0 2 -2 0 0 0 0];

internalField   nonuniform List<scalar> 
458
(
0.00327939
0.00398296
0.00430142
0.00478414
0.0052758
0.00581009
0.00638895
0.0069345
0.00736568
0.00756087
0.00706129
0.00591081
0.00476398
0.00377173
0.00289066
0.000734166
0.0010156
0.00137089
0.00155835
0.00153808
0.00137009
0.00119107
0.00103954
0.000915275
0.000812907
0.000727909
0.000656623
0.000596078
0.000542893
0.000493962
0.000445651
0.000402034
0.000330425
0.00540196
0.00965643
0.00613614
0.00656272
0.00721408
0.00806291
0.00909875
0.0102468
0.011207
0.0117085
0.0114745
0.00991659
0.00817305
0.00633941
0.00449451
0.00367722
0.00287371
0.00206236
0.000678159
0.00146806
0.00215146
0.00252555
0.00259851
0.00224214
0.00184622
0.0015274
0.00128221
0.00109194
0.000942385
0.000822166
0.000720147
0.000630521
0.000564164
0.000523707
0.000720412
0.000458557
0.00752323
0.0161602
0.00686279
0.00673436
0.00714444
0.00786363
0.00885287
0.00996245
0.0109246
0.0116175
0.011825
0.0107729
0.00914181
0.00752976
0.00586641
0.00464453
0.00377147
0.00242838
0.00125985
0.00196156
0.00254289
0.00293486
0.00300329
0.00235483
0.00180307
0.00139959
0.00111029
0.000901332
0.000748021
0.000634023
0.000550669
0.000494008
0.000462272
0.000470503
0.000976713
0.000566733
0.00982413
0.024914
0.00773081
0.0065027
0.00664633
0.0072867
0.00836245
0.00949458
0.0105075
0.0114175
0.011819
0.0108845
0.00917437
0.00757998
0.00616475
0.00498345
0.00406004
0.00308143
0.00272224
0.00290693
0.00325098
0.00362256
0.00381887
0.00371924
0.00296542
0.00247459
0.00214891
0.00190869
0.00170718
0.00153535
0.00137344
0.00120994
0.00103321
0.000749137
0.000595489
0.00126326
0.000692072
0.012438
0.0368575
0.0100654
0.00638511
0.00621006
0.00698004
0.00849583
0.00971088
0.0107997
0.0118549
0.0122195
0.0110683
0.00901847
0.00719624
0.00591696
0.00500106
0.00434509
0.00395907
0.00444046
0.00467299
0.00489229
0.00502127
0.00491275
0.0045497
0.00404869
0.00368533
0.00345086
0.00324404
0.00300874
0.00270796
0.00235522
0.00196977
0.00157386
0.00116393
0.000863972
0.00107348
0.00110301
0.00103285
0.00123028
0.00119329
0.0155865
0.0502114
0.0164446
0.00739179
0.00631744
0.0074124
0.00952407
0.0106581
0.0117621
0.0128241
0.013005
0.0114615
0.00885491
0.00665844
0.00543517
0.00492681
0.00481913
0.00506859
0.00570272
0.006199
0.00637362
0.00618855
0.00570182
0.00504837
0.00446171
0.00412146
0.00391832
0.00372192
0.00347956
0.00316735
0.00278834
0.00237292
0.00195093
0.00154163
0.00122967
0.00112304
0.00111438
0.00151758
0.00338057
0.00189426
0.0190427
0.0589849
0.0282021
0.0136147
0.00993209
0.010747
0.011688
0.0123531
0.0132886
0.0142295
0.0141125
0.011956
0.00863867
0.0061528
0.00514648
0.00511224
0.00549325
0.00613535
0.00685006
0.00719642
0.00703988
0.00649286
0.00572875
0.00494187
0.00437067
0.00408395
0.00392939
0.00379552
0.00364091
0.00346312
0.00322674
0.00292501
0.00259087
0.0022472
0.00198483
0.00184816
0.00185583
0.0022778
0.00511188
0.00297315
0.0200228
0.0592589
0.0402655
0.0274789
0.020304
0.0169411
0.0151809
0.0148421
0.0153989
0.0160463
0.0153615
0.0122249
0.00803142
0.00583376
0.00532285
0.00553619
0.00604742
0.00666162
0.00710668
0.00707653
0.00656656
0.00579576
0.00499101
0.00432975
0.00391222
0.00371157
0.0036287
0.00360379
0.0036244
0.00369758
0.00382741
0.00396761
0.00406402
0.00413583
0.00435793
0.00503883
0.00645547
0.00841699
0.0185321
0.00480632
0.0193409
0.0283622
0.0270225
0.0240477
0.020921
0.0184885
0.0172826
0.0173017
0.0178209
0.0180264
0.0162341
0.0113166
0.00712254
0.00570581
0.00548738
0.00569369
0.00601914
0.00627161
0.00625537
0.00588506
0.00525375
0.00453048
0.00389499
0.00344541
0.00319243
0.0030857
0.00307014
0.00312005
0.00323219
0.00341159
0.00366348
0.00398781
0.00440006
0.00492629
0.0056128
0.00643903
0.00726057
0.00786838
0.00823063
0.0044918
0.00839542
0.0129149
0.0157633
0.0178401
0.0199247
0.0208332
0.0205272
0.0192398
0.0144242
0.00877217
0.00622282
0.00542341
0.00524746
0.0052775
0.00532471
0.00526684
0.0050191
0.0045822
0.00404686
0.00352556
0.0031047
0.00282663
0.00267978
0.00262454
0.00263082
0.0026861
0.00279055
0.00295312
0.00319123
0.00352778
0.00397113
0.00452454
0.00517766
0.0058579
0.00641715
0.00667705
0.00635934
0.0032887
0.0098038
0.032808
0.0338463
0.0346396
0.0307583
0.0227633
0.0154867
0.0103721
0.00711566
0.0055952
0.00497685
0.00473228
0.00464202
0.0045889
0.00450121
0.00433525
0.00408285
0.00377829
0.00347422
0.00320991
0.00300013
0.00284901
0.00275737
0.00271485
0.00271712
0.00276612
0.002867
0.00302612
0.00325602
0.00357937
0.00400908
0.00455202
0.00519253
0.00586992
0.00656977
0.00798577
0.00454911
0.00360063
0.0137254
0.0140464
0.0144678
0.0195375
0.0156516
0.0106343
0.00644588
0.0047943
0.00369877
0.00306116
0.00262572
0.00235551
0.00219874
0.00210234
0.00202848
0.00195078
0.00185358
0.00173357
0.00160178
0.00147906
0.00138415
0.00132592
0.001305
0.00131399
0.00134317
0.00139024
0.00145511
0.00153953
0.0016472
0.00178483
0.00195858
0.00216949
0.00242286
0.00272446
0.00307953
0.00348869
0.0038933
0.00324599
0.00273936
0.0031948
)
;

boundaryField
{
    floor
    {
        type            kqRWallFunction;
        value           nonuniform List<scalar> 
36
(
0.00289066
0.000734166
0.0010156
0.00137089
0.00155835
0.00153808
0.00137009
0.00119107
0.00103954
0.000915275
0.000812907
0.000727909
0.000656623
0.000596078
0.000542893
0.000493962
0.000445651
0.000402034
0.000330425
0.000330425
0.000458557
0.000566733
0.000692072
0.00103285
0.00123028
0.00119329
0.00289066
0.00367722
0.00287371
0.00206236
0.000734166
0.00206236
0.000678159
0.00242838
0.00125985
0.00272224
)
;
    }
    ceiling
    {
        type            kqRWallFunction;
        value           nonuniform List<scalar> 
43
(
0.0137254
0.0140464
0.0144678
0.0195375
0.0156516
0.0106343
0.00644588
0.0047943
0.00369877
0.00306116
0.00262572
0.00235551
0.00219874
0.00210234
0.00202848
0.00195078
0.00185358
0.00173357
0.00160178
0.00147906
0.00138415
0.00132592
0.001305
0.00131399
0.00134317
0.00139024
0.00145511
0.00153953
0.0016472
0.00178483
0.00195858
0.00216949
0.00242286
0.00272446
0.00307953
0.00348869
0.0038933
0.00324599
0.00273936
0.0031948
0.0193409
0.0283622
0.0098038
)
;
    }
    sWall
    {
        type            kqRWallFunction;
        value           uniform 0.0137254;
    }
    nWall
    {
        type            kqRWallFunction;
        value           nonuniform List<scalar> 6(0.00119329 0.00189426 0.00297315 0.0032887 0.00360063 0.0031948);
    }
    sideWalls
    {
        type            empty;
    }
    glass1
    {
        type            kqRWallFunction;
        value           nonuniform List<scalar> 9(0.00327939 0.00540196 0.00752323 0.00982413 0.012438 0.0155865 0.0190427 0.0200228 0.0193409);
    }
    glass2
    {
        type            kqRWallFunction;
        value           nonuniform List<scalar> 2(0.00480632 0.0044918);
    }
    sun
    {
        type            kqRWallFunction;
        value           nonuniform List<scalar> 
14
(
0.00327939
0.00398296
0.00430142
0.00478414
0.0052758
0.00581009
0.00638895
0.0069345
0.00736568
0.00756087
0.00706129
0.00591081
0.00476398
0.00377173
)
;
    }
    Table_master
    {
        type            kqRWallFunction;
        value           nonuniform List<scalar> 9(0.00235483 0.00180307 0.00139959 0.00111029 0.000901332 0.000748021 0.000634023 0.000550669 0.000494008);
    }
    Table_slave
    {
        type            kqRWallFunction;
        value           nonuniform List<scalar> 9(0.00296542 0.00247459 0.00214891 0.00190869 0.00170718 0.00153535 0.00137344 0.00120994 0.00103321);
    }
    inlet
    {
        type            turbulentIntensityKineticEnergyInlet;
        intensity       0.05;
        value           uniform 0.0018375;
    }
    outlet
    {
        type            zeroGradient;
    }
}


// ************************************************************************* //
