/*--------------------------------*- C++ -*----------------------------------*\
  =========                 |
  \\      /  F ield         | OpenFOAM: The Open Source CFD Toolbox
   \\    /   O peration     | Website:  https://openfoam.org
    \\  /    A nd           | Version:  6
     \\/     M anipulation  |
\*---------------------------------------------------------------------------*/
FoamFile
{
    version     2.0;
    format      ascii;
    class       volScalarField;
    location    "800";
    object      alphat;
}
// * * * * * * * * * * * * * * * * * * * * * * * * * * * * * * * * * * * * * //

dimensions      [1 -1 -1 0 0 0 0];

internalField   nonuniform List<scalar> 
458
(
0.00140197
0.00154259
0.00160041
0.00168424
0.00176366
0.00184367
0.00192894
0.00200706
0.00206995
0.00210433
0.0020923
0.0019292
0.00173615
0.00152766
0.00132872
0.000631111
0.000740418
0.000864287
0.000935661
0.000933833
0.000880414
0.000819087
0.000763742
0.000715548
0.000673543
0.000636782
0.000604326
0.000575491
0.000549027
0.00052356
0.000497119
0.000470693
0.000425738
0.00180354
0.00415197
0.00389231
0.00443845
0.00500998
0.00554622
0.00594216
0.00638417
0.0068318
0.0072358
0.00757179
0.0076737
0.00710551
0.00566756
0.00364358
0.00153412
0.00134735
0.00113135
0.000608114
0.00158972
0.0025117
0.00320257
0.00337095
0.00234385
0.00196085
0.00171272
0.00153405
0.00139911
0.00129336
0.00120811
0.00112353
0.00103064
0.00094007
0.000861212
0.000924983
0.000491842
0.00213081
0.00551829
0.00468271
0.00531891
0.00558564
0.00577518
0.00594703
0.00624045
0.00664769
0.00717945
0.0078279
0.00842894
0.00841476
0.0078172
0.00628148
0.00435121
0.0031977
0.00124524
0.000801672
0.00169958
0.00279692
0.00382177
0.00400647
0.00115651
0.00101032
0.000887902
0.00078863
0.00070856
0.000643746
0.000591006
0.000549471
0.000519606
0.000592764
0.000705803
0.00105777
0.00054087
0.00243651
0.00675853
0.00460331
0.00532468
0.0052566
0.00515404
0.00521799
0.00544613
0.00585365
0.00648482
0.00729412
0.00804823
0.00828554
0.00806987
0.00729996
0.00599076
0.0045908
0.00248693
0.0013154
0.00172285
0.00269105
0.00398751
0.00509786
0.00513552
0.00130603
0.00119466
0.00111408
0.00105068
0.000994749
0.000944277
0.000894486
0.000841338
0.000779898
0.000719863
0.000719072
0.00117026
0.000597683
0.00274299
0.00840746
0.00460828
0.00510523
0.00492179
0.00466998
0.00473113
0.00496029
0.0053938
0.00609322
0.0069532
0.00763985
0.00787639
0.00777741
0.00743126
0.0067276
0.00574709
0.0044552
0.00422713
0.00488257
0.0058197
0.00674394
0.00735122
0.00738539
0.00624376
0.00561873
0.00525215
0.00497766
0.00469479
0.00428099
0.00374748
0.0031152
0.00242591
0.00178673
0.00133566
0.00126298
0.000946754
0.000721539
0.000765532
0.000768063
0.00307222
0.0103468
0.0057357
0.00484354
0.00483524
0.00458847
0.004577
0.00480152
0.00525743
0.00598888
0.00681582
0.00740705
0.00755918
0.00745977
0.00737705
0.00724351
0.00694837
0.00663033
0.00704985
0.0079382
0.00865941
0.00906434
0.00911309
0.00882749
0.00825058
0.00773438
0.0073071
0.00690414
0.00647884
0.00596926
0.00535078
0.00462488
0.00380707
0.00296745
0.00226561
0.0017469
0.00134031
0.00140421
0.00201447
0.00101404
0.00340633
0.0118127
0.00812931
0.00534508
0.00473861
0.00479662
0.00474972
0.00489605
0.00532545
0.0060487
0.00684129
0.00734692
0.0074087
0.00741652
0.00782171
0.00823518
0.00845208
0.00875698
0.00943841
0.0100813
0.0103296
0.0102173
0.00981932
0.00923565
0.00857365
0.0079683
0.00744058
0.00694304
0.00645889
0.00598837
0.00554238
0.00505058
0.00445955
0.00377213
0.00311888
0.00254805
0.00209368
0.0019389
0.00231886
0.00126864
0.00349859
0.0108641
0.00907109
0.00722636
0.00603735
0.00556906
0.00515474
0.00513037
0.00553854
0.00626421
0.00700158
0.00738149
0.00738483
0.00791925
0.00878419
0.00931828
0.00967508
0.0100856
0.0105467
0.0107624
0.0105593
0.0100239
0.00926777
0.00840789
0.00756812
0.00685043
0.0062589
0.00575534
0.0053275
0.00498666
0.00474941
0.00461317
0.00449542
0.00414187
0.00381511
0.00360101
0.00355174
0.00351206
0.0043594
0.00164679
0.00344288
0.00419247
0.00482589
0.00505169
0.00497829
0.00488592
0.00489297
0.0052053
0.0058206
0.00660818
0.00722442
0.00736682
0.00755931
0.00842152
0.00926125
0.00963337
0.00988376
0.0100863
0.0101409
0.00990409
0.00933528
0.00849507
0.00750902
0.00651861
0.00566127
0.00499627
0.00449198
0.00410152
0.003797
0.00355964
0.00336968
0.00320551
0.0030683
0.00296193
0.00287731
0.0028159
0.00274006
0.00261762
0.00246444
0.0015805
0.00159867
0.00275081
0.00357239
0.0041839
0.00492294
0.0057324
0.00647718
0.00712965
0.00728041
0.00716865
0.00747826
0.00824811
0.00860825
0.00873585
0.00876063
0.0086395
0.0082885
0.00766976
0.00683492
0.00590574
0.00500997
0.0042625
0.00370718
0.00332113
0.00305511
0.00287321
0.00275291
0.00267895
0.00264089
0.00263807
0.00265528
0.00267854
0.00269763
0.00269327
0.00263325
0.00248449
0.00219385
0.00127935
0.00240159
0.00499402
0.0058499
0.00685517
0.00744279
0.00715609
0.00700373
0.00704981
0.00638127
0.00602959
0.00612012
0.00617521
0.00615649
0.00610478
0.0059761
0.00570735
0.00526485
0.00468097
0.00405357
0.00349289
0.00306045
0.00275936
0.00255897
0.00242443
0.00233756
0.00229702
0.00229422
0.00232065
0.00236855
0.0024377
0.00252311
0.00261696
0.00270286
0.00275257
0.0027625
0.00281557
0.00194016
0.00131674
0.00289579
0.00292628
0.00296781
0.0034725
0.00311469
0.00258006
0.00198566
0.00176818
0.00158501
0.00140531
0.00124807
0.0011491
0.00108513
0.00105026
0.00102676
0.00100423
0.000976414
0.000940399
0.000897377
0.000852739
0.000813441
0.00078443
0.000767202
0.000761005
0.000764618
0.000777193
0.000798449
0.000826567
0.000861468
0.000903628
0.000953998
0.00101104
0.00107472
0.00114523
0.00122219
0.00130132
0.00136314
0.00120541
0.00112406
0.00131242
)
;

boundaryField
{
    floor
    {
        type            compressible::alphatWallFunction;
        Prt             0.85;
        value           nonuniform List<scalar> 
36
(
0.000187762
8.90022e-05
0.000105101
0.000123006
0.000133184
0.000132927
0.000125318
0.000116515
0.000108503
0.00010147
9.52934e-05
8.98496e-05
8.50115e-05
8.06864e-05
7.66936e-05
7.28284e-05
6.87906e-05
6.4728e-05
5.77497e-05
5.7749e-05
6.79815e-05
7.54585e-05
8.40191e-05
0.000102353
0.00010877
0.000109142
0.00018776
0.000215533
0.000190302
0.000160621
8.90011e-05
0.000160619
8.55727e-05
0.000176346
0.00011399
0.000185954
)
;
    }
    ceiling
    {
        type            compressible::alphatWallFunction;
        Prt             0.85;
        value           nonuniform List<scalar> 
43
(
0.000391285
0.000395101
0.000400292
0.000462885
0.000418706
0.000351667
0.00027535
0.000246842
0.000222527
0.00019836
0.000176924
0.000163275
0.000154381
0.000149509
0.000146215
0.000143048
0.000139127
0.00013403
0.000127911
0.000121524
0.000115868
0.00011167
0.000109167
0.000108263
0.000108785
0.000110608
0.000113685
0.000117741
0.000122754
0.000128778
0.000135933
0.000143982
0.000152907
0.000162717
0.000173347
0.000184197
0.000192621
0.000171036
0.000159785
0.000185731
0.000459488
0.000550738
0.000328717
)
;
    }
    sWall
    {
        type            compressible::alphatWallFunction;
        Prt             0.85;
        value           uniform 0.000390021;
    }
    nWall
    {
        type            compressible::alphatWallFunction;
        Prt             0.85;
        value           nonuniform List<scalar> 6(0.00010894 0.000144055 0.000179366 0.00018087 0.000185977 0.000185401);
    }
    sideWalls
    {
        type            empty;
    }
    glass1
    {
        type            compressible::alphatWallFunction;
        Prt             0.85;
        value           nonuniform List<scalar> 9(0.000192692 0.00024557 0.000287819 0.000326731 0.000365284 0.000406236 0.000447364 0.000458782 0.000452216);
    }
    glass2
    {
        type            compressible::alphatWallFunction;
        Prt             0.85;
        value           nonuniform List<scalar> 2(0.000228984 0.000220263);
    }
    sun
    {
        type            compressible::alphatWallFunction;
        Prt             0.85;
        value           nonuniform List<scalar> 
14
(
0.000197721
0.000216653
0.000224388
0.000235546
0.000246063
0.000256605
0.000267786
0.000277981
0.000286157
0.000290617
0.000289059
0.000267826
0.000242435
0.000214661
)
;
    }
    Table_master
    {
        type            compressible::alphatWallFunction;
        Prt             0.85;
        value           nonuniform List<scalar> 9(0.000164277 0.000143875 0.000126524 0.000112247 0.000100575 9.10091e-05 8.31386e-05 7.68792e-05 7.23424e-05);
    }
    Table_slave
    {
        type            compressible::alphatWallFunction;
        Prt             0.85;
        value           nonuniform List<scalar> 9(0.000184844 0.000169555 0.000158392 0.000149544 0.000141685 0.000134549 0.000127466 0.000119854 0.000110983);
    }
    inlet
    {
        type            fixedValue;
        value           uniform 1.94e-05;
    }
    outlet
    {
        type            zeroGradient;
    }
}


// ************************************************************************* //
