/*--------------------------------*- C++ -*----------------------------------*\
  =========                 |
  \\      /  F ield         | OpenFOAM: The Open Source CFD Toolbox
   \\    /   O peration     | Website:  https://openfoam.org
    \\  /    A nd           | Version:  6
     \\/     M anipulation  |
\*---------------------------------------------------------------------------*/
FoamFile
{
    version     2.0;
    format      ascii;
    class       volScalarField;
    location    "800";
    object      k;
}
// * * * * * * * * * * * * * * * * * * * * * * * * * * * * * * * * * * * * * //

dimensions      [0 2 -2 0 0 0 0];

internalField   nonuniform List<scalar> 
458
(
0.00287336
0.0034724
0.00373728
0.00413891
0.00453839
0.00495938
0.00542865
0.00587718
0.00625129
0.0064612
0.00638906
0.0054347
0.00440244
0.003409
0.00257933
0.000583694
0.000803183
0.00109427
0.00128262
0.00127778
0.00113588
0.000983234
0.000854925
0.000750498
0.00066503
0.000594471
0.000535466
0.000485631
0.000442039
0.000402022
0.000362484
0.000325017
0.000265972
0.00476053
0.00846447
0.00528322
0.00561513
0.00611398
0.00677219
0.00756912
0.00851008
0.00938533
0.00993765
0.010058
0.00924437
0.00774772
0.00607436
0.0042688
0.00343927
0.00265306
0.0018709
0.000542
0.0011423
0.00173387
0.00206753
0.00215965
0.00186363
0.00152618
0.00125491
0.00104797
0.000888678
0.000764399
0.000665734
0.000582472
0.000509311
0.000454589
0.000420922
0.000546595
0.000354961
0.00665328
0.014187
0.00588549
0.00575199
0.00602385
0.00653717
0.00726856
0.00817772
0.00903471
0.00969223
0.0100957
0.00983049
0.00864177
0.00728926
0.00570733
0.00446721
0.00355843
0.00226686
0.000941447
0.00153723
0.00204855
0.00240835
0.00249962
0.00196008
0.00149596
0.00115547
0.000911606
0.00073595
0.000607521
0.000512098
0.000442689
0.000395912
0.000371957
0.000377152
0.000714869
0.000429268
0.00871071
0.0218836
0.00657046
0.00551583
0.00554313
0.00594515
0.00672403
0.00768743
0.00855796
0.00933512
0.00991813
0.00978338
0.00865434
0.00731117
0.00601578
0.0048555
0.00393115
0.00291444
0.00253025
0.00244395
0.00265616
0.00296658
0.00316679
0.00312157
0.00250169
0.0020938
0.0018213
0.00162023
0.00145254
0.00130907
0.00117481
0.00103946
0.00089327
0.000652979
0.000506867
0.00091597
0.000524236
0.0110549
0.0324724
0.0084538
0.00533808
0.00508294
0.00552582
0.00664814
0.00778704
0.00869999
0.00956717
0.0101737
0.00987933
0.00853775
0.00697339
0.00574413
0.00482535
0.00414449
0.00367775
0.00387299
0.0039543
0.00408548
0.00419509
0.00413795
0.00386683
0.00345401
0.00313704
0.00292914
0.00275216
0.0025588
0.00231628
0.00202874
0.00170954
0.00137726
0.00103024
0.000759661
0.00083797
0.000808991
0.000764212
0.000860392
0.00086648
0.0138857
0.0444646
0.0137684
0.00601361
0.00498249
0.00537563
0.00733
0.00852409
0.00942798
0.0103039
0.0107961
0.0102458
0.0085133
0.00654564
0.00519553
0.0045547
0.00433462
0.00442993
0.00483379
0.00518968
0.00533589
0.00522125
0.00486273
0.00434523
0.00384724
0.00353695
0.00334875
0.00317723
0.00297578
0.00272126
0.00241109
0.00206631
0.00171182
0.00136483
0.0010854
0.000943632
0.000883789
0.00114408
0.0027343
0.00151059
0.0170899
0.0525019
0.0242262
0.011071
0.00752404
0.00771539
0.00920695
0.00995136
0.0106665
0.0114229
0.0117206
0.0108046
0.00854424
0.0061299
0.00475011
0.00443525
0.00465639
0.00514392
0.00570986
0.00602863
0.00595007
0.00555645
0.00496823
0.00433012
0.00381814
0.00353398
0.00337884
0.00324905
0.00311075
0.00295568
0.00276098
0.00251534
0.00224071
0.00195616
0.00172694
0.00158221
0.00153604
0.00180355
0.00399382
0.00236467
0.0180574
0.054287
0.0362468
0.0239476
0.0166755
0.0140094
0.0126346
0.01219
0.0124429
0.0129221
0.0128465
0.0113398
0.00835254
0.00557403
0.00461134
0.00460174
0.00499024
0.00552395
0.00595124
0.0060131
0.00566234
0.00507115
0.00441317
0.00383609
0.00343829
0.00322446
0.00312009
0.00306969
0.00305959
0.00309498
0.00318187
0.00329455
0.00338338
0.00344515
0.00361746
0.00410076
0.00505776
0.00631303
0.0138331
0.00398871
0.0175273
0.0259315
0.0249104
0.022094
0.0189353
0.0165305
0.0148777
0.0143207
0.0144563
0.0146048
0.0138581
0.0112949
0.00719045
0.00508597
0.00455706
0.0046337
0.00491475
0.00518977
0.00527095
0.00505822
0.00460892
0.00403417
0.00348257
0.00305072
0.00277456
0.00263272
0.00258165
0.00259465
0.00266484
0.00279339
0.00298119
0.00322461
0.00353517
0.0039311
0.00444805
0.00507965
0.00573435
0.00626749
0.00662055
0.00367853
0.00795632
0.0120017
0.0139964
0.0148684
0.0158391
0.0166518
0.0167611
0.0159985
0.0136678
0.00854917
0.00539273
0.00436694
0.00413781
0.00415411
0.00420286
0.004162
0.00395259
0.00358073
0.00313189
0.00270247
0.0023514
0.00210712
0.00196368
0.00189991
0.00189628
0.00194378
0.00204026
0.00218775
0.0023918
0.00266738
0.00302059
0.00345343
0.00396235
0.00450206
0.00495934
0.00515784
0.00483804
0.00241181
0.00820364
0.0278435
0.0271072
0.0273757
0.0258012
0.0213974
0.0176082
0.0130437
0.00842497
0.00521601
0.00393499
0.00348356
0.00331952
0.00323623
0.00314193
0.00298836
0.00275994
0.00248102
0.00220169
0.00196655
0.0017959
0.00168873
0.00163327
0.00161794
0.00163893
0.00170043
0.00180418
0.00195366
0.00215497
0.00241868
0.00275441
0.0031678
0.00364441
0.00412532
0.00456637
0.00518987
0.00314524
0.00255456
0.0120247
0.0122772
0.0126277
0.0173997
0.0140617
0.00970194
0.00577695
0.00459138
0.00369498
0.00290733
0.00229417
0.00194519
0.0017349
0.00162536
0.00155356
0.00148623
0.00140514
0.00130347
0.00118698
0.00107184
0.000975306
0.000906932
0.000867464
0.00085343
0.000861464
0.000889938
0.000939189
0.00100641
0.00109311
0.00120263
0.00134035
0.00150534
0.00170085
0.00193125
0.00219946
0.00249345
0.0027361
0.00213987
0.0018618
0.00254021
)
;

boundaryField
{
    floor
    {
        type            kqRWallFunction;
        value           nonuniform List<scalar> 
36
(
0.00257933
0.000583694
0.000803183
0.00109427
0.00128262
0.00127778
0.00113588
0.000983234
0.000854925
0.000750498
0.00066503
0.000594471
0.000535466
0.000485631
0.000442039
0.000402022
0.000362484
0.000325017
0.000265972
0.000265972
0.000354961
0.000429268
0.000524236
0.000764212
0.000860392
0.00086648
0.00257933
0.00343927
0.00265306
0.0018709
0.000583694
0.0018709
0.000542
0.00226686
0.000941447
0.00253025
)
;
    }
    ceiling
    {
        type            kqRWallFunction;
        value           nonuniform List<scalar> 
43
(
0.0120247
0.0122772
0.0126277
0.0173997
0.0140617
0.00970194
0.00577695
0.00459138
0.00369498
0.00290733
0.00229417
0.00194519
0.0017349
0.00162536
0.00155356
0.00148623
0.00140514
0.00130347
0.00118698
0.00107184
0.000975306
0.000906932
0.000867464
0.00085343
0.000861464
0.000889938
0.000939189
0.00100641
0.00109311
0.00120263
0.00134035
0.00150534
0.00170085
0.00193125
0.00219946
0.00249345
0.0027361
0.00213987
0.0018618
0.00254021
0.0175273
0.0259315
0.00820364
)
;
    }
    sWall
    {
        type            kqRWallFunction;
        value           uniform 0.0120247;
    }
    nWall
    {
        type            kqRWallFunction;
        value           nonuniform List<scalar> 6(0.00086648 0.00151059 0.00236467 0.00241181 0.00255456 0.00254021);
    }
    sideWalls
    {
        type            empty;
    }
    glass1
    {
        type            kqRWallFunction;
        value           nonuniform List<scalar> 9(0.00287336 0.00476053 0.00665328 0.00871071 0.0110549 0.0138857 0.0170899 0.0180574 0.0175273);
    }
    glass2
    {
        type            kqRWallFunction;
        value           nonuniform List<scalar> 2(0.00398871 0.00367853);
    }
    sun
    {
        type            kqRWallFunction;
        value           nonuniform List<scalar> 
14
(
0.00287336
0.0034724
0.00373728
0.00413891
0.00453839
0.00495938
0.00542865
0.00587718
0.00625129
0.0064612
0.00638906
0.0054347
0.00440244
0.003409
)
;
    }
    Table_master
    {
        type            kqRWallFunction;
        value           nonuniform List<scalar> 9(0.00196008 0.00149596 0.00115547 0.000911606 0.00073595 0.000607521 0.000512098 0.000442689 0.000395912);
    }
    Table_slave
    {
        type            kqRWallFunction;
        value           nonuniform List<scalar> 9(0.00250169 0.0020938 0.0018213 0.00162023 0.00145254 0.00130907 0.00117481 0.00103946 0.00089327);
    }
    inlet
    {
        type            turbulentIntensityKineticEnergyInlet;
        intensity       0.05;
        value           uniform 0.0018375;
    }
    outlet
    {
        type            zeroGradient;
    }
}


// ************************************************************************* //
