/*--------------------------------*- C++ -*----------------------------------*\
  =========                 |
  \\      /  F ield         | OpenFOAM: The Open Source CFD Toolbox
   \\    /   O peration     | Website:  https://openfoam.org
    \\  /    A nd           | Version:  6
     \\/     M anipulation  |
\*---------------------------------------------------------------------------*/
FoamFile
{
    version     2.0;
    format      ascii;
    class       surfaceScalarField;
    location    "800";
    object      phi;
}
// * * * * * * * * * * * * * * * * * * * * * * * * * * * * * * * * * * * * * //

dimensions      [1 0 -1 0 0 0 0];

internalField   nonuniform List<scalar> 
850
(
-0.00326332
0.00332352
-0.00462097
0.00135761
-0.00562888
0.00100787
-0.00633359
0.000704678
-0.00668409
0.000350457
-0.00661862
-6.55086e-05
-0.00605579
-0.000562863
-0.00494298
-0.00111285
-0.00332474
-0.00161827
-0.00138131
-0.00194347
0.000531088
-0.00191244
0.00169643
-0.00116538
0.00213674
-0.000440346
0.00174395
0.00039275
0.00174611
-0.0009937
0.000996791
-0.000770942
-0.000222825
-1.93845e-05
-0.000751621
0.000749525
-0.00076897
0.00134835
-0.000598889
0.00168453
-0.000336242
0.00182949
-0.000145016
0.00190463
-7.52049e-05
0.00195194
-4.7373e-05
0.00198
-2.81304e-05
0.00199329
-1.33557e-05
0.00199154
1.68797e-06
0.00196477
2.66997e-05
0.00188537
7.9325e-05
0.00170638
0.000178919
0.0013967
0.0003096
0.000937637
0.000458987
0.000941298
-0.00239562
0.00588359
-0.00369178
0.00265373
-0.00474037
0.00205643
-0.00547784
0.00144211
-0.00587304
0.000745618
-0.00586924
-6.93479e-05
-0.00540297
-0.00102917
-0.0044428
-0.00207305
-0.00308872
-0.00297238
-0.00157273
-0.0034595
-0.000158133
-0.00332708
0.000961325
-0.00228489
0.00164958
-0.00112864
0.0020938
-5.15095e-05
0.00300153
0.000838333
0.00223053
0.000774794
0.0013476
0.000887128
0.00135965
-3.11124e-05
0.0010375
0.000449757
-0.00070376
0.000920743
-0.00122267
0.00133674
-0.00118502
0.00167675
-0.000938961
0.00175956
-0.000419104
0.00177246
-0.000157976
0.00178663
-8.9444e-05
0.00179856
-5.93602e-05
0.00180594
-3.55797e-05
0.00181011
-1.75888e-05
0.00181051
1.226e-06
0.00180242
3.47174e-05
0.00175369
0.000127981
0.00155922
0.00037332
0.00121727
0.000651475
0.000757795
0.000918379
0.00170928
-0.00171195
0.00784979
-0.00281782
0.00375956
-0.0037945
0.00303308
-0.00449271
0.00214028
-0.00490669
0.00115955
-0.00497163
-4.44607e-06
-0.00459802
-0.00140281
-0.00376742
-0.00290369
-0.00262513
-0.00411471
-0.00140672
-0.00467795
-0.000323045
-0.00441079
0.000598079
-0.00320606
0.00127591
-0.00180651
0.00179228
-0.000567927
0.00218335
0.000447217
0.00197973
0.000978368
0.00136794
0.00149888
0.00273877
0.00138902
-0.000337857
0.00169637
-0.00101116
0.00175443
-0.00128079
0.00187011
-0.00130075
0.00216809
-0.001237
0.00174909
0.00159121
0.00150186
0.00144259
0.0014071
0.0013896
0.00139092
0.00142572
0.00155378
0.00131581
0.000611212
0.00101494
0.000952263
0.000595807
0.00133743
0.00232106
-0.00118904
0.00937123
-0.0020358
0.00460628
-0.00277108
0.00376831
-0.00332199
0.00269115
-0.00369317
0.00153069
-0.00380481
0.000107155
-0.00350825
-0.00169941
-0.00279633
-0.00361564
-0.00187892
-0.00503215
-0.000962175
-0.00559473
-0.000174997
-0.00519801
0.000513369
-0.00389447
0.00104742
-0.00234062
0.00143684
-0.000957393
0.00174133
0.000142685
0.00185807
0.000861584
0.00196856
0.00138834
0.00306522
0.00164207
0.00253831
0.000539441
0.0024787
-0.000278297
0.00234007
-0.000872575
0.00216945
-0.00111023
0.00198368
-0.00111503
0.00165932
-0.000912693
0.00205689
-0.000397784
0.00223135
-0.000174665
0.0023292
-9.80629e-05
0.0023825
-5.3513e-05
0.00238761
-5.32278e-06
0.00233189
5.55034e-05
0.00219425
0.000137429
0.00193739
0.000256644
0.00149295
0.00044422
0.00129413
0.000809963
0.000999663
0.00124665
0.000606347
0.00173067
0.00294824
-0.000786515
0.0105579
-0.00137069
0.00519042
-0.00168384
0.00408142
-0.00197512
0.00298239
-0.00221466
0.00177019
-0.00230566
0.000198108
-0.00202471
-0.0019804
-0.00144538
-0.00419501
-0.000811386
-0.00566617
-0.000248154
-0.006158
0.000204005
-0.00565022
0.000606575
-0.00429709
0.000912413
-0.00264651
0.00113361
-0.00117864
0.0013631
-8.68535e-05
0.00160626
0.000618382
0.00196047
0.00103408
0.00248431
0.00111818
0.00253596
0.000487735
0.0024795
-0.000221887
0.00226583
-0.000658946
0.00200021
-0.000844667
0.00173088
-0.000845748
0.00151116
-0.000693038
0.00152614
-0.000412816
0.0015666
-0.000215187
0.00159255
-0.00012408
0.00161396
-7.49806e-05
0.00163049
-2.19228e-05
0.00162932
5.66089e-05
0.00159275
0.000173928
0.00150704
0.000342295
0.00137865
0.000572537
0.00128622
0.000902322
0.00123237
0.00130043
0.00118334
0.00177962
0.0021421
0.00198939
0.0014946
0.000667941
0.00153554
-2.15721e-05
0.00161226
-0.000610907
0.0116267
-0.000916959
0.00549643
-0.000598161
0.00376258
-0.000535727
0.00291991
-0.000600151
0.00183457
-0.000518218
0.000116128
-0.000146106
-0.00235256
0.000241925
-0.00458307
0.000526689
-0.00595096
0.000683247
-0.00631459
0.000747714
-0.00571473
0.000784847
-0.00433428
0.000774158
-0.00263587
0.000753545
-0.00115808
0.000834596
-0.000167959
0.00103113
0.000421792
0.00133924
0.00072592
0.00173066
0.000726714
0.00190312
0.000315214
0.00182027
-0.000139085
0.00160473
-0.00044346
0.00134224
-0.000582242
0.00108347
-0.000587036
0.000879176
-0.000488807
0.000792277
-0.000325982
0.000780813
-0.000203791
0.000803591
-0.000146927
0.000849087
-0.000120546
0.000915411
-8.83175e-05
0.000991612
-1.96624e-05
0.00106181
0.000103655
0.0011218
0.000282232
0.00118268
0.000511586
0.00128852
0.000796412
0.00149179
0.00109708
0.00182029
0.00145104
0.00220072
0.00160889
0.00181654
0.00105203
0.00102158
0.000773303
0.00269224
-0.000701301
0.0128364
-0.000415349
0.00521044
0.000732613
0.00261458
0.00104773
0.00260476
0.00121972
0.00166253
0.0016347
-0.000298904
0.00204407
-0.00276197
0.00217397
-0.004713
0.00205866
-0.00583567
0.00175443
-0.00601039
0.00134876
-0.00530912
0.000924712
-0.00391029
0.000517984
-0.00222921
0.000224792
-0.000864954
0.000165983
-0.00010921
0.000297559
0.000290158
0.000550709
0.000472712
0.000831924
0.000445441
0.000945645
0.000201433
0.000873586
-6.70865e-05
0.00069103
-0.000260969
0.000462565
-0.000353843
0.000237176
-0.000361715
6.01234e-05
-0.000311825
-2.88141e-05
-0.000237117
-4.29502e-05
-0.000189728
-1.16454e-05
-0.000178307
5.10112e-05
-0.000183279
0.000144733
-0.000182116
0.000276727
-0.000151734
0.000442291
-6.19865e-05
0.000625152
9.92935e-05
0.000830533
0.000306128
0.00108432
0.000542543
0.00140532
0.000776007
0.00181211
0.00104417
0.00227392
0.001147
0.00246904
0.000856835
0.00192069
0.00132157
0.00467139
0.00306677
0.0103361
0.00384412
0.00443304
0.00363778
0.00282088
0.00353109
0.0027114
0.00384668
0.0013469
0.00440571
-0.000857979
0.00457524
-0.00293153
0.00429458
-0.00443236
0.00364215
-0.00518326
0.00274803
-0.0051163
0.00176567
-0.00432681
0.00080662
-0.0029513
-2.05156e-05
-0.00140215
-0.000460512
-0.000425026
-0.000573202
3.41324e-06
-0.000496392
0.000213283
-0.000324319
0.000300574
-0.000153545
0.000274601
-9.74094e-05
0.00014523
-0.000165255
6.89157e-07
-0.000315792
-0.000110504
-0.00049869
-0.000171019
-0.000671577
-0.000188906
-0.000801563
-0.000181917
-0.00086897
-0.000169789
-0.000885884
-0.000172895
-0.000871805
-0.000192468
-0.000836824
-0.000218343
-0.000780539
-0.000238486
-0.000691558
-0.0002408
-0.000541571
-0.000212058
-0.000312404
-0.000129957
-2.7601e-05
2.12422e-05
0.000297049
0.000217811
0.00065261
0.000420365
0.00104904
0.000647658
0.0014168
0.000779158
0.00148271
0.000790847
0.000586657
0.00221754
0.00552721
0.0109614
0.0153921
0.0125005
0.00571244
0.0109027
0.00430918
0.00992011
0.00232944
0.00891797
0.000144123
0.00770383
-0.0017174
0.00631096
-0.0030395
0.00477234
-0.00364465
0.00313412
-0.00347813
0.00154958
-0.00274233
6.61532e-05
-0.00146795
-0.000884777
-0.0004513
-0.00125636
-5.35142e-05
-0.0013561
0.000103079
-0.0013202
0.000177304
-0.00123048
0.000210781
-0.00115208
0.000196134
-0.00114097
0.000134045
-0.00119818
5.78177e-05
-0.00130417
-4.59147e-06
-0.0014319
-4.33729e-05
-0.00155435
-6.65389e-05
-0.0016536
-8.27551e-05
-0.0017237
-9.97759e-05
-0.00177581
-0.000120879
-0.00182565
-0.00014271
-0.00188584
-0.000158244
-0.00196767
-0.000156748
-0.00208411
-0.000124445
-0.00224976
-4.64963e-05
-0.00246946
8.9657e-05
-0.00274429
0.000295982
-0.00312362
0.000597051
-0.00371489
0.00101156
-0.00460442
0.0015371
-0.00593565
0.00211031
-0.00771623
0.00257134
-0.00773669
0.00223791
-0.00191598
0.0126051
0.00947016
0.0104033
0.00651096
0.00929189
0.00344092
0.00836147
0.0010746
0.00714234
-0.000498236
0.00555816
-0.00145531
0.00375327
-0.00183979
0.00179003
-0.00151495
-7.33887e-05
-0.000879006
-0.00138998
-0.000151445
-0.00192216
8.0802e-05
-0.00210559
0.000129833
-0.00214473
0.000142138
-0.00212584
0.000158335
-0.00208808
0.000172938
-0.00206308
0.000171054
-0.00207537
0.000146248
-0.00212581
0.000108171
-0.00220028
6.97931e-05
-0.00228218
3.84372e-05
-0.00236375
1.49413e-05
-0.00244162
-4.97814e-06
-0.00251694
-2.45501e-05
-0.00259518
-4.27368e-05
-0.00268262
-5.53649e-05
-0.00278126
-5.96954e-05
-0.00289047
-4.76251e-05
-0.00300592
-9.09208e-06
-0.00311912
6.66208e-05
-0.00322143
0.000191876
-0.00331477
0.000389239
-0.00340226
0.000684447
-0.003486
0.00109521
-0.00354764
0.00159866
-0.00351085
0.00207343
-0.00304671
0.00210712
-0.00108834
0.000279456
-0.00292808
0.000114805
0.00940567
0.00189507
0.0047307
0.00253409
0.00280192
0.00261176
0.00099693
0.00216813
-5.46256e-05
0.00118961
-0.000476852
-0.000203193
-0.000447094
-0.00157003
-0.000148197
-0.00248231
3.3189e-05
-0.00278692
0.000153082
-0.00285524
0.000149034
-0.00285146
0.000125965
-0.00282441
0.000114999
-0.00278556
0.000119398
-0.00274358
0.000130874
-0.00271114
0.000138528
-0.00270054
0.000135557
-0.00271476
0.000122291
-0.00274772
0.000102658
-0.00278995
8.05798e-05
-0.00283353
5.84232e-05
-0.00287565
3.70465e-05
-0.00291768
1.73752e-05
-0.00295963
-8.75749e-07
-0.0030008
-1.42925e-05
-0.00304
-2.05884e-05
-0.00307141
-1.63133e-05
-0.00308404
3.44744e-06
-0.00306778
5.02657e-05
-0.00300609
0.000130099
-0.00287029
0.000253346
-0.00262378
0.000437849
-0.00223792
0.00070926
-0.00168231
0.00104296
-0.000744539
0.00113557
0.00130386
5.86277e-05
0.00329167
-0.00170844
0.000446587
-0.016542
-0.0208486
-0.0114065
-0.00665149
-0.0038291
-0.0028173
-0.00286421
-0.00333764
-0.00378459
-0.00393506
-0.00390564
-0.00375724
-0.00361351
-0.00349327
-0.00338433
-0.00327128
-0.00314708
-0.00301556
-0.00288736
-0.00277272
-0.00267794
-0.00260531
-0.00255481
-0.00252553
-0.00251568
-0.00252377
-0.00254491
-0.00257196
-0.00259433
-0.00259651
-0.00255146
-0.00242617
-0.00217725
-0.00174349
-0.00103802
1.38384e-06
0.00113339
0.00118759
-0.000527163
)
;

boundaryField
{
    floor
    {
        type            calculated;
        value           nonuniform List<scalar> 
36
(
0
0
0
0
0
0
0
0
0
0
0
0
0
0
0
0
0
0
0
-3.74166e-06
-1.02677e-05
-1.60556e-05
-2.09152e-05
-2.0522e-05
-1.94511e-05
-1.87944e-05
-2.20357e-06
-3.84213e-06
-4.23784e-06
-4.80736e-06
-3.16057e-06
-7.28781e-06
-9.66901e-06
-1.12206e-05
-1.37359e-05
-1.25737e-05
)
;
    }
    ceiling
    {
        type            calculated;
        value           nonuniform List<scalar> 
43
(
-3.72293e-05
-3.68447e-05
-3.64287e-05
-2.43631e-05
-2.05443e-05
-1.49696e-05
-7.81989e-06
-3.50467e-06
-2.32319e-07
2.18424e-06
3.67843e-06
4.58555e-06
5.21834e-06
5.63626e-06
5.96054e-06
6.26011e-06
6.5739e-06
6.91318e-06
7.25805e-06
7.56198e-06
7.77333e-06
7.86005e-06
7.81956e-06
7.66893e-06
7.42972e-06
7.12052e-06
6.75569e-06
6.36386e-06
5.95645e-06
5.54e-06
5.1184e-06
4.71429e-06
4.33685e-06
3.99384e-06
3.69612e-06
3.4701e-06
3.47962e-06
4.33347e-06
6.21621e-06
7.76059e-06
4.96684e-06
2.32429e-06
-5.03135e-05
)
;
    }
    sWall
    {
        type            calculated;
        value           uniform -0.000213123;
    }
    nWall
    {
        type            calculated;
        value           nonuniform List<scalar> 6(-5.80158e-05 -5.84842e-05 -5.8551e-05 -7.63317e-05 -8.30915e-05 -8.84339e-05);
    }
    sideWalls
    {
        type            empty;
        value           nonuniform 0();
    }
    glass1
    {
        type            calculated;
        value           nonuniform List<scalar> 9(-6.02342e-05 -0.000164492 -0.000254279 -0.000332433 -0.000400161 -0.000457965 -0.000508378 -0.000566506 -0.00063034);
    }
    glass2
    {
        type            calculated;
        value           nonuniform List<scalar> 2(-0.000269241 -0.000293584);
    }
    sun
    {
        type            calculated;
        value           uniform 0;
    }
    Table_master
    {
        type            calculated;
        value           nonuniform List<scalar> 9(-1.53321e-07 -1.53512e-07 -1.53567e-07 -1.53596e-07 -1.53612e-07 -1.53618e-07 -1.53615e-07 -1.53593e-07 -1.53539e-07);
    }
    Table_slave
    {
        type            calculated;
        value           nonuniform List<scalar> 9(1.53147e-07 1.53126e-07 1.53073e-07 1.53035e-07 1.53018e-07 1.53006e-07 1.53017e-07 1.53059e-07 1.53145e-07);
    }
    inlet
    {
        type            calculated;
        value           uniform -0.0163628;
    }
    outlet
    {
        type            calculated;
        value           nonuniform List<scalar> 2(0.0167923 0.00434338);
    }
}


// ************************************************************************* //
