/*--------------------------------*- C++ -*----------------------------------*=========                 |
  \      /  F ield         | OpenFOAM: The Open Source CFD Toolbox
   \    /   O peration     | Website:  https://openfoam.org
    \  /    A nd           | Version:  6
     \/     M anipulation  |
\*---------------------------------------------------------------------------*/
FoamFile
{
    version     2.0;
    format      ascii;
    class       volScalarField;
    location    "800";
    object      PPD;
}
// * * * * * * * * * * * * * * * * * * * * * * * * * * * * * * * * * * * * * //

dimensions      [0 0 0 0 0 0 0];

internalField   nonuniform List<scalar> 
458
(
48.218617102420104
36.06436601427294
34.263545649245
32.938555123020166
32.17975824745339
31.905941228862247
32.25100698906641
33.33793985579858
35.429327287686576
38.832179714070925
43.28523369802259
46.177068915658225
45.39896895417441
45.62477170561007
46.11650093861165
60.942596881454456
59.93927663495043
59.397412910782094
59.83614627829915
60.29991369269878
59.89291943915414
59.36582668824102
59.31420838074241
59.52164532771302
59.77242171958594
60.07850085375967
60.41897787923577
60.81597113066677
61.34308002958902
62.08095624819065
63.25546847116565
64.90493651621958
65.95423526323373
44.789884971846845
36.27989417571841
35.25879970138796
33.855513915452704
33.02007477782969
32.667308826860605
32.83448105088296
33.426161916856046
34.44584806797015
36.2956064761498
39.54855687603884
45.67629934955659
48.37153942689786
46.89473528047393
44.553829316558456
44.02322993930899
45.74293092137674
48.5491199184108
60.52801735187682
58.673390717749314
58.440331483791574
58.172309578730236
58.305111817067214
58.56314537582739
58.82827503553883
59.13662954784861
59.428182754356925
59.72533850770099
60.00498503370612
60.323162712631834
60.685104989627945
61.123149656362024
61.77993924433638
62.97953011342608
64.22183185471874
65.02451277046572
45.942182916263874
35.664289782144124
36.377891690088155
35.54118638843815
35.03556673365455
34.72168091918502
34.61893887106987
34.138591489197054
33.28502332665589
33.46065671492205
36.347677106500925
42.91131975861582
48.62391675288926
50.169838571993786
47.94722078561367
47.24150954639144
47.560607527712314
47.95343552309988
55.20132346528935
55.279409858189396
54.99569507500107
55.85300091130946
56.98097972043141
57.40350781051123
58.823360144701766
60.01347057225267
60.71223969663397
61.18510517171696
61.61636420025166
62.011566246039635
62.33068791050885
62.43088329121161
62.67326947478446
63.43298029185322
63.37722249677975
62.14316658857478
49.402233010058474
35.23886597046766
37.2134919670105
37.68611740850066
38.34682042167884
38.588477479772365
38.161093736440286
35.83418048565535
32.476044539073314
31.173970997813143
33.97390065827088
41.07819795896633
48.15715119417702
52.436743421573716
51.62519081880398
49.74265391544596
47.776195827252344
46.11257366763158
45.19176736333865
48.31134351523588
50.8493787211153
53.34300680047949
56.16432884731091
58.99922253999786
61.29326790161715
61.765833801290015
62.159935202917644
62.7343980426064
63.334493531561236
64.00033848617188
64.73491515149203
65.67779987689667
66.91515692078836
66.43732595300384
65.20620973316363
63.06611791204347
60.69681624723298
54.11809912698722
35.50229474393011
37.85748962874417
39.78753418217921
42.60554653184532
44.625270504089045
43.59931005740376
38.13320402408922
32.02009793911077
29.517035032415137
32.385051900270895
39.99050801331793
48.2898405547673
54.42940934639367
55.11319295663312
53.29973726641697
50.68061177685651
48.99599931964988
49.44714144237355
50.957452510488515
53.462870593692536
56.63380722619369
59.96757285869194
63.1238251700753
65.69755191913727
66.980085847578
67.78022342372304
68.47082608449423
68.99515432791308
69.313883066001
69.51774350521389
69.59957126706792
69.50575726450731
68.44223795170211
66.53929924265677
63.23674142422718
62.488750654359905
60.83728069504557
60.69594551676269
60.73761592996003
59.167309544750545
36.75933118058889
39.07203966488719
41.169496111334766
45.9190684108745
50.37459107157949
48.62066506907251
39.3578721259238
31.456585303963465
28.44732257002184
31.41626295934826
39.66284313672722
49.463747939207266
57.24207493770541
58.155277410444626
57.35085760493961
55.990374755813356
54.52803123353101
55.15320178572068
57.046738917174935
59.81774379480793
62.99032109412245
66.12934912256975
68.51245391159472
70.03062580155282
71.09876100445108
71.872858709031
72.45387988777829
72.82320887971342
72.96118994526543
72.89223493777163
72.66187312098916
71.94873603950083
70.40492488825862
68.2701082345252
65.13816093916375
64.08231512110859
64.82370974830008
64.05142729550212
61.75848527058254
63.99658841705124
40.7559638954036
44.16582249827393
43.44973828876782
46.87555411033631
52.03870143136972
46.8155839022162
38.34475474934785
30.395244345510022
27.51828982876779
31.116557420648704
40.66662252375187
52.35027511240282
60.76282244600554
61.63463692145071
60.942596881454456
60.27417077286693
60.480039312175236
61.9414697281392
64.15040805481328
66.47558667408765
68.68238736597198
70.5308450874558
71.98944233445607
73.053019017938
73.78302147257884
74.28002375392708
74.59418131161947
74.72830927738596
74.70597603869138
74.4597459560547
74.0546135357033
73.51024355268679
72.70800821250114
70.61301292252878
67.85893212953528
66.11795976993962
65.66782011439862
63.514529761913764
62.91695510081716
70.93587706541987
59.69607989384238
55.300570123044174
49.618609179422975
49.1621090674071
49.078883712778065
44.06622207549753
34.7810127754402
27.382984844743774
26.174607654965058
31.869062821561158
43.99551001333443
57.953266339958994
64.6790009178827
65.40566609881915
65.0804061907343
64.95509394134949
65.63036954560832
67.26551724604644
69.23858169859673
71.07517959675629
72.63879386290404
73.85103124108912
74.72830927738596
75.30593516923571
75.6364843377717
75.81195849254577
75.85573738442905
75.76814367955873
75.59252646491828
75.30593516923571
74.90666532531479
74.39241356695874
73.66950726874049
72.8462254454182
71.966140656795
71.07931631382854
70.22951847370551
65.6120634573616
61.16026505052633
80.1723411458579
73.47976558002142
65.74550667164107
58.36720366338662
53.845589109250604
50.460661004507465
37.99745621869256
26.393760312519376
21.90945416162471
25.079228059074367
35.371017323271644
51.94303918877273
65.70518247055631
68.65812968677236
68.97639090731596
69.04390643389793
69.63407678418807
70.7206023371044
72.05930207821015
73.44186552602505
74.4137889604765
74.91078858268128
75.19199729029137
75.28459666177199
75.26513485850901
75.15383339147576
74.93144888409213
74.60922991156228
74.21021217663203
73.69268065001489
73.07779129399681
72.35252412887833
71.59860800077105
70.77687502546317
69.83106555833211
68.83991426214514
67.95715650571663
67.32250714378696
66.58494868970219
65.2221842746114
34.00923682981886
8.319716605349115
5.021550720680608
5.5088451344538925
6.490681391597477
9.13013459276253
15.768811018250489
29.26456824331072
47.97117124504402
65.8795720724206
69.3418813193554
70.14479278388094
70.48005317559091
70.86096341353736
71.53125399973877
72.41299449403708
73.33793291964065
74.09643578852184
74.56096303178688
74.77593401707823
74.80756364042436
74.66874031596737
74.42577366029685
74.11488335076663
73.74560796834527
73.33379042909304
72.90246865515762
72.45448212536508
72.02233263018562
71.6530354345829
71.28793639183854
70.995646313958
70.7540814507903
70.59196653491705
70.7522892725141
71.61777537646535
73.72640887567773
72.76831258901049
32.357932750130786
5.891926894595542
5.8813695644003445
9.57367459769577
14.227137101336552
24.130871844375747
41.09648930329821
60.068133322536106
66.30784823754195
69.75419631212527
71.2312219344345
71.88947937931763
72.35433940591072
72.84284969815081
73.41159163730843
73.98944038599463
74.48028042904524
74.80450572021999
74.92709450685163
74.86924574504407
74.69526258806675
74.4608443432181
74.21287842574385
73.92312598433203
73.6618136889055
73.37770513329852
73.12387369428093
72.88832455275795
72.71112290460748
72.58272697507823
72.5627684854685
72.73191149145939
73.0388591080181
73.46804248962432
74.11307480936736
76.07099208479883
74.06065831946964
77.06003318494908
14.322674293278268
13.52132557038884
10.98842925307325
5.149684949061381
13.019675006822283
31.60717520566176
52.84813468793958
62.00885340325798
67.02221011415413
70.07372804020838
71.65727843911753
72.53751939803263
73.16064453947658
73.61295008747206
73.96467620801633
74.28037415309934
74.54580926211678
74.78239077141535
74.93299184930548
75.01473025890053
74.98513161655622
74.90378471032626
74.78365201454245
74.67849468979452
74.56455902737532
74.4587943140564
74.35307703726404
74.20980717245237
74.07830262679289
73.94884117151103
73.84876646689203
73.8481348876478
74.00938522424997
74.46025654971653
75.19380449594027
75.68351121560495
75.79872563973647
75.40928112514362
75.11382462347946
72.29005887843721
)
;

boundaryField
{
    ".*"
    {
        type            zeroGradient;
    }
}


// ************************************************************************* //
