/*--------------------------------*- C++ -*----------------------------------*\
  =========                 |
  \\      /  F ield         | OpenFOAM: The Open Source CFD Toolbox
   \\    /   O peration     | Website:  https://openfoam.org
    \\  /    A nd           | Version:  6
     \\/     M anipulation  |
\*---------------------------------------------------------------------------*/
FoamFile
{
    version     2.0;
    format      ascii;
    class       volScalarField;
    location    "100";
    object      epsilon;
}
// * * * * * * * * * * * * * * * * * * * * * * * * * * * * * * * * * * * * * //

dimensions      [0 2 -3 0 0 0 0];

internalField   nonuniform List<scalar> 
458
(
0.00220599
0.00408749
0.00462351
0.00412637
0.00359726
0.00314982
0.00277672
0.00245916
0.00218964
0.00195586
0.00174387
0.00154311
0.00134315
0.00112898
0.00089962
7.62612e-05
0.000111436
0.000153816
0.000212787
0.000271043
0.000218978
0.000171884
0.000139168
0.000116486
0.000100306
8.84792e-05
7.9569e-05
7.23393e-05
6.60997e-05
6.00435e-05
5.35665e-05
4.57953e-05
3.63526e-05
0.00198278
0.00550489
0.005391
0.00449059
0.00353425
0.00280783
0.00228638
0.00190383
0.00162052
0.00140886
0.0012462
0.00111666
0.00100724
0.000908856
0.000785199
0.000915138
0.000720479
0.000470244
6.96927e-05
7.78157e-05
0.000120167
0.000164646
0.000205868
0.000232993
0.00017427
0.000128649
9.9614e-05
8.08314e-05
6.85833e-05
6.16855e-05
5.75352e-05
5.27954e-05
4.74505e-05
4.31562e-05
3.90527e-05
3.79926e-05
0.00616019
0.00895741
0.0071271
0.00515011
0.00373297
0.00284661
0.00228938
0.0019163
0.00163397
0.00140757
0.00121814
0.0010557
0.000915922
0.000796782
0.00069451
0.000673564
0.000606906
0.000566728
6.34097e-05
9.89535e-05
0.000135779
0.000170203
0.000216675
0.000392325
0.000252167
0.000157834
0.000100932
6.6748e-05
4.52986e-05
3.17089e-05
2.91625e-05
3.52474e-05
3.48546e-05
3.4609e-05
3.46674e-05
3.83025e-05
0.00922211
0.0146168
0.00882759
0.00510627
0.00324934
0.0023391
0.00188305
0.00163848
0.00145472
0.00129084
0.00113353
0.000983392
0.000845877
0.000726385
0.000632071
0.000574394
0.000510167
0.000467026
0.00052905
0.000290581
0.000212898
0.000198397
0.000227275
0.000281466
0.000692372
0.000602494
0.000528649
0.000465276
0.000410122
0.000361594
0.000314352
0.000266007
0.000215583
0.000135897
8.41409e-05
5.57285e-05
4.59924e-05
0.0101063
0.0197947
0.00790452
0.00328137
0.00179025
0.00127363
0.0011241
0.00108258
0.00106802
0.00101842
0.000940735
0.00084616
0.000745842
0.000650586
0.000572891
0.000512802
0.000453997
0.00042157
0.000425471
0.000331406
0.000281949
0.000292022
0.000334694
0.000370778
0.000380455
0.000354278
0.000329714
0.000310663
0.000293089
0.000272665
0.00024627
0.000213185
0.000174946
0.000129496
8.93563e-05
6.32554e-05
4.61892e-05
5.32054e-05
9.36553e-05
0.000111334
0.0104698
0.0211612
0.00555218
0.00152834
0.00088039
0.000734415
0.000714018
0.000723399
0.000757229
0.000765828
0.000747431
0.000703664
0.000643774
0.000580315
0.000526963
0.000481752
0.00044142
0.000428931
0.000433543
0.000413293
0.000434296
0.000492228
0.000534341
0.000525884
0.000473032
0.000416496
0.000373922
0.000338436
0.000303652
0.000267799
0.000229963
0.000190476
0.000151286
0.00011427
8.35593e-05
6.29858e-05
4.98802e-05
5.05256e-05
0.000269658
0.000205116
0.01075
0.0186653
0.00541258
0.00119341
0.000687561
0.000564565
0.000540608
0.000544945
0.000564793
0.000590059
0.000600734
0.000592304
0.000568253
0.000537792
0.000512346
0.000489275
0.000477938
0.000505461
0.000569666
0.00065126
0.000751332
0.000797367
0.000775707
0.000688324
0.000571949
0.000470914
0.00039546
0.000337673
0.000288914
0.000244327
0.000202287
0.000162967
0.000127811
9.85964e-05
7.67723e-05
6.34541e-05
5.80155e-05
6.28037e-05
0.000147603
0.000166514
0.0110884
0.0153873
0.009045
0.00181667
0.000693671
0.000512169
0.000479404
0.000479091
0.000489954
0.00050938
0.000528708
0.000541082
0.000546598
0.000550625
0.000560828
0.000577954
0.000620633
0.000727518
0.000861053
0.000977699
0.00104047
0.00100485
0.000885505
0.000715278
0.000556854
0.000444809
0.000367706
0.000308995
0.000258978
0.000214134
0.000173779
0.000138592
0.000109912
8.9173e-05
7.75423e-05
7.80009e-05
0.000102093
0.000182257
0.000983237
0.000238073
0.0116718
0.016462
0.0210956
0.00469067
0.000901906
0.000559275
0.00051674
0.000515355
0.00052335
0.000538921
0.000563917
0.000592942
0.000625947
0.000666105
0.00071836
0.000786432
0.000879899
0.00100263
0.00110647
0.00114712
0.00110224
0.000982464
0.000824285
0.000668513
0.000543433
0.000453369
0.000386037
0.000329551
0.000277662
0.000228346
0.000182084
0.000141171
0.000109513
9.29408e-05
0.000101049
0.00014991
0.000255208
0.00040523
0.000534344
0.000281312
0.0431903
0.00824489
0.00133803
0.000751202
0.000682238
0.000677642
0.000693233
0.000721581
0.000760328
0.000808687
0.000866972
0.000935318
0.00101286
0.0010954
0.00117516
0.00123519
0.00124576
0.00119824
0.00110547
0.000993987
0.000889428
0.000805469
0.000743062
0.000694811
0.000651542
0.000605948
0.000552942
0.000489225
0.000414103
0.000331453
0.000251485
0.000189807
0.00016246
0.000180385
0.000246172
0.000345623
0.000445559
0.000405507
0.00442672
0.00284267
0.00165603
0.00121337
0.00108552
0.0010248
0.000989622
0.000973557
0.000978129
0.00100545
0.00105061
0.00111076
0.00118343
0.00126478
0.00134864
0.00142581
0.00148496
0.00152061
0.00153475
0.00153329
0.00152315
0.00151118
0.00150162
0.0014937
0.00148207
0.0014586
0.00141335
0.00133567
0.00121743
0.00105848
0.000871689
0.000683009
0.000523893
0.000419067
0.0003771
0.000397324
0.00076623
0.000662706
0.000936828
0.00116735
0.00141812
0.00113103
0.00112204
0.00115747
0.00121695
0.00128087
0.00134741
0.00141923
0.0015007
0.0015797
0.00165153
0.00171404
0.00176274
0.00179094
0.00179111
0.00175689
0.00168741
0.00159191
0.00148607
0.00138568
0.00130043
0.00123161
0.00117457
0.0011226
0.00106953
0.00101068
0.00094327
0.000866774
0.000783306
0.000697457
0.0006153
0.00054297
0.000485558
0.000446511
0.000427568
0.000431915
0.000561595
0.000595299
)
;

boundaryField
{
    floor
    {
        Cmu             0.09;
        kappa           0.41;
        E               9.8;
        type            epsilonWallFunction;
        value           nonuniform List<scalar> 
36
(
0.00089962
7.62612e-05
0.000111436
0.000153816
0.000212787
0.000271043
0.000218978
0.000171884
0.000139168
0.000116486
0.000100306
8.84792e-05
7.9569e-05
7.23393e-05
6.60997e-05
6.00435e-05
5.35665e-05
4.57953e-05
3.63526e-05
3.63526e-05
3.79926e-05
3.83025e-05
4.59924e-05
5.32054e-05
9.36553e-05
0.000111334
0.00089962
0.000915138
0.000720479
0.000470244
7.62612e-05
0.000470244
6.96927e-05
0.000566728
6.34097e-05
0.00052905
)
;
    }
    ceiling
    {
        Cmu             0.09;
        kappa           0.41;
        E               9.8;
        type            epsilonWallFunction;
        value           nonuniform List<scalar> 
43
(
0.000936828
0.00116735
0.00141812
0.00113103
0.00112204
0.00115747
0.00121695
0.00128087
0.00134741
0.00141923
0.0015007
0.0015797
0.00165153
0.00171404
0.00176274
0.00179094
0.00179111
0.00175689
0.00168741
0.00159191
0.00148607
0.00138568
0.00130043
0.00123161
0.00117457
0.0011226
0.00106953
0.00101068
0.00094327
0.000866774
0.000783306
0.000697457
0.0006153
0.00054297
0.000485558
0.000446511
0.000427568
0.000431915
0.000561595
0.000595299
0.0116718
0.016462
0.00442672
)
;
    }
    sWall
    {
        Cmu             0.09;
        kappa           0.41;
        E               9.8;
        type            epsilonWallFunction;
        value           uniform 0.000936828;
    }
    nWall
    {
        Cmu             0.09;
        kappa           0.41;
        E               9.8;
        type            epsilonWallFunction;
        value           nonuniform List<scalar> 6(0.000111334 0.000205116 0.000166514 0.000405507 0.000662706 0.000595299);
    }
    sideWalls
    {
        type            empty;
    }
    glass1
    {
        Cmu             0.09;
        kappa           0.41;
        E               9.8;
        type            epsilonWallFunction;
        value           nonuniform List<scalar> 9(0.00220599 0.00198278 0.00616019 0.00922211 0.0101063 0.0104698 0.01075 0.0110884 0.0116718);
    }
    glass2
    {
        Cmu             0.09;
        kappa           0.41;
        E               9.8;
        type            epsilonWallFunction;
        value           nonuniform List<scalar> 2(0.000238073 0.000281312);
    }
    sun
    {
        Cmu             0.09;
        kappa           0.41;
        E               9.8;
        type            epsilonWallFunction;
        value           nonuniform List<scalar> 
14
(
0.00220599
0.00408749
0.00462351
0.00412637
0.00359726
0.00314982
0.00277672
0.00245916
0.00218964
0.00195586
0.00174387
0.00154311
0.00134315
0.00112898
)
;
    }
    Table_master
    {
        Cmu             0.09;
        kappa           0.41;
        E               9.8;
        type            epsilonWallFunction;
        value           nonuniform List<scalar> 9(0.000392325 0.000252167 0.000157834 0.000100932 6.6748e-05 4.52986e-05 3.17089e-05 2.91625e-05 3.52474e-05);
    }
    Table_slave
    {
        Cmu             0.09;
        kappa           0.41;
        E               9.8;
        type            epsilonWallFunction;
        value           nonuniform List<scalar> 9(0.000692372 0.000602494 0.000528649 0.000465276 0.000410122 0.000361594 0.000314352 0.000266007 0.000215583);
    }
    inlet
    {
        type            turbulentMixingLengthDissipationRateInlet;
        mixingLength    0.01;
        phi             phi;
        k               k;
        value           uniform 0.000101881;
    }
    outlet
    {
        type            zeroGradient;
    }
}


// ************************************************************************* //
