/*--------------------------------*- C++ -*----------------------------------*\
  =========                 |
  \\      /  F ield         | OpenFOAM: The Open Source CFD Toolbox
   \\    /   O peration     | Website:  https://openfoam.org
    \\  /    A nd           | Version:  6
     \\/     M anipulation  |
\*---------------------------------------------------------------------------*/
FoamFile
{
    version     2.0;
    format      ascii;
    class       volScalarField;
    location    "2600";
    object      nut;
}
// * * * * * * * * * * * * * * * * * * * * * * * * * * * * * * * * * * * * * //

dimensions      [0 2 -1 0 0 0 0];

internalField   nonuniform List<scalar> 
458
(
0.000982631
0.00106676
0.00107961
0.00113024
0.00117698
0.0012201
0.00126127
0.00130257
0.00134109
0.00136879
0.00138115
0.00137386
0.00134514
0.00129877
0.00124293
0.000442307
0.000563691
0.000626072
0.000616016
0.000594883
0.000562661
0.000528971
0.000498133
0.000470652
0.000446189
0.000424417
0.000404976
0.000387275
0.000370658
0.000354256
0.0003366
0.000318865
0.000286031
0.00136867
0.00317503
0.00298223
0.00347257
0.00392688
0.00438945
0.00482941
0.00519912
0.00549659
0.00575969
0.00595241
0.00601724
0.00585874
0.00526985
0.00373755
0.00129021
0.00102013
0.000754522
0.000501946
0.00103058
0.00137955
0.00161145
0.00168207
0.0013705
0.00120552
0.00108607
0.00099337
0.000919263
0.000857081
0.000799475
0.000743355
0.000686486
0.00063662
0.000596298
0.000656514
0.000349978
0.00169791
0.00438065
0.00364563
0.00477209
0.00531256
0.00571019
0.00601134
0.00624243
0.00644496
0.00666611
0.00689157
0.00708863
0.00721036
0.00719713
0.00695342
0.00623853
0.00509131
0.0011261
0.00101822
0.00141575
0.00177616
0.00206556
0.00211826
0.000775427
0.000688939
0.000617626
0.000559494
0.000512022
0.000473029
0.000440904
0.00041456
0.00039363
0.000426964
0.000492035
0.000718111
0.000392024
0.00202145
0.00578049
0.00365113
0.00512595
0.00575973
0.00600271
0.00609759
0.00615275
0.0062431
0.00641561
0.00665311
0.00692991
0.00720372
0.00742248
0.00754719
0.00743246
0.00687941
0.00531529
0.00136327
0.00172035
0.00222416
0.00265973
0.00294582
0.00285867
0.000841708
0.000769313
0.000721229
0.0006871
0.000659564
0.000632869
0.000607029
0.000580004
0.000548117
0.000517726
0.00051498
0.000762174
0.00043255
0.00235505
0.00760704
0.00419842
0.00486472
0.00577611
0.00602019
0.00599719
0.00589566
0.00591551
0.00607201
0.00631692
0.00663496
0.00697113
0.00723838
0.00738227
0.00733689
0.00704614
0.00642489
0.005199
0.00478242
0.00459065
0.00445222
0.00431159
0.00409463
0.00349034
0.00322839
0.00310839
0.00303208
0.00294864
0.00282443
0.00258213
0.00223877
0.00181904
0.00137194
0.00101746
0.000895746
0.000658864
0.000503395
0.000530909
0.000554162
0.00270804
0.00959308
0.0061775
0.00489739
0.00535573
0.00576824
0.00593545
0.00576652
0.00580288
0.00594333
0.00617809
0.00650051
0.00684979
0.00712737
0.00724129
0.00714406
0.0068661
0.00650042
0.00609734
0.00580402
0.00552063
0.00520826
0.0048942
0.00460282
0.0043347
0.00417604
0.00407728
0.00398871
0.00388385
0.00374665
0.00354213
0.00321976
0.00277755
0.00223531
0.00170864
0.00129061
0.000964801
0.000912311
0.00124916
0.000745169
0.00302906
0.0110209
0.00899495
0.00680613
0.00613637
0.00603951
0.00610542
0.00602395
0.00596468
0.00601708
0.00622492
0.0065623
0.00693627
0.00721989
0.00730275
0.00714614
0.00681994
0.00647811
0.00621756
0.00597571
0.00563346
0.00520691
0.00478859
0.0044555
0.00424235
0.00413385
0.00406505
0.00399265
0.00390269
0.00379596
0.00367635
0.00350329
0.00319204
0.00275253
0.00227362
0.00182549
0.00145068
0.00129145
0.00149137
0.00090697
0.00308925
0.00991008
0.00892192
0.0084382
0.00787071
0.00736353
0.00683544
0.00636091
0.00610952
0.00613999
0.00641617
0.00683311
0.00724673
0.00751
0.00751735
0.00726159
0.00685339
0.00646618
0.00614361
0.00571995
0.00517002
0.00464031
0.00423343
0.00397357
0.0038308
0.00375142
0.00368571
0.00361146
0.00353057
0.00345759
0.00341006
0.0033933
0.00331433
0.00302703
0.00272691
0.00249587
0.00239839
0.0023597
0.00286121
0.00125693
0.00300455
0.00355461
0.00401397
0.00420442
0.0044088
0.00453962
0.00471917
0.0050378
0.00554311
0.00618132
0.00685257
0.00743993
0.0078314
0.00793875
0.00772161
0.00726097
0.00673745
0.0062193
0.00559911
0.00492182
0.00433286
0.0039106
0.00364197
0.00347633
0.00336438
0.00326818
0.00316298
0.00303981
0.00290275
0.00276076
0.0026182
0.0024711
0.00232616
0.00219486
0.00209434
0.00203691
0.0019916
0.00192057
0.00183342
0.00124466
0.00159389
0.00419833
0.00515342
0.00585035
0.00660981
0.00735376
0.00794688
0.00836331
0.00860245
0.00865223
0.00849359
0.00811019
0.00751267
0.00674086
0.00593439
0.0051584
0.00449978
0.00400499
0.00367461
0.00345282
0.00328897
0.00314805
0.00300967
0.0028634
0.0027054
0.00253749
0.00236806
0.00221241
0.00208871
0.00201029
0.00196772
0.00194235
0.00192787
0.00190965
0.00185586
0.00173821
0.00157384
0.00108524
0.0019369
0.00561454
0.0071568
0.00741955
0.00789808
0.00837049
0.00861139
0.00861053
0.00841056
0.0080343
0.00750303
0.00684903
0.00611091
0.00536152
0.00471361
0.00427242
0.00402677
0.00389125
0.00378976
0.00369104
0.00358889
0.00346739
0.00331687
0.00313612
0.00293228
0.00271893
0.00251243
0.00232742
0.00217299
0.00206891
0.0020132
0.00199652
0.00200322
0.00200715
0.00198965
0.00195641
0.00209877
0.00111618
0.00167014
0.00180495
0.00190056
0.00207038
0.00206904
0.00204395
0.00199367
0.00190279
0.00179302
0.00168969
0.00159052
0.00148189
0.00136435
0.00124636
0.00113935
0.0010557
0.000998519
0.000962344
0.000938989
0.000922599
0.000909841
0.000898294
0.000884383
0.000868093
0.00085055
0.00083386
0.000820666
0.000813522
0.000814364
0.000824428
0.000844689
0.000871709
0.000904602
0.000943601
0.000988546
0.00103672
0.00108564
0.00107298
0.00100142
0.000939805
)
;

boundaryField
{
    floor
    {
        type            nutkWallFunction;
        Cmu             0.09;
        kappa           0.41;
        E               9.8;
        value           nonuniform List<scalar> 
36
(
0.000148955
5.22682e-05
6.77811e-05
7.55873e-05
7.43351e-05
7.1696e-05
6.76503e-05
6.33897e-05
5.94603e-05
5.59333e-05
5.27719e-05
4.99398e-05
4.73955e-05
4.50653e-05
4.28653e-05
4.06814e-05
3.83159e-05
3.59235e-05
3.1447e-05
3.14469e-05
4.01096e-05
4.5692e-05
5.10004e-05
6.01342e-05
6.36373e-05
6.658e-05
0.000148955
0.000154372
0.000123095
9.13861e-05
5.22681e-05
9.13861e-05
5.99556e-05
0.000135468
0.00012287
0.000162697
)
;
    }
    ceiling
    {
        type            nutkWallFunction;
        Cmu             0.09;
        kappa           0.41;
        E               9.8;
        value           nonuniform List<scalar> 
43
(
0.000197048
0.000211943
0.000222438
0.000241031
0.000240913
0.000238202
0.000232737
0.000222811
0.000210751
0.000199327
0.000188291
0.000176114
0.000162823
0.000149351
0.000137005
0.000127265
0.000120555
0.000116287
0.000113522
0.000111577
0.000110061
0.000108686
0.000107027
0.00010508
0.000102978
0.000100975
9.93873e-05
9.85265e-05
9.86283e-05
9.98406e-05
0.000102276
0.000105513
0.000109438
0.00011407
0.000119382
0.000125044
0.000130764
0.000129287
0.000120898
0.000113621
0.000340649
0.000397612
0.000226251
)
;
    }
    sWall
    {
        type            nutkWallFunction;
        Cmu             0.09;
        kappa           0.41;
        E               9.8;
        value           uniform 0.000197102;
    }
    nWall
    {
        type            nutkWallFunction;
        Cmu             0.09;
        kappa           0.41;
        E               9.8;
        value           nonuniform List<scalar> 6(6.65738e-05 9.02437e-05 0.000109723 0.000130725 0.000134328 0.000113626);
    }
    sideWalls
    {
        type            empty;
    }
    glass1
    {
        type            nutkWallFunction;
        Cmu             0.09;
        kappa           0.41;
        E               9.8;
        value           nonuniform List<scalar> 9(0.000118749 0.000163499 0.000200526 0.000236147 0.000272236 0.000309836 0.000343586 0.000349881 0.000341047);
    }
    glass2
    {
        type            nutkWallFunction;
        Cmu             0.09;
        kappa           0.41;
        E               9.8;
        value           nonuniform List<scalar> 2(0.00015061 0.000149203);
    }
    sun
    {
        type            nutkWallFunction;
        Cmu             0.09;
        kappa           0.41;
        E               9.8;
        value           nonuniform List<scalar> 
14
(
0.000118684
0.000128555
0.000130055
0.000135947
0.000141359
0.000146331
0.000151059
0.000155784
0.000160177
0.000163327
0.00016473
0.000163903
0.000160638
0.00015535
)
;
    }
    Table_master
    {
        type            nutkWallFunction;
        Cmu             0.09;
        kappa           0.41;
        E               9.8;
        value           nonuniform List<scalar> 9(9.39174e-05 8.33609e-05 7.45373e-05 6.72534e-05 6.12365e-05 5.62427e-05 5.209e-05 4.86561e-05 4.59083e-05);
    }
    Table_slave
    {
        type            nutkWallFunction;
        Cmu             0.09;
        kappa           0.41;
        E               9.8;
        value           nonuniform List<scalar> 9(0.000101913 9.31757e-05 8.73196e-05 8.31351e-05 7.97409e-05 7.64338e-05 7.32167e-05 6.9834e-05 6.58179e-05);
    }
    inlet
    {
        type            calculated;
        value           uniform 0.000100623;
    }
    outlet
    {
        type            calculated;
        value           nonuniform List<scalar> 2(0.00167014 0.00180495);
    }
}


// ************************************************************************* //
