/*--------------------------------*- C++ -*----------------------------------*\
  =========                 |
  \\      /  F ield         | OpenFOAM: The Open Source CFD Toolbox
   \\    /   O peration     | Website:  https://openfoam.org
    \\  /    A nd           | Version:  6
     \\/     M anipulation  |
\*---------------------------------------------------------------------------*/
FoamFile
{
    version     2.0;
    format      ascii;
    class       volScalarField;
    location    "1400";
    object      nut;
}
// * * * * * * * * * * * * * * * * * * * * * * * * * * * * * * * * * * * * * //

dimensions      [0 2 -1 0 0 0 0];

internalField   nonuniform List<scalar> 
458
(
0.000746226
0.000787275
0.000752842
0.000756085
0.00076116
0.000747443
0.00071605
0.000679544
0.000645499
0.000618706
0.000601298
0.000593348
0.000594561
0.000605777
0.000626712
0.000248633
0.000253665
0.000245471
0.000223244
0.000200886
0.000203292
0.000208878
0.000205788
0.000212054
0.000224595
0.00024548
0.000272469
0.000288066
0.00028182
0.000274182
0.000262343
0.00025021
0.000230718
0.0011756
0.00275139
0.00269113
0.00296018
0.00305928
0.00322718
0.00350339
0.00356011
0.00337289
0.00306347
0.0027352
0.00242461
0.00211568
0.00175691
0.00127224
0.000734919
0.000707569
0.000504166
0.000417902
0.000800575
0.000970141
0.000929734
0.000591302
0.000291617
0.000265216
0.000282368
0.000379396
0.000552838
0.000757409
0.000924489
0.000981486
0.000895455
0.000834414
0.000666792
0.00052179
0.000338041
0.00144161
0.00447247
0.00413218
0.00426925
0.00387604
0.00370074
0.00415099
0.00462671
0.00470633
0.00446876
0.00411894
0.0037716
0.00344491
0.003098
0.00267226
0.00215685
0.00153438
0.000820606
0.000665767
0.00191992
0.00184851
0.00155072
0.00104953
0.000423006
0.000287033
0.000295335
0.000327562
0.000359571
0.000394799
0.00043637
0.000488965
0.000562387
0.00118945
0.00115475
0.00125259
0.000621856
0.00162194
0.00282121
0.00315669
0.00366607
0.00429178
0.00428805
0.00423209
0.00489607
0.00534653
0.00535641
0.00515382
0.00490367
0.00464776
0.00434735
0.0039266
0.0033241
0.00252078
0.00159778
0.000910553
0.0023138
0.00240526
0.00190468
0.00139124
0.00098229
0.000713338
0.000720329
0.000728238
0.000736891
0.000748972
0.000767239
0.000795021
0.000836954
0.000900208
0.00191989
0.00186034
0.00165716
0.0010972
0.00258921
0.00252491
0.00267995
0.00312007
0.00387444
0.00438497
0.00440529
0.00486796
0.00559451
0.00588986
0.00593239
0.00591715
0.00591365
0.00591897
0.00590035
0.00582267
0.00565643
0.00539389
0.0051119
0.00506058
0.00480946
0.00454933
0.00435765
0.00422498
0.00412722
0.00405794
0.0039596
0.00384123
0.0037038
0.00354941
0.00338251
0.00321077
0.00304292
0.00288216
0.00265608
0.00243228
0.00212543
0.00149424
0.00151997
0.00143571
0.00319379
0.00295788
0.00265644
0.00283525
0.0035853
0.00429884
0.00435021
0.00472385
0.00550832
0.00597946
0.00622562
0.00642187
0.00662596
0.00684044
0.0070373
0.00719108
0.0072758
0.00726615
0.007153
0.00698248
0.00679614
0.00662257
0.00647007
0.0063373
0.00620785
0.00607664
0.00593833
0.00579139
0.00563624
0.00547412
0.00530615
0.00513366
0.00495994
0.00479296
0.00465088
0.00458215
0.00464185
0.00478826
0.00468532
0.00178857
0.00384197
0.00397901
0.00308149
0.00268431
0.00340233
0.0043896
0.00457154
0.00464546
0.00514122
0.00556376
0.0059095
0.00628513
0.00669583
0.00711908
0.00752774
0.0078853
0.00816017
0.00833679
0.00839379
0.00834963
0.00824589
0.00811309
0.00796688
0.00781377
0.00765385
0.00748605
0.00730896
0.00712183
0.00692631
0.00672609
0.00652623
0.00633285
0.00615312
0.00599435
0.00586336
0.0057708
0.00575657
0.0060289
0.00695726
0.00211741
0.00457776
0.00531506
0.00439782
0.00277882
0.00378036
0.00496308
0.00493246
0.00449268
0.00440207
0.00469292
0.00517831
0.00574104
0.00633142
0.00692809
0.00751628
0.00806853
0.00853529
0.00888849
0.00911222
0.00921099
0.00921311
0.00914902
0.00904139
0.00890509
0.00874719
0.00857009
0.00837394
0.00815834
0.00792406
0.00767354
0.00741098
0.00714282
0.00687868
0.00663316
0.00643065
0.00631306
0.00631952
0.00651889
0.00781586
0.00243274
0.00560832
0.00727548
0.0116298
0.00345858
0.00394541
0.00510761
0.00456927
0.00404078
0.00405311
0.00442993
0.00495696
0.00555509
0.00618816
0.0068286
0.00746029
0.00806287
0.00860289
0.00904853
0.00937733
0.00958511
0.00968718
0.00970645
0.00966409
0.00957703
0.00945501
0.00930313
0.0091239
0.00891833
0.00868701
0.00843076
0.00815117
0.00785119
0.00753626
0.00721646
0.00691152
0.0066618
0.00654382
0.00667313
0.00747612
0.00236273
0.0186521
0.00976828
0.00382084
0.00502081
0.00498117
0.00506737
0.00523681
0.00551087
0.00590904
0.00642099
0.00701007
0.0076218
0.00819954
0.00870462
0.00912444
0.00946088
0.00971892
0.0099028
0.0100188
0.0100752
0.0100801
0.0100389
0.00995698
0.00984007
0.00969313
0.00951948
0.0093209
0.00909799
0.00885062
0.00857861
0.00828269
0.00796589
0.00763598
0.00730834
0.00700665
0.0067367
0.0061399
0.0017353
0.00869979
0.0119681
0.00874596
0.00727855
0.00632775
0.00580832
0.00560448
0.00565338
0.00594535
0.00647052
0.00717496
0.00795203
0.00866149
0.00920456
0.00958074
0.00982614
0.00998156
0.0100783
0.0101366
0.0101682
0.0101777
0.0101533
0.0100964
0.0100132
0.00990936
0.00978845
0.0096522
0.00950067
0.00933276
0.0091468
0.00894123
0.00871504
0.00846778
0.00819822
0.00789658
0.00750773
0.0062893
0.00194043
0.0010844
0.00156735
0.00485053
0.00465085
0.00427318
0.00388193
0.00353122
0.00322196
0.00295521
0.00273204
0.00255329
0.00242014
0.00233322
0.00228974
0.00228272
0.00229937
0.00232222
0.00234089
0.00235144
0.0023537
0.00234913
0.00233948
0.00232626
0.00231189
0.0022965
0.00227985
0.002262
0.00224307
0.00222321
0.00220248
0.00218087
0.00215826
0.00213451
0.00210949
0.00208313
0.0020554
0.00202643
0.0019949
0.00187752
0.00164647
)
;

boundaryField
{
    floor
    {
        type            nutkWallFunction;
        Cmu             0.09;
        kappa           0.41;
        E               9.8;
        value           nonuniform List<scalar> 
36
(
7.56592e-05
2.62652e-05
2.69686e-05
2.58235e-05
2.26865e-05
1.94847e-05
1.98273e-05
2.06282e-05
2.01903e-05
2.1092e-05
2.28785e-05
2.58202e-05
2.95745e-05
3.17237e-05
3.08685e-05
2.98167e-05
2.81776e-05
2.64877e-05
2.37477e-05
2.37476e-05
3.8486e-05
7.50267e-05
0.000132139
0.000177624
0.000180521
0.000171012
7.56592e-05
8.89936e-05
8.56453e-05
6.02001e-05
2.62651e-05
6.02e-05
4.90878e-05
9.93904e-05
8.05019e-05
0.000110167
)
;
    }
    ceiling
    {
        type            nutkWallFunction;
        Cmu             0.09;
        kappa           0.41;
        E               9.8;
        value           nonuniform List<scalar> 
43
(
0.000130749
0.000186036
0.000530108
0.000510075
0.000471981
0.000432178
0.000396164
0.000364109
0.000336209
0.00031267
0.000293673
0.000279431
0.000270089
0.0002654
0.000264636
0.000266422
0.000268872
0.000270869
0.000271991
0.000272223
0.00027172
0.000270671
0.00026924
0.000267684
0.000266017
0.000264214
0.000262279
0.000260228
0.000258074
0.000255825
0.000253479
0.000251022
0.000248438
0.000245715
0.000242842
0.000239816
0.000236649
0.000233198
0.000220324
0.000194725
0.000605022
0.00076709
0.000903802
)
;
    }
    sWall
    {
        type            nutkWallFunction;
        Cmu             0.09;
        kappa           0.41;
        E               9.8;
        value           uniform 0.000130765;
    }
    nWall
    {
        type            nutkWallFunction;
        Cmu             0.09;
        kappa           0.41;
        E               9.8;
        value           nonuniform List<scalar> 6(0.000171015 0.000210462 0.000246468 0.000204602 0.000227229 0.000194732);
    }
    sideWalls
    {
        type            empty;
    }
    glass1
    {
        type            nutkWallFunction;
        Cmu             0.09;
        kappa           0.41;
        E               9.8;
        value           nonuniform List<scalar> 9(9.03537e-05 0.000141348 0.000171827 0.000192107 0.00029756 0.000361219 0.000428091 0.00050264 0.000605116);
    }
    glass2
    {
        type            nutkWallFunction;
        Cmu             0.09;
        kappa           0.41;
        E               9.8;
        value           nonuniform List<scalar> 2(0.000280369 0.000272874);
    }
    sun
    {
        type            nutkWallFunction;
        Cmu             0.09;
        kappa           0.41;
        E               9.8;
        value           nonuniform List<scalar> 
14
(
9.03689e-05
9.53563e-05
9.11744e-05
9.15688e-05
9.21858e-05
9.05169e-05
8.6683e-05
8.2199e-05
7.79912e-05
7.4661e-05
7.24884e-05
7.1494e-05
7.16465e-05
7.30497e-05
)
;
    }
    Table_master
    {
        type            nutkWallFunction;
        Cmu             0.09;
        kappa           0.41;
        E               9.8;
        value           nonuniform List<scalar> 9(4.97523e-05 3.15836e-05 3.27058e-05 3.70813e-05 4.13712e-05 4.60348e-05 5.14703e-05 5.82559e-05 6.7583e-05);
    }
    Table_slave
    {
        type            nutkWallFunction;
        Cmu             0.09;
        kappa           0.41;
        E               9.8;
        value           nonuniform List<scalar> 9(8.63334e-05 8.71885e-05 8.81545e-05 8.92109e-05 9.06842e-05 9.29077e-05 9.62779e-05 0.000101339 0.000108917);
    }
    inlet
    {
        type            calculated;
        value           uniform 0.0186521;
    }
    outlet
    {
        type            calculated;
        value           nonuniform List<scalar> 2(0.0010844 0.00156735);
    }
}


// ************************************************************************* //
