/*--------------------------------*- C++ -*----------------------------------*=========                 |
  \      /  F ield         | OpenFOAM: The Open Source CFD Toolbox
   \    /   O peration     | Website:  https://openfoam.org
    \  /    A nd           | Version:  6
     \/     M anipulation  |
\*---------------------------------------------------------------------------*/
FoamFile
{
    version     2.0;
    format      ascii;
    class       volScalarField;
    location    "1400";
    object      PMV;
}
// * * * * * * * * * * * * * * * * * * * * * * * * * * * * * * * * * * * * * //

dimensions      [0 0 0 0 0 0 0];

internalField   nonuniform List<scalar> 
458
(
2.44503266565059
2.348623413360937
2.363001352787515
2.376376722744579
2.3925485586079382
2.4032825390522463
2.4056145486023945
2.403605976025085
2.40148434328133
2.402191272878195
2.4079487870047496
2.4201574607455036
2.4410352322546
2.464094822877748
2.4858489435998155
1.0982277338749618
1.1144243239457585
1.124240435902507
1.1262036571144687
1.1384737749697857
1.1752838466424085
1.213074728045624
1.1963879741772314
1.1684126777064185
1.143872616175214
1.1266944623356447
1.1173691583186873
1.111479489202662
1.0992093450751819
1.090865653138408
1.0781047340890284
1.0628898467043024
1.0476750448213232
2.4921880096646536
2.4607997362479677
2.511043133234749
2.543105645948842
2.56739019504187
2.581890579140903
2.582415854956212
2.5765353573212253
2.568512723887628
2.561971210730534
2.5596689199202207
2.562658701032773
2.569537155678978
2.575296038064257
2.5704649276081457
2.549726857989113
2.5169862949564563
2.160298198401807
1.4019981900725946
1.3902232302303255
1.3818824083925687
1.3524428210039963
1.3122055973589313
1.3038633377275866
1.3190755973065977
1.3269269148859884
1.313677747652669
1.2925765570483805
1.274909875087507
1.2660763579557122
1.2763821169245972
1.3058262335959854
1.3313432272554755
1.3131870313346374
1.286687717582503
1.2906136168160514
2.580533779553052
2.5752376098446663
2.6537890725547584
2.687359740922667
2.7074273283067303
2.7226098580397253
2.720319373937755
2.7143142780519836
2.7060415139206837
2.699141460291094
2.6963924363736433
2.698861012653726
2.7052136700005556
2.7099214557789586
2.706290217571608
2.6905428586083335
2.6633472240284055
2.631230220832217
1.8744079197106545
1.8244963747156833
1.7863132779696493
1.756933302856521
1.7344040509082523
1.5422811961640328
1.4054324809416816
1.4741106389718146
1.540319727231262
1.5868997170468073
1.6295474446881921
1.6800248119846573
1.7490974819037994
1.8504337940077422
2.008351354196612
2.028374901252883
2.1249915283492062
2.1450755748433536
3.0
2.987367783821477
2.939158832571237
2.9075250033201483
2.8962289136547454
2.8526653542462586
2.8406495934386737
2.8381256566779114
2.8342142229615557
2.8304944756809554
2.8304594905527405
2.8356531108773146
2.8443120801793613
2.8496038893370925
2.8440516674266956
2.8189726465966958
2.76579048342936
2.6776005741771787
2.5749741946560234
2.507777538958824
2.588136409992315
2.6836243447747656
2.7841001475075067
2.870648464119261
2.9442776077357764
2.9657557610031753
2.9832341272048835
2.998727551083723
3.0
3.0
3.0
3.0
3.0
3.0
3.0
3.0
3.0
3.0
3.0
3.0
3.0
3.0
3.0
2.95969052269856
2.954138273909165
2.9590359936751915
2.962173825904104
2.9698330257236134
2.9841903148218014
3.0
3.0
3.0
3.0
3.0
3.0
3.0
2.991632153375239
3.0
3.0
3.0
3.0
3.0
3.0
3.0
3.0
3.0
3.0
3.0
3.0
3.0
3.0
3.0
3.0
3.0
3.0
3.0
3.0
3.0
3.0
3.0
3.0
3.0
3.0
3.0
3.0
3.0
3.0
3.0
3.0
3.0
3.0
3.0
3.0
3.0
3.0
3.0
3.0
3.0
3.0
3.0
3.0
3.0
3.0
3.0
3.0
3.0
3.0
3.0
3.0
3.0
3.0
3.0
3.0
3.0
3.0
3.0
3.0
3.0
3.0
3.0
3.0
3.0
3.0
3.0
3.0
3.0
3.0
3.0
3.0
3.0
3.0
3.0
3.0
3.0
3.0
3.0
3.0
3.0
3.0
3.0
3.0
3.0
3.0
3.0
3.0
3.0
3.0
3.0
3.0
3.0
3.0
3.0
3.0
3.0
3.0
3.0
3.0
3.0
3.0
3.0
3.0
3.0
3.0
3.0
3.0
3.0
3.0
3.0
3.0
3.0
3.0
3.0
3.0
3.0
3.0
3.0
3.0
3.0
3.0
3.0
3.0
3.0
3.0
3.0
3.0
3.0
3.0
3.0
3.0
3.0
3.0
3.0
3.0
3.0
3.0
3.0
3.0
3.0
3.0
3.0
3.0
3.0
3.0
3.0
3.0
3.0
3.0
3.0
3.0
3.0
3.0
3.0
3.0
3.0
3.0
3.0
3.0
3.0
3.0
3.0
3.0
3.0
3.0
3.0
3.0
3.0
3.0
3.0
3.0
3.0
3.0
3.0
3.0
3.0
3.0
3.0
3.0
3.0
3.0
3.0
3.0
3.0
3.0
3.0
3.0
3.0
3.0
3.0
3.0
3.0
3.0
3.0
3.0
3.0
3.0
3.0
3.0
3.0
3.0
3.0
3.0
3.0
3.0
3.0
3.0
3.0
3.0
3.0
3.0
3.0
3.0
3.0
3.0
3.0
3.0
3.0
3.0
3.0
3.0
3.0
3.0
3.0
3.0
3.0
3.0
3.0
3.0
3.0
3.0
3.0
3.0
3.0
3.0
3.0
3.0
3.0
3.0
3.0
3.0
3.0
3.0
3.0
3.0
3.0
3.0
3.0
3.0
3.0
3.0
3.0
3.0
3.0
3.0
3.0
3.0
3.0
3.0
3.0
3.0
3.0
3.0
3.0
3.0
3.0
3.0
3.0
3.0
3.0
3.0
3.0
3.0
3.0
3.0
3.0
3.0
3.0
3.0
3.0
3.0
3.0
3.0
3.0
3.0
3.0
3.0
3.0
3.0
3.0
3.0
3.0
3.0
3.0
3.0
)
;

boundaryField
{
    ".*"
    {
        type            zeroGradient;
    }
}


// ************************************************************************* //
