/*--------------------------------*- C++ -*----------------------------------*\
  =========                 |
  \\      /  F ield         | OpenFOAM: The Open Source CFD Toolbox
   \\    /   O peration     | Website:  https://openfoam.org
    \\  /    A nd           | Version:  6
     \\/     M anipulation  |
\*---------------------------------------------------------------------------*/
FoamFile
{
    version     2.0;
    format      ascii;
    class       volScalarField;
    location    "1400";
    object      T;
}
// * * * * * * * * * * * * * * * * * * * * * * * * * * * * * * * * * * * * * //

dimensions      [0 0 0 1 0 0 0];

internalField   nonuniform List<scalar> 
458
(
306.8
306.673
306.705
306.736
306.764
306.775
306.765
306.744
306.722
306.706
306.701
306.709
306.732
306.768
306.813
303.974
304.007
304.027
304.031
304.056
304.131
304.208
304.174
304.117
304.067
304.032
304.013
304.001
303.976
303.959
303.933
303.902
303.871
306.998
306.899
306.981
307.048
307.094
307.116
307.107
307.084
307.057
307.034
307.021
307.02
307.028
307.037
307.032
306.996
306.921
306.22
304.593
304.569
304.552
304.492
304.41
304.393
304.424
304.44
304.413
304.37
304.334
304.316
304.337
304.397
304.449
304.412
304.358
304.366
307.217
307.108
307.213
307.298
307.349
307.379
307.369
307.35
307.327
307.308
307.299
307.302
307.314
307.324
307.318
307.284
307.221
307.141
305.557
305.455
305.377
305.317
305.271
304.879
304.6
304.74
304.875
304.97
305.057
305.16
305.301
305.508
305.831
305.872
306.07
306.213
308.176
307.918
307.824
307.754
307.707
307.604
307.593
307.588
307.578
307.569
307.569
307.581
307.601
307.615
307.608
307.563
307.465
307.302
307.102
306.951
307.103
307.292
307.493
307.666
307.812
307.854
307.888
307.918
307.946
307.971
307.993
308.011
308.02
308.007
308.145
308.328
308.545
313.591
310.803
309.553
308.81
308.333
308.055
307.819
307.815
307.826
307.833
307.85
307.881
307.924
307.968
308.003
308.018
308.008
307.974
307.932
307.908
307.946
308.014
308.091
308.159
308.214
308.257
308.296
308.336
308.379
308.426
308.48
308.541
308.613
308.696
308.806
308.918
309.015
309.073
309.117
309.182
314.215
312.857
311.197
309.904
308.981
308.421
308.133
308.053
308.092
308.128
308.169
308.223
308.288
308.351
308.407
308.449
308.47
308.469
308.457
308.451
308.463
308.486
308.516
308.547
308.578
308.607
308.637
308.669
308.704
308.743
308.787
308.838
308.897
308.964
309.04
309.117
309.189
309.242
309.283
309.34
314.375
314.044
312.517
310.871
309.491
308.672
308.341
308.333
308.434
308.522
308.605
308.684
308.759
308.833
308.897
308.946
308.98
308.992
308.988
308.98
308.974
308.974
308.978
308.986
308.995
309.006
309.019
309.033
309.05
309.071
309.097
309.128
309.167
309.213
309.264
309.32
309.373
309.413
309.437
309.455
314.436
314.332
313.209
311.408
309.543
308.755
308.59
308.809
309.04
309.191
309.285
309.361
309.43
309.497
309.555
309.599
309.622
309.627
309.616
309.597
309.574
309.553
309.533
309.515
309.5
309.486
309.475
309.465
309.459
309.456
309.458
309.465
309.48
309.501
309.53
309.563
309.595
309.609
309.593
309.559
314.49
314.535
314.581
311.142
309.508
309.045
309.258
309.752
310.132
310.33
310.42
310.465
310.491
310.506
310.51
310.501
310.477
310.442
310.398
310.349
310.298
310.247
310.198
310.15
310.103
310.059
310.017
309.978
309.941
309.909
309.881
309.858
309.842
309.833
309.83
309.829
309.823
309.797
309.73
309.639
320.386
311.855
310.179
310.172
311.037
311.57
311.815
311.912
311.933
311.911
311.863
311.798
311.718
311.627
311.529
311.429
311.329
311.231
311.135
311.043
310.954
310.867
310.783
310.703
310.625
310.551
310.48
310.413
310.35
310.292
310.239
310.191
310.146
310.101
310.048
309.969
309.83
309.62
318.82
314.107
313.203
313.126
313.231
313.332
313.375
313.368
313.318
313.233
313.122
312.991
312.85
312.706
312.56
312.413
312.268
312.124
311.984
311.847
311.715
311.588
311.466
311.348
311.234
311.124
311.018
310.916
310.817
310.722
310.63
310.542
310.454
310.364
310.264
310.142
309.974
309.737
314.409
314.501
316.131
315.935
315.674
315.484
315.324
315.18
315.043
314.908
314.77
314.625
314.471
314.306
314.129
313.941
313.749
313.558
313.369
313.184
313.004
312.828
312.656
312.488
312.323
312.161
312.003
311.848
311.696
311.547
311.401
311.256
311.114
310.971
310.828
310.68
310.521
310.339
310.101
309.779
)
;

boundaryField
{
    floor
    {
        type            wallHeatTransfer;
        Tinf            uniform 305.2;
        alphaWall       uniform 0.24;
        value           nonuniform List<scalar> 
36
(
306.558
304.318
304.338
304.358
304.379
304.416
304.465
304.514
304.493
304.448
304.403
304.362
304.33
304.31
304.296
304.288
304.278
304.265
304.26
304.26
304.562
306.052
308.192
308.75
308.794
308.839
306.558
306.742
306.671
306.033
304.318
306.033
304.718
306.887
305.503
306.872
)
;
    }
    ceiling
    {
        type            wallHeatTransfer;
        Tinf            uniform 303.2;
        alphaWall       uniform 0.24;
        value           nonuniform List<scalar> 
43
(
313.2
313.583
315.714
315.509
315.226
315.006
314.814
314.636
314.466
314.299
314.134
313.969
313.804
313.639
313.471
313.299
313.124
312.948
312.773
312.6
312.429
312.262
312.098
311.937
311.779
311.624
311.472
311.323
311.177
311.033
310.892
310.753
310.615
310.477
310.337
310.194
310.041
309.865
309.62
309.27
314.17
314.278
318.513
)
;
    }
    sWall
    {
        type            wallHeatTransfer;
        Tinf            uniform 315.2;
        alphaWall       uniform 0.36;
        value           uniform 314.53;
    }
    nWall
    {
        type            wallHeatTransfer;
        Tinf            uniform 307.2;
        alphaWall       uniform 0.36;
        value           nonuniform List<scalar> 6(308.937 309.116 309.248 309.36 309.487 309.49);
    }
    sideWalls
    {
        type            empty;
    }
    glass1
    {
        type            wallHeatTransfer;
        Tinf            uniform 315.2;
        alphaWall       uniform 4.3;
        value           nonuniform List<scalar> 9(313.078 312.482 312.237 312.427 314.407 314.669 314.722 314.729 314.734);
    }
    glass2
    {
        type            wallHeatTransfer;
        Tinf            uniform 307.2;
        alphaWall       uniform 4.3;
        value           nonuniform List<scalar> 2(308.34 308.363);
    }
    sun
    {
        type            wallHeatTransfer;
        Tinf            uniform 305.2;
        alphaWall       uniform 0.24;
        value           nonuniform List<scalar> 
14
(
306.576
306.475
306.496
306.523
306.548
306.555
306.54
306.514
306.486
306.466
306.457
306.462
306.481
306.514
)
;
    }
    Table_master
    {
        type            zeroGradient;
    }
    Table_slave
    {
        type            zeroGradient;
    }
    inlet
    {
        type            fixedValue;
        value           uniform 290.15;
    }
    outlet
    {
        type            zeroGradient;
    }
}


// ************************************************************************* //
