/*--------------------------------*- C++ -*----------------------------------*\
  =========                 |
  \\      /  F ield         | OpenFOAM: The Open Source CFD Toolbox
   \\    /   O peration     | Website:  https://openfoam.org
    \\  /    A nd           | Version:  6
     \\/     M anipulation  |
\*---------------------------------------------------------------------------*/
FoamFile
{
    version     2.0;
    format      ascii;
    class       volVectorField;
    location    "1400";
    object      U;
}
// * * * * * * * * * * * * * * * * * * * * * * * * * * * * * * * * * * * * * //

dimensions      [0 1 -1 0 0 0 0];

internalField   nonuniform List<vector> 
458
(
(0.0386972 0.0724056 0)
(-0.140704 0.0166559 0)
(-0.146385 0.00595378 0)
(-0.15286 -5.21059e-05 0)
(-0.148838 -0.00588522 0)
(-0.136758 -0.0106163 0)
(-0.120502 -0.0122813 0)
(-0.10396 -0.0117778 0)
(-0.0891177 -0.0105798 0)
(-0.0764899 -0.00948285 0)
(-0.0657897 -0.00884035 0)
(-0.055927 -0.00892785 0)
(-0.0451586 -0.0103459 0)
(-0.0331233 -0.0145931 0)
(-0.0255271 -0.0237403 0)
(0.0479667 0.00522505 0)
(-0.021122 0.00250315 0)
(-0.0146534 0.000817228 0)
(-0.0179729 -0.000771898 0)
(-0.0191832 -0.00419121 0)
(-0.0131593 -0.0101761 0)
(-0.00323736 -0.0180104 0)
(0.0092087 -0.0122075 0)
(0.0169989 -0.00758604 0)
(0.0207241 -0.00486868 0)
(0.0229615 -0.00350619 0)
(0.0251467 -0.00303479 0)
(0.0273783 -0.00272829 0)
(0.0291834 -0.00224085 0)
(0.0275855 -0.00076545 0)
(0.024651 -0.00131912 0)
(0.0253371 0.00160124 0)
(-0.0284813 0.00892189 0)
(0.170362 0.147181 0)
(-0.146321 0.0480695 0)
(-0.131894 0.0190392 0)
(-0.140215 0.00317962 0)
(-0.138268 -0.0128701 0)
(-0.127343 -0.0240349 0)
(-0.112452 -0.0260739 0)
(-0.0984197 -0.0236351 0)
(-0.0869535 -0.0200048 0)
(-0.0780337 -0.0165492 0)
(-0.0711893 -0.0139078 0)
(-0.0656128 -0.0126205 0)
(-0.0606219 -0.0137065 0)
(-0.0568387 -0.019307 0)
(-0.054768 -0.0325467 0)
(-0.0461583 -0.0509951 0)
(-0.0332372 -0.0537807 0)
(0.0763484 -0.0277519 0)
(0.0512563 0.0020817 0)
(0.0150761 0.00665416 0)
(0.00621932 0.00726789 0)
(0.00235554 0.00632017 0)
(-0.0075013 0.00494759 0)
(-0.00905907 -0.0105052 0)
(-0.00624565 -0.0225715 0)
(-0.00545226 -0.0139321 0)
(0.00280405 -0.00666729 0)
(0.00482285 -0.00375665 0)
(0.00467608 -0.0029235 0)
(0.00332558 -0.00242441 0)
(0.000579635 -0.000288772 0)
(-0.00278438 0.00433169 0)
(-0.00404453 0.01032 0)
(-0.00880983 0.00990158 0)
(-0.0262129 0.0122991 0)
(-0.0623687 0.00777139 0)
(0.367862 0.226835 0)
(-0.11974 0.0666708 0)
(-0.0725683 0.00389369 0)
(-0.0920281 -0.0139213 0)
(-0.105751 -0.0309658 0)
(-0.103008 -0.0399359 0)
(-0.0931865 -0.0396107 0)
(-0.0838163 -0.034296 0)
(-0.0769617 -0.0280783 0)
(-0.0723543 -0.022475 0)
(-0.0695493 -0.0181899 0)
(-0.0678697 -0.0157283 0)
(-0.0667898 -0.0157265 0)
(-0.0664543 -0.0187033 0)
(-0.066477 -0.0237644 0)
(-0.0625142 -0.0282342 0)
(-0.050458 -0.0354748 0)
(-0.0304728 -0.0410869 0)
(-0.0384102 0.00967472 0)
(-0.0212746 0.00663509 0)
(-0.0166602 0.00639868 0)
(-0.00930043 0.00512735 0)
(-0.0073552 0.00505581 0)
(0.0187627 0.00104564 0)
(-0.0106063 -0.0176415 0)
(-0.0343979 -0.00977103 0)
(-0.0413557 -0.00486571 0)
(-0.045152 -0.00315249 0)
(-0.0475739 -0.00241128 0)
(-0.0495383 -0.00172182 0)
(-0.049824 -0.000896681 0)
(-0.0458173 -0.000310694 0)
(-0.0375745 0.00200058 0)
(-0.0260941 0.00560586 0)
(-0.0257412 0.00554586 0)
(0.0938474 0.0115665 0)
(0.551837 0.192088 0)
(0.270611 0.161923 0)
(0.195557 0.128461 0)
(0.131387 0.0943811 0)
(0.0571833 0.0506001 0)
(-0.0459459 -0.0245777 0)
(-0.0609931 -0.0404214 0)
(-0.0627221 -0.0380699 0)
(-0.0627601 -0.0308066 0)
(-0.0634292 -0.0234959 0)
(-0.0653793 -0.0177759 0)
(-0.0685278 -0.0144407 0)
(-0.0728269 -0.0141927 0)
(-0.0785206 -0.0173999 0)
(-0.0857128 -0.0232385 0)
(-0.0944163 -0.0298594 0)
(-0.106813 -0.0365837 0)
(-0.123443 -0.0405954 0)
(-0.12491 -0.0312937 0)
(-0.104855 0.0045608 0)
(-0.0964678 0.00336122 0)
(-0.0950313 0.00233563 0)
(-0.0971976 0.000637512 0)
(-0.10112 -0.00145749 0)
(-0.104346 -0.00144536 0)
(-0.103424 -0.00240978 0)
(-0.101586 -0.00329977 0)
(-0.0987559 -0.00391875 0)
(-0.0952395 -0.00441193 0)
(-0.0911764 -0.00486194 0)
(-0.0864629 -0.00534638 0)
(-0.0808114 -0.00600418 0)
(-0.0743646 -0.00701098 0)
(-0.0684835 -0.0088861 0)
(-0.0608624 -0.00929841 0)
(-0.037684 -0.0122931 0)
(0.0310353 -0.0181931 0)
(0.203539 -0.149656 0)
(0.177331 0.0650513 0)
(0.174216 0.129734 0)
(0.147548 0.13753 0)
(0.090014 0.108297 0)
(0.0229209 0.0526594 0)
(-0.0307239 -0.0208417 0)
(-0.0409375 -0.0330239 0)
(-0.0470842 -0.0277054 0)
(-0.0523249 -0.0197431 0)
(-0.0577762 -0.0130347 0)
(-0.063586 -0.00865446 0)
(-0.0698836 -0.00712755 0)
(-0.0769248 -0.00860679 0)
(-0.0848815 -0.0124766 0)
(-0.0941504 -0.0175314 0)
(-0.105767 -0.0220458 0)
(-0.11838 -0.022131 0)
(-0.124291 -0.0134346 0)
(-0.122488 -0.00439479 0)
(-0.118846 0.000161473 0)
(-0.115616 0.00222966 0)
(-0.113144 0.00253447 0)
(-0.111134 0.00158727 0)
(-0.109022 0.000252016 0)
(-0.106708 -0.00171427 0)
(-0.104407 -0.00314153 0)
(-0.101914 -0.00413822 0)
(-0.0992237 -0.00486177 0)
(-0.0964409 -0.00545951 0)
(-0.0937058 -0.00614344 0)
(-0.0912647 -0.00734942 0)
(-0.0897654 -0.00985327 0)
(-0.0901823 -0.0144062 0)
(-0.0927117 -0.0210346 0)
(-0.0964976 -0.0350096 0)
(-0.104074 -0.064275 0)
(-0.113893 -0.116757 0)
(-0.0887164 -0.123056 0)
(0.104554 -0.149591 0)
(0.114052 -0.20765 0)
(0.122961 0.0230317 0)
(0.150459 0.150611 0)
(0.135201 0.189876 0)
(0.0835029 0.161597 0)
(0.0306791 0.0958056 0)
(-0.000758559 0.02221 0)
(-0.0206019 -0.0192059 0)
(-0.031997 -0.019462 0)
(-0.0410636 -0.0125956 0)
(-0.048666 -0.00633647 0)
(-0.0552118 -0.00217835 0)
(-0.0611384 -0.000512206 0)
(-0.0671865 -0.00146236 0)
(-0.0738189 -0.00461734 0)
(-0.081439 -0.00908513 0)
(-0.0903789 -0.0132741 0)
(-0.0993814 -0.0143216 0)
(-0.105253 -0.0104293 0)
(-0.106867 -0.00595084 0)
(-0.105811 -0.00290686 0)
(-0.103637 -0.00127026 0)
(-0.101066 -0.00096148 0)
(-0.0984475 -0.00168774 0)
(-0.0959651 -0.00296868 0)
(-0.0936479 -0.00456914 0)
(-0.0914148 -0.00600358 0)
(-0.0890529 -0.00715331 0)
(-0.0864187 -0.00801043 0)
(-0.0834293 -0.00857996 0)
(-0.0800322 -0.0088889 0)
(-0.0762459 -0.00904418 0)
(-0.072239 -0.00922932 0)
(-0.0681991 -0.00946366 0)
(-0.064089 -0.0095238 0)
(-0.0604601 -0.010636 0)
(-0.0604184 -0.0128167 0)
(-0.0692352 -0.0124943 0)
(-0.0940117 -0.0174293 0)
(0.171161 -0.0782932 0)
(0.0557706 -0.275147 0)
(0.0853808 -0.0955482 0)
(0.146654 0.134315 0)
(0.119781 0.237702 0)
(0.0558194 0.208013 0)
(0.0149666 0.125149 0)
(0.00379145 0.0439423 0)
(-0.00594055 -0.00208815 0)
(-0.0205557 -0.0078142 0)
(-0.0313307 -0.00371484 0)
(-0.0384756 0.000434119 0)
(-0.0430881 0.00307832 0)
(-0.0463189 0.00406498 0)
(-0.0491564 0.0033693 0)
(-0.0525955 0.00101238 0)
(-0.0571958 -0.00252105 0)
(-0.0626924 -0.00601188 0)
(-0.0684132 -0.00780468 0)
(-0.0726921 -0.00713752 0)
(-0.0746569 -0.00553562 0)
(-0.0747256 -0.00417292 0)
(-0.0736503 -0.00343769 0)
(-0.0719876 -0.00347219 0)
(-0.0701459 -0.00419258 0)
(-0.0683711 -0.00539778 0)
(-0.0667569 -0.00687539 0)
(-0.0652491 -0.00837304 0)
(-0.0636898 -0.00978263 0)
(-0.0619201 -0.0110739 0)
(-0.059792 -0.012253 0)
(-0.0571653 -0.0133698 0)
(-0.0539278 -0.0145473 0)
(-0.0500146 -0.0159741 0)
(-0.0453566 -0.017852 0)
(-0.0398056 -0.020566 0)
(-0.0329179 -0.0250951 0)
(-0.0241102 -0.0318637 0)
(-0.0222921 -0.039088 0)
(-0.100761 -0.0485847 0)
(0.271515 -0.100723 0)
(-0.0231438 -0.251657 0)
(-0.0521139 -0.15079 0)
(0.111665 0.0749685 0)
(0.0881484 0.301119 0)
(-0.0127001 0.24073 0)
(-0.0206459 0.13209 0)
(-0.0088163 0.0492408 0)
(-0.00781272 0.0114129 0)
(-0.0158673 0.00466137 0)
(-0.0219754 0.00468206 0)
(-0.0243457 0.0048384 0)
(-0.0242107 0.00491958 0)
(-0.022808 0.00474148 0)
(-0.0210962 0.00403215 0)
(-0.0199743 0.0025557 0)
(-0.020242 0.000320448 0)
(-0.0221806 -0.0021795 0)
(-0.0249159 -0.0039874 0)
(-0.0274413 -0.00464321 0)
(-0.028984 -0.00459319 0)
(-0.0294854 -0.0044048 0)
(-0.0292158 -0.00439432 0)
(-0.0284899 -0.00473469 0)
(-0.0276144 -0.00544915 0)
(-0.026813 -0.00648268 0)
(-0.0261915 -0.00774294 0)
(-0.0257374 -0.00911388 0)
(-0.0253521 -0.0105299 0)
(-0.0249058 -0.0119658 0)
(-0.0242537 -0.0134261 0)
(-0.0232369 -0.0149543 0)
(-0.0216885 -0.0166522 0)
(-0.0194332 -0.0186895 0)
(-0.0162691 -0.0213182 0)
(-0.0118793 -0.0249823 0)
(-0.00520585 -0.0304595 0)
(0.00661767 -0.039061 0)
(0.0195519 -0.0516301 0)
(-0.0620342 -0.0670726 0)
(0.447435 -0.0774306 0)
(-0.173892 -0.117998 0)
(-0.347296 -0.0848897 0)
(-0.541884 0.0200788 0)
(0.0198696 0.343076 0)
(-0.117831 0.230678 0)
(-0.0694015 0.116196 0)
(-0.0310752 0.0456205 0)
(-0.014281 0.0182259 0)
(-0.00614159 0.0129731 0)
(0.00104818 0.011343 0)
(0.00813577 0.00966644 0)
(0.0146456 0.00827987 0)
(0.0205423 0.00715613 0)
(0.0257694 0.00616257 0)
(0.0299084 0.00519183 0)
(0.0324525 0.0041203 0)
(0.0330898 0.00282729 0)
(0.0322727 0.00157919 0)
(0.0308594 0.000668755 0)
(0.029521 8.57921e-05 0)
(0.0285448 -0.000326741 0)
(0.0279443 -0.000723457 0)
(0.0276118 -0.00122238 0)
(0.0273482 -0.00186068 0)
(0.0269765 -0.00266397 0)
(0.0264028 -0.00363228 0)
(0.0256128 -0.00473881 0)
(0.0246499 -0.00596671 0)
(0.0235883 -0.0073198 0)
(0.022523 -0.00882828 0)
(0.0215666 -0.0105619 0)
(0.0208465 -0.0126526 0)
(0.0205007 -0.0153247 0)
(0.0206637 -0.0189471 0)
(0.0214838 -0.0241284 0)
(0.0235796 -0.0318577 0)
(0.0282363 -0.0438313 0)
(0.032401 -0.0622145 0)
(-0.0460955 -0.0797397 0)
(0.47122 -0.0388993 0)
(-2.44595 0.0448299 0)
(-0.0191315 0.201972 0)
(-0.181664 0.13778 0)
(-0.0773823 0.0488613 0)
(0.0106557 -0.0076241 0)
(0.0428074 -0.0132247 0)
(0.0590832 -0.00808353 0)
(0.0704575 -0.00109497 0)
(0.0796243 0.00579873 0)
(0.0869294 0.0118873 0)
(0.0926572 0.0166423 0)
(0.0970639 0.0198775 0)
(0.100117 0.0219067 0)
(0.101712 0.0228594 0)
(0.101959 0.0224927 0)
(0.101154 0.0210497 0)
(0.0996786 0.0190339 0)
(0.0979022 0.0168523 0)
(0.096073 0.0147329 0)
(0.0943033 0.012751 0)
(0.0926142 0.0108897 0)
(0.0909131 0.00916245 0)
(0.0890944 0.00746073 0)
(0.0870958 0.00568214 0)
(0.0848841 0.00376393 0)
(0.0824458 0.0016497 0)
(0.0797836 -0.000730402 0)
(0.0769132 -0.0034733 0)
(0.0738571 -0.00671899 0)
(0.0706356 -0.0106695 0)
(0.0672462 -0.0156092 0)
(0.0636198 -0.0219264 0)
(0.0595511 -0.0301268 0)
(0.0547596 -0.0408382 0)
(0.0483041 -0.0549918 0)
(0.0342152 -0.0738721 0)
(-0.0412138 -0.0905108 0)
(0.196214 -0.0457489 0)
(-1.12759 0.113543 0)
(0.477994 -0.0378508 0)
(0.201603 -0.0454249 0)
(0.17268 -0.0843898 0)
(0.185082 -0.104304 0)
(0.191353 -0.112452 0)
(0.191876 -0.119571 0)
(0.191508 -0.128597 0)
(0.190981 -0.138639 0)
(0.189486 -0.147837 0)
(0.186593 -0.154467 0)
(0.182535 -0.157453 0)
(0.178105 -0.155978 0)
(0.174138 -0.150668 0)
(0.170912 -0.14402 0)
(0.168326 -0.137494 0)
(0.166077 -0.131778 0)
(0.163915 -0.127089 0)
(0.161689 -0.123408 0)
(0.159303 -0.120628 0)
(0.15669 -0.118596 0)
(0.153888 -0.116802 0)
(0.150876 -0.115247 0)
(0.147628 -0.114 0)
(0.144091 -0.113068 0)
(0.140198 -0.11243 0)
(0.135883 -0.112058 0)
(0.131076 -0.111922 0)
(0.125691 -0.111996 0)
(0.119612 -0.112253 0)
(0.112661 -0.112657 0)
(0.104566 -0.113153 0)
(0.0949169 -0.11365 0)
(0.0832924 -0.113994 0)
(0.0692129 -0.114034 0)
(0.0509444 -0.11492 0)
(-0.0125627 -0.123309 0)
(0.214197 -0.193299 0)
(0.289854 0.234382 0)
(0.447403 0.0985165 0)
(0.186018 0.1925 0)
(0.479979 0.152326 0)
(0.47358 0.176125 0)
(0.420983 0.20358 0)
(0.388473 0.226165 0)
(0.365479 0.253069 0)
(0.343688 0.284909 0)
(0.323745 0.318789 0)
(0.307253 0.35161 0)
(0.294367 0.380283 0)
(0.284593 0.401876 0)
(0.277408 0.414509 0)
(0.272217 0.417184 0)
(0.2685 0.411239 0)
(0.265845 0.400969 0)
(0.263629 0.389513 0)
(0.261371 0.378679 0)
(0.258811 0.369274 0)
(0.255843 0.361521 0)
(0.252431 0.355354 0)
(0.248577 0.350585 0)
(0.244235 0.346454 0)
(0.239464 0.342854 0)
(0.234262 0.339843 0)
(0.228569 0.337418 0)
(0.222301 0.335537 0)
(0.215358 0.334136 0)
(0.207607 0.33315 0)
(0.198872 0.332506 0)
(0.188915 0.33213 0)
(0.177424 0.331931 0)
(0.16399 0.331787 0)
(0.148086 0.331529 0)
(0.129108 0.330913 0)
(0.106401 0.329446 0)
(0.078149 0.327458 0)
(-0.0234863 0.360014 0)
(0.291262 0.537792 0)
)
;

boundaryField
{
    floor
    {
        type            noSlip;
    }
    ceiling
    {
        type            noSlip;
    }
    sWall
    {
        type            noSlip;
    }
    nWall
    {
        type            noSlip;
    }
    sideWalls
    {
        type            empty;
    }
    glass1
    {
        type            noSlip;
    }
    glass2
    {
        type            noSlip;
    }
    sun
    {
        type            noSlip;
    }
    Table_master
    {
        type            noSlip;
    }
    Table_slave
    {
        type            noSlip;
    }
    inlet
    {
        type            fixedValue;
        value           uniform (0.0382683 -0.092388 0);
    }
    outlet
    {
        type            zeroGradient;
    }
}


// ************************************************************************* //
