/*--------------------------------*- C++ -*----------------------------------*\
  =========                 |
  \\      /  F ield         | OpenFOAM: The Open Source CFD Toolbox
   \\    /   O peration     | Website:  https://openfoam.org
    \\  /    A nd           | Version:  6
     \\/     M anipulation  |
\*---------------------------------------------------------------------------*/
FoamFile
{
    version     2.0;
    format      ascii;
    class       volScalarField;
    location    "900";
    object      T;
}
// * * * * * * * * * * * * * * * * * * * * * * * * * * * * * * * * * * * * * //

dimensions      [0 0 0 1 0 0 0];

internalField   nonuniform List<scalar> 
458
(
303.567
303.253
303.244
303.245
303.246
303.246
303.246
303.247
303.247
303.246
303.246
303.244
303.241
303.237
303.232
303.052
303.042
303.048
303.051
303.048
303.042
303.034
303.022
303
302.897
302.704
302.682
302.695
302.702
302.708
302.711
302.703
302.703
303.782
303.282
303.253
303.256
303.26
303.264
303.267
303.269
303.271
303.272
303.271
303.267
303.258
303.245
303.227
303.212
303.198
303.204
303.06
303.051
303.056
303.063
303.056
303.032
303.01
302.991
302.971
302.922
302.867
302.831
302.799
302.775
302.768
302.763
302.737
302.713
303.989
303.326
303.271
303.277
303.287
303.296
303.305
303.312
303.317
303.32
303.321
303.315
303.302
303.281
303.254
303.224
303.197
303.178
303.08
303.078
303.083
303.085
303.081
303.002
302.969
302.95
302.936
302.915
302.893
302.873
302.855
302.836
302.849
302.842
302.79
302.73
304.181
303.386
303.293
303.298
303.314
303.33
303.346
303.36
303.372
303.38
303.383
303.378
303.362
303.336
303.301
303.261
303.217
303.172
303.139
303.115
303.114
303.111
303.106
303.102
303.101
303.102
303.105
303.109
303.117
303.124
303.129
303.131
303.13
303.117
303.069
302.989
302.917
304.358
303.463
303.322
303.316
303.335
303.357
303.381
303.403
303.424
303.44
303.448
303.446
303.431
303.402
303.364
303.322
303.277
303.235
303.199
303.172
303.153
303.139
303.127
303.119
303.115
303.115
303.118
303.124
303.132
303.141
303.148
303.151
303.151
303.142
303.118
303.068
303
303.001
303.002
303.032
304.509
303.563
303.384
303.342
303.353
303.376
303.403
303.431
303.459
303.484
303.502
303.506
303.492
303.463
303.423
303.378
303.333
303.291
303.253
303.221
303.194
303.17
303.15
303.135
303.127
303.124
303.126
303.133
303.142
303.153
303.162
303.167
303.166
303.159
303.14
303.108
303.066
303.048
303.035
303.045
304.633
303.732
303.56
303.456
303.41
303.407
303.424
303.449
303.478
303.508
303.539
303.551
303.539
303.507
303.466
303.42
303.376
303.334
303.298
303.265
303.234
303.204
303.177
303.155
303.139
303.132
303.132
303.139
303.149
303.161
303.172
303.178
303.179
303.172
303.154
303.128
303.098
303.077
303.06
303.061
304.845
304.171
304.003
303.831
303.682
303.584
303.535
303.522
303.529
303.547
303.573
303.578
303.561
303.527
303.485
303.441
303.398
303.359
303.324
303.293
303.265
303.236
303.207
303.179
303.155
303.14
303.136
303.141
303.152
303.166
303.178
303.187
303.19
303.185
303.172
303.147
303.125
303.11
303.1
303.195
305.142
304.853
304.678
304.452
304.217
304.019
303.873
303.776
303.716
303.684
303.649
303.605
303.558
303.512
303.467
303.426
303.389
303.356
303.327
303.301
303.278
303.255
303.231
303.205
303.176
303.151
303.139
303.14
303.15
303.164
303.18
303.193
303.202
303.207
303.211
303.217
303.224
303.24
303.26
303.315
300.193
301.545
302.535
303.065
303.314
303.422
303.464
303.475
303.473
303.461
303.442
303.418
303.393
303.368
303.344
303.322
303.302
303.285
303.268
303.252
303.236
303.217
303.194
303.169
303.147
303.139
303.142
303.154
303.17
303.188
303.203
303.214
303.221
303.228
303.236
303.246
303.256
303.263
300.77
301.606
302.469
302.871
303.095
303.209
303.265
303.29
303.296
303.299
303.297
303.293
303.287
303.28
303.272
303.264
303.256
303.248
303.24
303.231
303.222
303.211
303.198
303.181
303.162
303.146
303.137
303.139
303.147
303.164
303.183
303.197
303.21
303.219
303.226
303.233
303.222
303.246
301.83
301.799
301.798
302.321
302.672
302.888
303.078
303.138
303.168
303.184
303.191
303.195
303.198
303.201
303.204
303.206
303.207
303.208
303.207
303.206
303.204
303.201
303.197
303.191
303.185
303.178
303.17
303.161
303.152
303.142
303.132
303.134
303.151
303.171
303.189
303.2
303.206
303.208
303.206
303.237
)
;

boundaryField
{
    floor
    {
        type            wallHeatTransfer;
        Tinf            uniform 305.2;
        alphaWall       uniform 0.24;
        value           nonuniform List<scalar> 
36
(
303.466
303.484
303.412
303.408
303.42
303.436
303.458
303.483
303.511
303.543
303.566
303.591
303.556
303.516
303.495
303.454
303.367
303.242
303.282
303.282
303.183
303.151
303.214
303.259
303.267
303.307
303.466
303.44
303.434
303.506
303.484
303.506
303.418
303.405
303.359
303.368
)
;
    }
    ceiling
    {
        type            wallHeatTransfer;
        Tinf            uniform 303.2;
        alphaWall       uniform 0.24;
        value           nonuniform List<scalar> 
43
(
301.917
301.886
301.883
302.371
302.702
302.907
303.086
303.142
303.17
303.185
303.191
303.195
303.198
303.201
303.204
303.205
303.206
303.207
303.207
303.205
303.203
303.201
303.197
303.193
303.188
303.182
303.176
303.169
303.161
303.153
303.144
303.144
303.158
303.174
303.19
303.2
303.206
303.207
303.205
303.233
305.053
304.787
300.925
)
;
    }
    sWall
    {
        type            wallHeatTransfer;
        Tinf            uniform 315.2;
        alphaWall       uniform 0.36;
        value           uniform 303.059;
    }
    nWall
    {
        type            wallHeatTransfer;
        Tinf            uniform 307.2;
        alphaWall       uniform 0.36;
        value           nonuniform List<scalar> 6(303.777 303.69 303.618 303.808 303.786 303.832);
    }
    sideWalls
    {
        type            empty;
    }
    glass1
    {
        type            wallHeatTransfer;
        Tinf            uniform 315.2;
        alphaWall       uniform 4.3;
        value           nonuniform List<scalar> 9(312.342 311.448 310.869 310.426 310.081 309.797 309.566 309.62 309.837);
    }
    glass2
    {
        type            wallHeatTransfer;
        Tinf            uniform 307.2;
        alphaWall       uniform 4.3;
        value           nonuniform List<scalar> 2(305.664 305.735);
    }
    sun
    {
        type            wallHeatTransfer;
        Tinf            uniform 305.2;
        alphaWall       uniform 0.24;
        value           nonuniform List<scalar> 
14
(
303.801
303.525
303.526
303.519
303.513
303.507
303.503
303.498
303.494
303.49
303.486
303.482
303.477
303.472
)
;
    }
    Table_master
    {
        type            zeroGradient;
    }
    Table_slave
    {
        type            zeroGradient;
    }
    inlet
    {
        type            fixedValue;
        value           uniform 299.15;
    }
    outlet
    {
        type            zeroGradient;
    }
}


// ************************************************************************* //
