/*--------------------------------*- C++ -*----------------------------------*\
  =========                 |
  \\      /  F ield         | OpenFOAM: The Open Source CFD Toolbox
   \\    /   O peration     | Website:  https://openfoam.org
    \\  /    A nd           | Version:  6
     \\/     M anipulation  |
\*---------------------------------------------------------------------------*/
FoamFile
{
    version     2.0;
    format      ascii;
    class       volScalarField;
    location    "2600";
    object      k;
}
// * * * * * * * * * * * * * * * * * * * * * * * * * * * * * * * * * * * * * //

dimensions      [0 2 -2 0 0 0 0];

internalField   nonuniform List<scalar> 
458
(
0.00191455
0.00225638
0.00231106
0.00253292
0.00274674
0.00295168
0.00315422
0.00336415
0.00356607
0.00371492
0.0037823
0.00374251
0.0035877
0.00334461
0.00306323
0.000387916
0.000630043
0.000777185
0.000752414
0.000701675
0.000627726
0.000554809
0.000492009
0.000439225
0.000394755
0.000357172
0.000325201
0.000297395
0.000272423
0.000248847
0.000224661
0.000201612
0.000162229
0.00371439
0.00700497
0.00367444
0.00387753
0.00421011
0.00457893
0.00497587
0.0054022
0.00584666
0.00625704
0.00653816
0.00658918
0.00633295
0.00574363
0.00480485
0.00330067
0.00206351
0.00112896
0.000499696
0.00111687
0.00127232
0.00128153
0.0012038
0.0010341
0.000868731
0.000732992
0.000624925
0.000538512
0.000468466
0.000410382
0.000361301
0.000320665
0.000294086
0.00028099
0.000382226
0.000242875
0.00571644
0.0133387
0.0046818
0.00445735
0.00476574
0.00516155
0.00560081
0.00610213
0.00665741
0.0071883
0.00758225
0.00775203
0.00765159
0.0073137
0.00685535
0.00619141
0.00487621
0.00251451
0.00205577
0.00192561
0.00180282
0.00166691
0.0015083
0.0011922
0.000941095
0.000756355
0.000620681
0.000519827
0.000443669
0.000385456
0.000340771
0.000307232
0.000281504
0.000277847
0.000483027
0.00030474
0.00810263
0.0224362
0.0061916
0.00472359
0.00490914
0.00530865
0.00577842
0.00636862
0.00705209
0.00766656
0.00809992
0.00831132
0.00827287
0.00800122
0.00756092
0.00691623
0.00605071
0.00530167
0.00368493
0.00303107
0.00261854
0.00230525
0.00203868
0.00179288
0.0014047
0.00117347
0.00103138
0.000936088
0.000862572
0.000794167
0.000730646
0.00066704
0.000595716
0.000457137
0.000367911
0.000573051
0.000371004
0.0109977
0.0345351
0.00974751
0.00528625
0.0050973
0.00545795
0.00598809
0.00681195
0.00769024
0.00833353
0.00872252
0.00889803
0.00882976
0.0084876
0.00787749
0.00702863
0.00603852
0.0050955
0.00424512
0.00361583
0.00308964
0.00264922
0.0022895
0.0019989
0.0017753
0.0016491
0.00157987
0.00152695
0.00146556
0.00137951
0.00125555
0.00110731
0.00094235
0.000743296
0.000564534
0.000570312
0.000519307
0.000502486
0.000558916
0.000608948
0.0145417
0.0472134
0.0181768
0.00803405
0.00652758
0.0065446
0.00708646
0.00825672
0.00908826
0.00951567
0.00971281
0.00975778
0.00960029
0.00914534
0.00834456
0.0072529
0.00604871
0.0049754
0.00417003
0.00360354
0.00312449
0.00269517
0.00234192
0.00208299
0.00193699
0.00189157
0.00188488
0.00187462
0.00183928
0.00176225
0.00162256
0.00143591
0.00122405
0.000999316
0.000797191
0.000671873
0.000595349
0.000704211
0.00184863
0.00110107
0.0181937
0.0552356
0.0317535
0.0178121
0.0134272
0.0116995
0.011527
0.0117072
0.0115894
0.0113646
0.0111801
0.011006
0.0106862
0.0100501
0.00901718
0.00766681
0.00622372
0.00497659
0.0040838
0.0034758
0.0030002
0.00260047
0.00229895
0.00211203
0.00203986
0.00204918
0.00208466
0.00211511
0.0021264
0.00210561
0.00203607
0.00187212
0.0016589
0.00142765
0.00122767
0.0010889
0.00101809
0.0011536
0.00249864
0.00163114
0.0189239
0.0546023
0.0391037
0.0325207
0.0270817
0.0226874
0.0193056
0.0165824
0.0147118
0.0136155
0.0130356
0.012634
0.0120814
0.0111437
0.00975069
0.00804911
0.0063085
0.00486678
0.00387891
0.00321853
0.00277614
0.00245951
0.00225907
0.00215846
0.0021338
0.00215637
0.00219989
0.00225297
0.00231509
0.00238931
0.00247681
0.00255928
0.00255801
0.00251547
0.00255346
0.00281367
0.0034441
0.00423965
0.00896628
0.00313277
0.0179005
0.025055
0.0244958
0.0218754
0.0196926
0.0177448
0.0162863
0.0154244
0.0151251
0.0151047
0.0150334
0.0146218
0.0136753
0.0121345
0.010089
0.00789084
0.00582998
0.00435764
0.00349971
0.00297223
0.00264319
0.00244183
0.00232615
0.00226218
0.0022283
0.00221291
0.00221176
0.00222751
0.00226647
0.00233457
0.00243418
0.00256224
0.0027239
0.002949
0.00328766
0.00375018
0.00426564
0.00469795
0.00500885
0.00307193
0.00786858
0.0200463
0.020782
0.0209147
0.0213237
0.0215729
0.0211872
0.0201441
0.0185795
0.0165615
0.0141467
0.0114242
0.00839773
0.00610401
0.00460785
0.00374533
0.00328516
0.00303821
0.00289324
0.00279201
0.00270338
0.00260565
0.00249055
0.00236082
0.00222776
0.00210858
0.0020231
0.00199058
0.00202773
0.00214378
0.00233416
0.00259342
0.00292131
0.00328479
0.00358371
0.00367385
0.00352358
0.0023354
0.00743963
0.0202763
0.0227914
0.021594
0.0217123
0.0215002
0.0204005
0.0185071
0.0162407
0.01376
0.011247
0.00891736
0.00696795
0.00565043
0.00490095
0.00456239
0.00445506
0.00443047
0.00440864
0.00435786
0.00427314
0.00413442
0.00393189
0.00367078
0.00337156
0.00306592
0.00278874
0.00256988
0.00242897
0.00239253
0.00246307
0.00263544
0.00289284
0.00318459
0.00344843
0.00364484
0.0040156
0.00247047
0.00553116
0.00646009
0.00716266
0.00849961
0.00848848
0.00828372
0.00788088
0.00717845
0.00637389
0.0056605
0.00501573
0.00435418
0.003691
0.00308027
0.00257402
0.00220995
0.00197702
0.00183637
0.00174831
0.00168782
0.00164147
0.00160007
0.00155089
0.00149428
0.0014345
0.00137876
0.00133547
0.00131233
0.00131505
0.00134776
0.00141482
0.00150678
0.00162265
0.00176557
0.00193777
0.00213123
0.00233713
0.00228295
0.00198858
0.0017514
)
;

boundaryField
{
    floor
    {
        type            kqRWallFunction;
        value           nonuniform List<scalar> 
36
(
0.00306323
0.000387916
0.000630043
0.000777185
0.000752414
0.000701675
0.000627726
0.000554809
0.000492009
0.000439225
0.000394755
0.000357172
0.000325201
0.000297395
0.000272423
0.000248847
0.000224661
0.000201612
0.000162229
0.000162229
0.000242875
0.00030474
0.000371004
0.000502486
0.000558916
0.000608948
0.00306323
0.00330067
0.00206351
0.00112896
0.000387916
0.00112896
0.000499696
0.00251451
0.00205577
0.00368493
)
;
    }
    ceiling
    {
        type            kqRWallFunction;
        value           nonuniform List<scalar> 
43
(
0.00553116
0.00646009
0.00716266
0.00849961
0.00848848
0.00828372
0.00788088
0.00717845
0.00637389
0.0056605
0.00501573
0.00435418
0.003691
0.00308027
0.00257402
0.00220995
0.00197702
0.00183637
0.00174831
0.00168782
0.00164147
0.00160007
0.00155089
0.00149428
0.0014345
0.00137876
0.00133547
0.00131233
0.00131505
0.00134776
0.00141482
0.00150678
0.00162265
0.00176557
0.00193777
0.00213123
0.00233713
0.00228295
0.00198858
0.0017514
0.0179005
0.025055
0.00743963
)
;
    }
    sWall
    {
        type            kqRWallFunction;
        value           uniform 0.00553116;
    }
    nWall
    {
        type            kqRWallFunction;
        value           nonuniform List<scalar> 6(0.000608948 0.00110107 0.00163114 0.0023354 0.00247047 0.0017514);
    }
    sideWalls
    {
        type            empty;
    }
    glass1
    {
        type            kqRWallFunction;
        value           nonuniform List<scalar> 9(0.00191455 0.00371439 0.00571644 0.00810263 0.0109977 0.0145417 0.0181937 0.0189239 0.0179005);
    }
    glass2
    {
        type            kqRWallFunction;
        value           nonuniform List<scalar> 2(0.00313277 0.00307193);
    }
    sun
    {
        type            kqRWallFunction;
        value           nonuniform List<scalar> 
14
(
0.00191455
0.00225638
0.00231106
0.00253292
0.00274674
0.00295168
0.00315422
0.00336415
0.00356607
0.00371492
0.0037823
0.00374251
0.0035877
0.00334461
)
;
    }
    Table_master
    {
        type            kqRWallFunction;
        value           nonuniform List<scalar> 9(0.0011922 0.000941095 0.000756355 0.000620681 0.000519827 0.000443669 0.000385456 0.000340771 0.000307232);
    }
    Table_slave
    {
        type            kqRWallFunction;
        value           nonuniform List<scalar> 9(0.0014047 0.00117347 0.00103138 0.000936088 0.000862572 0.000794167 0.000730646 0.00066704 0.000595716);
    }
    inlet
    {
        type            turbulentIntensityKineticEnergyInlet;
        intensity       0.05;
        value           uniform 0.0003375;
    }
    outlet
    {
        type            zeroGradient;
    }
}


// ************************************************************************* //
