/*--------------------------------*- C++ -*----------------------------------*\
  =========                 |
  \\      /  F ield         | OpenFOAM: The Open Source CFD Toolbox
   \\    /   O peration     | Website:  https://openfoam.org
    \\  /    A nd           | Version:  6
     \\/     M anipulation  |
\*---------------------------------------------------------------------------*/
FoamFile
{
    version     2.0;
    format      ascii;
    class       volScalarField;
    location    "2600";
    object      T;
}
// * * * * * * * * * * * * * * * * * * * * * * * * * * * * * * * * * * * * * //

dimensions      [0 0 0 1 0 0 0];

internalField   nonuniform List<scalar> 
458
(
304.207
303.957
303.945
303.941
303.938
303.934
303.93
303.926
303.921
303.913
303.903
303.893
303.883
303.875
303.872
303.94
303.922
303.918
303.92
303.923
303.926
303.928
303.931
303.933
303.935
303.937
303.939
303.941
303.943
303.945
303.947
303.949
303.959
304.378
303.997
303.973
303.975
303.977
303.978
303.977
303.974
303.967
303.953
303.933
303.91
303.887
303.87
303.861
303.863
303.874
303.896
303.936
303.91
303.908
303.912
303.916
303.918
303.919
303.92
303.921
303.922
303.922
303.923
303.924
303.925
303.927
303.93
303.934
303.949
304.556
304.044
304.003
304.01
304.021
304.03
304.036
304.038
304.031
304.011
303.978
303.937
303.898
303.869
303.854
303.85
303.855
303.867
303.887
303.893
303.902
303.913
303.922
303.922
303.923
303.923
303.924
303.924
303.924
303.924
303.924
303.924
303.924
303.926
303.929
303.943
304.732
304.103
304.034
304.043
304.063
304.084
304.103
304.114
304.109
304.081
304.03
303.968
303.91
303.868
303.846
303.841
303.846
303.854
303.864
303.876
303.894
303.911
303.927
303.939
303.949
303.955
303.96
303.964
303.967
303.969
303.971
303.971
303.971
303.957
303.943
303.934
303.942
304.9
304.18
304.073
304.072
304.098
304.129
304.161
304.187
304.186
304.146
304.075
303.99
303.914
303.862
303.837
303.833
303.841
303.855
303.871
303.891
303.913
303.934
303.952
303.966
303.976
303.983
303.988
303.991
303.993
303.993
303.991
303.988
303.984
303.974
303.958
303.944
303.941
303.942
303.945
303.989
305.049
304.281
304.148
304.123
304.139
304.171
304.21
304.247
304.238
304.18
304.09
303.99
303.904
303.847
303.822
303.822
303.838
303.862
303.888
303.915
303.941
303.963
303.981
303.994
304.002
304.007
304.01
304.011
304.011
304.009
304.006
304.001
303.994
303.984
303.971
303.956
303.947
303.945
303.947
303.989
305.185
304.441
304.316
304.272
304.261
304.269
304.294
304.302
304.262
304.175
304.061
303.95
303.863
303.811
303.797
303.811
303.842
303.879
303.915
303.948
303.975
303.996
304.01
304.019
304.024
304.027
304.027
304.026
304.025
304.021
304.017
304.01
304.002
303.992
303.981
303.967
303.958
303.953
303.954
303.985
305.386
304.832
304.699
304.6
304.523
304.471
304.427
304.35
304.234
304.093
303.954
303.844
303.776
303.753
303.768
303.808
303.86
303.911
303.953
303.987
304.01
304.024
304.033
304.038
304.04
304.04
304.04
304.038
304.035
304.031
304.027
304.02
304.012
304.004
303.995
303.985
303.979
303.979
303.984
304.084
305.673
305.416
305.128
304.87
304.666
304.501
304.354
304.175
303.976
303.806
303.693
303.644
303.648
303.691
303.76
303.834
303.906
303.961
303.997
304.02
304.035
304.043
304.048
304.051
304.052
304.052
304.051
304.049
304.047
304.045
304.043
304.042
304.043
304.046
304.054
304.067
304.088
304.111
304.132
304.182
295.313
298.913
300.745
301.574
302.03
302.373
302.684
302.963
303.204
303.405
303.57
303.707
303.831
303.915
303.971
304.007
304.029
304.042
304.05
304.055
304.058
304.06
304.062
304.063
304.064
304.064
304.065
304.066
304.067
304.069
304.072
304.076
304.085
304.096
304.112
304.131
304.148
304.17
296.535
299.517
300.988
301.814
302.29
302.649
302.958
303.231
303.45
303.623
303.756
303.857
303.931
303.98
304.012
304.032
304.044
304.051
304.056
304.06
304.064
304.067
304.07
304.072
304.075
304.077
304.079
304.081
304.082
304.084
304.087
304.09
304.096
304.104
304.115
304.127
304.131
304.154
300.229
300.121
300.116
301.973
302.539
302.861
303.126
303.358
303.545
303.684
303.786
303.863
303.92
303.962
303.991
304.01
304.022
304.029
304.034
304.038
304.042
304.045
304.049
304.052
304.056
304.059
304.063
304.066
304.07
304.074
304.077
304.081
304.084
304.088
304.092
304.097
304.107
304.111
304.11
304.145
)
;

boundaryField
{
    floor
    {
        type            wallHeatTransfer;
        Tinf            uniform 305.2;
        alphaWall       uniform 0.24;
        value           nonuniform List<scalar> 
36
(
303.998
304.19
304.138
304.12
304.124
304.131
304.141
304.153
304.164
304.175
304.185
304.195
304.204
304.213
304.222
304.232
304.242
304.254
304.281
304.281
304.237
304.213
304.195
304.171
304.166
304.196
303.998
303.986
304.021
304.075
304.19
304.075
304.167
304.004
304.032
303.982
)
;
    }
    ceiling
    {
        type            wallHeatTransfer;
        Tinf            uniform 303.2;
        alphaWall       uniform 0.24;
        value           nonuniform List<scalar> 
43
(
300.451
300.337
300.324
302.05
302.581
302.883
303.131
303.347
303.52
303.648
303.74
303.808
303.857
303.89
303.911
303.923
303.93
303.933
303.936
303.938
303.94
303.943
303.945
303.946
303.948
303.949
303.951
303.953
303.957
303.961
303.966
303.971
303.977
303.984
303.991
304
304.011
304.015
304.009
304.034
305.557
305.325
296.973
)
;
    }
    sWall
    {
        type            wallHeatTransfer;
        Tinf            uniform 315.2;
        alphaWall       uniform 0.36;
        value           uniform 301.851;
    }
    nWall
    {
        type            wallHeatTransfer;
        Tinf            uniform 307.2;
        alphaWall       uniform 0.36;
        value           nonuniform List<scalar> 6(304.748 304.615 304.533 304.626 304.603 304.653);
    }
    sideWalls
    {
        type            empty;
    }
    glass1
    {
        type            wallHeatTransfer;
        Tinf            uniform 315.2;
        alphaWall       uniform 4.3;
        value           nonuniform List<scalar> 9(311.912 311.289 310.887 310.572 310.307 310.068 309.891 309.956 310.169);
    }
    glass2
    {
        type            wallHeatTransfer;
        Tinf            uniform 307.2;
        alphaWall       uniform 4.3;
        value           nonuniform List<scalar> 2(306.116 306.155);
    }
    sun
    {
        type            wallHeatTransfer;
        Tinf            uniform 305.2;
        alphaWall       uniform 0.24;
        value           nonuniform List<scalar> 
14
(
304.32
304.09
304.077
304.07
304.063
304.056
304.05
304.043
304.035
304.026
304.017
304.008
304
303.997
)
;
    }
    Table_master
    {
        type            zeroGradient;
    }
    Table_slave
    {
        type            zeroGradient;
    }
    inlet
    {
        type            fixedValue;
        value           uniform 292.15;
    }
    outlet
    {
        type            zeroGradient;
    }
}


// ************************************************************************* //
