/*--------------------------------*- C++ -*----------------------------------*\
  =========                 |
  \\      /  F ield         | OpenFOAM: The Open Source CFD Toolbox
   \\    /   O peration     | Website:  https://openfoam.org
    \\  /    A nd           | Version:  6
     \\/     M anipulation  |
\*---------------------------------------------------------------------------*/
FoamFile
{
    version     2.0;
    format      ascii;
    class       volScalarField;
    location    "1500";
    object      epsilon;
}
// * * * * * * * * * * * * * * * * * * * * * * * * * * * * * * * * * * * * * //

dimensions      [0 2 -3 0 0 0 0];

internalField   nonuniform List<scalar> 
458
(
0.000118307
0.000132154
0.000121028
0.000134054
0.000146537
0.000157972
0.00016849
0.000178382
0.000188058
0.000198125
0.000206875
0.000213238
0.000217293
0.000220367
0.000222685
2.23344e-05
4.35095e-05
4.88484e-05
4.70721e-05
4.22152e-05
3.46931e-05
2.82413e-05
2.3231e-05
1.92367e-05
1.59451e-05
1.31568e-05
1.0718e-05
8.47654e-06
6.24964e-06
3.97653e-06
2.76098e-06
1.36199e-05
1.14532e-05
0.000470235
0.00105529
0.000125286
0.000103467
0.000103227
0.000104687
0.000107113
0.000111269
0.000118047
0.000128355
0.000140624
0.000153252
0.00016524
0.000177266
0.000198254
0.000255907
0.000229383
6.40573e-05
5.19831e-05
6.37155e-05
4.6028e-05
3.58869e-05
3.04282e-05
2.69691e-05
2.09188e-05
1.69366e-05
1.38167e-05
1.11544e-05
8.90173e-06
7.05978e-06
5.65211e-06
4.68317e-06
4.07922e-06
4.96227e-06
5.05934e-05
2.70568e-05
0.00112756
0.00349352
0.000235591
0.00011075
0.000105916
0.000109676
0.00011561
0.000123887
0.000134781
0.000148174
0.000162571
0.000174258
0.000180501
0.000181471
0.000182129
0.000190058
0.000215204
0.000296395
0.000135959
0.000102449
5.6867e-05
3.56201e-05
2.86617e-05
4.52083e-05
2.50245e-05
1.5459e-05
1.10259e-05
8.71715e-06
7.31957e-06
6.39029e-06
5.74814e-06
5.34437e-06
5.51804e-06
7.07858e-06
9.00944e-05
4.18508e-05
0.00224678
0.00819968
0.000554662
0.00013319
0.000116114
0.000123896
0.000135077
0.000148872
0.000165653
0.000185564
0.000207149
0.000223466
0.000229537
0.000225013
0.000213352
0.0002011
0.000203086
0.00024173
0.000316569
0.000145043
6.62235e-05
4.009e-05
2.5794e-05
2.49916e-05
4.72723e-05
4.7408e-05
5.19812e-05
5.84394e-05
6.52957e-05
7.04485e-05
7.12767e-05
6.57629e-05
5.94652e-05
3.98111e-05
2.74555e-05
9.1335e-05
5.925e-05
0.00395267
0.0151848
0.00139716
0.000192776
0.00012976
0.000136861
0.000152782
0.000173929
0.000201104
0.000235343
0.000273126
0.000299443
0.00030679
0.000296285
0.000272132
0.000240382
0.000209902
0.000184391
0.000146022
8.53984e-05
5.05732e-05
3.19355e-05
2.38576e-05
2.34134e-05
2.7893e-05
3.30669e-05
3.97593e-05
4.77819e-05
5.58688e-05
6.18752e-05
6.32277e-05
5.8402e-05
5.21712e-05
4.47011e-05
3.6635e-05
5.73774e-05
0.000106354
0.00011366
0.000113834
0.000152659
0.00639222
0.0223692
0.00362287
0.00048142
0.000203163
0.000173341
0.000181887
0.000205539
0.000243122
0.000302881
0.000368477
0.000404346
0.000407369
0.000385713
0.000347449
0.000299852
0.000248657
0.000195702
0.000138312
8.61276e-05
5.17246e-05
3.35343e-05
2.64753e-05
2.61584e-05
2.94899e-05
3.66365e-05
4.74442e-05
6.046e-05
7.47822e-05
8.77573e-05
9.55814e-05
9.38367e-05
7.85969e-05
6.30864e-05
5.06507e-05
5.04955e-05
7.16812e-05
8.73906e-05
0.000161256
0.000165925
0.00955072
0.0264123
0.00884252
0.00234237
0.000934747
0.000493961
0.000370315
0.000347964
0.000368576
0.000460763
0.000537711
0.000556749
0.000534359
0.000487678
0.000427717
0.000361751
0.000292183
0.000223875
0.000157146
0.000100747
6.16859e-05
3.98704e-05
3.12932e-05
3.10961e-05
3.53637e-05
4.43002e-05
5.78866e-05
7.55273e-05
9.70931e-05
0.000120138
0.00014108
0.000155038
0.000148951
0.000122268
0.000102293
9.87392e-05
0.000115987
0.000149417
0.000267117
0.000283978
0.0104133
0.0316528
0.0166102
0.010748
0.00602919
0.00317988
0.00184306
0.00125538
0.00100961
0.000931603
0.000865657
0.000783971
0.000691805
0.000596693
0.000503258
0.000413911
0.000329722
0.000250749
0.000178952
0.000119422
7.60221e-05
4.92604e-05
3.81748e-05
3.82805e-05
4.4017e-05
5.51957e-05
7.1779e-05
9.36843e-05
0.000121141
0.000154341
0.000193319
0.000237684
0.000286141
0.000310998
0.000341066
0.000473048
0.000730665
0.00103508
0.00289338
0.000958527
0.00970174
0.0167432
0.0151023
0.0114763
0.00840577
0.00587196
0.0040536
0.00286482
0.00213217
0.00163954
0.00129329
0.00103932
0.000844112
0.000687264
0.00055646
0.000444411
0.000346976
0.000262043
0.000189572
0.000131085
8.76903e-05
5.9931e-05
4.67527e-05
4.73043e-05
5.37849e-05
6.57514e-05
8.32896e-05
0.000106743
0.000137154
0.000176346
0.000226924
0.000292064
0.000375116
0.000479364
0.000609685
0.000796322
0.00101425
0.00121963
0.00140915
0.000855207
0.00768917
0.0145468
0.00885292
0.00611705
0.00437038
0.00318865
0.00238529
0.00182626
0.00141765
0.00111317
0.000881638
0.000700954
0.000555948
0.000436607
0.000336746
0.00025307
0.000184545
0.000131406
9.33449e-05
6.89307e-05
5.82597e-05
5.9817e-05
6.52676e-05
7.48609e-05
8.90883e-05
0.000108137
0.00013264
0.000163928
0.000204202
0.000256685
0.000325606
0.000415636
0.000524598
0.00064683
0.000751954
0.000795264
0.000773187
0.00049056
0.00586184
0.0114038
0.00724505
0.00519622
0.00386067
0.00291357
0.00221174
0.0016949
0.00131462
0.00102908
0.00081129
0.00064149
0.00050594
0.000395491
0.00030444
0.000229833
0.000171214
0.000129975
0.000105327
8.81819e-05
8.67726e-05
9.49918e-05
0.000100417
0.000105642
0.000114202
0.000127397
0.000145816
0.000170409
0.000203149
0.000247385
0.000307211
0.000387569
0.000487464
0.000596516
0.000688426
0.000773794
0.000685303
0.000516471
0.00288399
0.00371162
0.00453021
0.00553032
0.0045813
0.00384275
0.00292851
0.00229688
0.00179801
0.00140068
0.00108756
0.000861605
0.000685073
0.00054063
0.000419539
0.00031719
0.000231186
0.000160525
0.000105436
6.70031e-05
4.39802e-05
3.29638e-05
3.67025e-05
4.41976e-05
5.0705e-05
5.79177e-05
6.77944e-05
8.13393e-05
9.91261e-05
0.000121848
0.000150854
0.0001891
0.000243677
0.000313096
0.000394973
0.000492211
0.000555003
0.000525847
0.000421248
0.000336678
)
;

boundaryField
{
    floor
    {
        Cmu             0.09;
        kappa           0.41;
        E               9.8;
        type            epsilonWallFunction;
        value           nonuniform List<scalar> 
36
(
0.000222685
2.23344e-05
4.35095e-05
4.88484e-05
4.70721e-05
4.22152e-05
3.46931e-05
2.82413e-05
2.3231e-05
1.92367e-05
1.59451e-05
1.31568e-05
1.0718e-05
8.47654e-06
6.24964e-06
3.97653e-06
2.76098e-06
1.36199e-05
1.14532e-05
1.14532e-05
2.70568e-05
4.18508e-05
5.925e-05
0.00011366
0.000113834
0.000152659
0.000222685
0.000255907
0.000229383
6.40573e-05
2.23344e-05
6.40573e-05
5.19831e-05
0.000296395
0.000135959
0.000316569
)
;
    }
    ceiling
    {
        Cmu             0.09;
        kappa           0.41;
        E               9.8;
        type            epsilonWallFunction;
        value           nonuniform List<scalar> 
43
(
0.00288399
0.00371162
0.00453021
0.00553032
0.0045813
0.00384275
0.00292851
0.00229688
0.00179801
0.00140068
0.00108756
0.000861605
0.000685073
0.00054063
0.000419539
0.00031719
0.000231186
0.000160525
0.000105436
6.70031e-05
4.39802e-05
3.29638e-05
3.67025e-05
4.41976e-05
5.0705e-05
5.79177e-05
6.77944e-05
8.13393e-05
9.91261e-05
0.000121848
0.000150854
0.0001891
0.000243677
0.000313096
0.000394973
0.000492211
0.000555003
0.000525847
0.000421248
0.000336678
0.00970174
0.0167432
0.00586184
)
;
    }
    sWall
    {
        Cmu             0.09;
        kappa           0.41;
        E               9.8;
        type            epsilonWallFunction;
        value           uniform 0.00288399;
    }
    nWall
    {
        Cmu             0.09;
        kappa           0.41;
        E               9.8;
        type            epsilonWallFunction;
        value           nonuniform List<scalar> 6(0.000152659 0.000165925 0.000283978 0.00049056 0.000516471 0.000336678);
    }
    sideWalls
    {
        type            empty;
    }
    glass1
    {
        Cmu             0.09;
        kappa           0.41;
        E               9.8;
        type            epsilonWallFunction;
        value           nonuniform List<scalar> 9(0.000118307 0.000470235 0.00112756 0.00224678 0.00395267 0.00639222 0.00955072 0.0104133 0.00970174);
    }
    glass2
    {
        Cmu             0.09;
        kappa           0.41;
        E               9.8;
        type            epsilonWallFunction;
        value           nonuniform List<scalar> 2(0.000958527 0.000855207);
    }
    sun
    {
        Cmu             0.09;
        kappa           0.41;
        E               9.8;
        type            epsilonWallFunction;
        value           nonuniform List<scalar> 
14
(
0.000118307
0.000132154
0.000121028
0.000134054
0.000146537
0.000157972
0.00016849
0.000178382
0.000188058
0.000198125
0.000206875
0.000213238
0.000217293
0.000220367
)
;
    }
    Table_master
    {
        Cmu             0.09;
        kappa           0.41;
        E               9.8;
        type            epsilonWallFunction;
        value           nonuniform List<scalar> 9(4.52083e-05 2.50245e-05 1.5459e-05 1.10259e-05 8.71715e-06 7.31957e-06 6.39029e-06 5.74814e-06 5.34437e-06);
    }
    Table_slave
    {
        Cmu             0.09;
        kappa           0.41;
        E               9.8;
        type            epsilonWallFunction;
        value           nonuniform List<scalar> 9(4.72723e-05 4.7408e-05 5.19812e-05 5.84394e-05 6.52957e-05 7.04485e-05 7.12767e-05 6.57629e-05 5.94652e-05);
    }
    inlet
    {
        type            turbulentMixingLengthDissipationRateInlet;
        mixingLength    0.01;
        phi             phi;
        k               k;
        value           uniform 0.000101881;
    }
    outlet
    {
        type            zeroGradient;
    }
}


// ************************************************************************* //
