/*--------------------------------*- C++ -*----------------------------------*\
  =========                 |
  \\      /  F ield         | OpenFOAM: The Open Source CFD Toolbox
   \\    /   O peration     | Website:  https://openfoam.org
    \\  /    A nd           | Version:  6
     \\/     M anipulation  |
\*---------------------------------------------------------------------------*/
FoamFile
{
    version     2.0;
    format      ascii;
    class       volScalarField;
    location    "3000";
    object      nut;
}
// * * * * * * * * * * * * * * * * * * * * * * * * * * * * * * * * * * * * * //

dimensions      [0 2 -1 0 0 0 0];

internalField   nonuniform List<scalar> 
458
(
0.00114351
0.00125801
0.00128971
0.00135552
0.00141769
0.00147782
0.00153991
0.00158906
0.00161763
0.00162076
0.00159554
0.00153997
0.00145053
0.0013117
0.0010641
0.000500913
0.000602809
0.00070143
0.000736412
0.000724618
0.000675695
0.000622206
0.000574623
0.000533659
0.00049832
0.000467662
0.000440776
0.000417109
0.000395634
0.00037522
0.000354318
0.000334301
0.000300256
0.00153254
0.00393471
0.00386352
0.00452261
0.00518381
0.00581011
0.00628012
0.00668412
0.00702371
0.00727219
0.00740844
0.00741319
0.0072567
0.00685232
0.00564158
0.0013581
0.00110902
0.000867884
0.000502237
0.00129847
0.00196042
0.0024461
0.00256261
0.00180952
0.00150289
0.00129931
0.00115112
0.00103872
0.000950545
0.000880008
0.000813103
0.000743778
0.000678539
0.000623132
0.000681937
0.000356595
0.00185264
0.00537583
0.0048681
0.00596076
0.00653938
0.0069741
0.00729589
0.00760872
0.00793026
0.0082368
0.00849844
0.00868011
0.00871805
0.00854088
0.00795606
0.00646426
0.00489763
0.0011491
0.000862095
0.00156957
0.00234611
0.00303578
0.00314501
0.000939355
0.000810555
0.000705777
0.000622129
0.000555312
0.000501599
0.000458099
0.000423376
0.000397008
0.000438999
0.000510965
0.000775151
0.000397733
0.0021571
0.00676039
0.0049747
0.00628946
0.0067135
0.00690049
0.00705293
0.00728785
0.00759253
0.00794005
0.00829465
0.00860452
0.0087716
0.00877859
0.00859473
0.00809845
0.00697646
0.00396796
0.00136985
0.00178764
0.0025727
0.00348917
0.00422835
0.00416607
0.00106813
0.000962422
0.000885644
0.000825685
0.00077454
0.000729682
0.000687298
0.000644036
0.000595881
0.000550822
0.000538916
0.000865751
0.000442054
0.0024679
0.00852014
0.00552363
0.00621898
0.0066673
0.00669638
0.00676222
0.00695076
0.00724078
0.00761261
0.00801617
0.00836362
0.00857874
0.00863339
0.00854962
0.00833937
0.00787539
0.00678295
0.00607171
0.00597784
0.0061623
0.00639224
0.00649417
0.00626081
0.0051451
0.00453929
0.00416511
0.00388795
0.00363028
0.00330305
0.00290232
0.00243365
0.00191923
0.00142266
0.00104533
0.000971046
0.000709497
0.000572987
0.000647111
0.000712566
0.00279844
0.0104638
0.00752053
0.00660037
0.00689564
0.00682105
0.00681213
0.00688817
0.00711685
0.00749725
0.00794402
0.00833018
0.00855032
0.00857189
0.00845049
0.00829114
0.00816984
0.00805901
0.00812684
0.00825121
0.00830334
0.00821237
0.00796021
0.00753648
0.00692037
0.00637552
0.00592501
0.00552524
0.0051371
0.00471047
0.00421964
0.00365379
0.00301451
0.00234316
0.00175843
0.00132353
0.000998278
0.000806669
0.00103055
0.000734854
0.00308647
0.0117639
0.0102176
0.00849059
0.00792347
0.00738382
0.00703185
0.00696559
0.00719258
0.00763906
0.00815735
0.00857613
0.00877296
0.00872918
0.00855133
0.00843257
0.00855209
0.00890054
0.00926099
0.00941823
0.00931733
0.00899246
0.00850687
0.00792078
0.007292
0.00670774
0.00618337
0.00570293
0.00525408
0.00483577
0.00444905
0.00401148
0.00349931
0.00291937
0.00236499
0.00187794
0.00151186
0.00131451
0.00122074
0.000859564
0.00313306
0.010081
0.00929609
0.00834149
0.00753953
0.00696007
0.00674549
0.00692621
0.00743109
0.00810229
0.00872942
0.00912733
0.00921251
0.00903917
0.00882005
0.00882528
0.00916524
0.00956656
0.00976672
0.00968377
0.00933076
0.00877373
0.00808885
0.00734888
0.00662466
0.00597274
0.00540211
0.00490181
0.00447126
0.00412395
0.00387631
0.00371335
0.00347025
0.00311639
0.00280036
0.00258796
0.00253697
0.00257176
0.00300009
0.00133505
0.003044
0.00356808
0.00385298
0.00400785
0.004389
0.00509256
0.00607075
0.00721705
0.00835721
0.00928099
0.00980652
0.00987173
0.00958318
0.00919845
0.00913876
0.00922705
0.00933464
0.00934579
0.0091798
0.0088051
0.00824055
0.00752471
0.00673946
0.00596302
0.00525812
0.00465098
0.00412998
0.00367926
0.00329485
0.00297657
0.00271627
0.00250855
0.0023524
0.00223052
0.00214933
0.00210404
0.00205367
0.00196487
0.00184866
0.00128702
0.00124839
0.00460501
0.00770514
0.00957334
0.0107269
0.0113426
0.0114737
0.011217
0.0107108
0.0099947
0.0092764
0.00877925
0.00857641
0.00841698
0.0081732
0.00782606
0.0073592
0.00677455
0.00611828
0.00545945
0.00484428
0.00430417
0.00384129
0.00344288
0.00309178
0.00278207
0.00252019
0.00231911
0.00218401
0.002105
0.00206456
0.00205001
0.002048
0.00203534
0.00197702
0.00185635
0.00169194
0.00111664
0.00201196
0.00811156
0.00996958
0.0105516
0.0106541
0.010395
0.00984245
0.00914317
0.00842753
0.00775701
0.00719344
0.00675582
0.00639257
0.00604507
0.00570542
0.00536424
0.0050087
0.0046473
0.00430603
0.00400518
0.00374717
0.00352173
0.00331398
0.00311127
0.00290959
0.00271315
0.00253091
0.00237312
0.00224935
0.00216583
0.00212398
0.00211835
0.00213217
0.00213782
0.00210477
0.00209889
0.00225905
0.00115195
0.00176816
0.00191785
0.00202616
0.0022242
0.00217375
0.00213691
0.00207745
0.00197183
0.00183049
0.00166728
0.0014985
0.00134766
0.0012304
0.00114712
0.00108984
0.0010493
0.00101804
0.00099085
0.000964942
0.0009398
0.000916046
0.000894136
0.000873991
0.000855329
0.000838239
0.000823354
0.000812107
0.000806297
0.000807562
0.000816729
0.000834021
0.000859405
0.000892835
0.000934202
0.000982564
0.00103661
0.00106746
0.00104538
0.000987081
0.000936548
)
;

boundaryField
{
    floor
    {
        type            nutkWallFunction;
        Cmu             0.09;
        kappa           0.41;
        E               9.8;
        value           nonuniform List<scalar> 
36
(
0.000128253
5.98205e-05
7.26922e-05
8.48984e-05
8.91766e-05
8.77366e-05
8.17335e-05
7.51099e-05
6.91595e-05
6.39886e-05
5.94884e-05
5.5552e-05
5.20734e-05
4.8989e-05
4.61711e-05
4.34742e-05
4.06933e-05
3.80101e-05
3.33974e-05
3.33973e-05
4.09968e-05
4.64465e-05
5.22381e-05
6.89522e-05
7.8201e-05
8.62622e-05
0.000128253
0.000162106
0.000133479
0.000105053
5.98204e-05
0.000105053
5.999e-05
0.000138132
0.000104365
0.000163445
)
;
    }
    ceiling
    {
        type            nutkWallFunction;
        Cmu             0.09;
        kappa           0.41;
        E               9.8;
        value           nonuniform List<scalar> 
43
(
0.000207908
0.000224346
0.000236157
0.000257682
0.000252273
0.000248306
0.000241873
0.000230386
0.000214902
0.000196859
0.000177992
0.00016093
0.00014752
0.000137908
0.000131252
0.000126517
0.000122851
0.000119653
0.000116596
0.00011362
0.000110801
0.000108192
0.000105787
0.000103554
0.000101503
9.97132e-05
9.8358e-05
9.7657e-05
9.78093e-05
9.89145e-05
0.000100995
0.000104041
0.000108036
0.000112955
0.000118675
0.000125029
0.00012864
0.000126057
0.000119208
0.000113234
0.000344733
0.00039895
0.000234392
)
;
    }
    sWall
    {
        type            nutkWallFunction;
        Cmu             0.09;
        kappa           0.41;
        E               9.8;
        value           uniform 0.000207964;
    }
    nWall
    {
        type            nutkWallFunction;
        Cmu             0.09;
        kappa           0.41;
        E               9.8;
        value           nonuniform List<scalar> 6(8.62606e-05 8.89854e-05 0.000104059 0.00013438 0.000138478 0.000113239);
    }
    sideWalls
    {
        type            empty;
    }
    glass1
    {
        type            nutkWallFunction;
        Cmu             0.09;
        kappa           0.41;
        E               9.8;
        value           nonuniform List<scalar> 9(0.000137606 0.000182033 0.000217636 0.00025088 0.000284301 0.000319359 0.00034956 0.000354426 0.000345152);
    }
    glass2
    {
        type            nutkWallFunction;
        Cmu             0.09;
        kappa           0.41;
        E               9.8;
        value           nonuniform List<scalar> 2(0.000159543 0.000154059);
    }
    sun
    {
        type            nutkWallFunction;
        Cmu             0.09;
        kappa           0.41;
        E               9.8;
        value           nonuniform List<scalar> 
14
(
0.000137487
0.00015068
0.00015431
0.000161813
0.000168864
0.000175651
0.000182627
0.000188128
0.000191317
0.000191665
0.000188852
0.000182634
0.000172576
0.000156824
)
;
    }
    Table_master
    {
        type            nutkWallFunction;
        Cmu             0.09;
        kappa           0.41;
        E               9.8;
        value           nonuniform List<scalar> 9(0.000113563 9.81679e-05 8.54322e-05 7.51029e-05 6.67314e-05 5.99121e-05 5.43232e-05 4.98144e-05 4.63591e-05);
    }
    Table_slave
    {
        type            nutkWallFunction;
        Cmu             0.09;
        kappa           0.41;
        E               9.8;
        value           nonuniform List<scalar> 9(0.000128712 0.000116293 0.000107175 9.999e-05 9.38129e-05 8.83556e-05 8.31623e-05 7.78219e-05 7.18262e-05);
    }
    inlet
    {
        type            calculated;
        value           uniform 0.000100623;
    }
    outlet
    {
        type            calculated;
        value           nonuniform List<scalar> 2(0.00176816 0.00191785);
    }
}


// ************************************************************************* //
