/*--------------------------------*- C++ -*----------------------------------*\
  =========                 |
  \\      /  F ield         | OpenFOAM: The Open Source CFD Toolbox
   \\    /   O peration     | Website:  https://openfoam.org
    \\  /    A nd           | Version:  6
     \\/     M anipulation  |
\*---------------------------------------------------------------------------*/
FoamFile
{
    version     2.0;
    format      ascii;
    class       volVectorField;
    location    "800";
    object      U;
}
// * * * * * * * * * * * * * * * * * * * * * * * * * * * * * * * * * * * * * //

dimensions      [0 1 -1 0 0 0 0];

internalField   nonuniform List<vector> 
458
(
(0.0206731 0.0988825 0)
(-0.194917 0.0312383 0)
(-0.228278 0.0170504 0)
(-0.259238 0.00667444 0)
(-0.274149 -0.00411848 0)
(-0.270898 -0.0152108 0)
(-0.249457 -0.0265977 0)
(-0.212122 -0.0368512 0)
(-0.162964 -0.0445982 0)
(-0.107917 -0.0489812 0)
(-0.05375 -0.0487747 0)
(-0.000128364 -0.0391544 0)
(0.0345205 -0.0218053 0)
(0.047951 -0.000726336 0)
(0.0306011 0.0359924 0)
(-0.0215312 0.0137092 0)
(-0.0468047 -0.0230489 0)
(-0.0163151 -0.0409157 0)
(0.0250352 -0.0360708 0)
(0.0525858 -0.0260311 0)
(0.0738638 -0.0145496 0)
(0.0869137 -0.00843377 0)
(0.0930431 -0.00614053 0)
(0.0958057 -0.0051975 0)
(0.0975135 -0.00456804 0)
(0.0987311 -0.00403983 0)
(0.0993779 -0.00350339 0)
(0.0990954 -0.00268287 0)
(0.0970815 -0.00107579 0)
(0.0916847 0.00199724 0)
(0.0809535 0.00596348 0)
(0.0661605 0.0114663 0)
(0.00370381 0.0327791 0)
(0.205002 0.202636 0)
(-0.173521 0.0852114 0)
(-0.179711 0.0586647 0)
(-0.211234 0.0366227 0)
(-0.226144 0.0121868 0)
(-0.223353 -0.0144386 0)
(-0.203284 -0.0410072 0)
(-0.169681 -0.062955 0)
(-0.127121 -0.0776095 0)
(-0.0809397 -0.0839114 0)
(-0.0366633 -0.0807242 0)
(0.00427012 -0.0643506 0)
(0.034948 -0.0386507 0)
(0.0593388 -0.00831074 0)
(0.0765289 0.0278564 0)
(0.0977047 0.0404509 0)
(0.086761 0.0582295 0)
(-0.00446984 0.093101 0)
(0.0623805 0.0564842 0)
(0.0206529 -0.0318994 0)
(0.0396257 -0.0535839 0)
(0.0591537 -0.0507565 0)
(0.0763551 -0.0388133 0)
(0.0855994 -0.0177538 0)
(0.0881608 -0.00504522 0)
(0.0882937 -0.000389028 0)
(0.0885268 0.00122746 0)
(0.0890131 0.00206466 0)
(0.0893821 0.00264436 0)
(0.0895519 0.00333219 0)
(0.0894235 0.00465849 0)
(0.0883247 0.00774613 0)
(0.0833373 0.0155699 0)
(0.0710588 0.0238407 0)
(0.06056 0.0333167 0)
(-0.046879 0.0684968 0)
(0.374159 0.30164 0)
(-0.182302 0.132212 0)
(-0.132533 0.0925697 0)
(-0.161813 0.0552883 0)
(-0.174108 0.0151184 0)
(-0.168434 -0.0277267 0)
(-0.146755 -0.0689338 0)
(-0.115421 -0.100555 0)
(-0.0791176 -0.119547 0)
(-0.0420273 -0.125236 0)
(-0.00816321 -0.116927 0)
(0.0216303 -0.0937693 0)
(0.0450431 -0.0627431 0)
(0.0647685 -0.0287378 0)
(0.0806459 0.00203063 0)
(0.0874887 0.0168503 0)
(0.0806003 0.0402438 0)
(-0.00410495 0.0943276 0)
(0.141203 -0.0128606 0)
(0.0932089 -0.0497886 0)
(0.0879106 -0.0629955 0)
(0.0930584 -0.0611233 0)
(0.0995493 -0.0540295 0)
(0.101191 -0.0396316 0)
(0.0873727 -0.0249232 0)
(0.0766432 -0.0170193 0)
(0.0721563 -0.0126097 0)
(0.0703828 -0.00975853 0)
(0.0692362 -0.00779865 0)
(0.0684713 -0.00627453 0)
(0.0689552 -0.00439164 0)
(0.072406 0.000605951 0)
(0.0711838 0.0217498 0)
(0.0573812 0.0381066 0)
(0.0606199 0.0534836 0)
(-0.0966137 0.102899 0)
(0.526873 0.380359 0)
(-0.211543 0.172301 0)
(-0.0853655 0.120982 0)
(-0.110023 0.0706671 0)
(-0.114837 0.0163003 0)
(-0.099233 -0.0424861 0)
(-0.0736663 -0.0964583 0)
(-0.0460031 -0.133844 0)
(-0.0183625 -0.154141 0)
(0.00761345 -0.157331 0)
(0.0287416 -0.143967 0)
(0.0464801 -0.117107 0)
(0.061446 -0.081845 0)
(0.0740757 -0.0440891 0)
(0.0846259 -0.00919407 0)
(0.0918327 0.0191478 0)
(0.103 0.0492259 0)
(0.0995963 0.0909032 0)
(0.151594 0.0855836 0)
(0.144615 -0.000650374 0)
(0.125183 -0.0420464 0)
(0.113673 -0.0559229 0)
(0.104575 -0.0561002 0)
(0.0942767 -0.0479766 0)
(0.0923041 -0.0277745 0)
(0.104511 -0.0169725 0)
(0.113125 -0.0110932 0)
(0.115804 -0.00745935 0)
(0.114791 -0.00454963 0)
(0.11122 -0.0017778 0)
(0.104696 0.00126188 0)
(0.0938359 0.00520197 0)
(0.0754297 0.0109909 0)
(0.0579155 0.0338241 0)
(0.0432638 0.054674 0)
(0.065553 0.0742181 0)
(-0.142299 0.129716 0)
(0.657641 0.440346 0)
(-0.250443 0.203885 0)
(-0.0422551 0.136131 0)
(-0.0562323 0.0772221 0)
(-0.0440045 0.0106347 0)
(-0.0106296 -0.0632527 0)
(0.0171541 -0.123737 0)
(0.0366639 -0.158553 0)
(0.0517302 -0.174953 0)
(0.0622227 -0.174227 0)
(0.0690452 -0.157826 0)
(0.0736714 -0.128532 0)
(0.0771739 -0.0913626 0)
(0.0803629 -0.0522556 0)
(0.0842285 -0.0161286 0)
(0.0891945 0.0145883 0)
(0.0995724 0.0403043 0)
(0.114777 0.0503829 0)
(0.132286 0.0110873 0)
(0.129919 -0.0247844 0)
(0.118962 -0.0412024 0)
(0.105326 -0.0465317 0)
(0.0918651 -0.044627 0)
(0.0799964 -0.0356764 0)
(0.0746964 -0.0179213 0)
(0.0760315 -0.00696735 0)
(0.0777141 -0.00175646 0)
(0.0778919 0.00143199 0)
(0.0770455 0.00446948 0)
(0.075482 0.00803354 0)
(0.0726999 0.0126846 0)
(0.0680926 0.0191804 0)
(0.0608133 0.028621 0)
(0.0526338 0.0459973 0)
(0.0413226 0.0669436 0)
(0.0776666 0.0921513 0)
(-0.0169083 0.135698 0)
(0.056536 0.185837 0)
(-0.104768 0.0923877 0)
(-0.30404 0.00426569 0)
(0.755393 0.488535 0)
(-0.288671 0.222298 0)
(-0.00675829 0.124185 0)
(0.00914626 0.05807 0)
(0.0600512 -0.0232318 0)
(0.0949407 -0.0907673 0)
(0.116355 -0.139726 0)
(0.125327 -0.168684 0)
(0.125112 -0.179721 0)
(0.118241 -0.174812 0)
(0.107537 -0.155836 0)
(0.0956103 -0.12542 0)
(0.0844974 -0.0882826 0)
(0.075613 -0.0503043 0)
(0.0702341 -0.0164342 0)
(0.0688642 0.010475 0)
(0.0742345 0.0284471 0)
(0.0860284 0.0303492 0)
(0.0950499 0.00938107 0)
(0.0936536 -0.0113848 0)
(0.0842373 -0.0252821 0)
(0.0714626 -0.0316062 0)
(0.0585893 -0.0313711 0)
(0.0475067 -0.0253783 0)
(0.0407859 -0.0149408 0)
(0.0388605 -0.00746363 0)
(0.0391214 -0.0034533 0)
(0.0401163 -0.000625639 0)
(0.0418136 0.00258222 0)
(0.0435822 0.00683736 0)
(0.045143 0.0127251 0)
(0.0464216 0.0209408 0)
(0.0473132 0.0321887 0)
(0.049027 0.0479241 0)
(0.0481038 0.0673041 0)
(0.0801434 0.0935926 0)
(0.0614732 0.113803 0)
(0.107404 0.117668 0)
(0.129908 0.0628312 0)
(-0.156872 -0.0438704 0)
(0.832301 0.531943 0)
(-0.304792 0.196478 0)
(0.0516933 0.0287108 0)
(0.131051 -0.0315433 0)
(0.18657 -0.0798894 0)
(0.21508 -0.121298 0)
(0.223964 -0.151016 0)
(0.215912 -0.16566 0)
(0.194811 -0.166526 0)
(0.16558 -0.155665 0)
(0.133189 -0.134601 0)
(0.101607 -0.104785 0)
(0.0739374 -0.0700483 0)
(0.0520404 -0.0359754 0)
(0.0372617 -0.00745516 0)
(0.0301382 0.0123925 0)
(0.0325282 0.0226591 0)
(0.0402333 0.0218587 0)
(0.0452823 0.00920814 0)
(0.043799 -0.00500947 0)
(0.0364413 -0.0153515 0)
(0.0260143 -0.0203171 0)
(0.0151859 -0.0204779 0)
(0.00591005 -0.0168755 0)
(0.000144028 -0.0111084 0)
(-0.00160851 -0.00683889 0)
(-0.000811834 -0.0045718 0)
(0.0014875 -0.00293617 0)
(0.00517255 -0.000648104 0)
(0.0104699 0.00329534 0)
(0.016037 0.00908707 0)
(0.0224678 0.0169946 0)
(0.0298592 0.0274949 0)
(0.0393158 0.040919 0)
(0.0479168 0.0562329 0)
(0.0740459 0.0770152 0)
(0.0884356 0.0854476 0)
(0.130059 0.0729286 0)
(0.182438 0.0516374 0)
(-0.0112458 0.100071 0)
(0.951192 0.517571 0)
(-0.0114864 0.162284 0)
(0.20533 -0.0699321 0)
(0.330155 -0.127863 0)
(0.365673 -0.141324 0)
(0.361278 -0.147129 0)
(0.336521 -0.147756 0)
(0.295873 -0.141331 0)
(0.243307 -0.128954 0)
(0.185175 -0.112092 0)
(0.127927 -0.0910989 0)
(0.0761259 -0.0652518 0)
(0.0340561 -0.0367246 0)
(0.0032558 -0.010793 0)
(-0.0153798 0.00706178 0)
(-0.0196824 0.0156434 0)
(-0.0173284 0.0188967 0)
(-0.0119592 0.0165649 0)
(-0.00891213 0.0084346 0)
(-0.0105325 -0.000665931 0)
(-0.0160519 -0.00739387 0)
(-0.0240369 -0.0107917 0)
(-0.0321546 -0.011359 0)
(-0.0387454 -0.0100255 0)
(-0.0426113 -0.00799724 0)
(-0.0437009 -0.0067243 0)
(-0.0429175 -0.00638393 0)
(-0.0409562 -0.00640304 0)
(-0.0379636 -0.00611403 0)
(-0.0335845 -0.00479436 0)
(-0.026385 -0.00170433 0)
(-0.0175038 0.00314476 0)
(-0.00791615 0.00945194 0)
(0.00508051 0.0173547 0)
(0.0169572 0.0251569 0)
(0.0371832 0.0358231 0)
(0.0546795 0.0326985 0)
(0.0831521 0.0112546 0)
(0.159603 0.0572845 0)
(-0.515668 0.239559 0)
(1.11233 0.432589 0)
(0.520284 0.267513 0)
(0.530016 0.14559 0)
(0.575333 0.0474492 0)
(0.552682 -0.0144126 0)
(0.486211 -0.0488953 0)
(0.404411 -0.0638818 0)
(0.315828 -0.0643468 0)
(0.224854 -0.0554725 0)
(0.137838 -0.041295 0)
(0.0603541 -0.0249088 0)
(-0.00423506 -0.00817083 0)
(-0.044284 0.00396267 0)
(-0.0636958 0.0106154 0)
(-0.0705411 0.0137419 0)
(-0.0709377 0.014937 0)
(-0.0680413 0.0147082 0)
(-0.0642433 0.0123229 0)
(-0.0624169 0.00766106 0)
(-0.0638501 0.00261043 0)
(-0.0675784 -0.00130445 0)
(-0.0730811 -0.00363702 0)
(-0.0787497 -0.00470882 0)
(-0.083445 -0.00498764 0)
(-0.0866612 -0.00500086 0)
(-0.088692 -0.00523486 0)
(-0.0903144 -0.00564412 0)
(-0.092281 -0.00585757 0)
(-0.0952649 -0.00535634 0)
(-0.100058 -0.003428 0)
(-0.107582 0.000788057 0)
(-0.116942 0.00817844 0)
(-0.129393 0.0195305 0)
(-0.148491 0.0357226 0)
(-0.178614 0.0565063 0)
(-0.222288 0.0792159 0)
(-0.282686 0.0971625 0)
(-0.349783 0.105273 0)
(-0.433099 0.102428 0)
(-0.730566 0.0862763 0)
(0.133101 -0.396827 0)
(0.200199 -0.21896 0)
(0.193248 -0.123082 0)
(0.122714 -0.0566816 0)
(0.0500899 -0.00976619 0)
(-0.0114291 0.0182583 0)
(-0.0544091 0.0269851 0)
(-0.083607 0.0274948 0)
(-0.102967 0.0248633 0)
(-0.115605 0.0209668 0)
(-0.121664 0.0164746 0)
(-0.123309 0.0129063 0)
(-0.122184 0.0105009 0)
(-0.119372 0.00867147 0)
(-0.115701 0.00685641 0)
(-0.112213 0.0042661 0)
(-0.110201 0.000512026 0)
(-0.110312 -0.0038905 0)
(-0.11226 -0.00823763 0)
(-0.115305 -0.0120791 0)
(-0.118919 -0.0152948 0)
(-0.122542 -0.0176399 0)
(-0.125941 -0.0192109 0)
(-0.12941 -0.0199983 0)
(-0.133301 -0.0196972 0)
(-0.137662 -0.0177758 0)
(-0.142171 -0.0135682 0)
(-0.146327 -0.00688632 0)
(-0.149657 0.0023731 0)
(-0.152682 0.0146736 0)
(-0.155327 0.0309847 0)
(-0.158118 0.0522214 0)
(-0.162484 0.0778223 0)
(-0.169306 0.103021 0)
(-0.174759 0.114839 0)
(-0.161027 0.0875882 0)
(-0.11909 -0.0281981 0)
(-0.293411 -0.254098 0)
(-0.160558 0.26947 0)
(-0.198267 0.115521 0)
(-0.211764 0.0720288 0)
(-0.213094 0.0602167 0)
(-0.210647 0.0595 0)
(-0.207187 0.0585291 0)
(-0.203057 0.0547731 0)
(-0.198101 0.0513421 0)
(-0.192067 0.0487976 0)
(-0.185259 0.04611 0)
(-0.178451 0.0431538 0)
(-0.172418 0.0411322 0)
(-0.167162 0.0406593 0)
(-0.162425 0.0416487 0)
(-0.158031 0.0438555 0)
(-0.154083 0.0470131 0)
(-0.150879 0.0509477 0)
(-0.148562 0.0555487 0)
(-0.147004 0.0604737 0)
(-0.145971 0.0650638 0)
(-0.145317 0.0685123 0)
(-0.14485 0.0703567 0)
(-0.144502 0.0715163 0)
(-0.144301 0.0719933 0)
(-0.144273 0.0713941 0)
(-0.144398 0.0692346 0)
(-0.144507 0.0648406 0)
(-0.144166 0.0596943 0)
(-0.142583 0.0554728 0)
(-0.13842 0.0537973 0)
(-0.129766 0.0565327 0)
(-0.115023 0.0657963 0)
(-0.0943614 0.0826933 0)
(-0.0693858 0.103575 0)
(-0.0424279 0.118989 0)
(-0.00186847 0.107794 0)
(0.146979 0.0232298 0)
(-0.201555 -0.172024 0)
(-0.299766 -0.426401 0)
(-0.531344 -0.150692 0)
(-0.459847 0.0445206 0)
(-0.410895 -0.0537562 0)
(-0.386644 -0.0560961 0)
(-0.37045 -0.0462035 0)
(-0.347169 -0.0411628 0)
(-0.319123 -0.0441486 0)
(-0.29132 -0.0528726 0)
(-0.266601 -0.062793 0)
(-0.245564 -0.0720052 0)
(-0.228119 -0.0805703 0)
(-0.214118 -0.0886502 0)
(-0.203016 -0.0959481 0)
(-0.193902 -0.102644 0)
(-0.185988 -0.10957 0)
(-0.178847 -0.117739 0)
(-0.172437 -0.127908 0)
(-0.16695 -0.140136 0)
(-0.16256 -0.153569 0)
(-0.159284 -0.166779 0)
(-0.157032 -0.178288 0)
(-0.155725 -0.186971 0)
(-0.155336 -0.192528 0)
(-0.155646 -0.195602 0)
(-0.15618 -0.196077 0)
(-0.156468 -0.193614 0)
(-0.156107 -0.187646 0)
(-0.154784 -0.177458 0)
(-0.152004 -0.163768 0)
(-0.146578 -0.147265 0)
(-0.13631 -0.128376 0)
(-0.117885 -0.107017 0)
(-0.0881435 -0.0823995 0)
(-0.0469767 -0.0535216 0)
(0.0182727 -0.0170316 0)
(0.0822347 -0.0111319 0)
(0.140647 -0.0400279 0)
(0.197253 -0.101508 0)
(-0.13418 -0.18317 0)
)
;

boundaryField
{
    floor
    {
        type            noSlip;
    }
    ceiling
    {
        type            noSlip;
    }
    sWall
    {
        type            noSlip;
    }
    nWall
    {
        type            noSlip;
    }
    sideWalls
    {
        type            empty;
    }
    glass1
    {
        type            noSlip;
    }
    glass2
    {
        type            noSlip;
    }
    sun
    {
        type            noSlip;
    }
    Table_master
    {
        type            noSlip;
    }
    Table_slave
    {
        type            noSlip;
    }
    inlet
    {
        type            fixedValue;
        value           uniform (0.306147 -0.739104 0);
    }
    outlet
    {
        type            zeroGradient;
    }
}


// ************************************************************************* //
