/*--------------------------------*- C++ -*----------------------------------*\
  =========                 |
  \\      /  F ield         | OpenFOAM: The Open Source CFD Toolbox
   \\    /   O peration     | Website:  https://openfoam.org
    \\  /    A nd           | Version:  6
     \\/     M anipulation  |
\*---------------------------------------------------------------------------*/
FoamFile
{
    version     2.0;
    format      ascii;
    class       volScalarField;
    location    "1100";
    object      epsilon;
}
// * * * * * * * * * * * * * * * * * * * * * * * * * * * * * * * * * * * * * //

dimensions      [0 2 -3 0 0 0 0];

internalField   nonuniform List<scalar> 
458
(
0.000116232
0.000123806
8.32595e-05
8.71978e-05
9.29572e-05
9.87532e-05
0.000104748
0.000111357
0.000117883
0.000123897
0.000129248
0.000133846
0.000137988
0.000142494
0.00014665
9.24887e-06
1.35577e-05
1.41444e-05
6.72144e-06
3.28527e-06
2.39713e-06
2.14092e-06
1.90088e-06
1.98558e-06
2.1718e-06
2.62218e-06
3.5448e-06
4.44351e-06
5.76511e-06
8.50917e-06
1.11883e-05
1.31756e-05
1.07717e-05
0.000656822
0.00145737
0.000143367
6.83119e-05
6.4154e-05
6.56492e-05
6.82493e-05
7.17612e-05
7.59233e-05
8.06031e-05
8.61652e-05
9.3152e-05
0.000102322
0.000115047
0.00013758
0.000194892
0.000169464
6.19275e-05
3.66897e-05
3.81311e-05
2.93511e-05
2.09128e-05
1.39937e-05
7.93531e-06
4.25538e-06
3.03919e-06
3.3051e-06
4.34572e-06
6.48435e-06
9.98649e-06
1.58214e-05
2.42866e-05
2.94039e-05
3.15268e-05
3.69024e-05
2.45185e-05
0.0018529
0.00528209
0.000528608
0.000125906
9.23022e-05
8.90802e-05
8.98853e-05
9.1885e-05
9.46857e-05
9.75772e-05
0.000100856
0.000105002
0.000110557
0.000118012
0.000128496
0.000146036
0.000175091
0.000237207
0.000130651
0.000102994
6.64568e-05
5.65675e-05
4.95594e-05
2.63771e-05
1.22446e-05
5.56746e-06
6.29097e-06
9.58359e-06
1.4046e-05
2.07886e-05
3.2208e-05
5.63418e-05
5.10252e-05
5.21176e-05
6.50445e-05
3.39729e-05
0.00391569
0.0119906
0.00175103
0.000360574
0.000199551
0.000167133
0.000153695
0.000145778
0.000141601
0.000138421
0.000136054
0.000134978
0.000135774
0.000138687
0.00014388
0.000153772
0.000175638
0.000223074
0.000313792
0.000113474
6.92263e-05
5.99384e-05
5.99312e-05
6.85378e-05
9.35489e-05
8.9261e-05
8.76441e-05
8.76419e-05
8.95984e-05
9.43578e-05
0.000103146
0.000118143
0.000146535
0.000105021
0.00010801
0.000136655
0.000168323
0.00683078
0.0204724
0.00461355
0.00124583
0.0006206
0.000434497
0.000342115
0.000283827
0.00024607
0.000220981
0.000202354
0.000188786
0.000179938
0.000175049
0.000172292
0.000169955
0.000166152
0.000156474
0.00013279
9.33035e-05
7.36798e-05
6.4678e-05
6.13003e-05
6.08861e-05
6.17574e-05
6.2076e-05
6.41906e-05
6.87306e-05
7.65082e-05
8.86589e-05
0.000106493
0.000131234
0.000163705
0.000197065
0.000248472
0.000280206
0.000319606
0.000540538
0.000415613
0.000297424
0.0104114
0.0275184
0.00990058
0.00391182
0.00211068
0.0013425
0.000919068
0.000661867
0.000494345
0.000393599
0.000326401
0.00027982
0.000248057
0.000227753
0.00021533
0.000207534
0.000198895
0.000182578
0.000155841
0.000126789
0.00010548
9.21565e-05
8.471e-05
8.06991e-05
7.85804e-05
7.8217e-05
8.06418e-05
8.69204e-05
9.8631e-05
0.000117929
0.000147244
0.00018891
0.000245013
0.000317673
0.000414704
0.000543061
0.000648189
0.000633727
0.000431866
0.000382358
0.013809
0.0286336
0.0172178
0.0104118
0.00628863
0.00385496
0.00245143
0.00162173
0.0011125
0.000782647
0.000570067
0.000438987
0.000353691
0.000298823
0.000265177
0.000247545
0.000235555
0.000219936
0.000196791
0.000170955
0.000148677
0.000132298
0.000121322
0.000114136
0.000109579
0.000107755
0.000109679
0.000117009
0.000132352
0.000159025
0.000199847
0.000256488
0.000330132
0.000421357
0.000527686
0.000633031
0.000694376
0.000657629
0.000419095
0.000362019
0.0134783
0.0268235
0.0251927
0.0191815
0.0128839
0.00816979
0.00514263
0.00326584
0.0021136
0.00140764
0.00096877
0.000685757
0.000505573
0.000392616
0.000324148
0.000285777
0.000265669
0.000252011
0.000235947
0.000216996
0.000198862
0.000183685
0.000171967
0.000163183
0.000156876
0.000153451
0.000154202
0.00016156
0.000179843
0.000214947
0.000269
0.000334921
0.000400423
0.000456762
0.000505447
0.00055854
0.000615113
0.000675684
0.000719042
0.000562189
0.01155
0.0162827
0.0636571
0.0452203
0.0259311
0.0148044
0.00855371
0.00504979
0.00307768
0.00194926
0.00128654
0.000885797
0.000635666
0.000476945
0.000378564
0.000321764
0.000292919
0.000280299
0.000273808
0.000267731
0.00026075
0.000253255
0.000245717
0.000238521
0.000232084
0.000227118
0.000224722
0.000226764
0.000236692
0.000262733
0.000307482
0.00037718
0.000476354
0.000608328
0.000764784
0.000898735
0.00103185
0.00124761
0.00165281
0.00110597
0.162746
0.133724
0.0281992
0.0124772
0.00693512
0.00420616
0.00267616
0.00176979
0.00121671
0.000872299
0.000654935
0.000517676
0.000432606
0.000383056
0.000359589
0.000355552
0.000362361
0.000373103
0.000383274
0.000390281
0.000392914
0.000391826
0.00038834
0.000383742
0.000378959
0.000374397
0.000369161
0.000369047
0.000375474
0.000395766
0.000434589
0.000491951
0.000562238
0.000637815
0.000679261
0.000654877
0.00100311
0.00117509
0.0970226
0.0430729
0.0115873
0.00570751
0.00382665
0.00267249
0.00191203
0.00141734
0.00110197
0.000907087
0.000792633
0.00073194
0.00070759
0.000707992
0.000724299
0.000748694
0.00077614
0.000802375
0.000824607
0.000840292
0.000847288
0.000847098
0.00084212
0.000833921
0.000822161
0.000804062
0.000771228
0.000712538
0.000640048
0.000574337
0.000530521
0.000510725
0.000508263
0.000514097
0.000509751
0.000504767
0.00106793
0.00103891
0.00344072
0.0135304
0.0365569
0.0104278
0.0035672
0.00295383
0.0026227
0.00204209
0.00155877
0.00122689
0.000993019
0.000830737
0.000719974
0.00064643
0.000599891
0.000572943
0.000560171
0.000557253
0.000559941
0.000564751
0.000569026
0.000572059
0.000573844
0.000572691
0.000568742
0.000563016
0.000556626
0.000550238
0.000547648
0.000550712
0.00055496
0.00055783
0.00055695
0.000548421
0.000525077
0.000483227
0.000441963
0.000391816
0.000407362
0.000405249
)
;

boundaryField
{
    floor
    {
        Cmu             0.09;
        kappa           0.41;
        E               9.8;
        type            epsilonWallFunction;
        value           nonuniform List<scalar> 
36
(
0.00014665
9.24887e-06
1.35577e-05
1.41444e-05
6.72144e-06
3.28527e-06
2.39713e-06
2.14092e-06
1.90088e-06
1.98558e-06
2.1718e-06
2.62218e-06
3.5448e-06
4.44351e-06
5.76511e-06
8.50917e-06
1.11883e-05
1.31756e-05
1.07717e-05
1.07717e-05
2.45185e-05
3.39729e-05
0.000168323
0.000540538
0.000415613
0.000297424
0.00014665
0.000194892
0.000169464
6.19275e-05
9.24887e-06
6.19275e-05
3.66897e-05
0.000237207
0.000130651
0.000313792
)
;
    }
    ceiling
    {
        Cmu             0.09;
        kappa           0.41;
        E               9.8;
        type            epsilonWallFunction;
        value           nonuniform List<scalar> 
43
(
0.00344072
0.0135304
0.0365569
0.0104278
0.0035672
0.00295383
0.0026227
0.00204209
0.00155877
0.00122689
0.000993019
0.000830737
0.000719974
0.00064643
0.000599891
0.000572943
0.000560171
0.000557253
0.000559941
0.000564751
0.000569026
0.000572059
0.000573844
0.000572691
0.000568742
0.000563016
0.000556626
0.000550238
0.000547648
0.000550712
0.00055496
0.00055783
0.00055695
0.000548421
0.000525077
0.000483227
0.000441963
0.000391816
0.000407362
0.000405249
0.01155
0.0162827
0.0970226
)
;
    }
    sWall
    {
        Cmu             0.09;
        kappa           0.41;
        E               9.8;
        type            epsilonWallFunction;
        value           uniform 0.00344072;
    }
    nWall
    {
        Cmu             0.09;
        kappa           0.41;
        E               9.8;
        type            epsilonWallFunction;
        value           nonuniform List<scalar> 6(0.000297424 0.000382358 0.000362019 0.00117509 0.00103891 0.000405249);
    }
    sideWalls
    {
        type            empty;
    }
    glass1
    {
        Cmu             0.09;
        kappa           0.41;
        E               9.8;
        type            epsilonWallFunction;
        value           nonuniform List<scalar> 9(0.000116232 0.000656822 0.0018529 0.00391569 0.00683078 0.0104114 0.013809 0.0134783 0.01155);
    }
    glass2
    {
        Cmu             0.09;
        kappa           0.41;
        E               9.8;
        type            epsilonWallFunction;
        value           nonuniform List<scalar> 2(0.000562189 0.00110597);
    }
    sun
    {
        Cmu             0.09;
        kappa           0.41;
        E               9.8;
        type            epsilonWallFunction;
        value           nonuniform List<scalar> 
14
(
0.000116232
0.000123806
8.32595e-05
8.71978e-05
9.29572e-05
9.87532e-05
0.000104748
0.000111357
0.000117883
0.000123897
0.000129248
0.000133846
0.000137988
0.000142494
)
;
    }
    Table_master
    {
        Cmu             0.09;
        kappa           0.41;
        E               9.8;
        type            epsilonWallFunction;
        value           nonuniform List<scalar> 9(2.63771e-05 1.22446e-05 5.56746e-06 6.29097e-06 9.58359e-06 1.4046e-05 2.07886e-05 3.2208e-05 5.63418e-05);
    }
    Table_slave
    {
        Cmu             0.09;
        kappa           0.41;
        E               9.8;
        type            epsilonWallFunction;
        value           nonuniform List<scalar> 9(9.35489e-05 8.9261e-05 8.76441e-05 8.76419e-05 8.95984e-05 9.43578e-05 0.000103146 0.000118143 0.000146535);
    }
    inlet
    {
        type            turbulentMixingLengthDissipationRateInlet;
        mixingLength    0.01;
        phi             phi;
        k               k;
        value           uniform 0.000101881;
    }
    outlet
    {
        type            zeroGradient;
    }
}


// ************************************************************************* //
