/*--------------------------------*- C++ -*----------------------------------*=========                 |
  \      /  F ield         | OpenFOAM: The Open Source CFD Toolbox
   \    /   O peration     | Website:  https://openfoam.org
    \  /    A nd           | Version:  6
     \/     M anipulation  |
\*---------------------------------------------------------------------------*/
FoamFile
{
    version     2.0;
    format      ascii;
    class       volScalarField;
    location    "1100";
    object      PPD;
}
// * * * * * * * * * * * * * * * * * * * * * * * * * * * * * * * * * * * * * //

dimensions      [0 0 0 0 0 0 0];

internalField   nonuniform List<scalar> 
458
(
84.19045184506705
77.79248794772029
78.2119421075338
78.11034976927462
78.03148538950094
77.9821961437916
77.9855953795549
78.0426802800387
78.15636556078624
78.29371396574895
78.5072111903805
78.86341888468023
79.42464235762293
79.94180488276402
79.41186005241462
65.68254765921222
65.73268424180219
65.80785149648479
64.90293106564066
64.11884008616875
63.865006528439146
63.966591076060986
64.27093362317126
64.5746448454943
64.65047179867123
64.7515106854082
64.95336739177061
65.1800980529955
65.557119051197
66.38260413610314
67.27655011434197
68.01591232323298
68.7255136537772
85.40861858353178
78.9460193715438
79.80942092388977
79.61321181051427
79.61770327340358
79.6412695287726
79.6701522665465
79.71942455699157
79.78798132210707
79.8343520852236
79.87144832571181
79.89908606811345
79.92619021475696
79.73512300583909
79.30565166944035
79.77008647686101
80.37500694941994
78.46043891479945
66.2001310035412
68.33464674735274
68.40805485049736
68.57912475543054
68.01591232323298
66.35767214521141
65.23043039371467
65.30589290096097
66.10806361652698
66.50718452431674
66.75594322079763
67.1280562085131
68.35912224623667
70.0325753921978
71.76761560956103
71.72059790671584
70.51170623543662
68.84606354747173
88.0236876062432
80.1819628977406
81.74023272383519
81.3359946343313
81.41542419189699
81.52997201169637
81.63950158476285
81.7341159985642
81.81284478051329
81.82966946947334
81.76563873888828
81.63545299181648
81.32695085768292
80.80264580835926
80.06877564719457
79.46796698638764
78.62670137842088
77.22640296105213
73.66856096187871
73.71425039053632
73.98768793346187
74.73336177114639
74.80068624713847
70.32038650523486
68.38359161737837
66.85529470950131
68.53027858639398
70.08061261371677
71.17775414849709
72.11928323041526
73.04854275381003
74.46328511346695
76.08663090166303
73.73708267022876
71.83808567163284
66.54388156755442
90.6093623249258
82.22353289503536
84.15008206843694
83.5786327026891
83.61494496578948
83.75413715719631
83.90208773983196
84.01633173675057
84.1039707289819
84.11772812523378
84.01533864390701
83.78240930450157
83.35421612460506
82.6727865363806
81.77556134221302
80.7057494655232
79.30049643947383
77.59487716610987
76.72004652070926
76.89891377198362
77.43859190507631
78.35650110092263
79.03089772700534
79.43067877921457
79.95484701538982
80.55268437731735
81.08383198888946
81.23946629120682
81.43303817466472
81.6447155532774
81.8931805120245
82.12089039844929
82.15868817519376
81.18118417915903
79.61197529482601
77.83057693888291
77.02017767610299
92.8643204705352
84.97325080937283
87.11226159997001
86.94645881993677
86.85038199412588
86.85316488824677
86.84561245939665
86.81116570148845
86.74931044486745
86.68721658896155
86.52714799027032
86.22129522571908
85.73445101936713
85.04759153510795
84.18084915891737
83.16546473175862
82.02388704290466
80.95201141911235
80.31517505055035
80.0235652227641
80.18318894881766
80.47883084102057
80.74748840289891
80.95774686904473
81.19265116509845
81.5153330228872
81.89822554353063
82.27181700385884
82.49688122281836
82.75743660653511
83.03417724172799
83.29019274982767
83.43549662953886
83.38109228614869
83.07088567805815
82.30943832757545
80.30195187111845
79.34531293801764
78.98258296332719
80.34802678341487
94.68457281066685
88.06950103021731
90.45018820889504
90.16518044656836
89.72706707240452
89.33151645563241
89.02484546099653
88.81248199368957
88.62628709443992
88.52520226086526
88.43809775470534
88.27730224530305
88.01110029197051
87.5903346247524
86.743229241026
85.78396292905624
84.7756826616956
83.84746612815688
83.17015532840017
82.74891004498798
82.55270164234364
82.48337547359546
82.43670516841753
82.41552606348634
82.42788374087598
82.50960571750068
82.66321015487915
82.87779264737125
83.15957857825875
83.45360882566035
83.77769285843505
84.0498566553021
84.28395264736271
84.46722159278472
84.57175709216062
84.60651028101911
84.5992626100208
83.9998416362565
82.15566151632788
80.25414889139896
96.11388065827478
91.4707968653878
93.26303553244867
92.60900471851768
91.89355103832871
91.24932968109717
90.76029088239369
90.4311957916315
90.27359272292571
90.17825780095791
89.88785605163848
89.6595733219441
89.3866627605672
89.02484546099653
88.52520226086526
87.9364762856064
87.2825274164335
86.5908083804631
85.92578370185552
85.34253621694947
84.86569059684082
84.50211272534534
84.18644082972725
83.93835571367404
83.72393394510172
83.58007763810147
83.48979931865509
83.50787760832765
83.65209649167484
83.69712702624454
83.72119395584443
83.693378748874
83.58757774635086
83.47378538564112
83.3445603111231
83.22205977916857
83.1020858594307
83.23024337393053
84.77958539037817
78.69533479459963
97.60420389543036
96.25690196024827
94.62159358820139
93.57034686007749
92.85547298748635
92.24390355992267
91.66403292672518
91.17990087151418
90.8104920438479
90.54282168485857
90.36018059726032
90.22798309785884
90.10672699503583
89.99536301747537
89.7808509416034
89.29003320374484
88.74110453493034
88.12988463636898
87.49783651481795
86.9080510663038
86.38208030273162
85.92578370185552
85.51063413533882
85.13928581244124
84.79682950982735
84.50211272534534
84.25691097145953
84.08039259897815
84.04495181720412
84.16879469652318
84.16043568477501
83.7234148721877
83.21312305130971
82.65417286427966
82.14411365519098
81.69755758114837
81.36840929462403
81.13722080387294
80.54144053717741
78.89060419212501
98.91213444812797
98.34658661245845
93.51051848890694
91.42033854789757
91.19879081471979
91.27736612371442
91.2256879675326
91.08475609417968
90.90945865733175
90.73304699688825
90.56294905393405
90.40693572316097
90.24164483841649
90.08074508042452
89.90004452077771
89.71623934106093
89.4912752045997
89.2567761041456
88.8267220984478
88.3066440620278
87.80140916655289
87.32885967848371
86.86076458440175
86.43042437756887
86.00793818623583
85.59424687092904
85.2072215360619
84.84849263895657
84.58913943848151
84.44975879924787
84.44975879924787
84.55436324486082
84.69319183969026
84.81406209283057
84.95150713084604
84.37647259226684
83.81474440039847
83.48015935648522
82.40307923675627
79.95784754898722
17.926032756031333
78.19287395118485
88.50615135805695
90.1322020136208
90.6506204438278
90.82150486036863
90.82994744030206
90.74154710962809
90.59507796306667
90.44760831428817
90.2787685746184
90.11949357651835
89.9473922084579
89.75182885082485
89.53159099273316
89.28308536605587
89.01511576393398
88.73571078596187
88.45570968654633
88.1609163852572
87.89859362841617
87.61983211023657
87.18954457793868
86.7500176745629
86.30127226883064
85.85984977687905
85.46032684275241
85.10524842045447
84.84849263895657
84.7104936013417
84.65855375808155
84.65855375808155
84.69319183969026
84.72778383993172
84.45435859462152
83.83148037999752
82.074692030322
81.37142700112568
37.17884468705471
73.97999190681621
87.04927483905102
90.30838952892489
91.0848154612012
91.1190078540194
91.00675522890351
90.80862923223518
90.57345689672823
90.3442207246708
90.1317531635121
89.91713336505859
89.70943046368065
89.50574207174853
89.29047045493802
89.04917673932533
88.80642943977766
88.52701166584839
88.22017707118874
87.91447150310458
87.57899467686069
87.25645931843248
86.91394174020176
86.56687628795406
86.21506954598316
85.84040750550255
85.48192493046491
85.16158072501321
84.839142450843
84.48076213566341
84.07349305809146
83.63560021577219
83.22852812807757
82.82094317802849
82.53537625418357
82.409929974054
81.2724151671474
81.34910497764164
75.1328894673059
61.790933286780884
46.64611602328871
77.74265725680914
87.11787848644305
88.78350867756434
89.54648269395051
89.79783276060242
89.73879664500978
89.55196106533555
89.30883960318351
89.04522139059353
88.79969634008756
88.54320372170405
88.306396916987
88.07249925998454
87.84045659346053
87.62514172691688
87.38797398497798
87.1404570135627
86.86081881743905
86.56523075075481
86.25427277593582
85.92236260727267
85.54790180037577
85.16555843637005
84.7564652636584
84.31956302862648
83.87035572259161
83.44843720822027
83.01771445895218
82.63031247804012
82.23910477072332
81.87653126272298
81.55772903037649
81.31121991166651
81.23183817423018
81.44900247078685
80.59695544819951
78.49548961205844
)
;

boundaryField
{
    ".*"
    {
        type            zeroGradient;
    }
}


// ************************************************************************* //
