/*--------------------------------*- C++ -*----------------------------------*\
  =========                 |
  \\      /  F ield         | OpenFOAM: The Open Source CFD Toolbox
   \\    /   O peration     | Website:  https://openfoam.org
    \\  /    A nd           | Version:  6
     \\/     M anipulation  |
\*---------------------------------------------------------------------------*/
FoamFile
{
    version     2.0;
    format      ascii;
    class       volScalarField;
    location    "1400";
    object      k;
}
// * * * * * * * * * * * * * * * * * * * * * * * * * * * * * * * * * * * * * //

dimensions      [0 2 -2 0 0 0 0];

internalField   nonuniform List<scalar> 
458
(
0.000950954
0.0010153
0.000935514
0.0010024
0.00106668
0.00112509
0.00117843
0.00122832
0.00127684
0.00132698
0.00136971
0.00140013
0.00141805
0.00142849
0.00143196
0.000306844
0.000452022
0.000474248
0.000437003
0.000382814
0.000308771
0.00023576
0.000127381
6.70075e-05
7.16598e-05
8.54569e-05
9.49809e-05
9.53704e-05
9.27512e-05
9.92169e-05
0.000138508
0.000184298
0.000159902
0.0025002
0.00479446
0.00141743
0.00139501
0.00144845
0.00151557
0.00158843
0.00166926
0.00175947
0.00185696
0.00195018
0.0020139
0.00201828
0.00192576
0.00172431
0.00157146
0.00143744
0.000708428
0.000485643
0.000915592
0.000806792
0.000706864
0.000607206
0.000447032
0.000304536
0.000221269
0.000196251
0.000200821
0.000214476
0.000217491
0.000199483
0.000170459
0.000172026
0.000301998
0.000639219
0.000353485
0.0045529
0.0110972
0.00209559
0.00176068
0.00179768
0.00188156
0.00197497
0.00207944
0.00219608
0.00232058
0.00244011
0.00251932
0.00252853
0.00245163
0.00230119
0.00211233
0.00186574
0.00162417
0.00100826
0.00154912
0.0010128
0.000761117
0.000588687
0.000355276
0.000263194
0.000217507
0.000193082
0.000177981
0.000166815
0.000156903
0.00014707
0.000139292
0.000246432
0.000684424
0.00161889
0.000447969
0.00723177
0.020988
0.00334046
0.00207295
0.00207384
0.00219068
0.00231971
0.00245818
0.00260886
0.00277057
0.00293311
0.00304766
0.00308165
0.00302426
0.00287573
0.00264128
0.0023434
0.00198578
0.00160332
0.00155285
0.00106171
0.000783156
0.000606579
0.000532929
0.000526142
0.000546913
0.000607059
0.000671666
0.000749108
0.000826953
0.000882506
0.000887926
0.000835895
0.000765318
0.000810645
0.00158059
0.000960946
0.0104939
0.0339546
0.00613967
0.00244558
0.00228901
0.0024216
0.00259288
0.00278472
0.00299974
0.00324008
0.00348423
0.00365533
0.00372097
0.00368431
0.00355444
0.00334891
0.00310362
0.0028116
0.00232889
0.00160252
0.00109519
0.000790489
0.00065362
0.000637964
0.000710182
0.000820293
0.00099169
0.0011697
0.00136366
0.00154871
0.00167913
0.00170884
0.00158884
0.00138531
0.00121115
0.00132742
0.00151217
0.00130569
0.00113705
0.00132849
0.0143471
0.0468707
0.012917
0.00375689
0.00273812
0.00271635
0.00288274
0.00311583
0.00339658
0.00374859
0.00409375
0.0042929
0.00434058
0.00426972
0.00410342
0.00386285
0.00355341
0.00311959
0.00251085
0.00182668
0.00126047
0.000893074
0.000698896
0.000625225
0.000659694
0.000802332
0.00102783
0.00131048
0.00160717
0.00190956
0.00216448
0.00232578
0.0023341
0.00207621
0.00177564
0.00157907
0.00152124
0.00143099
0.00161677
0.00135895
0.018589
0.055352
0.0265525
0.0105299
0.00554974
0.0040256
0.00378662
0.00391317
0.00416791
0.00460297
0.00493003
0.00502436
0.0049481
0.004764
0.00449963
0.00417871
0.00380148
0.00332009
0.00271115
0.00205334
0.00147413
0.00105026
0.000780613
0.000635568
0.000624486
0.000798144
0.00108335
0.00141312
0.00178304
0.00218953
0.00257098
0.00290723
0.00316664
0.00317966
0.00288462
0.00264465
0.00255386
0.00248408
0.00280859
0.00207052
0.0196208
0.0600764
0.0398294
0.0294286
0.019206
0.0122218
0.00869543
0.00716616
0.00660894
0.00642928
0.00619194
0.00588345
0.0055299
0.00514771
0.00474283
0.00431551
0.00386029
0.00335418
0.00278454
0.0021933
0.00165532
0.00121742
0.000893454
0.000681302
0.000614352
0.000817564
0.001173
0.00155519
0.00197188
0.00242132
0.0028947
0.00339917
0.00396436
0.00465641
0.00529454
0.00587812
0.00694484
0.00733879
0.0112478
0.00400641
0.0186475
0.026675
0.0272965
0.0245782
0.0210981
0.0171208
0.0136875
0.0111574
0.00945565
0.00822438
0.0072879
0.00653894
0.00589989
0.00532106
0.00477335
0.00424141
0.00371712
0.00319345
0.00266923
0.00216103
0.00169865
0.0013069
0.000996441
0.000734994
0.000589823
0.000803593
0.00121952
0.00162801
0.00205004
0.00249712
0.00296839
0.00346136
0.00397106
0.0044823
0.00497199
0.00543706
0.00581062
0.0059761
0.00611503
0.00376325
0.0155729
0.0295223
0.0222852
0.0180374
0.0148091
0.0123033
0.0103958
0.00892689
0.00774151
0.00675938
0.00592385
0.00519148
0.00453214
0.003927
0.00336594
0.00284461
0.00236331
0.00192708
0.00154379
0.00122039
0.000957567
0.000728251
0.000511016
0.00069315
0.00112633
0.00151271
0.00188758
0.00227744
0.00268329
0.00309959
0.00352449
0.00395479
0.00437868
0.00466147
0.00471785
0.00446249
0.00401584
0.00255774
0.0132467
0.0273157
0.0209104
0.0170917
0.0142774
0.0120302
0.0101644
0.00863294
0.00737866
0.00629134
0.00535724
0.00455391
0.00385811
0.00325018
0.00271547
0.00224446
0.00183189
0.00147519
0.00117263
0.000921905
0.000716794
0.000535322
0.000373003
0.000479495
0.000803562
0.0011111
0.00142878
0.00178497
0.00219408
0.00266358
0.00318965
0.00374943
0.00431138
0.0047585
0.00496023
0.00498928
0.00420343
0.00263767
0.00829119
0.00977252
0.0111387
0.0126431
0.0110557
0.00976401
0.00814964
0.00693821
0.00591049
0.00503031
0.0042696
0.00367239
0.0031722
0.00273442
0.00234146
0.00198453
0.00165998
0.00136728
0.00110769
0.000883161
0.00069518
0.000543916
0.000427488
0.000340481
0.000277862
0.000313416
0.000424079
0.000545776
0.000687167
0.000850761
0.00103961
0.00126276
0.00154633
0.00191922
0.00233092
0.00278442
0.00304353
0.00292429
0.00248039
0.00210041
)
;

boundaryField
{
    floor
    {
        type            kqRWallFunction;
        value           nonuniform List<scalar> 
36
(
0.00143196
0.000306844
0.000452022
0.000474248
0.000437003
0.000382814
0.000308771
0.00023576
0.000127381
6.70075e-05
7.16598e-05
8.54569e-05
9.49809e-05
9.53704e-05
9.27512e-05
9.92169e-05
0.000138508
0.000184298
0.000159902
0.000159902
0.000353485
0.000447969
0.000960946
0.00130569
0.00113705
0.00132849
0.00143196
0.00157146
0.00143744
0.000708428
0.000306844
0.000708428
0.000485643
0.00162417
0.00100826
0.00160332
)
;
    }
    ceiling
    {
        type            kqRWallFunction;
        value           nonuniform List<scalar> 
43
(
0.00829119
0.00977252
0.0111387
0.0126431
0.0110557
0.00976401
0.00814964
0.00693821
0.00591049
0.00503031
0.0042696
0.00367239
0.0031722
0.00273442
0.00234146
0.00198453
0.00165998
0.00136728
0.00110769
0.000883161
0.00069518
0.000543916
0.000427488
0.000340481
0.000277862
0.000313416
0.000424079
0.000545776
0.000687167
0.000850761
0.00103961
0.00126276
0.00154633
0.00191922
0.00233092
0.00278442
0.00304353
0.00292429
0.00248039
0.00210041
0.0186475
0.026675
0.0132467
)
;
    }
    sWall
    {
        type            kqRWallFunction;
        value           uniform 0.00829119;
    }
    nWall
    {
        type            kqRWallFunction;
        value           nonuniform List<scalar> 6(0.00132849 0.00135895 0.00207052 0.00255774 0.00263767 0.00210041);
    }
    sideWalls
    {
        type            empty;
    }
    glass1
    {
        type            kqRWallFunction;
        value           nonuniform List<scalar> 9(0.000950954 0.0025002 0.0045529 0.00723177 0.0104939 0.0143471 0.018589 0.0196208 0.0186475);
    }
    glass2
    {
        type            kqRWallFunction;
        value           nonuniform List<scalar> 2(0.00400641 0.00376325);
    }
    sun
    {
        type            kqRWallFunction;
        value           nonuniform List<scalar> 
14
(
0.000950954
0.0010153
0.000935514
0.0010024
0.00106668
0.00112509
0.00117843
0.00122832
0.00127684
0.00132698
0.00136971
0.00140013
0.00141805
0.00142849
)
;
    }
    Table_master
    {
        type            kqRWallFunction;
        value           nonuniform List<scalar> 9(0.000355276 0.000263194 0.000217507 0.000193082 0.000177981 0.000166815 0.000156903 0.00014707 0.000139292);
    }
    Table_slave
    {
        type            kqRWallFunction;
        value           nonuniform List<scalar> 9(0.000526142 0.000546913 0.000607059 0.000671666 0.000749108 0.000826953 0.000882506 0.000887926 0.000835895);
    }
    inlet
    {
        type            turbulentIntensityKineticEnergyInlet;
        intensity       0.05;
        value           uniform 0.0003375;
    }
    outlet
    {
        type            zeroGradient;
    }
}


// ************************************************************************* //
