/*--------------------------------*- C++ -*----------------------------------*\
  =========                 |
  \\      /  F ield         | OpenFOAM: The Open Source CFD Toolbox
   \\    /   O peration     | Website:  https://openfoam.org
    \\  /    A nd           | Version:  6
     \\/     M anipulation  |
\*---------------------------------------------------------------------------*/
FoamFile
{
    version     2.0;
    format      ascii;
    class       volScalarField;
    location    "500";
    object      alphat;
}
// * * * * * * * * * * * * * * * * * * * * * * * * * * * * * * * * * * * * * //

dimensions      [1 -1 -1 0 0 0 0];

internalField   nonuniform List<scalar> 
458
(
0.000819562
0.000844471
0.000794914
0.000825036
0.000854781
0.000881759
0.000906331
0.000929264
0.000951513
0.000974364
0.000994892
0.00101126
0.00102366
0.00103392
0.001042
0.000410772
0.000479394
0.000493787
0.000402364
0.000305389
0.000264962
0.000250586
0.000253096
0.00023149
0.000222742
0.000229479
0.000236247
0.000260047
0.000288035
0.000341066
0.00042371
0.000450479
0.000412836
0.00136339
0.0022617
0.00171359
0.00213691
0.00229042
0.00245129
0.00261459
0.00276665
0.00288925
0.00295838
0.00297945
0.00292152
0.00273755
0.00235657
0.00173142
0.00111681
0.00107565
0.000784685
0.000605318
0.00131879
0.0015633
0.00160326
0.00132783
0.00100842
0.000830102
0.000560196
0.00034954
0.00028213
0.000303656
0.000371773
0.000628561
0.00102133
0.00152274
0.00174914
0.00174979
0.000572272
0.0018403
0.00362324
0.00183878
0.00311306
0.0034318
0.00362053
0.00378342
0.00392057
0.00402797
0.0040981
0.00413383
0.00411322
0.00399995
0.00374478
0.0033096
0.0027159
0.00196252
0.0011644
0.000996085
0.00293489
0.00278248
0.00230306
0.00169102
0.000588912
0.000477173
0.000410196
0.0003509
0.000301101
0.000355597
0.000425529
0.000513883
0.00064764
0.00174732
0.00209573
0.00185278
0.000636819
0.00229987
0.00542443
0.00195063
0.00346904
0.00412005
0.00431295
0.00443982
0.00453649
0.00461088
0.00466565
0.00470675
0.00473876
0.00474575
0.00468735
0.00448186
0.00401014
0.0031739
0.00207612
0.00123908
0.00297712
0.00338167
0.00291777
0.00217156
0.00139915
0.000828681
0.000822762
0.000827884
0.0008408
0.000862056
0.000895677
0.000940148
0.000984524
0.00103095
0.0019239
0.00266743
0.0030706
0.00108306
0.00273589
0.0075021
0.00246661
0.00327524
0.00441441
0.00465676
0.00475546
0.00481119
0.00484299
0.00486459
0.00488491
0.004944
0.00505595
0.00521862
0.00540621
0.0055741
0.00567394
0.00563999
0.0054094
0.00527797
0.00497466
0.00460762
0.0042987
0.00406092
0.00388598
0.00382484
0.00379845
0.0038095
0.00386052
0.00395018
0.00407007
0.00420474
0.00433543
0.00447669
0.00453081
0.00433822
0.00337173
0.00154325
0.00143984
0.0012908
0.00315142
0.00947855
0.00373663
0.0028742
0.00421854
0.00468112
0.00485135
0.00492168
0.00492209
0.00487624
0.00480947
0.00481431
0.00490031
0.00507255
0.00532565
0.00563408
0.00593543
0.00610917
0.00605276
0.00582278
0.00554639
0.00533434
0.00520456
0.00510293
0.00498163
0.00484745
0.00473253
0.00466317
0.0046497
0.00468846
0.00476681
0.00487028
0.00499083
0.00512216
0.00530513
0.00549861
0.00545562
0.00528059
0.00399694
0.00146779
0.00355367
0.0109918
0.00623698
0.00322941
0.00313942
0.00385984
0.00445387
0.00481505
0.00496799
0.00487633
0.00468423
0.00459951
0.00459754
0.00467709
0.00484306
0.00509257
0.00538239
0.00560404
0.00565706
0.00555609
0.0054127
0.00534654
0.00537463
0.00542344
0.00541233
0.00532601
0.00520638
0.00509941
0.00502425
0.00497589
0.0049415
0.00491286
0.00489185
0.00488074
0.00487143
0.00480939
0.00456573
0.00421422
0.00390318
0.00148976
0.00366081
0.0114054
0.00850284
0.00599403
0.00423397
0.00360674
0.00388109
0.00438868
0.00476381
0.00466382
0.00446774
0.00432844
0.00425734
0.00424556
0.00428912
0.00439351
0.00455742
0.00473547
0.00484746
0.00486038
0.00482443
0.00485269
0.00500099
0.00523797
0.00547046
0.00561036
0.00563933
0.00560519
0.00554074
0.00543411
0.00525126
0.00495274
0.00454929
0.0040903
0.00363914
0.00323047
0.00283005
0.00247086
0.00214267
0.00154646
0.00356977
0.00432595
0.00472177
0.00475582
0.00443029
0.00401021
0.00372522
0.00361964
0.00362692
0.00366378
0.00369807
0.00372065
0.00373109
0.00373268
0.00373159
0.00373785
0.00376305
0.00380865
0.00385693
0.00388797
0.00391143
0.003973
0.00413103
0.0044308
0.00487217
0.00537153
0.00576861
0.00602709
0.00619599
0.00629272
0.00632624
0.00631709
0.00625042
0.00607978
0.00571439
0.00511784
0.00448723
0.00400027
0.00365687
0.00177138
0.00237663
0.00352794
0.00393417
0.00391787
0.0037823
0.00365119
0.00354985
0.0034698
0.00341129
0.00336229
0.00331301
0.00325723
0.00319312
0.00312341
0.00305473
0.00299513
0.00295038
0.00292313
0.00291803
0.00294861
0.00304172
0.00324146
0.00360472
0.00415976
0.00482316
0.00543365
0.00587706
0.00613984
0.00631606
0.00645645
0.00657904
0.00669173
0.00681567
0.00696781
0.0069476
0.0063242
0.00579122
0.00178038
0.00248733
0.00392356
0.00417237
0.00409331
0.00393148
0.00375353
0.00358609
0.00343464
0.00328333
0.00311772
0.00294959
0.00278588
0.00263063
0.0024864
0.00235533
0.00223979
0.00214255
0.00206655
0.00201524
0.00199377
0.00201159
0.00208736
0.00225623
0.00257035
0.00305973
0.00364827
0.0042314
0.00470667
0.00505742
0.00532527
0.00553554
0.00569176
0.00578506
0.00578343
0.00554455
0.00490272
0.00460712
0.00155929
0.00219632
0.00230375
0.00239934
0.00255487
0.00242776
0.00223194
0.00208292
0.00195103
0.0018322
0.00172332
0.00162482
0.00153649
0.00145407
0.00137509
0.00129815
0.0012226
0.00114839
0.00107601
0.00100635
0.000940561
0.000879788
0.000825
0.000776921
0.000736185
0.00070375
0.000681551
0.000673018
0.000685414
0.000723868
0.00079092
0.000881928
0.000985802
0.00108909
0.00117913
0.00124373
0.00126892
0.00125098
0.00122207
0.00123009
0.00116111
)
;

boundaryField
{
    floor
    {
        type            compressible::alphatWallFunction;
        Prt             0.85;
        value           nonuniform List<scalar> 
36
(
0.000148206
5.53736e-05
6.60341e-05
6.82472e-05
5.40481e-05
3.85192e-05
3.18643e-05
2.94647e-05
2.98833e-05
2.62448e-05
2.47596e-05
2.59117e-05
2.70583e-05
3.10526e-05
3.5688e-05
4.43167e-05
5.74209e-05
6.15865e-05
5.57119e-05
5.57112e-05
8.01847e-05
8.98376e-05
0.000153929
0.000216799
0.000202883
0.000182629
0.000148205
0.000158648
0.000152911
0.000111561
5.53729e-05
0.00011156
8.51221e-05
0.000165246
0.00014173
0.000175542
)
;
    }
    ceiling
    {
        type            compressible::alphatWallFunction;
        Prt             0.85;
        value           nonuniform List<scalar> 
43
(
0.000302648
0.000316465
0.000328705
0.000348545
0.000332384
0.000307293
0.000288038
0.000270871
0.000255295
0.000240925
0.00022784
0.00021603
0.000204943
0.000194251
0.000183769
0.000173408
0.000163159
0.000153089
0.000143324
0.000134028
0.000125373
0.00011751
0.000110558
0.000104626
9.98751e-05
9.6607e-05
9.53452e-05
9.71704e-05
0.000102814
0.000112573
0.000125665
0.000140413
0.000154899
0.000167397
0.000176294
0.00017975
0.00017729
0.000173317
0.000174421
0.000164907
0.000475142
0.000566883
0.000339895
)
;
    }
    sWall
    {
        type            compressible::alphatWallFunction;
        Prt             0.85;
        value           uniform 0.00030152;
    }
    nWall
    {
        type            compressible::alphatWallFunction;
        Prt             0.85;
        value           nonuniform List<scalar> 6(0.0001824 0.000206415 0.000209368 0.000248101 0.000218722 0.000164573);
    }
    sideWalls
    {
        type            empty;
    }
    glass1
    {
        type            compressible::alphatWallFunction;
        Prt             0.85;
        value           nonuniform List<scalar> 9(0.000113363 0.000188081 0.000251006 0.0003101 0.000365101 0.000416725 0.000466066 0.000479239 0.000468365);
    }
    glass2
    {
        type            compressible::alphatWallFunction;
        Prt             0.85;
        value           nonuniform List<scalar> 2(0.000215652 0.000245478);
    }
    sun
    {
        type            compressible::alphatWallFunction;
        Prt             0.85;
        value           nonuniform List<scalar> 
14
(
0.000116622
0.000120189
0.000113044
0.000117393
0.000121669
0.000125532
0.000129039
0.000132301
0.000135458
0.00013869
0.000141587
0.000143892
0.000145634
0.000147074
)
;
    }
    Table_master
    {
        type            compressible::alphatWallFunction;
        Prt             0.85;
        value           nonuniform List<scalar> 9(8.28222e-05 6.58364e-05 5.54165e-05 4.60068e-05 3.79477e-05 4.67768e-05 5.78363e-05 7.1481e-05 9.15981e-05);
    }
    Table_slave
    {
        type            compressible::alphatWallFunction;
        Prt             0.85;
        value           nonuniform List<scalar> 9(0.000118031 0.000117178 0.000117915 0.000119772 0.000122822 0.000127628 0.000133956 0.000140234 0.000146771);
    }
    inlet
    {
        type            fixedValue;
        value           uniform 1.94e-05;
    }
    outlet
    {
        type            zeroGradient;
    }
}


// ************************************************************************* //
