/*--------------------------------*- C++ -*----------------------------------*\
  =========                 |
  \\      /  F ield         | OpenFOAM: The Open Source CFD Toolbox
   \\    /   O peration     | Website:  https://openfoam.org
    \\  /    A nd           | Version:  6
     \\/     M anipulation  |
\*---------------------------------------------------------------------------*/
FoamFile
{
    version     2.0;
    format      ascii;
    class       volScalarField;
    location    "500";
    object      nut;
}
// * * * * * * * * * * * * * * * * * * * * * * * * * * * * * * * * * * * * * //

dimensions      [0 2 -1 0 0 0 0];

internalField   nonuniform List<scalar> 
458
(
0.000706227
0.000726927
0.000684256
0.000710196
0.000735812
0.000759045
0.000780206
0.000799955
0.000819115
0.000838792
0.000856468
0.000870559
0.000881227
0.000890044
0.000896983
0.00035287
0.00041181
0.000424169
0.000345551
0.000262184
0.000227446
0.000215098
0.000217257
0.000198711
0.00019121
0.000197003
0.000202816
0.00022325
0.000247284
0.000292839
0.000363845
0.000386852
0.000354547
0.00117574
0.0019472
0.00147519
0.00183967
0.00197188
0.00211045
0.00225109
0.00238207
0.00248766
0.00254721
0.00256535
0.00251544
0.00235697
0.00202884
0.00149051
0.000961341
0.000925844
0.00067534
0.00052016
0.0011333
0.00134351
0.00137797
0.00114101
0.000866246
0.000712882
0.000480988
0.000300103
0.000242229
0.000260749
0.00031925
0.000539769
0.000877272
0.00130846
0.00150292
0.00150318
0.000491538
0.00158816
0.00312006
0.00158315
0.0026804
0.00295501
0.00311768
0.0032581
0.00337636
0.00346895
0.00352943
0.00356022
0.0035424
0.00344468
0.00322466
0.00284959
0.0023381
0.00168929
0.00100219
0.000856616
0.00252402
0.0023932
0.00198104
0.00145456
0.000506132
0.000409966
0.000352362
0.000301373
0.000258571
0.000305473
0.000365629
0.000441624
0.000556691
0.00150254
0.00180123
0.00159193
0.000547045
0.00198608
0.00467225
0.00167966
0.00298729
0.00354819
0.00371462
0.00382419
0.00390772
0.00397203
0.00401936
0.00405485
0.00408236
0.00408816
0.00403746
0.00385993
0.00345308
0.00273245
0.00178695
0.00106631
0.00256165
0.00290995
0.00251091
0.00186883
0.00120412
0.00071318
0.000708088
0.000712505
0.000723633
0.000741944
0.000770904
0.000809205
0.000847418
0.000887382
0.00165578
0.00229502
0.00264094
0.00093129
0.00236407
0.00646361
0.00212424
0.00282071
0.00380218
0.00401135
0.00409681
0.00414523
0.00417299
0.00419188
0.00420954
0.00426046
0.00435675
0.00449653
0.00465757
0.00480146
0.00488661
0.00485652
0.00465727
0.00454362
0.0042823
0.00396624
0.00370026
0.00349551
0.0033449
0.00329228
0.0032696
0.00327919
0.00332321
0.00340051
0.00350383
0.00361986
0.0037324
0.00385389
0.00390007
0.00373345
0.00290093
0.00132786
0.00123892
0.00111075
0.00272458
0.0081691
0.00321854
0.00247557
0.00363382
0.00403276
0.00417992
0.00424103
0.00424187
0.00420277
0.00414549
0.00414975
0.00422376
0.00437191
0.00458954
0.00485466
0.0051135
0.0052623
0.00521292
0.00501422
0.00477575
0.00459283
0.00448082
0.00439312
0.00428855
0.00417298
0.00407409
0.00401448
0.00400304
0.00403657
0.00410419
0.0041934
0.00429727
0.00441037
0.00456785
0.00473429
0.00469709
0.00454615
0.00344045
0.00126326
0.00307364
0.00947805
0.00537452
0.0027821
0.00270458
0.00332553
0.00383776
0.00414948
0.0042818
0.00420335
0.00403817
0.00396531
0.00396356
0.00403191
0.0041746
0.00438916
0.00463833
0.00482863
0.0048736
0.00478595
0.00466187
0.0046044
0.00462815
0.00466981
0.00465995
0.00458545
0.00448241
0.00439041
0.00432588
0.00428445
0.00425503
0.00423052
0.00421254
0.00420306
0.00419509
0.00414169
0.00393184
0.003629
0.00336019
0.00128231
0.00316858
0.0098483
0.00733667
0.00516865
0.00364957
0.00310849
0.00334497
0.0037827
0.00410642
0.00402078
0.00385208
0.00373209
0.00367071
0.00366036
0.00369762
0.00378726
0.00392814
0.00408113
0.00417713
0.00418772
0.00415624
0.00418009
0.00430733
0.00451096
0.00471073
0.00483084
0.00485557
0.00482615
0.0047708
0.00467922
0.00452202
0.00426515
0.00391787
0.0035227
0.00313422
0.0027823
0.00243747
0.00212812
0.00184546
0.00133196
0.00309279
0.00374415
0.00408382
0.0041099
0.00382585
0.00346127
0.00321418
0.00312244
0.00312838
0.00315994
0.00318926
0.00320848
0.00321722
0.00321833
0.00321712
0.00322223
0.00324368
0.0032827
0.00332401
0.00335045
0.00337034
0.00342305
0.00355881
0.00381663
0.00419633
0.00462592
0.00496745
0.00518975
0.00533509
0.00541845
0.0054475
0.00543985
0.00538266
0.00523593
0.00492147
0.0044079
0.00386494
0.00344566
0.00315003
0.00152616
0.00203695
0.00303493
0.00338994
0.00337781
0.00326151
0.00314859
0.00306117
0.00299207
0.00294149
0.00289908
0.0028564
0.00280812
0.00275266
0.00269238
0.00263301
0.00258148
0.00254275
0.00251911
0.00251456
0.00254073
0.00262076
0.00279262
0.00310527
0.00358303
0.00415401
0.00467938
0.00506091
0.00528701
0.00543871
0.00555967
0.00566536
0.00576256
0.00586942
0.00600053
0.0059831
0.00544611
0.00498703
0.00153323
0.00213244
0.00337489
0.00359294
0.00352679
0.00338824
0.00323525
0.00309106
0.00296054
0.0028301
0.0026873
0.00254233
0.00240115
0.00226728
0.0021429
0.00202987
0.00193024
0.00184637
0.00178082
0.00173654
0.00171797
0.00173325
0.00179845
0.00194382
0.0022143
0.00263566
0.00314235
0.00364431
0.00405335
0.00435521
0.00458575
0.00476678
0.00490131
0.00498167
0.00498027
0.00477452
0.00422177
0.00396719
0.00134282
0.00188656
0.00197857
0.00206066
0.00219829
0.00209053
0.00192268
0.00179458
0.00168107
0.00157874
0.00148494
0.00140007
0.00132396
0.00125295
0.00118489
0.00111859
0.00105348
0.000989528
0.000927151
0.000867117
0.000810414
0.000758035
0.000710813
0.000669372
0.000634257
0.000606294
0.000587149
0.000579775
0.000590427
0.000623519
0.000681237
0.00075958
0.000849
0.000937915
0.00101543
0.00107103
0.00109272
0.00107725
0.00105234
0.00105923
0.000999939
)
;

boundaryField
{
    floor
    {
        type            nutkWallFunction;
        Cmu             0.09;
        kappa           0.41;
        E               9.8;
        value           nonuniform List<scalar> 
36
(
0.00010853
4.05135e-05
4.83035e-05
4.99202e-05
3.95363e-05
2.81806e-05
2.33145e-05
2.15601e-05
2.18664e-05
1.92067e-05
1.81215e-05
1.89644e-05
1.98028e-05
2.27229e-05
2.61115e-05
3.24191e-05
4.19974e-05
4.50425e-05
4.07523e-05
4.07522e-05
5.86383e-05
6.56967e-05
0.000112609
0.00015866
0.000148485
0.000133678
0.00010853
0.000116168
0.000111962
8.16958e-05
4.05135e-05
8.16958e-05
6.22686e-05
0.000120984
0.000103702
0.0001285
)
;
    }
    ceiling
    {
        type            nutkWallFunction;
        Cmu             0.09;
        kappa           0.41;
        E               9.8;
        value           nonuniform List<scalar> 
43
(
0.00022101
0.000231068
0.000240003
0.000254929
0.000243285
0.000225004
0.000210934
0.000198376
0.000186974
0.000176452
0.000166868
0.000158219
0.000150098
0.000142268
0.00013459
0.000127
0.000119493
0.000112117
0.000104963
9.81534e-05
9.18132e-05
8.60527e-05
8.09596e-05
7.66142e-05
7.3133e-05
7.07377e-05
6.98115e-05
7.11452e-05
7.52742e-05
8.24154e-05
9.19954e-05
0.000102788
0.000113388
0.000122534
0.000129044
0.000131572
0.000129769
0.00012686
0.000127666
0.000120714
0.000349812
0.000416967
0.000247756
)
;
    }
    sWall
    {
        type            nutkWallFunction;
        Cmu             0.09;
        kappa           0.41;
        E               9.8;
        value           uniform 0.000221066;
    }
    nWall
    {
        type            nutkWallFunction;
        Cmu             0.09;
        kappa           0.41;
        E               9.8;
        value           nonuniform List<scalar> 6(0.000133684 0.000151279 0.000153457 0.000181887 0.000160374 0.000120721);
    }
    sideWalls
    {
        type            empty;
    }
    glass1
    {
        type            nutkWallFunction;
        Cmu             0.09;
        kappa           0.41;
        E               9.8;
        value           nonuniform List<scalar> 9(8.54549e-05 0.000141349 0.00018828 0.000232279 0.000273192 0.000311568 0.000348219 0.000358121 0.000350241);
    }
    glass2
    {
        type            nutkWallFunction;
        Cmu             0.09;
        kappa           0.41;
        E               9.8;
        value           nonuniform List<scalar> 2(0.000159182 0.000181159);
    }
    sun
    {
        type            nutkWallFunction;
        Cmu             0.09;
        kappa           0.41;
        E               9.8;
        value           nonuniform List<scalar> 
14
(
8.54894e-05
8.80231e-05
8.27922e-05
8.59764e-05
8.91072e-05
9.19356e-05
9.45029e-05
9.68915e-05
9.92023e-05
0.000101569
0.000103689
0.000105376
0.00010665
0.000107703
)
;
    }
    Table_master
    {
        type            nutkWallFunction;
        Cmu             0.09;
        kappa           0.41;
        E               9.8;
        value           nonuniform List<scalar> 9(6.05039e-05 4.80797e-05 4.04633e-05 3.35867e-05 2.76998e-05 3.41562e-05 4.22412e-05 5.2216e-05 6.69254e-05);
    }
    Table_slave
    {
        type            nutkWallFunction;
        Cmu             0.09;
        kappa           0.41;
        E               9.8;
        value           nonuniform List<scalar> 9(8.63423e-05 8.57183e-05 8.62585e-05 8.76187e-05 8.98517e-05 9.33705e-05 9.80025e-05 0.000102598 0.000107381);
    }
    inlet
    {
        type            calculated;
        value           uniform 0.000100623;
    }
    outlet
    {
        type            calculated;
        value           nonuniform List<scalar> 2(0.00188656 0.00197857);
    }
}


// ************************************************************************* //
