/*--------------------------------*- C++ -*----------------------------------*\
  =========                 |
  \\      /  F ield         | OpenFOAM: The Open Source CFD Toolbox
   \\    /   O peration     | Website:  https://openfoam.org
    \\  /    A nd           | Version:  6
     \\/     M anipulation  |
\*---------------------------------------------------------------------------*/
FoamFile
{
    version     2.0;
    format      ascii;
    class       volScalarField;
    location    "2900";
    object      k;
}
// * * * * * * * * * * * * * * * * * * * * * * * * * * * * * * * * * * * * * //

dimensions      [0 2 -2 0 0 0 0];

internalField   nonuniform List<scalar> 
458
(
0.00230628
0.00277076
0.00288102
0.00317246
0.00345511
0.00372967
0.00400721
0.00429324
0.00450602
0.00461294
0.00458673
0.00441634
0.00411248
0.00371553
0.00328815
0.000427489
0.000666817
0.000849733
0.000835253
0.000773065
0.000673715
0.000578244
0.000498849
0.000434343
0.000381675
0.000338266
0.000302344
0.000272051
0.000245693
0.000221636
0.000197946
0.000178169
0.000143961
0.00428689
0.00808421
0.00472878
0.00505609
0.00555405
0.0061129
0.0067117
0.00731911
0.00787212
0.0082629
0.00839488
0.00821304
0.00769563
0.00685321
0.00568868
0.00372697
0.00208391
0.000999641
0.000510326
0.0012188
0.00145523
0.00149828
0.00141127
0.00118335
0.000964998
0.000790153
0.00065508
0.000550398
0.000468341
0.000402501
0.000348485
0.000304446
0.000273574
0.000254824
0.000370464
0.000227901
0.00639852
0.0147734
0.00597631
0.00582632
0.00632349
0.00697528
0.00771775
0.00849801
0.00919734
0.00968966
0.00989238
0.00977993
0.00935156
0.00864657
0.00781692
0.00677353
0.00521626
0.00271307
0.00207261
0.00211281
0.00208674
0.00198948
0.00181372
0.00138223
0.00105162
0.000818039
0.000652345
0.000532789
0.000444779
0.000378866
0.000329044
0.000291804
0.000262776
0.000254159
0.000496418
0.000294278
0.00882279
0.0239931
0.00769958
0.00620766
0.00658638
0.00733012
0.0082719
0.00925413
0.010034
0.0105333
0.0107314
0.0106422
0.0102645
0.00959431
0.00879982
0.0079207
0.00690153
0.00576464
0.00420686
0.0035264
0.00314749
0.00284909
0.00255968
0.00225377
0.00173048
0.00140087
0.00118737
0.0010375
0.000921166
0.000823494
0.00073775
0.000655481
0.000568693
0.000423112
0.000333558
0.000617431
0.000361053
0.0117045
0.0360642
0.0115961
0.00703732
0.00704595
0.00792039
0.00927257
0.0104114
0.0111057
0.0114763
0.0115892
0.0114545
0.011033
0.0103084
0.00935609
0.00827142
0.00714786
0.00612369
0.00525483
0.00456928
0.00398618
0.00347149
0.00301265
0.00260361
0.00224709
0.00199553
0.00182046
0.00168043
0.00154823
0.00140282
0.00124096
0.00106661
0.000885625
0.000680884
0.000505081
0.000575894
0.000558678
0.000612063
0.000797603
0.000963743
0.0151997
0.0487135
0.0205175
0.0105488
0.00942954
0.0103763
0.0119261
0.0125884
0.0128035
0.0128423
0.0127888
0.0125632
0.0120424
0.0111563
0.00994996
0.00856912
0.00722288
0.00612323
0.00533667
0.00474621
0.00419537
0.00365353
0.00315339
0.00272834
0.00241392
0.00221934
0.00209014
0.00197938
0.00186165
0.00172002
0.0015385
0.0013331
0.00111752
0.00089947
0.000713815
0.000631842
0.000623946
0.000645629
0.00119885
0.00101515
0.0186499
0.056479
0.0343354
0.0215923
0.0182783
0.0177305
0.0168186
0.015917
0.0152287
0.0148032
0.0145182
0.014135
0.0134186
0.0122583
0.0107157
0.00899646
0.00739039
0.00614928
0.00530659
0.00468365
0.00411218
0.00355927
0.00306834
0.00268259
0.00242772
0.00228703
0.00220325
0.00213582
0.00206584
0.00198051
0.0018577
0.00168172
0.00147767
0.00126471
0.00109103
0.000986338
0.000983913
0.00110254
0.00151523
0.00133895
0.0192561
0.0539091
0.0395288
0.032726
0.0282783
0.0241838
0.0210196
0.0189388
0.0177882
0.0172486
0.0169007
0.0163227
0.0152198
0.0135452
0.0114706
0.00929351
0.00737561
0.00597957
0.00505457
0.00436042
0.00376991
0.00325499
0.0028418
0.0025478
0.00236717
0.00226989
0.0022188
0.00219454
0.00219408
0.00222001
0.00227279
0.00231726
0.00230455
0.00228216
0.00233841
0.00264999
0.00336586
0.0044049
0.00860549
0.00333773
0.0181598
0.0250672
0.0237107
0.0211583
0.0194361
0.018745
0.0188566
0.0195028
0.0203017
0.020787
0.0205391
0.0193139
0.017126
0.0143478
0.0114227
0.00870406
0.00659609
0.00531028
0.0044763
0.00385497
0.00335026
0.00294626
0.00264578
0.00243818
0.0023003
0.00220735
0.00214348
0.00210652
0.00210281
0.00213958
0.0022204
0.00234509
0.00252661
0.00278822
0.00315963
0.00363693
0.00413125
0.00450493
0.00471827
0.00314353
0.00606233
0.0181042
0.0251458
0.0287869
0.0307766
0.0311549
0.0298667
0.0271821
0.0235385
0.0193794
0.0149321
0.0112748
0.00848105
0.0064858
0.00517807
0.00435874
0.00381511
0.00342597
0.00313539
0.00291727
0.00274899
0.00260076
0.00245204
0.00229534
0.00213779
0.00199842
0.00190208
0.00187244
0.00192063
0.00204976
0.00225586
0.00254026
0.00289572
0.00327733
0.00357803
0.00367806
0.00356797
0.00244896
0.0073698
0.0249611
0.0285513
0.0279326
0.027251
0.0256662
0.023057
0.0198219
0.0163958
0.0131121
0.0102047
0.0079555
0.00636717
0.00533563
0.00472272
0.00438697
0.00421602
0.00413889
0.00410778
0.00408448
0.00403676
0.00394174
0.00378451
0.00356535
0.00330053
0.00301998
0.00275948
0.00255
0.00241703
0.00237938
0.00244448
0.00261317
0.00286515
0.0031455
0.00335963
0.00361752
0.00419648
0.00261713
0.00595399
0.00700758
0.00781202
0.00960486
0.0096207
0.00961944
0.00939332
0.00878842
0.00788476
0.00680472
0.00567566
0.00461658
0.00371466
0.00302376
0.00253761
0.00221341
0.00200331
0.00186777
0.00177758
0.00171283
0.00166018
0.00161086
0.00155921
0.00150247
0.00144268
0.00138531
0.00133797
0.00130845
0.00130268
0.00132411
0.00137334
0.0014501
0.00155626
0.00169422
0.00186423
0.00206423
0.00218729
0.00210362
0.00189006
0.00171609
)
;

boundaryField
{
    floor
    {
        type            kqRWallFunction;
        value           nonuniform List<scalar> 
36
(
0.00328815
0.000427489
0.000666817
0.000849733
0.000835253
0.000773065
0.000673715
0.000578244
0.000498849
0.000434343
0.000381675
0.000338266
0.000302344
0.000272051
0.000245693
0.000221636
0.000197946
0.000178169
0.000143961
0.000143961
0.000227901
0.000294278
0.000361053
0.000612063
0.000797603
0.000963743
0.00328815
0.00372697
0.00208391
0.000999641
0.000427489
0.000999641
0.000510326
0.00271307
0.00207261
0.00420686
)
;
    }
    ceiling
    {
        type            kqRWallFunction;
        value           nonuniform List<scalar> 
43
(
0.00595399
0.00700758
0.00781202
0.00960486
0.0096207
0.00961944
0.00939332
0.00878842
0.00788476
0.00680472
0.00567566
0.00461658
0.00371466
0.00302376
0.00253761
0.00221341
0.00200331
0.00186777
0.00177758
0.00171283
0.00166018
0.00161086
0.00155921
0.00150247
0.00144268
0.00138531
0.00133797
0.00130845
0.00130268
0.00132411
0.00137334
0.0014501
0.00155626
0.00169422
0.00186423
0.00206423
0.00218729
0.00210362
0.00189006
0.00171609
0.0181598
0.0250672
0.0073698
)
;
    }
    sWall
    {
        type            kqRWallFunction;
        value           uniform 0.00595399;
    }
    nWall
    {
        type            kqRWallFunction;
        value           nonuniform List<scalar> 6(0.000963743 0.00101515 0.00133895 0.00244896 0.00261713 0.00171609);
    }
    sideWalls
    {
        type            empty;
    }
    glass1
    {
        type            kqRWallFunction;
        value           nonuniform List<scalar> 9(0.00230628 0.00428689 0.00639852 0.00882279 0.0117045 0.0151997 0.0186499 0.0192561 0.0181598);
    }
    glass2
    {
        type            kqRWallFunction;
        value           nonuniform List<scalar> 2(0.00333773 0.00314353);
    }
    sun
    {
        type            kqRWallFunction;
        value           nonuniform List<scalar> 
14
(
0.00230628
0.00277076
0.00288102
0.00317246
0.00345511
0.00372967
0.00400721
0.00429324
0.00450602
0.00461294
0.00458673
0.00441634
0.00411248
0.00371553
)
;
    }
    Table_master
    {
        type            kqRWallFunction;
        value           nonuniform List<scalar> 9(0.00138223 0.00105162 0.000818039 0.000652345 0.000532789 0.000444779 0.000378866 0.000329044 0.000291804);
    }
    Table_slave
    {
        type            kqRWallFunction;
        value           nonuniform List<scalar> 9(0.00173048 0.00140087 0.00118737 0.0010375 0.000921166 0.000823494 0.00073775 0.000655481 0.000568693);
    }
    inlet
    {
        type            turbulentIntensityKineticEnergyInlet;
        intensity       0.05;
        value           uniform 0.0003375;
    }
    outlet
    {
        type            zeroGradient;
    }
}


// ************************************************************************* //
