/*--------------------------------*- C++ -*----------------------------------*\
  =========                 |
  \\      /  F ield         | OpenFOAM: The Open Source CFD Toolbox
   \\    /   O peration     | Website:  https://openfoam.org
    \\  /    A nd           | Version:  6
     \\/     M anipulation  |
\*---------------------------------------------------------------------------*/
FoamFile
{
    version     2.0;
    format      ascii;
    class       surfaceScalarField;
    location    "2900";
    object      phi;
}
// * * * * * * * * * * * * * * * * * * * * * * * * * * * * * * * * * * * * * //

dimensions      [1 0 -1 0 0 0 0];

internalField   nonuniform List<scalar> 
850
(
-0.00288519
0.00293895
-0.00391499
0.00102976
-0.00468543
0.000770402
-0.00528611
0.000600636
-0.00569257
0.000406416
-0.00588801
0.000195397
-0.00585688
-3.11843e-05
-0.00558649
-0.000270439
-0.0050867
-0.00049984
-0.00439684
-0.000689911
-0.00357869
-0.000818196
-0.00270018
-0.000878558
-0.00181736
-0.000882868
-0.000941927
-0.00087548
-0.000940952
-0.000595023
0.000596957
-0.000251682
-0.000343357
0.000343425
-0.000595124
0.000810778
-0.00046737
0.00112785
-0.000317092
0.00130227
-0.000174433
0.00138149
-7.92268e-05
0.00142293
-4.14522e-05
0.00144717
-2.426e-05
0.00145932
-1.21569e-05
0.00146161
-2.30658e-06
0.00145319
8.41248e-06
0.00142611
2.70769e-05
0.00135825
6.78504e-05
0.00121215
0.00014609
0.000969076
0.000243069
0.000653428
0.000315643
0.000656048
-0.00204972
0.0051335
-0.00302892
0.00200892
-0.0038018
0.00154324
-0.00437877
0.00117756
-0.00476693
0.000794529
-0.00495867
0.000387093
-0.0049354
-5.45085e-05
-0.00468735
-0.000518537
-0.00423473
-0.00095252
-0.00362526
-0.00129944
-0.00292468
-0.00151883
-0.0021983
-0.00160499
-0.00150785
-0.00157337
-0.000938218
-0.00144517
-0.000681682
-0.00119754
2.82659e-05
-0.00070809
0.000135066
-0.000104489
0.000142552
0.000340854
0.000261608
0.00077434
-0.000776863
0.00104301
-0.000863818
0.00127046
-0.000694833
0.0014365
-0.000483155
0.00146944
-0.000207385
0.00147506
-8.48673e-05
0.00148211
-4.85183e-05
0.001488
-3.01581e-05
0.00149154
-1.57152e-05
0.00149302
-3.79339e-06
0.00149187
9.54956e-06
0.00148486
3.40827e-05
0.00144418
0.000108514
0.00127692
0.000313348
0.00098158
0.000538402
0.000596602
0.000700615
0.00125958
-0.00142956
0.00678462
-0.0022621
0.00284142
-0.00292802
0.00220912
-0.00340262
0.00165212
-0.0037223
0.00111416
-0.00387738
0.000542126
-0.00383305
-9.88938e-05
-0.00357463
-0.000777009
-0.00314082
-0.00138638
-0.00258956
-0.00185076
-0.0019884
-0.00212005
-0.00139145
-0.00220201
-0.000846065
-0.00211882
-0.000406187
-0.0018851
-9.18416e-05
-0.00151193
0.000148607
-0.000948584
0.000297379
-0.000253297
0.000445351
0.00138014
-0.00111267
0.00158338
-0.000980125
0.00159622
-0.000876681
0.00163618
-0.000734815
0.00174189
-0.000588886
0.00153464
0.00144991
0.00140153
0.00137151
0.00135593
0.00135228
0.00136197
0.00139619
0.00150485
0.00126686
0.00055133
0.00096139
0.000843866
0.000539633
0.00112237
0.00180992
-0.000997817
0.00806935
-0.0016502
0.00349376
-0.00206571
0.00262459
-0.00234975
0.00193612
-0.00252785
0.00129222
-0.00258087
0.000595098
-0.00245427
-0.000225536
-0.00214811
-0.00108322
-0.00173027
-0.00180428
-0.00126074
-0.00232035
-0.000796692
-0.00258417
-0.000368457
-0.00263032
3.2436e-06
-0.00249058
0.000304508
-0.00218643
0.000547124
-0.0017546
0.000804475
-0.00120598
0.00117445
-0.000623313
0.00189006
-0.000270293
0.00233951
-0.000444087
0.00197691
-0.00075011
0.00184684
-0.000850083
0.00173453
-0.000764398
0.00163733
-0.000637639
0.00151103
-0.000462609
0.00170796
-0.000197098
0.00180923
-0.000101437
0.00187927
-7.02046e-05
0.00192907
-4.99605e-05
0.00194997
-2.1064e-05
0.00192527
2.45303e-05
0.00183293
9.2183e-05
0.00164113
0.000191636
0.00129584
0.000345129
0.00116255
0.000684617
0.000903711
0.0011027
0.000514251
0.00151182
0.00233823
-0.000705086
0.00911683
-0.00119817
0.0039868
-0.00124234
0.00266873
-0.0012426
0.00193634
-0.00119592
0.00124551
-0.00104272
0.000441863
-0.000745158
-0.000523139
-0.000373508
-0.00145491
-3.13562e-06
-0.00217472
0.000320631
-0.00264419
0.000582647
-0.00284626
0.000781938
-0.00282968
0.000923074
-0.00263178
0.00102717
-0.00229058
0.00112197
-0.00184946
0.00126505
-0.0013491
0.00151193
-0.000870236
0.00180708
-0.000565487
0.00189982
-0.000536859
0.00178024
-0.000630566
0.00160169
-0.000671564
0.00145023
-0.000612965
0.00132459
-0.000512014
0.00124467
-0.000382708
0.00128446
-0.00023691
0.00133569
-0.000152676
0.00138437
-0.000118892
0.00143189
-9.74893e-05
0.00147258
-6.17688e-05
0.0014904
6.70849e-06
0.00146637
0.000116206
0.0013887
0.000269297
0.00125809
0.000475739
0.0011501
0.000792598
0.00104826
0.00120454
0.000853314
0.00170676
0.00107746
0.00211408
-0.00086943
0.00195969
-0.00150591
0.000647583
-0.00145175
-0.000620575
0.0101266
-0.000956081
0.00432227
-0.000489297
0.00220191
-3.9804e-05
0.00148681
0.000340917
0.000864756
0.000815966
-3.32123e-05
0.00132207
-0.00102928
0.00169834
-0.00183123
0.00192779
-0.00240423
0.00202302
-0.0027395
0.00201976
-0.00284307
0.00194019
-0.00275019
0.00181109
-0.00250274
0.00166545
-0.00214501
0.00153799
-0.00172205
0.00146661
-0.00127776
0.00146923
-0.000872897
0.00149745
-0.000593735
0.00144757
-0.000487015
0.00130247
-0.000485494
0.00111559
-0.000484708
0.00094929
-0.000446691
0.000821719
-0.000384461
0.000747807
-0.00030881
0.000742905
-0.000232019
0.000777187
-0.000186966
0.000829251
-0.000170963
0.000892064
-0.000160308
0.000961605
-0.000131314
0.00102971
-6.13988e-05
0.00108089
6.50195e-05
0.00110847
0.000241711
0.001121
0.000463207
0.00116298
0.00075062
0.0012805
0.00108701
0.001496
0.00149126
0.00185746
0.00175262
0.00211728
0.00169987
0.00164768
0.00111718
0.000249113
-0.000641144
0.0111999
-0.000496592
0.00417769
0.000719077
0.000986209
0.00164884
0.000557013
0.00248916
2.44079e-05
0.00324636
-0.000790446
0.00372904
-0.00151201
0.00394174
-0.00204399
0.00391719
-0.00237975
0.0037033
-0.00252569
0.00335793
-0.00249778
0.00293494
-0.00232727
0.00248349
-0.00205136
0.00204783
-0.0017094
0.00166492
-0.00133918
0.00136071
-0.000973588
0.00114093
-0.000653143
0.000978308
-0.000431139
0.000820506
-0.000329237
0.000642178
-0.000307188
0.000461866
-0.000304416
0.000308196
-0.000293036
0.000196251
-0.000272529
0.000134405
-0.000246973
0.000125564
-0.000223186
0.000153316
-0.000214723
0.000201005
-0.000218656
0.000262998
-0.000222303
0.000341987
-0.000210306
0.000443429
-0.000162842
0.000561072
-5.2624e-05
0.000683401
0.00011938
0.00081724
0.000329367
0.000995258
0.0005726
0.00125396
0.000828305
0.00163107
0.00111414
0.00214825
0.00123544
0.00279064
0.00105747
0.00289708
0.00101073
0.00320369
0.00257672
0.00910743
0.00333678
0.00341759
0.00414003
0.000182928
0.00518562
-0.000488603
0.0060282
-0.000818219
0.00646102
-0.00122332
0.00651998
-0.00157104
0.00625869
-0.00178279
0.00574176
-0.00186291
0.00504471
-0.00182872
0.00424815
-0.0017013
0.00342658
-0.00150576
0.00263878
-0.0012636
0.00192877
-0.000999425
0.00132705
-0.000737489
0.000848072
-0.00049463
0.000490197
-0.000295285
0.000233892
-0.00017485
3.60672e-05
-0.000131427
-0.000135823
-0.000135312
-0.000285797
-0.000154455
-0.000406513
-0.000172329
-0.000492509
-0.00018654
-0.000542414
-0.000197074
-0.000559278
-0.000206325
-0.000555364
-0.000218638
-0.000541485
-0.000232536
-0.000520795
-0.000242994
-0.000487917
-0.000243184
-0.000427177
-0.000223583
-0.000311814
-0.000167987
-0.000146649
-4.5785e-05
5.45226e-05
0.000128195
0.000305514
0.000321607
0.000614249
0.000519569
0.00100727
0.000721122
0.00146782
0.000774887
0.00186526
0.000660029
0.00122773
0.00164827
0.00465436
0.00963603
0.0130431
0.0125067
0.000719254
0.0119576
6.05055e-05
0.0112895
-0.000150253
0.0103915
-0.00032543
0.00924644
-0.000426097
0.00794849
-0.000484939
0.00658552
-0.000500031
0.00523259
-0.000475853
0.00395746
-0.000426222
0.00281299
-0.000361322
0.00182486
-0.000275498
0.00100402
-0.000178595
0.000350547
-8.4027e-05
-0.000137327
-6.75759e-06
-0.000465418
3.28009e-05
-0.000673202
3.29272e-05
-0.000818737
1.41001e-05
-0.000939664
-1.43925e-05
-0.00104773
-4.63977e-05
-0.00114071
-7.93529e-05
-0.00121563
-0.000111624
-0.00127376
-0.000138945
-0.00132009
-0.000159994
-0.00136457
-0.000174151
-0.00141794
-0.000179171
-0.00148974
-0.000171193
-0.00158879
-0.000144136
-0.00172312
-8.92468e-05
-0.00189955
8.43798e-06
-0.00210785
0.000162524
-0.00236248
0.000382817
-0.00272762
0.000686752
-0.00328935
0.0010813
-0.00412676
0.00155854
-0.00537439
0.00202251
-0.00691955
0.00220519
-0.00666871
0.00139743
-0.00176949
0.00332346
0.00213687
0.00294309
0.000440693
0.00346077
-0.000667988
0.00352008
-0.000384748
0.00319019
-9.61801e-05
0.00264496
6.0319e-05
0.00199492
0.00015003
0.00131593
0.00020317
0.000658286
0.00023144
5.26815e-05
0.000244301
-0.000465915
0.000243118
-0.0008706
0.000226097
-0.00116507
0.000210442
-0.00136204
0.00019022
-0.00148783
0.000158587
-0.00157646
0.000121553
-0.00164772
8.5359e-05
-0.00171348
5.13635e-05
-0.00177984
1.99606e-05
-0.00184963
-9.56237e-06
-0.00192293
-3.83246e-05
-0.00199896
-6.29153e-05
-0.00207823
-8.07241e-05
-0.00216297
-8.94092e-05
-0.00225603
-8.6106e-05
-0.00235973
-6.74869e-05
-0.0024744
-2.9467e-05
-0.00259483
3.1183e-05
-0.00270943
0.000123036
-0.00280791
0.00026101
-0.00289638
0.00047128
-0.00297628
0.000766652
-0.00304242
0.00114744
-0.00306557
0.00158169
-0.00301976
0.0019767
-0.00274703
0.00193246
-0.00147158
0.000121984
-0.0031776
-0.000190222
0.00240548
-6.94068e-05
0.0003199
-0.000771217
3.38443e-05
-0.00124478
8.8848e-05
-0.00151588
0.000174967
-0.00168807
0.000232557
-0.00181531
0.000277313
-0.00191924
0.000307126
-0.0020038
0.000316028
-0.00206692
0.000307434
-0.00210876
0.000284976
-0.00213491
0.000252249
-0.00214329
0.000218828
-0.00213899
0.000185925
-0.00213274
0.000152342
-0.0021314
0.000120215
-0.00213795
9.19078e-05
-0.00215459
6.80043e-05
-0.00218309
4.84617e-05
-0.00222648
3.38352e-05
-0.00228931
2.45022e-05
-0.00237031
1.80912e-05
-0.00246534
1.43007e-05
-0.00256756
1.28158e-05
-0.00266753
1.38686e-05
-0.00275383
1.88106e-05
-0.00281361
3.03197e-05
-0.00283862
5.61956e-05
-0.0028214
0.000105817
-0.00274576
0.000185368
-0.00258388
0.000309397
-0.00230958
0.000492354
-0.00189857
0.000736427
-0.00130859
0.000991711
-0.000376616
0.00104473
0.00097984
0.000576006
0.00164182
-0.000539996
-0.0014669
-0.00528309
-0.00819831
-0.00575687
-0.00542403
-0.00538383
-0.00529194
-0.00511642
-0.0048854
-0.0046115
-0.00430956
-0.00400042
-0.00370157
-0.00342685
-0.00318642
-0.00298078
-0.00280914
-0.00267191
-0.00256739
-0.00249161
-0.00244005
-0.0024083
-0.00239143
-0.00238418
-0.00238363
-0.00238722
-0.00239263
-0.0023973
-0.00239726
-0.00238581
-0.00234845
-0.00226129
-0.00209427
-0.00180282
-0.00132794
-0.000608471
0.000366799
0.0013953
0.00195476
0.0013975
)
;

boundaryField
{
    floor
    {
        type            calculated;
        value           nonuniform List<scalar> 
36
(
0
0
0
0
0
0
0
0
0
0
0
0
0
0
0
0
0
0
0
-2.62281e-06
-6.93109e-06
-1.07141e-05
-1.40623e-05
-1.27997e-05
-1.11067e-05
-1.03527e-05
-1.01752e-06
-1.90259e-06
-2.34366e-06
-2.97455e-06
-1.9481e-06
-4.53818e-06
-5.51899e-06
-5.43865e-06
-5.88245e-06
-5.39111e-06
)
;
    }
    ceiling
    {
        type            calculated;
        value           nonuniform List<scalar> 
43
(
-3.88823e-05
-3.74565e-05
-3.59024e-05
-1.28914e-05
-6.31254e-06
-3.00199e-06
-5.27069e-07
1.56987e-06
3.44143e-06
5.19611e-06
6.90297e-06
8.59651e-06
1.02675e-05
1.18319e-05
1.31931e-05
1.4289e-05
1.5112e-05
1.57026e-05
1.61263e-05
1.6447e-05
1.67168e-05
1.69743e-05
1.72474e-05
1.75534e-05
1.78888e-05
1.82313e-05
1.85409e-05
1.87693e-05
1.88751e-05
1.88357e-05
1.86554e-05
1.83547e-05
1.79525e-05
1.74735e-05
1.69564e-05
1.64418e-05
1.62297e-05
1.65494e-05
1.72595e-05
1.87598e-05
1.37668e-05
1.05315e-05
-7.83915e-05
)
;
    }
    sWall
    {
        type            calculated;
        value           uniform -0.000270431;
    }
    nWall
    {
        type            calculated;
        value           nonuniform List<scalar> 6(-4.3804e-05 -5.31816e-05 -5.74978e-05 -6.34778e-05 -6.88711e-05 -8.81584e-05);
    }
    sideWalls
    {
        type            empty;
        value           nonuniform 0();
    }
    glass1
    {
        type            calculated;
        value           nonuniform List<scalar> 9(-5.37993e-05 -0.00014487 -0.0002216 -0.000286959 -0.000342436 -0.000389241 -0.000432172 -0.000484294 -0.000542403);
    }
    glass2
    {
        type            calculated;
        value           nonuniform List<scalar> 2(-0.000222942 -0.000244862);
    }
    sun
    {
        type            calculated;
        value           uniform 0;
    }
    Table_master
    {
        type            calculated;
        value           nonuniform List<scalar> 9(-1.52428e-07 -1.52534e-07 -1.52571e-07 -1.52592e-07 -1.52607e-07 -1.52615e-07 -1.52615e-07 -1.52606e-07 -1.5257e-07);
    }
    Table_slave
    {
        type            calculated;
        value           nonuniform List<scalar> 9(1.52337e-07 1.52353e-07 1.52333e-07 1.52317e-07 1.52311e-07 1.52314e-07 1.52327e-07 1.52364e-07 1.52437e-07);
    }
    inlet
    {
        type            calculated;
        value           uniform -0.00474113;
    }
    outlet
    {
        type            calculated;
        value           nonuniform List<scalar> 2(0.00559246 0.00295274);
    }
}


// ************************************************************************* //
