/*--------------------------------*- C++ -*----------------------------------*\
  =========                 |
  \\      /  F ield         | OpenFOAM: The Open Source CFD Toolbox
   \\    /   O peration     | Website:  https://openfoam.org
    \\  /    A nd           | Version:  6
     \\/     M anipulation  |
\*---------------------------------------------------------------------------*/
FoamFile
{
    version     2.0;
    format      ascii;
    class       surfaceScalarField;
    location    "700";
    object      phi;
}
// * * * * * * * * * * * * * * * * * * * * * * * * * * * * * * * * * * * * * //

dimensions      [1 0 -1 0 0 0 0];

internalField   nonuniform List<scalar> 
850
(
-0.0025067
0.00257314
-0.0027254
0.000218789
-0.00311899
0.000393672
-0.00355815
0.000439244
-0.00397853
0.000420469
-0.00434902
0.000370566
-0.00464555
0.000296623
-0.00484421
0.000198742
-0.0049192
7.50678e-05
-0.00484075
-7.83584e-05
-0.00457596
-0.00026471
-0.00409628
-0.000479597
-0.00335014
-0.000746057
-0.00214006
-0.00121
-0.00213748
-0.000427232
0.000431064
-0.000149759
-0.000277433
0.000429079
-0.000578786
0.0011509
-0.000721765
0.00183808
-0.000687119
0.00205781
-0.000219675
0.00204533
1.25356e-05
0.00196766
7.77149e-05
0.00186479
0.000102922
0.00175223
0.000112609
0.00163923
0.000113047
0.00152696
0.000112323
0.00140843
0.000118595
0.00126505
0.000143451
0.00107331
0.000191824
0.00084343
0.000229966
0.000681934
0.000161598
0.000687949
-0.00187744
0.00462421
-0.00251324
0.000854677
-0.00309046
0.000970978
-0.00359207
0.000940933
-0.00404585
0.000874339
-0.00444414
0.000768938
-0.00477046
0.000623029
-0.00500492
0.000433281
-0.00512675
0.000196989
-0.00511812
-8.69059e-05
-0.00496512
-0.000417623
-0.00464567
-0.000798966
-0.00414372
-0.00124793
-0.00358383
-0.00176982
-0.00362283
-0.0020984
-0.00171984
-0.00189817
0.000305778
-0.00202066
0.000321239
0.000384437
5.66649e-05
0.000113584
-6.52157e-06
0.000167368
-0.000632505
0.000640684
-0.00119501
0.00122559
-0.00127195
0.00135596
-0.00034999
0.00133442
3.41363e-05
0.0013006
0.00011158
0.00127304
0.000130533
0.00125714
0.000128549
0.00125036
0.000119877
0.00124865
0.000114085
0.00124758
0.000119717
0.00121802
0.000173069
0.00109128
0.000318632
0.000856222
0.000465102
0.000552224
0.000465682
0.00125457
-0.00141682
0.00629986
-0.00220767
0.00164562
-0.00281632
0.00157971
-0.00331061
0.0014353
-0.00375654
0.00132035
-0.00415431
0.00116679
-0.0044914
0.000960199
-0.00475119
0.00069316
-0.0049159
0.000361777
-0.00497046
-3.22655e-05
-0.00490488
-0.000483119
-0.00472054
-0.00098323
-0.00445519
-0.00151319
-0.00421886
-0.00200607
-0.00400612
-0.00231107
-0.0034616
-0.00244262
-0.00290701
-0.00257519
-0.00257396
-0.000971662
0.00104103
-0.000891591
-8.65302e-05
-0.000661252
-0.000862767
-0.000283298
-0.00157288
0.000632057
-0.00218722
0.000282283
0.00031661
0.000428376
0.000559096
0.000687833
0.0008079
0.000922179
0.00104209
0.00121536
0.00112417
0.00040988
0.00089145
0.000697884
0.000445782
0.000911424
0.00172148
-0.00107116
0.00769872
-0.00188523
0.00245978
-0.0023728
0.00206736
-0.00278868
0.00185126
-0.00317854
0.00171029
-0.00353847
0.00152681
-0.00385701
0.00127881
-0.00411961
0.000955844
-0.00430975
0.000551998
-0.00440971
6.77726e-05
-0.00440948
-0.000483273
-0.00432734
-0.00106529
-0.00421768
-0.00162277
-0.00414645
-0.00207723
-0.00409545
-0.002362
-0.0040348
-0.0025032
-0.00411341
-0.00249651
-0.00472515
-0.00196217
-0.0037023
-0.0010096
-0.00234833
-0.000312892
-0.00182233
-0.000612456
-0.00146309
-0.00122192
-0.00128165
-0.00175421
-0.00159057
-0.00187821
-0.000311717
-0.00127893
0.000526576
-0.000838377
0.00116413
-0.00063765
0.00171593
-0.00055189
0.00219456
-0.000478728
0.00257802
-0.000383556
0.00281194
-0.000234019
0.00281349
-1.64972e-06
0.00250133
0.000312061
0.00216229
0.000748976
0.0016502
0.00121004
0.00088255
0.00167915
0.00263005
-0.000801247
0.00888485
-0.00157331
0.00323193
-0.00181711
0.00231125
-0.00210343
0.00213767
-0.00240017
0.00200711
-0.00268388
0.00181061
-0.00294165
0.00153666
-0.00316195
0.00117622
-0.00333208
0.000722207
-0.00343643
0.000172196
-0.00345617
-0.000463453
-0.00340939
-0.00111199
-0.00335124
-0.00168085
-0.00332503
-0.00210337
-0.00333221
-0.00235475
-0.00338534
-0.00245
-0.00352982
-0.00235195
-0.0035684
-0.00192351
-0.00321722
-0.00136069
-0.00250571
-0.00102431
-0.0019577
-0.00116036
-0.00161465
-0.00156486
-0.00139165
-0.00197711
-0.00113441
-0.00213534
-0.000505778
-0.00190747
0.000144353
-0.00148843
0.000707451
-0.00120068
0.00119873
-0.0010431
0.00163809
-0.000918024
0.00201726
-0.000762669
0.00230586
-0.00052255
0.00245338
-0.000149107
0.00242905
0.00033645
0.0023065
0.000871584
0.00211387
0.00140273
0.00185944
0.00193365
0.00256493
0.00192464
0.00190961
0.000681008
0.00185928
7.5968e-05
0.00195157
-0.000726752
0.010045
-0.00139298
0.00389825
-0.0012064
0.00212476
-0.0012735
0.00220486
-0.00147766
0.00221136
-0.00167635
0.00200938
-0.00184366
0.00170405
-0.00197989
0.00131253
-0.00208295
0.000825346
-0.00214409
0.000233419
-0.00213944
-0.000468029
-0.00209311
-0.00115824
-0.00205771
-0.00171617
-0.00206159
-0.00209941
-0.00210949
-0.00230678
-0.00220643
-0.00235298
-0.00233243
-0.00222586
-0.00234371
-0.00191214
-0.00216433
-0.00153997
-0.00185935
-0.00132917
-0.00161231
-0.00140728
-0.00145646
-0.00172058
-0.00131195
-0.00212148
-0.00104527
-0.0024019
-0.000609905
-0.00234272
-0.000181845
-0.00191641
0.000225477
-0.00160793
0.00060742
-0.00142498
0.0009676
-0.00127814
0.0013116
-0.0011066
0.00163375
-0.000844627
0.00190774
-0.000423036
0.00207533
0.00016893
0.00217267
0.000774305
0.00229321
0.00128225
0.00251564
0.00171128
0.0026879
0.00175246
0.0021405
0.00122848
0.00122896
0.000987585
0.00325019
-0.000959003
0.0114802
-0.00111992
0.00405925
-0.000268398
0.00127332
-8.59703e-05
0.00202252
-0.000278944
0.00240442
-0.000476842
0.00220736
-0.000580915
0.00180821
-0.000615031
0.00134673
-0.000602202
0.000812598
-0.000546329
0.000177626
-0.000476243
-0.000538037
-0.000431769
-0.00120264
-0.000445202
-0.00170266
-0.00052046
-0.00202407
-0.000646402
-0.00218075
-0.000807142
-0.00219216
-0.000963927
-0.00206899
-0.00104596
-0.00183001
-0.0010326
-0.00155322
-0.000992597
-0.00136905
-0.00101157
-0.00138817
-0.00109063
-0.00164137
-0.00112601
-0.00208595
-0.00100044
-0.00252732
-0.000713495
-0.00262954
-0.000476124
-0.0021537
-0.000273744
-0.00181024
-7.31343e-05
-0.00162552
0.000137212
-0.00148841
0.000368414
-0.00133773
0.000640849
-0.00111699
0.000974841
-0.000756957
0.00130999
-0.000166145
0.00159783
0.000486531
0.00189243
0.000987713
0.00224027
0.0013635
0.00256991
0.00142288
0.00268389
0.00111457
0.0020215
0.00165005
0.00534184
0.00208326
0.0099272
0.00248378
0.00365882
0.00276687
0.000990323
0.00244987
0.0023396
0.00193501
0.00291937
0.00150843
0.00263403
0.00128902
0.00202771
0.00124978
0.00138605
0.0013199
0.00074256
0.00147299
2.46136e-05
0.00159442
-0.00065939
0.00158075
-0.00118889
0.00144984
-0.00157168
0.00123823
-0.00181238
0.000977886
-0.00192033
0.000697387
-0.00191158
0.000432892
-0.00180441
0.000225363
-0.00162239
8.19279e-05
-0.00140969
-5.35179e-05
-0.00123348
-0.000262939
-0.0011786
-0.000571675
-0.00133246
-0.00085339
-0.00180406
-0.000935644
-0.0024449
-0.000792463
-0.00277255
-0.000730021
-0.00221605
-0.000752221
-0.00178797
-0.000793188
-0.00158448
-0.000825141
-0.00145639
-0.000828815
-0.00133399
-0.000776
-0.00116973
-0.000608355
-0.000924528
-0.000207484
-0.000566943
0.000269212
9.90168e-06
0.000678816
0.000578171
0.00108003
0.000962357
0.00141003
0.00109295
0.00154558
0.000979087
0.00078355
0.00241215
0.0064522
0.0105123
0.0141666
0.0125904
0.0025666
0.0105177
0.00441242
0.00861377
0.00482337
0.00708593
0.00416195
0.00601027
0.00310344
0.00535198
0.00204443
0.0049759
0.00111871
0.00465689
0.000343697
0.0042963
-0.000298718
0.00390962
-0.000802136
0.00349435
-0.00115634
0.00305446
-0.00137241
0.00260458
-0.00147037
0.00216491
-0.00147183
0.00175873
-0.00139815
0.00140796
-0.00127153
0.00111738
-0.001119
0.000856001
-0.000972001
0.000542771
-0.000865239
7.59416e-05
-0.000865464
-0.0005019
-0.00122602
-0.00083444
-0.00211218
-0.000802075
-0.00280469
-0.000891106
-0.00212692
-0.00116145
-0.00151756
-0.00148327
-0.0012626
-0.00181765
-0.00112194
-0.00216333
-0.000988235
-0.00253047
-0.000802526
-0.00293362
-0.000521309
-0.00339572
-0.000104762
-0.00385325
0.000467499
-0.00444182
0.00116681
-0.00541952
0.00194012
-0.00695447
0.00262796
-0.00892457
0.00294925
-0.00864985
0.00213749
-0.00183726
0.00921199
0.00366287
0.00816182
0.0054626
0.0075391
0.00544612
0.00709626
0.00460484
0.00679202
0.00340774
0.00661118
0.00222533
0.00646839
0.00126157
0.00626986
0.000542297
0.00595149
1.97326e-05
0.00551132
-0.000361901
0.00499042
-0.000635353
0.00442908
-0.000810993
0.00386107
-0.000902284
0.00331382
-0.000924505
0.00280872
-0.000892965
0.00236017
-0.000822902
0.00197095
-0.000729697
0.00162426
-0.000625213
0.00126568
-0.000506543
0.00077651
-0.000376155
2.55974e-05
-0.000474913
-0.000602354
-0.00148403
-0.000732065
-0.00267467
-0.000947177
-0.00191172
-0.00140848
-0.00105619
-0.00191616
-0.000754853
-0.00241713
-0.000620907
-0.0029033
-0.000501999
-0.00335681
-0.000348956
-0.00374148
-0.000136569
-0.00402029
0.000174118
-0.00420816
0.000655436
-0.00435587
0.00131459
-0.00449467
0.00207898
-0.00461683
0.00275019
-0.00454422
0.0028767
-0.00288941
0.000482741
-0.00463186
-0.00170649
0.00539363
0.000383941
0.00337217
0.00231332
0.00351678
0.0035926
0.0033256
0.00462007
0.00238033
0.00536121
0.00148425
0.0057776
0.000845247
0.0059118
0.000408171
0.00582674
0.000104861
0.00557913
-0.000114225
0.00521112
-0.00026727
0.00476588
-0.000365681
0.00428233
-0.000418657
0.00379229
-0.000434389
0.0033202
-0.000420801
0.00288294
-0.000385563
0.00248943
-0.0003361
0.00214031
-0.000276008
0.00182194
-0.000188073
0.0014802
-3.43022e-05
0.00100757
-2.15269e-06
0.000201799
-0.000678072
-0.000646163
-0.00182629
-0.00118737
-0.00137041
-0.00164739
-0.000596103
-0.00204962
-0.00035256
-0.00240391
-0.000266557
-0.00271168
-0.000194164
-0.00296215
-9.84222e-05
-0.00313503
3.63803e-05
-0.00317641
0.000215555
-0.00301673
0.000495827
-0.00262775
0.000925674
-0.00203584
0.00148714
-0.00109576
0.00181017
0.000626612
0.0011544
0.00150854
-0.000399128
-0.00301873
-0.0124443
-0.0155522
-0.0101408
-0.00675626
-0.00322977
0.000104165
0.00249195
0.00398363
0.00483645
0.00525245
0.00536548
0.00525979
0.00500141
0.00464502
0.00423608
0.00381189
0.00340183
0.00302761
0.00270353
0.00244027
0.0022657
0.00224561
0.00225839
0.00159627
-0.000210615
-0.00155888
-0.00213348
-0.00246521
-0.00271161
-0.00288631
-0.00296599
-0.00291164
-0.00267896
-0.00216682
-0.00122564
0.000276259
0.00210038
0.00326879
0.0028846
)
;

boundaryField
{
    floor
    {
        type            calculated;
        value           nonuniform List<scalar> 
36
(
0
0
0
0
0
0
0
0
0
0
0
0
0
0
0
0
0
0
0
-5.90416e-06
-1.42926e-05
-2.10281e-05
-2.59311e-05
-2.55999e-05
-2.55633e-05
-2.54325e-05
-2.50254e-06
-4.74633e-06
-4.89738e-06
-6.12079e-06
-3.81405e-06
-9.25803e-06
-9.98082e-06
-1.17394e-05
-1.26414e-05
-1.31926e-05
)
;
    }
    ceiling
    {
        type            calculated;
        value           nonuniform List<scalar> 
43
(
-1.81207e-05
-1.7991e-05
-1.76777e-05
-1.23541e-05
-9.6712e-06
-8.28555e-06
-7.39794e-06
-7.36031e-06
-7.5097e-06
-7.76763e-06
-8.10285e-06
-8.46086e-06
-8.82599e-06
-9.21643e-06
-9.64548e-06
-1.01247e-05
-1.06637e-05
-1.1269e-05
-1.19405e-05
-1.26659e-05
-1.3409e-05
-1.41175e-05
-1.48398e-05
-1.58142e-05
-1.89213e-05
-2.20724e-05
-2.14414e-05
-2.07679e-05
-2.00951e-05
-1.94028e-05
-1.86805e-05
-1.79073e-05
-1.70709e-05
-1.62441e-05
-1.54475e-05
-1.46963e-05
-1.38938e-05
-1.39439e-05
-1.48811e-05
-1.52074e-05
7.28313e-06
4.53958e-06
-2.42662e-05
)
;
    }
    sWall
    {
        type            calculated;
        value           uniform -0.000204138;
    }
    nWall
    {
        type            calculated;
        value           nonuniform List<scalar> 6(-6.6769e-05 -6.95845e-05 -7.00802e-05 -9.47419e-05 -0.000104522 -0.00011886);
    }
    sideWalls
    {
        type            empty;
        value           nonuniform 0();
    }
    glass1
    {
        type            calculated;
        value           nonuniform List<scalar> 9(-6.63575e-05 -0.000173545 -0.000258752 -0.000327629 -0.000384805 -0.000433348 -0.000476078 -0.000530214 -0.000592283);
    }
    glass2
    {
        type            calculated;
        value           nonuniform List<scalar> 2(-0.000326735 -0.000360327);
    }
    sun
    {
        type            calculated;
        value           uniform 0;
    }
    Table_master
    {
        type            calculated;
        value           nonuniform List<scalar> 9(-1.54432e-07 -1.54594e-07 -1.54581e-07 -1.54555e-07 -1.54527e-07 -1.54501e-07 -1.54477e-07 -1.5445e-07 -1.54403e-07);
    }
    Table_slave
    {
        type            calculated;
        value           nonuniform List<scalar> 9(1.54084e-07 1.54357e-07 1.54255e-07 1.54076e-07 1.53921e-07 1.53799e-07 1.5373e-07 1.5374e-07 1.53756e-07);
    }
    inlet
    {
        type            calculated;
        value           uniform -0.0103083;
    }
    outlet
    {
        type            calculated;
        value           nonuniform List<scalar> 2(0.0126666 0.00312589);
    }
}


// ************************************************************************* //
