/*--------------------------------*- C++ -*----------------------------------*\
  =========                 |
  \\      /  F ield         | OpenFOAM: The Open Source CFD Toolbox
   \\    /   O peration     | Website:  https://openfoam.org
    \\  /    A nd           | Version:  6
     \\/     M anipulation  |
\*---------------------------------------------------------------------------*/
FoamFile
{
    version     2.0;
    format      ascii;
    class       surfaceScalarField;
    location    "1700";
    object      phi;
}
// * * * * * * * * * * * * * * * * * * * * * * * * * * * * * * * * * * * * * //

dimensions      [1 0 -1 0 0 0 0];

internalField   nonuniform List<scalar> 
850
(
-0.00329475
0.00335649
-0.00468673
0.00139196
-0.00577403
0.00108728
-0.00659072
0.000816661
-0.00708799
0.000497249
-0.00720755
0.000119542
-0.00687588
-0.000331687
-0.0060171
-0.000858803
-0.00461185
-0.00140527
-0.00274818
-0.00186369
-0.000657615
-0.00209059
0.00113572
-0.00179335
0.00187386
-0.00073817
0.00164795
0.000225885
0.00165027
-0.00100077
0.00100424
-0.000713922
-0.000286896
6.68734e-05
-0.000780839
0.000831414
-0.000764584
0.00141704
-0.000585673
0.00174123
-0.000324226
0.00187835
-0.000137169
0.0019472
-6.88982e-05
0.0019885
-4.13432e-05
0.00201045
-2.19952e-05
0.00201722
-6.82736e-06
0.0020087
8.47417e-06
0.00197493
3.37151e-05
0.00188819
8.66908e-05
0.0017014
0.000186741
0.00138689
0.000314455
0.000939196
0.000447636
0.000943372
-0.0024511
0.00597641
-0.00380937
0.00275021
-0.00495119
0.00222908
-0.00580604
0.00167149
-0.00634801
0.0010392
-0.00652785
0.000299357
-0.0062816
-0.000577959
-0.00555083
-0.00158959
-0.00434553
-0.00261059
-0.00281971
-0.00338953
-0.00124704
-0.00366328
0.000175403
-0.00321582
0.00119171
-0.0017545
0.00182375
-0.000406182
0.00283778
0.000636218
0.00218537
0.000656453
0.00136172
0.000828134
0.0013746
5.39583e-06
0.00100959
0.000492751
-0.000774294
0.00096311
-0.00125124
0.00138472
-0.00118623
0.00172596
-0.000926954
0.00180681
-0.000405121
0.00181905
-0.000149452
0.00183265
-8.25417e-05
0.00184409
-5.28245e-05
0.00185093
-2.88867e-05
0.00185415
-1.0095e-05
0.00185325
9.32908e-06
0.00184385
4.306e-05
0.00179267
0.000137819
0.00158899
0.000390372
0.0012347
0.000668689
0.000768664
0.000913613
0.00172343
-0.00177222
0.00800987
-0.00294876
0.00392672
-0.0040258
0.0033061
-0.00484232
0.00248799
-0.00539966
0.00159652
-0.00564464
0.000544324
-0.00549844
-0.000724185
-0.0048952
-0.00219284
-0.00386886
-0.00363695
-0.00260199
-0.00465642
-0.00133879
-0.00492651
-0.000236673
-0.00431796
0.000702671
-0.00269387
0.00141629
-0.00111982
0.00194656
0.000105921
0.00182641
0.000776575
0.00127681
0.00137771
0.00266343
0.00145298
-0.000428647
0.0017246
-0.00104595
0.00176425
-0.00129093
0.00187939
-0.00130141
0.0021853
-0.00123291
0.0017803
0.00163096
0.00154853
0.00149581
0.00146703
0.00145704
0.00146648
0.00150964
0.00164756
0.00138755
0.000650329
0.0010624
0.000993783
0.000615105
0.00136085
0.00235624
-0.00124113
0.00959291
-0.00215301
0.00483858
-0.00298821
0.00414128
-0.00365566
0.00315542
-0.00416892
0.00210975
-0.00445488
0.000830262
-0.0044009
-0.000778179
-0.0039124
-0.00268136
-0.0030648
-0.00448457
-0.0020604
-0.00566084
-0.00109855
-0.00588837
-0.000276651
-0.00513988
0.00046309
-0.00343364
0.00103537
-0.00169214
0.00146698
-0.000325709
0.00165917
0.000584353
0.00180816
0.00122868
0.00291838
0.00155319
0.00245924
0.000472678
0.0023694
-0.000338836
0.00225179
-0.000928376
0.00210474
-0.00114391
0.0019393
-0.001136
0.00163533
-0.000928988
0.00204988
-0.000414744
0.00224815
-0.000198459
0.00237447
-0.000126517
0.00245762
-8.33506e-05
0.0024902
-3.27785e-05
0.00245397
3.60263e-05
0.00232349
0.000130276
0.00205913
0.000264163
0.00159034
0.000468581
0.00138095
0.000859673
0.0010607
0.00131397
0.000626474
0.00179502
0.00300571
-0.000815107
0.0108201
-0.00144367
0.00546712
-0.00183641
0.004534
-0.00223542
0.00355441
-0.00261891
0.00249322
-0.00289228
0.00110361
-0.00288798
-0.000782496
-0.00248241
-0.00308695
-0.00184245
-0.00512454
-0.0011551
-0.0063482
-0.000544201
-0.00649929
-4.13209e-05
-0.00564279
0.000439874
-0.00391486
0.000820187
-0.00207248
0.00113701
-0.000642558
0.00143453
0.000286797
0.00182105
0.000842123
0.00236756
0.00100665
0.00243234
0.000407865
0.00238247
-0.000288997
0.0021718
-0.000717745
0.00191902
-0.000891165
0.00166811
-0.000885138
0.00147176
-0.000732681
0.00151633
-0.000459353
0.00158969
-0.00027187
0.00165148
-0.00018836
0.00170869
-0.000140603
0.00175708
-8.12255e-05
0.00177714
1.59221e-05
0.00174639
0.000160965
0.00165271
0.000357797
0.00150597
0.000615259
0.0013932
0.000972391
0.00131642
0.00139069
0.00123375
0.00187765
0.00219139
0.002048
0.00153611
0.000677828
0.00159919
-4.17461e-05
0.00168051
-0.000610224
0.0119026
-0.000915218
0.00577209
-0.000611673
0.00423043
-0.000636848
0.00357956
-0.00083866
0.00269501
-0.00102995
0.00129487
-0.000964492
-0.000847976
-0.000617621
-0.00343385
-0.00023343
-0.00550875
7.28017e-05
-0.00665445
0.000274785
-0.00670129
0.000397968
-0.00576599
0.000532131
-0.00404905
0.000619682
-0.00216006
0.000724083
-0.000746992
0.000925039
8.58044e-05
0.00123782
0.00052931
0.00163727
0.000607165
0.00181185
0.000233244
0.00172743
-0.00020461
0.00151114
-0.000501498
0.00125672
-0.000636783
0.00101509
-0.000643558
0.000836361
-0.000553997
0.000782149
-0.000405189
0.000807969
-0.000297741
0.000868324
-0.000248767
0.000947925
-0.000220258
0.00104045
-0.000173801
0.00113514
-7.88292e-05
0.00121295
8.31023e-05
0.00126702
0.000303662
0.00131337
0.000568857
0.0014018
0.000883909
0.00158944
0.00120299
0.00190598
0.00156104
0.0022712
0.00168273
0.00187003
0.00107893
0.00104999
0.000778235
0.00279194
-0.000727919
0.0131546
-0.000364241
0.00540839
0.000910558
0.00295561
0.00110095
0.00338915
0.00100888
0.00278705
0.00107062
0.00123311
0.00135054
-0.00112792
0.00160977
-0.0036931
0.00168538
-0.00558437
0.00155517
-0.00652426
0.00127856
-0.0064247
0.000941647
-0.0054291
0.000621034
-0.00372847
0.00032291
-0.00186197
0.000180012
-0.000604133
0.00025287
1.29063e-05
0.000480165
0.000301974
0.000752593
0.000334696
0.000860282
0.000125513
0.000783588
-0.000127959
0.000601214
-0.00031917
0.000380827
-0.000416443
0.000172533
-0.000435313
2.06495e-05
-0.000402165
-3.79862e-05
-0.000346608
-2.08224e-05
-0.000314961
3.90592e-05
-0.000308707
0.000125509
-0.000306767
0.000237468
-0.000285821
0.000381265
-0.000222687
0.000552476
-8.81686e-05
0.000734801
0.000121277
0.000932765
0.000370833
0.00117603
0.000640582
0.00148713
0.00089184
0.00188463
0.00116348
0.00234263
0.00122467
0.00255345
0.000868055
0.00195807
0.00137356
0.00481134
0.00318545
0.0105525
0.00400503
0.00458879
0.00395207
0.00300855
0.0035661
0.00377509
0.00339917
0.00295395
0.00367057
0.000961689
0.00408681
-0.00154418
0.00414004
-0.00374636
0.0038024
-0.00524674
0.00314482
-0.00586669
0.00228466
-0.00556456
0.00137478
-0.00451925
0.000503558
-0.00285729
-0.00018518
-0.00117327
-0.000475533
-0.000313823
-0.000491083
2.84102e-05
-0.000362959
0.000173805
-0.000213134
0.000184825
-0.000167808
8.01386e-05
-0.000240172
-5.56437e-05
-0.000389623
-0.000169771
-0.000564612
-0.000241507
-0.000723206
-0.000276776
-0.000835733
-0.000289696
-0.000886885
-0.000295517
-0.000892106
-0.000309801
-0.000870832
-0.000330044
-0.00083218
-0.000345483
-0.000773605
-0.000344459
-0.000680601
-0.000315755
-0.000521923
-0.00024691
-0.000285712
-0.000114996
1.64074e-06
8.34181e-05
0.000327193
0.000314969
0.000674748
0.000544224
0.00104941
0.000788766
0.0013936
0.00088042
0.00150855
0.000753045
0.000771311
0.00211074
0.00586596
0.011197
0.0157848
0.0130132
0.00578009
0.0109456
0.00584275
0.00971806
0.00418143
0.00886992
0.00180981
0.00803792
-0.000712197
0.00705711
-0.00276556
0.00584195
-0.00403159
0.00441527
-0.00444002
0.00283006
-0.00397937
0.0012933
-0.00298252
-0.000131124
-0.00143291
-0.000938834
-0.00036561
-0.00121781
-3.48947e-05
-0.00127271
8.32563e-05
-0.00122857
0.000129617
-0.00117212
0.000128323
-0.00117022
7.81771e-05
-0.00123408
8.16555e-06
-0.00134522
-5.86876e-05
-0.00147365
-0.000113136
-0.00159442
-0.000156076
-0.00169334
-0.000190833
-0.00176839
-0.000220531
-0.00183139
-0.000246875
-0.00189574
-0.000265755
-0.00197203
-0.00026926
-0.00207
-0.000246554
-0.00220208
-0.000183739
-0.00238385
-6.52079e-05
-0.00261758
0.000118669
-0.00291273
0.000378514
-0.00333521
0.00073738
-0.00399981
0.00120877
-0.00498898
0.00177788
-0.00643583
0.00232721
-0.0082587
0.00257586
-0.00795744
0.00180941
-0.00178064
0.0171885
0.0116585
0.014016
0.00901525
0.0121043
0.00609313
0.0108676
0.00304647
0.00964245
0.000512986
0.00805459
-0.00117769
0.00614969
-0.00212669
0.00413713
-0.00242747
0.00198839
-0.00183066
-3.26834e-05
-0.000961493
-0.00138956
-7.60766e-05
-0.0018689
0.00011367
-0.00202337
0.00011952
-0.00205629
0.000116127
-0.00204683
0.000120101
-0.00203508
0.000116507
-0.002051
9.40389e-05
-0.00210063
5.77291e-05
-0.00217691
1.75302e-05
-0.00226894
-2.11666e-05
-0.00236656
-5.85242e-05
-0.0024652
-9.22614e-05
-0.00256647
-0.000119328
-0.00267573
-0.000137682
-0.00279723
-0.000144327
-0.00293199
-0.000134567
-0.00307699
-0.000101617
-0.00322383
-3.69673e-05
-0.00335866
6.95574e-05
-0.0034758
0.000235751
-0.00358394
0.000486589
-0.00369416
0.000847539
-0.00381506
0.0013296
-0.00393159
0.00189435
-0.00400746
0.00240302
-0.00388711
0.00245545
-0.00234411
0.000266349
-0.00404396
-0.000157373
0.0118605
0.00208067
0.00677721
0.00331831
0.0048555
0.00369311
0.00267168
0.00358097
0.000625114
0.00298835
-0.000585088
0.00180775
-0.000946116
0.000149114
-0.00076887
-0.00146623
-0.000215363
-0.00246605
3.82705e-05
-0.00270603
0.000163856
-0.00273696
0.000144535
-0.00273264
0.00011514
-0.00271848
0.000101909
-0.00269882
0.000100375
-0.00268116
9.87786e-05
-0.00267533
8.81466e-05
-0.0026851
6.74277e-05
-0.00270792
4.02846e-05
-0.00274042
1.12681e-05
-0.00278316
-1.58538e-05
-0.0028373
-3.81934e-05
-0.00290224
-5.44588e-05
-0.00297592
-6.40675e-05
-0.00305439
-6.59222e-05
-0.00313117
-5.7862e-05
-0.0031965
-3.63532e-05
-0.00323765
4.11836e-06
-0.00323884
7.06834e-05
-0.00317856
0.000175413
-0.00302492
0.00033288
-0.002742
0.000564559
-0.00230927
0.000896799
-0.00171766
0.00130268
-0.000779589
0.00146488
0.000789121
0.000886679
0.00155766
-0.000502259
-0.00239722
-0.0225399
-0.0280003
-0.0161076
-0.00930655
-0.00442805
-0.00173447
-0.0010907
-0.00166423
-0.00260365
-0.0033686
-0.00358169
-0.00354191
-0.0033769
-0.00323146
-0.00311559
-0.00301307
-0.00291216
-0.00281289
-0.00272424
-0.00265622
-0.00261521
-0.00260304
-0.00261782
-0.00265475
-0.00270778
-0.00277026
-0.00283447
-0.00289051
-0.00292493
-0.0029188
-0.00284605
-0.00266852
-0.00233351
-0.00176683
-0.000867956
0.000436701
0.00190336
0.00279164
0.00229088
)
;

boundaryField
{
    floor
    {
        type            calculated;
        value           nonuniform List<scalar> 
36
(
0
0
0
0
0
0
0
0
0
0
0
0
0
0
0
0
0
0
0
-4.23377e-06
-1.14549e-05
-1.77642e-05
-2.30467e-05
-2.26077e-05
-2.13978e-05
-2.08247e-05
-2.34811e-06
-4.07076e-06
-4.51267e-06
-5.13187e-06
-3.52163e-06
-7.77467e-06
-1.079e-05
-1.20574e-05
-1.47895e-05
-1.35742e-05
)
;
    }
    ceiling
    {
        type            calculated;
        value           nonuniform List<scalar> 
43
(
-3.26411e-05
-3.24137e-05
-3.22115e-05
-2.38711e-05
-2.30299e-05
-2.19847e-05
-1.87831e-05
-1.16393e-05
-6.74928e-06
-3.98268e-06
-2.32558e-06
-1.57321e-06
-1.21675e-06
-9.65831e-07
-7.96729e-07
-6.77818e-07
-5.981e-07
-5.60567e-07
-5.77999e-07
-6.59191e-07
-7.95555e-07
-9.65937e-07
-1.14975e-06
-1.32998e-06
-1.49729e-06
-1.64826e-06
-1.7815e-06
-1.89676e-06
-1.99446e-06
-2.07524e-06
-2.13892e-06
-2.18016e-06
-2.19669e-06
-2.1852e-06
-2.13971e-06
-2.04084e-06
-1.83361e-06
-1.6661e-06
-1.56144e-06
-7.15479e-07
3.52507e-06
9.70454e-07
-4.45707e-05
)
;
    }
    sWall
    {
        type            calculated;
        value           uniform -0.000187608;
    }
    nWall
    {
        type            calculated;
        value           nonuniform List<scalar> 6(-6.05508e-05 -6.15003e-05 -6.13984e-05 -8.08584e-05 -8.91437e-05 -0.000105692);
    }
    sideWalls
    {
        type            empty;
        value           nonuniform 0();
    }
    glass1
    {
        type            calculated;
        value           nonuniform List<scalar> 9(-6.17545e-05 -0.000168845 -0.000261251 -0.000341924 -0.000412118 -0.000472259 -0.00052409 -0.000583426 -0.000648009);
    }
    glass2
    {
        type            calculated;
        value           nonuniform List<scalar> 2(-0.000283367 -0.000310898);
    }
    sun
    {
        type            calculated;
        value           uniform 0;
    }
    Table_master
    {
        type            calculated;
        value           nonuniform List<scalar> 9(-1.53561e-07 -1.53745e-07 -1.538e-07 -1.5383e-07 -1.53847e-07 -1.53854e-07 -1.5385e-07 -1.53831e-07 -1.53778e-07);
    }
    Table_slave
    {
        type            calculated;
        value           nonuniform List<scalar> 9(1.53401e-07 1.53368e-07 1.53306e-07 1.53259e-07 1.53234e-07 1.53224e-07 1.53231e-07 1.53273e-07 1.53365e-07);
    }
    inlet
    {
        type            calculated;
        value           uniform -0.0230669;
    }
    outlet
    {
        type            calculated;
        value           nonuniform List<scalar> 2(0.0227602 0.00549274);
    }
}


// ************************************************************************* //
