/*--------------------------------*- C++ -*----------------------------------*\
  =========                 |
  \\      /  F ield         | OpenFOAM: The Open Source CFD Toolbox
   \\    /   O peration     | Website:  https://openfoam.org
    \\  /    A nd           | Version:  6
     \\/     M anipulation  |
\*---------------------------------------------------------------------------*/
FoamFile
{
    version     2.0;
    format      ascii;
    class       volScalarField;
    location    "1500";
    object      nut;
}
// * * * * * * * * * * * * * * * * * * * * * * * * * * * * * * * * * * * * * //

dimensions      [0 2 -1 0 0 0 0];

internalField   nonuniform List<scalar> 
458
(
0.00111877
0.00122566
0.00125203
0.00131397
0.00137212
0.00142779
0.0014843
0.00153281
0.00156316
0.00156951
0.00154767
0.0014952
0.00140937
0.00128296
0.00108231
0.000497827
0.000602593
0.000696105
0.000721518
0.000711702
0.000669723
0.000622484
0.000579489
0.000541749
0.000508635
0.000479474
0.000453846
0.000430916
0.000409823
0.000389562
0.000368673
0.000350564
0.000316655
0.00151204
0.0037625
0.00362831
0.00422494
0.0048191
0.00539714
0.00586244
0.00624671
0.0065816
0.00683757
0.00698568
0.00700275
0.00686213
0.00649111
0.00538944
0.00128984
0.00104763
0.000828022
0.000507956
0.00126254
0.00191038
0.00239495
0.00251517
0.00181985
0.00153671
0.00134749
0.00120774
0.00110009
0.00101417
0.000937576
0.000865004
0.000791708
0.000725116
0.000669843
0.000760305
0.000390245
0.00183665
0.00512581
0.00451105
0.00555513
0.00607494
0.00646346
0.00676499
0.00704641
0.00734681
0.00764592
0.00790455
0.00808177
0.00813264
0.00797722
0.0074444
0.00606854
0.00468209
0.00107577
0.000892623
0.00157955
0.00233375
0.00300871
0.00309815
0.000913675
0.00079603
0.000700321
0.000623843
0.000562634
0.000513272
0.000473384
0.00044134
0.00041688
0.000465579
0.000547864
0.000863502
0.000443411
0.00214578
0.00648743
0.00454758
0.00583882
0.00622466
0.00636757
0.00650146
0.00669689
0.00697163
0.00730737
0.00765125
0.00794661
0.00812883
0.00813382
0.00796226
0.00751471
0.00652886
0.00381516
0.00130832
0.00179152
0.00261923
0.00352375
0.00420945
0.00407501
0.00101718
0.000921267
0.000856654
0.00081009
0.00077258
0.000737119
0.000702302
0.000666391
0.00062503
0.000589887
0.000587864
0.000952902
0.000499778
0.00245991
0.00822711
0.00498462
0.00569711
0.00617084
0.0061909
0.00619406
0.00634868
0.00660346
0.00696334
0.00735472
0.00769721
0.0079092
0.00795702
0.00786529
0.00766184
0.00726563
0.0063281
0.00567301
0.00562448
0.00583968
0.00607622
0.00616646
0.00591508
0.00481979
0.00429123
0.00400466
0.00381091
0.00363429
0.00342741
0.00309572
0.00264736
0.00212223
0.00160694
0.00121061
0.00108127
0.000823934
0.000609009
0.000636126
0.000641511
0.00279307
0.0101343
0.00678196
0.00581014
0.00621795
0.00622803
0.00620738
0.00628441
0.00648192
0.00682265
0.00724255
0.00762083
0.00784349
0.00786205
0.00772145
0.00753519
0.0074109
0.00736886
0.00747199
0.00763341
0.00770102
0.00760547
0.00733908
0.00690192
0.00629512
0.00579851
0.00541749
0.0050993
0.00480748
0.00451969
0.00420186
0.00378117
0.00324598
0.00263006
0.00205377
0.00156848
0.00120022
0.00120053
0.0016693
0.000850517
0.00309353
0.0114547
0.00938572
0.00744857
0.00714529
0.00680983
0.00649656
0.00638778
0.00653543
0.00690482
0.00737696
0.00778673
0.0079954
0.00795458
0.00774497
0.00756751
0.00764886
0.00801886
0.0084176
0.00859341
0.00848184
0.0081255
0.00759657
0.00696297
0.00630373
0.00573966
0.00529228
0.004929
0.00462214
0.00435983
0.00413977
0.00395426
0.0036495
0.00320537
0.00271383
0.00224036
0.00184911
0.00168573
0.00196463
0.00106265
0.00314958
0.0100818
0.00902388
0.00830454
0.00754951
0.00680528
0.00637331
0.00634268
0.00666944
0.00722147
0.00780481
0.00821841
0.00833959
0.00817233
0.007889
0.00780059
0.00812426
0.00859352
0.00881149
0.00869589
0.00828636
0.00765374
0.00688517
0.00608202
0.00536283
0.00480929
0.00440838
0.00411458
0.00389935
0.00375216
0.00367223
0.0036623
0.00369432
0.00352663
0.00329353
0.003123
0.00307579
0.00299962
0.003638
0.00139037
0.0030653
0.00362548
0.00399213
0.00405367
0.00420295
0.0045971
0.00527533
0.00618613
0.00718896
0.00809401
0.00870573
0.00888696
0.00866244
0.00821795
0.00801873
0.00811436
0.0082987
0.00835793
0.00817967
0.00774642
0.00708229
0.00625998
0.00539332
0.00461751
0.00402739
0.00362533
0.00335546
0.00316697
0.00302971
0.00292509
0.00283796
0.00275335
0.00265803
0.00257495
0.00249731
0.00243335
0.00235515
0.00223842
0.00210258
0.00134135
0.00140592
0.00305432
0.00558857
0.00746366
0.00878635
0.00965538
0.0100773
0.0100812
0.00970232
0.0090739
0.00829698
0.0076963
0.00747378
0.00743127
0.00729594
0.00698071
0.0064774
0.00581407
0.00506437
0.00431778
0.00366858
0.00318836
0.00286613
0.00265544
0.00251441
0.00241745
0.00235073
0.00230674
0.00228161
0.00227418
0.00229086
0.00230765
0.00231627
0.00230376
0.0022437
0.00210738
0.00185637
0.00108829
0.00199186
0.00562179
0.00833693
0.009242
0.00956621
0.00947584
0.00902558
0.00833827
0.00756665
0.00686598
0.00628115
0.00587587
0.00560514
0.00533254
0.00499534
0.00458899
0.00412454
0.00364259
0.00320463
0.00285458
0.00259889
0.00240971
0.00226531
0.00216235
0.00209496
0.00205715
0.00204488
0.0020544
0.0020806
0.00212164
0.00217989
0.00224755
0.00231009
0.00234392
0.002341
0.00236967
0.00164874
0.00111957
0.00179981
0.00190603
0.00198171
0.00214154
0.0020652
0.00197845
0.00191222
0.00181603
0.00168647
0.0015353
0.00137487
0.00121856
0.00108607
0.000986976
0.000915848
0.00086257
0.000818959
0.00078002
0.000743975
0.00071191
0.000686038
0.000667898
0.000657943
0.000655882
0.000662062
0.000674537
0.000692492
0.000715811
0.000744564
0.000779126
0.000820465
0.000869152
0.000922858
0.000981607
0.00104488
0.00110896
0.00115837
0.00103529
0.000963065
0.00112655
)
;

boundaryField
{
    floor
    {
        type            nutkWallFunction;
        Cmu             0.09;
        kappa           0.41;
        E               9.8;
        value           nonuniform List<scalar> 
36
(
0.000130352
5.94332e-05
7.26704e-05
8.42493e-05
8.73634e-05
8.61625e-05
8.10035e-05
7.51511e-05
6.97779e-05
6.50211e-05
6.08138e-05
5.70805e-05
5.37763e-05
5.07998e-05
4.80443e-05
4.53804e-05
4.26154e-05
4.02017e-05
3.5638e-05
3.56379e-05
4.5469e-05
5.2422e-05
5.968e-05
7.3469e-05
7.68433e-05
7.7511e-05
0.000130352
0.00015432
0.000126315
0.000100275
5.94332e-05
0.000100275
6.07259e-05
0.000129603
0.000108005
0.000156428
)
;
    }
    ceiling
    {
        type            nutkWallFunction;
        Cmu             0.09;
        kappa           0.41;
        E               9.8;
        value           nonuniform List<scalar> 
43
(
0.000211365
0.000223018
0.00023128
0.000248725
0.000240495
0.000231071
0.000223842
0.000213286
0.000198967
0.000182105
0.000164007
0.000146146
0.000130807
0.000119195
0.000110778
0.000104423
9.91878e-05
9.44851e-05
9.01069e-05
8.61906e-05
8.30153e-05
8.07799e-05
7.95498e-05
7.9294e-05
8.00568e-05
8.15953e-05
8.3804e-05
8.66626e-05
9.01724e-05
9.43705e-05
9.93629e-05
0.000105205
0.000111606
0.000118559
0.000125994
0.000133472
0.000139203
0.00012487
0.00011637
0.000135519
0.000346933
0.000404808
0.000232244
)
;
    }
    sWall
    {
        type            nutkWallFunction;
        Cmu             0.09;
        kappa           0.41;
        E               9.8;
        value           uniform 0.000211423;
    }
    nWall
    {
        type            nutkWallFunction;
        Cmu             0.09;
        kappa           0.41;
        E               9.8;
        value           nonuniform List<scalar> 6(7.75074e-05 0.000102976 0.000128078 0.000131074 0.000134715 0.000135527);
    }
    sideWalls
    {
        type            empty;
    }
    glass1
    {
        type            nutkWallFunction;
        Cmu             0.09;
        kappa           0.41;
        E               9.8;
        value           nonuniform List<scalar> 9(0.000134728 0.000179727 0.000215872 0.000249648 0.000283439 0.000318783 0.000350282 0.000356132 0.000347364);
    }
    glass2
    {
        type            nutkWallFunction;
        Cmu             0.09;
        kappa           0.41;
        E               9.8;
        value           nonuniform List<scalar> 2(0.000165833 0.00016026);
    }
    sun
    {
        type            nutkWallFunction;
        Cmu             0.09;
        kappa           0.41;
        E               9.8;
        value           nonuniform List<scalar> 
14
(
0.000134614
0.000146963
0.000149991
0.000157077
0.000163695
0.000170002
0.000176377
0.000181827
0.000185227
0.000185936
0.00018349
0.0001776
0.000167915
0.000153529
)
;
    }
    Table_master
    {
        type            nutkWallFunction;
        Cmu             0.09;
        kappa           0.41;
        E               9.8;
        value           nonuniform List<scalar> 9(0.000110516 9.64182e-05 8.47676e-05 7.53217e-05 6.76609e-05 6.14088e-05 5.63022e-05 5.21612e-05 4.89749e-05);
    }
    Table_slave
    {
        type            nutkWallFunction;
        Cmu             0.09;
        kappa           0.41;
        E               9.8;
        value           nonuniform List<scalar> 9(0.000122747 0.00011142 0.000103712 9.81156e-05 9.35797e-05 8.92676e-05 8.50099e-05 8.05919e-05 7.54678e-05);
    }
    inlet
    {
        type            calculated;
        value           uniform 0.000100623;
    }
    outlet
    {
        type            calculated;
        value           nonuniform List<scalar> 2(0.00179981 0.00190603);
    }
}


// ************************************************************************* //
