// -*- C++ -*-
// File generated by PyFoam - sorry for the ugliness

FoamFile
{
 version 2.0;
 format ascii;
 class volVectorField;
 location "1500";
 object U;
}

dimensions [ 0 1 -1 0 0 0 0 ];

internalField nonuniform List<vector> 458
(
  (0.0304566 0.0865697 0)
  (-0.168742 0.0263539 0)
  (-0.194726 0.0174729 0)
  (-0.225116 0.011106 0)
  (-0.245841 0.00416187 0)
  (-0.255685 -0.00315581 0)
  (-0.252905 -0.0108331 0)
  (-0.237298 -0.0187611 0)
  (-0.210064 -0.0258834 0)
  (-0.173979 -0.0309989 0)
  (-0.133075 -0.0333486 0)
  (-0.0916316 -0.032604 0)
  (-0.0536331 -0.0285273 0)
  (-0.0233187 -0.0206725 0)
  (-0.0160248 -0.00667198 0)
  (-0.00740673 0.00798626 0)
  (-0.0269477 -0.0180898 0)
  (-0.00254864 -0.0291934 0)
  (0.0236036 -0.0240156 0)
  (0.043538 -0.0171424 0)
  (0.057831 -0.00944783 0)
  (0.0659121 -0.00530859 0)
  (0.069256 -0.00378566 0)
  (0.0704191 -0.00320437 0)
  (0.0709268 -0.00283991 0)
  (0.0711169 -0.00254081 0)
  (0.0709074 -0.00220037 0)
  (0.0700825 -0.00163725 0)
  (0.0680589 -0.000448098 0)
  (0.063579 0.00192408 0)
  (0.0552193 0.00477625 0)
  (0.0450658 0.00796785 0)
  (-0.00427027 0.0221992 0)
  (0.201674 0.177035 0)
  (-0.155781 0.0697572 0)
  (-0.156202 0.052899 0)
  (-0.187462 0.0395855 0)
  (-0.20803 0.0245092 0)
  (-0.21819 0.00765027 0)
  (-0.216063 -0.0109749 0)
  (-0.201631 -0.0298925 0)
  (-0.176764 -0.0461019 0)
  (-0.144622 -0.0570504 0)
  (-0.109114 -0.0616144 0)
  (-0.0738573 -0.0598697 0)
  (-0.0418085 -0.0522762 0)
  (-0.0148254 -0.0395288 0)
  (0.00577701 -0.0227868 0)
  (0.0252707 -0.000190545 0)
  (0.0390535 0.0282489 0)
  (-0.0249366 0.0616534 0)
  (0.0560379 0.0345282 0)
  (0.023494 -0.0226278 0)
  (0.0344621 -0.0364513 0)
  (0.0485309 -0.03377 0)
  (0.0607016 -0.0256488 0)
  (0.0672384 -0.0110777 0)
  (0.0687341 -0.00226586 0)
  (0.0685627 0.0010227 0)
  (0.0685945 0.00219721 0)
  (0.0688663 0.00283165 0)
  (0.0690696 0.00329927 0)
  (0.0690925 0.00376233 0)
  (0.0689296 0.00463874 0)
  (0.0680627 0.0068551 0)
  (0.0641288 0.0129456 0)
  (0.0543042 0.018799 0)
  (0.0461952 0.0243575 0)
  (-0.0387593 0.047477 0)
  (0.358662 0.264525 0)
  (-0.169841 0.110289 0)
  (-0.117121 0.0850994 0)
  (-0.147102 0.061809 0)
  (-0.165381 0.0370544 0)
  (-0.174493 0.00966895 0)
  (-0.171246 -0.0203781 0)
  (-0.156068 -0.0501716 0)
  (-0.132136 -0.0744551 0)
  (-0.103292 -0.0895282 0)
  (-0.0732084 -0.0944723 0)
  (-0.0445696 -0.090237 0)
  (-0.0192765 -0.0781388 0)
  (0.00208794 -0.0597566 0)
  (0.0180482 -0.038628 0)
  (0.0291983 -0.0177546 0)
  (0.0337352 0.00665741 0)
  (-0.0217705 0.0470063 0)
  (0.104912 -0.0255239 0)
  (0.0684578 -0.0409591 0)
  (0.0650154 -0.0447629 0)
  (0.0693277 -0.041742 0)
  (0.0743871 -0.0371015 0)
  (0.0770489 -0.0271137 0)
  (0.0685366 -0.0173207 0)
  (0.0619009 -0.0121509 0)
  (0.0595187 -0.00931726 0)
  (0.0590146 -0.00750645 0)
  (0.0589467 -0.00626369 0)
  (0.0592101 -0.0052374 0)
  (0.0603146 -0.00396051 0)
  (0.0634594 -0.000171343 0)
  (0.0627213 0.0177286 0)
  (0.0514309 0.0306881 0)
  (0.050602 0.041981 0)
  (-0.0689743 0.074993 0)
  (0.500534 0.334732 0)
  (-0.201598 0.145865 0)
  (-0.0762751 0.112408 0)
  (-0.103981 0.0806857 0)
  (-0.117056 0.0484678 0)
  (-0.122245 0.0116548 0)
  (-0.113873 -0.0300861 0)
  (-0.0959837 -0.0704252 0)
  (-0.0730522 -0.101057 0)
  (-0.0489544 -0.118177 0)
  (-0.0262657 -0.122072 0)
  (-0.00610518 -0.114876 0)
  (0.0110984 -0.0982907 0)
  (0.0246836 -0.0762027 0)
  (0.035595 -0.0508412 0)
  (0.0447574 -0.0239791 0)
  (0.0568182 0.00464787 0)
  (0.0615066 0.0348319 0)
  (0.10027 0.0344038 0)
  (0.10112 -0.0166296 0)
  (0.0863515 -0.0356966 0)
  (0.0779692 -0.0399837 0)
  (0.0724478 -0.0385702 0)
  (0.0660106 -0.0332898 0)
  (0.0651326 -0.0197684 0)
  (0.0751854 -0.0130136 0)
  (0.0836385 -0.00954228 0)
  (0.0888397 -0.00753749 0)
  (0.0923287 -0.00594236 0)
  (0.0944683 -0.00417755 0)
  (0.093975 -0.00176408 0)
  (0.0890531 0.00182822 0)
  (0.0775031 0.00719479 0)
  (0.0635338 0.0266489 0)
  (0.0516711 0.0442972 0)
  (0.0602989 0.0615523 0)
  (-0.0811804 0.103447 0)
  (0.623257 0.388902 0)
  (-0.241447 0.17452 0)
  (-0.0363391 0.127884 0)
  (-0.0586433 0.091318 0)
  (-0.063855 0.054648 0)
  (-0.0607761 0.00991043 0)
  (-0.0403589 -0.0437764 0)
  (-0.0196197 -0.091094 0)
  (-3.2754e-05 -0.123586 0)
  (0.0161469 -0.13879 0)
  (0.028356 -0.139172 0)
  (0.0373519 -0.128569 0)
  (0.0437414 -0.109763 0)
  (0.0485054 -0.0856673 0)
  (0.0525409 -0.05893 0)
  (0.0572177 -0.0318732 0)
  (0.0659753 -0.00731579 0)
  (0.0786435 0.00549029 0)
  (0.0898077 -0.00955857 0)
  (0.0881056 -0.0260303 0)
  (0.0797062 -0.0324936 0)
  (0.0701918 -0.0334566 0)
  (0.0618421 -0.0313967 0)
  (0.0549575 -0.0257453 0)
  (0.0529374 -0.0145296 0)
  (0.0561049 -0.00831034 0)
  (0.0601131 -0.00605548 0)
  (0.0637364 -0.00507133 0)
  (0.0672581 -0.00372724 0)
  (0.0704821 -0.000989557 0)
  (0.0727645 0.00379209 0)
  (0.0725815 0.0108344 0)
  (0.0694673 0.0206497 0)
  (0.0646725 0.0362908 0)
  (0.0590294 0.0536404 0)
  (0.080627 0.0735609 0)
  (0.0314144 0.102629 0)
  (0.0929927 0.121368 0)
  (0.120299 0.133654 0)
  (-0.178633 0.164542 0)
  (0.712686 0.433675 0)
  (-0.280767 0.193117 0)
  (-0.0057582 0.122985 0)
  (-0.0105322 0.0903647 0)
  (-0.00341546 0.0517833 0)
  (0.0221248 -0.00477881 0)
  (0.0500985 -0.0647561 0)
  (0.0694575 -0.109453 0)
  (0.0810551 -0.136467 0)
  (0.0857858 -0.147018 0)
  (0.0852674 -0.143859 0)
  (0.0811385 -0.130371 0)
  (0.0749745 -0.109829 0)
  (0.0684219 -0.0852639 0)
  (0.0628243 -0.0592095 0)
  (0.0595349 -0.0343724 0)
  (0.0602996 -0.0139934 0)
  (0.0649365 -0.00385196 0)
  (0.067646 -0.00790085 0)
  (0.0641823 -0.0159864 0)
  (0.0563627 -0.021788 0)
  (0.0473789 -0.0240688 0)
  (0.0392591 -0.0234856 0)
  (0.0329182 -0.020143 0)
  (0.0299908 -0.0144445 0)
  (0.0307541 -0.011104 0)
  (0.0333702 -0.010143 0)
  (0.0368422 -0.00984528 0)
  (0.040966 -0.00882326 0)
  (0.0455627 -0.00592017 0)
  (0.0505344 3.93933e-05 0)
  (0.0549941 0.00925935 0)
  (0.0580213 0.0211669 0)
  (0.0610613 0.0359631 0)
  (0.0641206 0.0518963 0)
  (0.0826613 0.0697196 0)
  (0.0792139 0.0752118 0)
  (0.0924026 0.0333982 0)
  (0.121102 -0.0044593 0)
  (-0.203825 0.08718 0)
  (0.7692 0.474376 0)
  (-0.299578 0.177508 0)
  (0.0245528 0.0688844 0)
  (0.0546533 0.0573839 0)
  (0.0795821 0.0259355 0)
  (0.125018 -0.0361212 0)
  (0.153041 -0.0880117 0)
  (0.165641 -0.122212 0)
  (0.165248 -0.139558 0)
  (0.15493 -0.142564 0)
  (0.138068 -0.13423 0)
  (0.117754 -0.117788 0)
  (0.0966584 -0.0964911 0)
  (0.0770144 -0.073017 0)
  (0.0603204 -0.0492647 0)
  (0.0478419 -0.0278619 0)
  (0.040402 -0.0116698 0)
  (0.0374132 -0.00361375 0)
  (0.0352922 -0.00465311 0)
  (0.0309084 -0.00960278 0)
  (0.0242769 -0.0140915 0)
  (0.0168669 -0.0164703 0)
  (0.00998401 -0.0168683 0)
  (0.00458922 -0.0156285 0)
  (0.00180608 -0.013477 0)
  (0.00182573 -0.0125686 0)
  (0.0035923 -0.012995 0)
  (0.00635757 -0.0136836 0)
  (0.00995622 -0.0135793 0)
  (0.0145158 -0.0116331 0)
  (0.0203334 -0.00650268 0)
  (0.029145 0.00316764 0)
  (0.0376672 0.0154187 0)
  (0.0467663 0.0286506 0)
  (0.0566464 0.0415259 0)
  (0.0740689 0.0550512 0)
  (0.0873554 0.0579031 0)
  (0.100201 0.0403898 0)
  (0.15119 0.0481927 0)
  (-0.136767 0.143349 0)
  (0.87563 0.473936 0)
  (-0.0577931 0.155083 0)
  (0.115452 -0.0171529 0)
  (0.195522 -0.0564104 0)
  (0.243216 -0.0765311 0)
  (0.268869 -0.0984614 0)
  (0.276788 -0.11667 0)
  (0.267286 -0.126561 0)
  (0.243412 -0.127389 0)
  (0.209954 -0.120195 0)
  (0.17176 -0.106632 0)
  (0.132813 -0.0886247 0)
  (0.0962216 -0.0685854 0)
  (0.0641762 -0.0484234 0)
  (0.0376881 -0.0290644 0)
  (0.0184788 -0.0130597 0)
  (0.00640771 -0.00275228 0)
  (0.000462773 0.00104189 0)
  (-0.00254846 -0.000624496 0)
  (-0.00623532 -0.00447979 0)
  (-0.0112882 -0.00800866 0)
  (-0.0169378 -0.0103113 0)
  (-0.0223047 -0.011525 0)
  (-0.0265992 -0.0120353 0)
  (-0.0291923 -0.0124173 0)
  (-0.0301583 -0.0134212 0)
  (-0.0301556 -0.0149544 0)
  (-0.0296532 -0.0164712 0)
  (-0.0287299 -0.0174007 0)
  (-0.0271428 -0.017167 0)
  (-0.0243226 -0.015109 0)
  (-0.0189376 -0.0104286 0)
  (-0.00613422 -0.00219838 0)
  (0.00815404 0.00781186 0)
  (0.0211584 0.0144098 0)
  (0.0381915 0.019206 0)
  (0.0535397 0.0152344 0)
  (0.0647196 0.00299843 0)
  (0.143368 0.0668993 0)
  (-0.454386 0.23728 0)
  (1.02483 0.42391 0)
  (0.487483 0.27948 0)
  (0.503298 0.179467 0)
  (0.533942 0.100494 0)
  (0.510815 0.0407033 0)
  (0.460924 -0.00867367 0)
  (0.404412 -0.0442006 0)
  (0.343511 -0.064187 0)
  (0.279364 -0.0705044 0)
  (0.215363 -0.0668954 0)
  (0.155085 -0.056939 0)
  (0.101135 -0.0431807 0)
  (0.0554531 -0.0282314 0)
  (0.0180972 -0.0139848 0)
  (-0.0119683 -0.001829 0)
  (-0.0275015 0.00376056 0)
  (-0.0350938 0.00549145 0)
  (-0.0383029 0.00474194 0)
  (-0.0404368 0.00230633 0)
  (-0.0429209 -0.000694228 0)
  (-0.0464519 -0.00337754 0)
  (-0.0506823 -0.00551179 0)
  (-0.0550104 -0.0072381 0)
  (-0.0589407 -0.00875673 0)
  (-0.0622457 -0.0102958 0)
  (-0.0651325 -0.0120331 0)
  (-0.0680536 -0.0138113 0)
  (-0.0714064 -0.0152725 0)
  (-0.0755061 -0.015947 0)
  (-0.0806998 -0.0152115 0)
  (-0.0874909 -0.012243 0)
  (-0.0965092 -0.00607989 0)
  (-0.108206 0.00412707 0)
  (-0.120113 0.0176424 0)
  (-0.138713 0.0347446 0)
  (-0.168035 0.0562221 0)
  (-0.210774 0.0813781 0)
  (-0.263922 0.108105 0)
  (-0.340703 0.130857 0)
  (-0.632018 0.140352 0)
  (-0.126276 -0.00603923 0)
  (0.112145 -0.0217233 0)
  (0.181177 -0.0545373 0)
  (0.16828 -0.054698 0)
  (0.147495 -0.0449339 0)
  (0.12069 -0.0338927 0)
  (0.0877406 -0.0228368 0)
  (0.0511378 -0.0119225 0)
  (0.0130437 -0.00184026 0)
  (-0.0218524 0.0063173 0)
  (-0.0448463 0.0107788 0)
  (-0.0595635 0.0129978 0)
  (-0.0670085 0.0130568 0)
  (-0.0705405 0.0118431 0)
  (-0.072252 0.0105367 0)
  (-0.0732838 0.00920908 0)
  (-0.0745986 0.00782702 0)
  (-0.0766296 0.00661429 0)
  (-0.0792312 0.00565469 0)
  (-0.0823351 0.00473815 0)
  (-0.0858519 0.00347655 0)
  (-0.0895655 0.00192036 0)
  (-0.0935307 0.000180017 0)
  (-0.0979185 -0.00155535 0)
  (-0.102868 -0.00294538 0)
  (-0.108444 -0.00360192 0)
  (-0.114616 -0.00313596 0)
  (-0.121257 -0.00116131 0)
  (-0.128108 0.00268703 0)
  (-0.134558 0.00871691 0)
  (-0.139224 0.0178293 0)
  (-0.142939 0.0313589 0)
  (-0.146194 0.0494096 0)
  (-0.148961 0.070546 0)
  (-0.148214 0.0892857 0)
  (-0.137145 0.0915062 0)
  (-0.120167 0.0431503 0)
  (-0.189571 -0.176878 0)
  (0.0362931 0.189579 0)
  (0.0291892 0.0604418 0)
  (-0.00950011 -0.000681262 0)
  (-0.0310102 -0.00587718 0)
  (-0.0525259 -0.00102886 0)
  (-0.0717092 0.00266071 0)
  (-0.0880766 0.00629773 0)
  (-0.0993083 0.00933936 0)
  (-0.105163 0.0103468 0)
  (-0.108262 0.00887896 0)
  (-0.10856 0.00560735 0)
  (-0.10705 0.00216971 0)
  (-0.104421 -0.00133998 0)
  (-0.101736 -0.00513553 0)
  (-0.0995877 -0.00901493 0)
  (-0.0982315 -0.0130971 0)
  (-0.0978525 -0.0175457 0)
  (-0.0984688 -0.0221896 0)
  (-0.0998949 -0.0265456 0)
  (-0.101885 -0.0300873 0)
  (-0.104273 -0.0324261 0)
  (-0.107109 -0.0336029 0)
  (-0.110309 -0.033518 0)
  (-0.113887 -0.0327501 0)
  (-0.117823 -0.0315271 0)
  (-0.121955 -0.0297509 0)
  (-0.125958 -0.0271423 0)
  (-0.129323 -0.0232244 0)
  (-0.131349 -0.017267 0)
  (-0.131238 -0.00853601 0)
  (-0.128011 0.00273024 0)
  (-0.12012 0.0173378 0)
  (-0.106419 0.0358142 0)
  (-0.0864641 0.0567348 0)
  (-0.058861 0.072374 0)
  (-0.0163248 0.0628136 0)
  (0.137697 -0.0287051 0)
  (-0.0558588 -0.0652912 0)
  (-0.0578 -0.32494 0)
  (-0.418567 -0.124363 0)
  (-0.306825 0.0634646 0)
  (-0.265481 -0.0124566 0)
  (-0.226798 -0.0151034 0)
  (-0.218653 -0.00527501 0)
  (-0.214645 0.00364945 0)
  (-0.209741 0.0112343 0)
  (-0.202404 0.0183718 0)
  (-0.192326 0.0252945 0)
  (-0.180134 0.0317289 0)
  (-0.16723 0.0374255 0)
  (-0.154942 0.0425704 0)
  (-0.144033 0.0476421 0)
  (-0.13465 0.052763 0)
  (-0.126704 0.0581486 0)
  (-0.119934 0.0640357 0)
  (-0.11411 0.0704424 0)
  (-0.109158 0.0771239 0)
  (-0.1051 0.0835357 0)
  (-0.10198 0.0889281 0)
  (-0.0998176 0.0925923 0)
  (-0.0985955 0.0940816 0)
  (-0.0983046 0.0933831 0)
  (-0.0989357 0.0904826 0)
  (-0.100383 0.0864137 0)
  (-0.102507 0.0817748 0)
  (-0.105083 0.0768296 0)
  (-0.107756 0.071756 0)
  (-0.109995 0.066633 0)
  (-0.110942 0.0614486 0)
  (-0.109061 0.0567189 0)
  (-0.10183 0.0542993 0)
  (-0.0866889 0.0551144 0)
  (-0.0628177 0.0600829 0)
  (-0.033776 0.0691666 0)
  (0.00978324 0.0756477 0)
  (0.0743541 0.0440909 0)
  (0.143338 -0.00185197 0)
  (-0.516157 0.0734832 0)
)
;

boundaryField
{
  floor
  {
    type noSlip;
  }
  ceiling
  {
    type noSlip;
  }
  sWall
  {
    type noSlip;
  }
  nWall
  {
    type noSlip;
  }
  sideWalls
  {
    type empty;
  }
  glass1
  {
    type noSlip;
  }
  glass2
  {
    type noSlip;
  }
  sun
  {
    type noSlip;
  }
  Table_master
  {
    type noSlip;
  }
  Table_slave
  {
    type noSlip;
  }
  inlet
  {
    type fixedValue;
    value uniform (0.0707107 -0.0707107 0);
  }
  outlet
  {
    type zeroGradient;
  }
} 	// ************************************************************************* //

