/*--------------------------------*- C++ -*----------------------------------*\
  =========                 |
  \\      /  F ield         | OpenFOAM: The Open Source CFD Toolbox
   \\    /   O peration     | Website:  https://openfoam.org
    \\  /    A nd           | Version:  6
     \\/     M anipulation  |
\*---------------------------------------------------------------------------*/
FoamFile
{
    version     2.0;
    format      ascii;
    class       volScalarField;
    location    "1700";
    object      T;
}
// * * * * * * * * * * * * * * * * * * * * * * * * * * * * * * * * * * * * * //

dimensions      [0 0 0 1 0 0 0];

internalField   nonuniform List<scalar> 
458
(
302.42
302.149
302.135
302.131
302.127
302.124
302.121
302.119
302.12
302.134
302.177
302.258
302.292
302.31
302.332
302.837
302.796
302.771
302.781
302.8
302.816
302.832
302.848
302.863
302.879
302.895
302.911
302.927
302.944
302.962
302.981
303.006
303.051
302.585
302.161
302.129
302.123
302.118
302.112
302.107
302.096
302.085
302.098
302.161
302.28
302.335
302.348
302.351
302.363
302.378
302.405
302.848
302.746
302.727
302.746
302.774
302.791
302.806
302.821
302.836
302.851
302.867
302.883
302.899
302.917
302.937
302.96
302.991
303.045
302.766
302.192
302.143
302.14
302.141
302.14
302.133
302.103
302.062
302.059
302.142
302.295
302.384
302.414
302.409
302.408
302.407
302.416
302.782
302.699
302.694
302.734
302.783
302.793
302.806
302.821
302.837
302.854
302.872
302.89
302.909
302.928
302.949
302.97
302.998
303.05
302.958
302.239
302.168
302.176
302.195
302.208
302.205
302.146
302.051
302.018
302.116
302.306
302.437
302.489
302.484
302.47
302.453
302.439
302.455
302.497
302.569
302.66
302.755
302.837
302.9
302.945
302.98
303.011
303.038
303.064
303.087
303.109
303.128
303.085
303.047
303.032
303.062
303.155
302.305
302.2
302.216
302.261
302.308
302.317
302.213
302.05
301.982
302.093
302.311
302.492
302.576
302.579
302.555
302.526
302.507
302.525
302.58
302.667
302.77
302.873
302.961
303.035
303.088
303.128
303.16
303.184
303.201
303.211
303.214
303.208
303.172
303.118
303.075
303.076
303.24
303.361
303.351
303.342
302.396
302.246
302.247
302.305
302.389
302.432
302.27
302.047
301.956
302.071
302.323
302.56
302.682
302.701
302.67
302.636
302.624
302.66
302.737
302.837
302.941
303.037
303.118
303.181
303.228
303.261
303.286
303.301
303.308
303.307
303.298
303.28
303.242
303.186
303.13
303.108
303.184
303.237
303.292
303.511
302.551
302.368
302.331
302.365
302.462
302.48
302.279
302.023
301.924
302.061
302.361
302.655
302.813
302.844
302.815
302.788
302.796
302.855
302.945
303.041
303.133
303.213
303.276
303.323
303.357
303.379
303.393
303.398
303.395
303.386
303.369
303.344
303.306
303.255
303.2
303.166
303.186
303.213
303.25
303.75
303.031
302.799
302.648
302.6
302.649
302.523
302.204
301.918
301.863
302.074
302.451
302.804
302.977
303.003
302.988
302.982
303.011
303.08
303.168
303.247
303.317
303.372
303.413
303.44
303.458
303.468
303.472
303.469
303.46
303.445
303.425
303.401
303.365
303.324
303.282
303.256
303.266
303.29
303.419
304.094
303.752
303.484
303.221
303.04
302.891
302.395
301.897
301.669
301.786
302.159
302.645
303.037
303.148
303.174
303.179
303.196
303.236
303.298
303.364
303.419
303.462
303.494
303.514
303.525
303.529
303.527
303.52
303.509
303.496
303.482
303.468
303.456
303.45
303.451
303.465
303.494
303.527
303.552
303.615
298.117
299.466
300.159
300.291
300.462
300.765
301.249
301.854
302.474
303.056
303.261
303.324
303.345
303.363
303.39
303.428
303.473
303.515
303.547
303.569
303.581
303.585
303.583
303.577
303.568
303.557
303.546
303.535
303.524
303.515
303.509
303.508
303.514
303.529
303.556
303.592
303.638
303.701
298.203
299.472
300.007
300.344
300.778
301.405
302.144
302.843
303.195
303.379
303.447
303.477
303.497
303.518
303.542
303.569
303.595
303.616
303.63
303.636
303.636
303.631
303.624
303.615
303.605
303.595
303.584
303.574
303.564
303.556
303.55
303.546
303.548
303.557
303.574
303.605
303.63
303.681
299.453
299.427
299.425
300.417
301.134
302.007
302.787
303.125
303.348
303.484
303.55
303.585
303.607
303.623
303.636
303.648
303.659
303.668
303.675
303.679
303.678
303.675
303.67
303.663
303.655
303.647
303.639
303.63
303.621
303.612
303.603
303.594
303.587
303.581
303.577
303.579
303.589
303.604
303.619
303.677
)
;

boundaryField
{
    floor
    {
        type            wallHeatTransfer;
        Tinf            uniform 305.2;
        alphaWall       uniform 0.24;
        value           nonuniform List<scalar> 
36
(
302.619
303.248
303.171
303.111
303.101
303.117
303.146
303.178
303.21
303.24
303.27
303.298
303.326
303.354
303.381
303.408
303.439
303.475
303.539
303.539
303.494
303.472
303.457
303.545
303.629
303.604
302.619
302.617
302.657
302.721
303.248
302.721
303.265
302.708
303.147
302.732
)
;
    }
    ceiling
    {
        type            wallHeatTransfer;
        Tinf            uniform 303.2;
        alphaWall       uniform 0.24;
        value           nonuniform List<scalar> 
43
(
299.657
299.63
299.626
300.548
301.24
302.078
302.817
303.131
303.335
303.457
303.515
303.544
303.562
303.575
303.586
303.596
303.605
303.612
303.616
303.617
303.615
303.611
303.604
303.597
303.59
303.583
303.576
303.569
303.562
303.556
303.55
303.544
303.54
303.537
303.536
303.539
303.549
303.562
303.573
303.622
304.052
303.73
298.52
)
;
    }
    sWall
    {
        type            wallHeatTransfer;
        Tinf            uniform 315.2;
        alphaWall       uniform 0.36;
        value           uniform 300.708;
    }
    nWall
    {
        type            wallHeatTransfer;
        Tinf            uniform 307.2;
        alphaWall       uniform 0.36;
        value           nonuniform List<scalar> 6(304.091 304.025 303.908 304.21 304.185 304.253);
    }
    sideWalls
    {
        type            empty;
    }
    glass1
    {
        type            wallHeatTransfer;
        Tinf            uniform 315.2;
        alphaWall       uniform 4.3;
        value           nonuniform List<scalar> 9(310.869 310.3 309.94 309.672 309.453 309.249 309.072 309.13 309.351);
    }
    glass2
    {
        type            wallHeatTransfer;
        Tinf            uniform 307.2;
        alphaWall       uniform 4.3;
        value           nonuniform List<scalar> 2(305.773 305.891);
    }
    sun
    {
        type            wallHeatTransfer;
        Tinf            uniform 305.2;
        alphaWall       uniform 0.24;
        value           nonuniform List<scalar> 
14
(
302.687
302.422
302.401
302.386
302.374
302.362
302.351
302.341
302.337
302.347
302.389
302.478
302.529
302.57
)
;
    }
    Table_master
    {
        type            zeroGradient;
    }
    Table_slave
    {
        type            zeroGradient;
    }
    inlet
    {
        type            fixedValue;
        value           uniform 296.15;
    }
    outlet
    {
        type            zeroGradient;
    }
}


// ************************************************************************* //
