/*--------------------------------*- C++ -*----------------------------------*\
  =========                 |
  \\      /  F ield         | OpenFOAM: The Open Source CFD Toolbox
   \\    /   O peration     | Website:  https://openfoam.org
    \\  /    A nd           | Version:  6
     \\/     M anipulation  |
\*---------------------------------------------------------------------------*/
FoamFile
{
    version     2.0;
    format      ascii;
    class       volVectorField;
    location    "1700";
    object      U;
}
// * * * * * * * * * * * * * * * * * * * * * * * * * * * * * * * * * * * * * //

dimensions      [0 1 -1 0 0 0 0];

internalField   nonuniform List<vector> 
458
(
(0.016296 0.0949351 0)
(-0.186867 0.0319333 0)
(-0.225517 0.0194094 0)
(-0.262692 0.0091938 0)
(-0.285394 -0.00174973 0)
(-0.290437 -0.0138615 0)
(-0.273574 -0.0280079 0)
(-0.233429 -0.0445166 0)
(-0.172049 -0.0609332 0)
(-0.097887 -0.0731999 0)
(-0.0164705 -0.0740091 0)
(0.0562433 -0.0444731 0)
(0.0880106 -0.0208776 0)
(0.0922993 0.00531508 0)
(0.0760761 0.053562 0)
(-0.0212676 0.0134133 0)
(-0.0426127 -0.0162237 0)
(-0.0178616 -0.0320605 0)
(0.0144307 -0.0311082 0)
(0.0398435 -0.0229817 0)
(0.0585377 -0.0127206 0)
(0.0702171 -0.0072453 0)
(0.0758348 -0.00523944 0)
(0.0783684 -0.00445633 0)
(0.0799061 -0.00394839 0)
(0.0810065 -0.00352643 0)
(0.0816225 -0.00310042 0)
(0.0814586 -0.00243983 0)
(0.0798333 -0.00111534 0)
(0.0753673 0.00144754 0)
(0.0664187 0.00485095 0)
(0.0534206 0.00969553 0)
(0.00673723 0.0263597 0)
(0.188349 0.19556 0)
(-0.169861 0.0878851 0)
(-0.184906 0.0672776 0)
(-0.224314 0.0477048 0)
(-0.248589 0.0250209 0)
(-0.256288 -0.00206782 0)
(-0.243237 -0.0347648 0)
(-0.209203 -0.0704969 0)
(-0.156837 -0.102093 0)
(-0.0946823 -0.120465 0)
(-0.0341334 -0.116027 0)
(0.0262598 -0.0726647 0)
(0.0610593 -0.0306162 0)
(0.0882701 0.0125278 0)
(0.107748 0.0583633 0)
(0.122725 0.0589201 0)
(0.0942655 0.0620264 0)
(0.0183912 0.0808429 0)
(0.0418747 0.0472454 0)
(0.0093044 -0.02313 0)
(0.0287797 -0.0449541 0)
(0.0454768 -0.0442736 0)
(0.0609659 -0.0350147 0)
(0.0692701 -0.0161586 0)
(0.0716155 -0.00455602 0)
(0.071823 -0.000297355 0)
(0.072078 0.00116781 0)
(0.0725282 0.00192767 0)
(0.072866 0.00245126 0)
(0.0730311 0.00305103 0)
(0.0729596 0.00418246 0)
(0.0720853 0.00674316 0)
(0.0680327 0.0131251 0)
(0.0580311 0.0199715 0)
(0.0480272 0.0280866 0)
(-0.0314779 0.0550453 0)
(0.348165 0.293355 0)
(-0.178993 0.138218 0)
(-0.141862 0.108416 0)
(-0.181543 0.0747843 0)
(-0.205968 0.0371252 0)
(-0.216346 -0.00685449 0)
(-0.206285 -0.0580911 0)
(-0.176598 -0.113018 0)
(-0.131687 -0.157876 0)
(-0.0804504 -0.178973 0)
(-0.032851 -0.167434 0)
(0.0119702 -0.115921 0)
(0.0447847 -0.0614448 0)
(0.0697218 -0.0122812 0)
(0.0903984 0.0291521 0)
(0.0966735 0.0377731 0)
(0.0832807 0.0525687 0)
(0.0173547 0.0942387 0)
(0.109087 -0.00111975 0)
(0.0729128 -0.038284 0)
(0.0706103 -0.0535658 0)
(0.075926 -0.0542222 0)
(0.0823935 -0.0491669 0)
(0.0840175 -0.0363 0)
(0.0715985 -0.023084 0)
(0.0618913 -0.0159533 0)
(0.0578528 -0.0119977 0)
(0.0562656 -0.00945844 0)
(0.0552166 -0.00773498 0)
(0.0544721 -0.00642545 0)
(0.0547449 -0.00482252 0)
(0.0574904 -0.000523548 0)
(0.0567466 0.0175427 0)
(0.0461359 0.0313023 0)
(0.0466734 0.0445375 0)
(-0.069533 0.0827431 0)
(0.498035 0.37256 0)
(-0.207209 0.181615 0)
(-0.093911 0.146204 0)
(-0.133024 0.102234 0)
(-0.154608 0.0538819 0)
(-0.16633 -0.00461377 0)
(-0.157404 -0.0745 0)
(-0.130368 -0.148412 0)
(-0.0936135 -0.20426 0)
(-0.0545556 -0.22658 0)
(-0.0200086 -0.208911 0)
(0.0115024 -0.151438 0)
(0.0370605 -0.0882072 0)
(0.056484 -0.0320916 0)
(0.0727832 0.0130242 0)
(0.0826598 0.0398254 0)
(0.0927169 0.0638976 0)
(0.0906097 0.098559 0)
(0.130439 0.0887958 0)
(0.119559 0.0124857 0)
(0.105431 -0.0300446 0)
(0.0973567 -0.0474629 0)
(0.0896266 -0.0501489 0)
(0.0799475 -0.0440527 0)
(0.0778879 -0.0257377 0)
(0.0888683 -0.0157184 0)
(0.0965237 -0.0103103 0)
(0.0987652 -0.00702666 0)
(0.0977301 -0.00445046 0)
(0.0945767 -0.00204792 0)
(0.088986 0.000554131 0)
(0.0797528 0.00391967 0)
(0.0643666 0.00888113 0)
(0.048722 0.0275703 0)
(0.0365912 0.0445481 0)
(0.0506715 0.0610471 0)
(-0.102041 0.104931 0)
(0.637014 0.432951 0)
(-0.248727 0.214595 0)
(-0.0418609 0.171593 0)
(-0.0789252 0.121872 0)
(-0.0936758 0.0677007 0)
(-0.10353 -0.00117212 0)
(-0.0915258 -0.0873536 0)
(-0.0661989 -0.177624 0)
(-0.0404545 -0.238817 0)
(-0.0164323 -0.259136 0)
(0.00323248 -0.235182 0)
(0.0198552 -0.175787 0)
(0.0346336 -0.106836 0)
(0.0460663 -0.0457845 0)
(0.0568021 0.00163283 0)
(0.0666222 0.0338553 0)
(0.0798971 0.0560212 0)
(0.0952772 0.064173 0)
(0.112663 0.0232116 0)
(0.112583 -0.0152073 0)
(0.105091 -0.0338705 0)
(0.0941699 -0.0409638 0)
(0.0820048 -0.040216 0)
(0.0705978 -0.0323845 0)
(0.0651063 -0.0160573 0)
(0.0656359 -0.00584513 0)
(0.0664696 -0.00103275 0)
(0.0659104 0.00174536 0)
(0.0646378 0.00422853 0)
(0.0630409 0.00710298 0)
(0.0606563 0.0109192 0)
(0.0569194 0.0163394 0)
(0.0511865 0.02426 0)
(0.0446146 0.0382663 0)
(0.0363654 0.0546213 0)
(0.061985 0.0747099 0)
(-0.00574803 0.110038 0)
(0.0519768 0.139803 0)
(-0.079792 0.0584588 0)
(-0.266828 -0.00713334 0)
(0.750269 0.481031 0)
(-0.297596 0.233776 0)
(0.00609461 0.175381 0)
(-0.0220008 0.132143 0)
(-0.0285234 0.0797291 0)
(-0.034914 0.00716985 0)
(-0.00750883 -0.100318 0)
(0.0139915 -0.201508 0)
(0.0254674 -0.259623 0)
(0.0318474 -0.274003 0)
(0.033659 -0.246247 0)
(0.0336184 -0.185627 0)
(0.0334568 -0.113392 0)
(0.033401 -0.0504367 0)
(0.0353261 -0.00507763 0)
(0.0415355 0.0241648 0)
(0.0528452 0.0401298 0)
(0.0688532 0.0397304 0)
(0.0816218 0.0153847 0)
(0.0835647 -0.00653331 0)
(0.0769697 -0.0206987 0)
(0.0660815 -0.0273929 0)
(0.0541463 -0.0275466 0)
(0.0433073 -0.0221071 0)
(0.0362322 -0.0124379 0)
(0.0334794 -0.00541364 0)
(0.0327719 -0.00174509 0)
(0.0329252 0.000567812 0)
(0.0337599 0.00292514 0)
(0.0350689 0.00608248 0)
(0.0365356 0.0107057 0)
(0.0380243 0.0173902 0)
(0.0394596 0.026664 0)
(0.0416831 0.0393367 0)
(0.0426802 0.0544132 0)
(0.0668422 0.0747741 0)
(0.0563946 0.0921996 0)
(0.0933189 0.0942883 0)
(0.113211 0.0547344 0)
(-0.13416 -0.0276774 0)
(0.8222 0.523177 0)
(-0.330283 0.213056 0)
(0.0477056 0.12768 0)
(0.0455366 0.122035 0)
(0.0438488 0.0787315 0)
(0.0583896 -0.0115889 0)
(0.0900344 -0.124112 0)
(0.10282 -0.211632 0)
(0.099565 -0.261526 0)
(0.0865545 -0.269578 0)
(0.06767 -0.238374 0)
(0.0470727 -0.176942 0)
(0.0282917 -0.104248 0)
(0.0144832 -0.0431815 0)
(0.00768299 -0.00406688 0)
(0.0101382 0.0174996 0)
(0.0195515 0.0273112 0)
(0.0325015 0.0255091 0)
(0.0411697 0.0115963 0)
(0.0419971 -0.00269619 0)
(0.036511 -0.0126263 0)
(0.0272424 -0.0172233 0)
(0.0169356 -0.0171234 0)
(0.00762425 -0.0134761 0)
(0.00129862 -0.00789068 0)
(-0.00140686 -0.00376053 0)
(-0.00165315 -0.00180556 0)
(-0.000386626 -0.000768428 0)
(0.00248574 0.000544131 0)
(0.00667973 0.00307423 0)
(0.0116148 0.00729571 0)
(0.0176414 0.0134274 0)
(0.0247632 0.0217669 0)
(0.0338658 0.0323354 0)
(0.0431442 0.0441653 0)
(0.0645627 0.0599806 0)
(0.0792399 0.0678845 0)
(0.112561 0.059895 0)
(0.155883 0.0475625 0)
(-0.0220804 0.0896987 0)
(0.933727 0.518884 0)
(-0.0545842 0.190016 0)
(0.127299 0.071639 0)
(0.16939 0.0569614 0)
(0.158237 0.0110751 0)
(0.182753 -0.071291 0)
(0.205964 -0.148709 0)
(0.20192 -0.210623 0)
(0.177037 -0.243804 0)
(0.139126 -0.241997 0)
(0.094743 -0.207215 0)
(0.0501148 -0.146639 0)
(0.0109707 -0.0770504 0)
(-0.0148519 -0.023758 0)
(-0.024504 0.000580808 0)
(-0.0236432 0.0125602 0)
(-0.0169956 0.0177173 0)
(-0.00831516 0.0163325 0)
(-0.00313054 0.00854545 0)
(-0.00369809 3.95354e-05 0)
(-0.00813982 -0.00594687 0)
(-0.0155442 -0.00856461 0)
(-0.02346 -0.00844862 0)
(-0.0302276 -0.00664241 0)
(-0.0346317 -0.0043788 0)
(-0.0365041 -0.00306112 0)
(-0.0365859 -0.00295044 0)
(-0.0354951 -0.00349562 0)
(-0.0333393 -0.00399478 0)
(-0.029868 -0.00372866 0)
(-0.0241198 -0.00207004 0)
(-0.0160105 0.00115677 0)
(-0.00725355 0.00570455 0)
(0.00495213 0.0112308 0)
(0.0171309 0.0162388 0)
(0.0349497 0.0226606 0)
(0.0520437 0.0192627 0)
(0.0766337 0.00285581 0)
(0.140557 0.0430141 0)
(-0.4091 0.200313 0)
(1.08317 0.45593 0)
(0.542775 0.309661 0)
(0.546483 0.277379 0)
(0.512172 0.193479 0)
(0.457232 0.101007 0)
(0.413747 0.00244192 0)
(0.361586 -0.0894668 0)
(0.303404 -0.15639 0)
(0.238042 -0.188329 0)
(0.166708 -0.184254 0)
(0.0939768 -0.150452 0)
(0.0260406 -0.0941904 0)
(-0.028916 -0.0328139 0)
(-0.0506254 -0.00649473 0)
(-0.0586942 0.00466253 0)
(-0.0583811 0.00989904 0)
(-0.054576 0.0120273 0)
(-0.0499813 0.0110975 0)
(-0.0476717 0.00736279 0)
(-0.0487747 0.00299912 0)
(-0.0521812 -0.000411003 0)
(-0.0570849 -0.00224733 0)
(-0.0623377 -0.00282782 0)
(-0.0668656 -0.00276915 0)
(-0.0701556 -0.00267453 0)
(-0.0723761 -0.00302911 0)
(-0.0741833 -0.00380938 0)
(-0.0762659 -0.0046159 0)
(-0.0792126 -0.00488478 0)
(-0.0836406 -0.00391817 0)
(-0.0900049 -0.000976564 0)
(-0.0982497 0.00449529 0)
(-0.108509 0.0129014 0)
(-0.123761 0.0248616 0)
(-0.147223 0.0406569 0)
(-0.181186 0.0592904 0)
(-0.227654 0.0769701 0)
(-0.279629 0.0901155 0)
(-0.349399 0.097531 0)
(-0.614426 0.0991563 0)
(0.508522 0.197052 0)
(0.460507 0.202112 0)
(0.418672 0.125426 0)
(0.378274 0.0362398 0)
(0.332947 -0.040845 0)
(0.270567 -0.0934174 0)
(0.195195 -0.116202 0)
(0.111682 -0.107926 0)
(0.02774 -0.0747327 0)
(-0.0484056 -0.0231829 0)
(-0.0791774 -0.000387554 0)
(-0.0906515 0.00648499 0)
(-0.0934983 0.00897965 0)
(-0.0928803 0.0105449 0)
(-0.0907536 0.0116303 0)
(-0.0886128 0.0117733 0)
(-0.0878892 0.0108577 0)
(-0.0891018 0.00962884 0)
(-0.0917852 0.00884109 0)
(-0.0951546 0.00881223 0)
(-0.0984535 0.00927431 0)
(-0.10135 0.00983177 0)
(-0.103786 0.0101249 0)
(-0.105998 0.00995202 0)
(-0.108339 0.00940665 0)
(-0.111057 0.00882265 0)
(-0.11421 0.0086861 0)
(-0.117614 0.00957089 0)
(-0.121024 0.0121829 0)
(-0.124417 0.0174657 0)
(-0.127615 0.0263901 0)
(-0.130728 0.0396587 0)
(-0.134216 0.0569181 0)
(-0.138243 0.0753628 0)
(-0.139321 0.0863445 0)
(-0.12185 0.0694395 0)
(-0.080318 -0.0172179 0)
(-0.269366 -0.19732 0)
(0.301157 0.469379 0)
(0.0145124 0.266797 0)
(0.0672451 0.142232 0)
(0.0888475 0.0395346 0)
(0.0917814 -0.0247401 0)
(0.067706 -0.0543582 0)
(0.0151239 -0.0561344 0)
(-0.0531949 -0.034042 0)
(-0.0984362 -0.015899 0)
(-0.121491 -0.00705227 0)
(-0.126097 -0.00689859 0)
(-0.126168 -0.00860577 0)
(-0.124819 -0.00988986 0)
(-0.122704 -0.0105261 0)
(-0.120158 -0.0111747 0)
(-0.117719 -0.0126518 0)
(-0.116036 -0.0154051 0)
(-0.115454 -0.0192396 0)
(-0.115865 -0.0235749 0)
(-0.116891 -0.0277383 0)
(-0.118126 -0.0312278 0)
(-0.119309 -0.0337342 0)
(-0.120341 -0.0350979 0)
(-0.121226 -0.0352187 0)
(-0.121957 -0.0339821 0)
(-0.122451 -0.0312726 0)
(-0.122541 -0.026995 0)
(-0.121952 -0.0210573 0)
(-0.12021 -0.0133217 0)
(-0.116484 -0.00350698 0)
(-0.109563 0.00896174 0)
(-0.0982296 0.0247679 0)
(-0.0818455 0.0436423 0)
(-0.0607692 0.0622028 0)
(-0.037482 0.0743429 0)
(0.000988166 0.0617021 0)
(0.144856 -0.00921048 0)
(-0.201972 -0.10587 0)
(-0.710942 -0.690773 0)
(-0.851105 -0.166501 0)
(-0.557156 0.296176 0)
(-0.463455 0.121637 0)
(-0.240056 0.0300553 0)
(-0.158443 -0.0237529 0)
(-0.139276 -0.0195492 0)
(-0.145039 0.00414298 0)
(-0.164772 0.0259134 0)
(-0.175947 0.0406921 0)
(-0.176546 0.0487849 0)
(-0.17139 0.0532531 0)
(-0.164975 0.0557014 0)
(-0.159334 0.0578935 0)
(-0.15438 0.060609 0)
(-0.149448 0.0640803 0)
(-0.144077 0.0684818 0)
(-0.138255 0.0738891 0)
(-0.132318 0.0801876 0)
(-0.126661 0.0870118 0)
(-0.121547 0.0937457 0)
(-0.117075 0.0996631 0)
(-0.113237 0.104151 0)
(-0.109985 0.106836 0)
(-0.107272 0.107547 0)
(-0.105073 0.106218 0)
(-0.103343 0.102861 0)
(-0.101957 0.0976484 0)
(-0.100626 0.091006 0)
(-0.0987893 0.0836471 0)
(-0.0954193 0.076505 0)
(-0.0887921 0.0706291 0)
(-0.0765819 0.0671472 0)
(-0.0569457 0.0672318 0)
(-0.0301434 0.0715998 0)
(0.0128423 0.0792684 0)
(0.0534432 0.0805459 0)
(0.0926485 0.0691305 0)
(0.161117 0.0450356 0)
(-0.24428 -5.32379e-05 0)
)
;

boundaryField
{
    floor
    {
        type            noSlip;
    }
    ceiling
    {
        type            noSlip;
    }
    sWall
    {
        type            noSlip;
    }
    nWall
    {
        type            noSlip;
    }
    sideWalls
    {
        type            empty;
    }
    glass1
    {
        type            noSlip;
    }
    glass2
    {
        type            noSlip;
    }
    sun
    {
        type            noSlip;
    }
    Table_master
    {
        type            noSlip;
    }
    Table_slave
    {
        type            noSlip;
    }
    inlet
    {
        type            fixedValue;
        value           uniform (0.7 0 0);
    }
    outlet
    {
        type            zeroGradient;
    }
}


// ************************************************************************* //
