/*--------------------------------*- C++ -*----------------------------------*\
  =========                 |
  \\      /  F ield         | OpenFOAM: The Open Source CFD Toolbox
   \\    /   O peration     | Website:  https://openfoam.org
    \\  /    A nd           | Version:  6
     \\/     M anipulation  |
\*---------------------------------------------------------------------------*/
FoamFile
{
    version     2.0;
    format      ascii;
    class       volVectorField;
    location    "1700";
    object      U;
}
// * * * * * * * * * * * * * * * * * * * * * * * * * * * * * * * * * * * * * //

dimensions      [0 1 -1 0 0 0 0];

internalField   nonuniform List<vector> 
458
(
(0.0195254 0.0961605 0)
(-0.187862 0.0332366 0)
(-0.228319 0.0222837 0)
(-0.269574 0.013081 0)
(-0.298222 0.00318718 0)
(-0.311756 -0.0077259 0)
(-0.306131 -0.0201671 0)
(-0.278305 -0.035174 0)
(-0.227337 -0.0518603 0)
(-0.157692 -0.0675538 0)
(-0.0800906 -0.0777353 0)
(0.010358 -0.0691891 0)
(0.0667659 -0.0337444 0)
(0.083317 -0.00224295 0)
(0.0707713 0.0478956 0)
(-0.0178506 0.0109999 0)
(-0.0388178 -0.0198249 0)
(-0.0121904 -0.0353427 0)
(0.0236921 -0.0314625 0)
(0.0484514 -0.0228263 0)
(0.0673336 -0.0125522 0)
(0.0784974 -0.00710836 0)
(0.0833282 -0.00513481 0)
(0.0851541 -0.00437583 0)
(0.0860871 -0.00388257 0)
(0.0866099 -0.00346481 0)
(0.0866082 -0.00300729 0)
(0.0857861 -0.00227301 0)
(0.0834471 -0.000811395 0)
(0.0781137 0.00200687 0)
(0.0680778 0.0055705 0)
(0.0545393 0.0101263 0)
(0.00249114 0.0268889 0)
(0.193572 0.197768 0)
(-0.17369 0.0897166 0)
(-0.190863 0.0723008 0)
(-0.234906 0.0551134 0)
(-0.265193 0.0351746 0)
(-0.281043 0.0114012 0)
(-0.278782 -0.0174704 0)
(-0.255987 -0.0512459 0)
(-0.212677 -0.0860501 0)
(-0.153346 -0.114278 0)
(-0.0876718 -0.126624 0)
(-0.0251533 -0.111513 0)
(0.0331298 -0.0526375 0)
(0.069582 0.000236239 0)
(0.0972028 0.0516791 0)
(0.115231 0.0550035 0)
(0.0920853 0.060833 0)
(0.0160874 0.08285 0)
(0.0531011 0.0476803 0)
(0.0144424 -0.0297993 0)
(0.0326219 -0.0479016 0)
(0.0507882 -0.0455717 0)
(0.0672432 -0.0351288 0)
(0.0764256 -0.0153572 0)
(0.0788063 -0.00346681 0)
(0.0787832 0.000861292 0)
(0.078896 0.0023405 0)
(0.0792972 0.00311428 0)
(0.0796051 0.0036718 0)
(0.079692 0.00426955 0)
(0.0795009 0.00537428 0)
(0.078455 0.00803863 0)
(0.0738803 0.0150484 0)
(0.0626582 0.0221613 0)
(0.0519142 0.0297814 0)
(-0.0366836 0.0567504 0)
(0.355079 0.297903 0)
(-0.184384 0.142774 0)
(-0.148789 0.117827 0)
(-0.193628 0.0877187 0)
(-0.223757 0.0541278 0)
(-0.241825 0.0149286 0)
(-0.243332 -0.0311319 0)
(-0.224911 -0.0839238 0)
(-0.187941 -0.136577 0)
(-0.137731 -0.175233 0)
(-0.0837402 -0.186847 0)
(-0.0348514 -0.163744 0)
(0.0112296 -0.0969432 0)
(0.0458188 -0.0337611 0)
(0.0748039 0.0161953 0)
(0.0856079 0.0291347 0)
(0.0766159 0.0469933 0)
(0.00784432 0.0911775 0)
(0.119553 -0.00822579 0)
(0.0756129 -0.042689 0)
(0.0714819 -0.0563165 0)
(0.077539 -0.0560394 0)
(0.0849268 -0.0505477 0)
(0.0885807 -0.0365704 0)
(0.0768479 -0.023122 0)
(0.067526 -0.0159437 0)
(0.0640052 -0.0119597 0)
(0.0630397 -0.00937472 0)
(0.0626407 -0.00757963 0)
(0.0626365 -0.00612731 0)
(0.0637454 -0.00435088 0)
(0.0674344 0.000269068 0)
(0.0668388 0.0203306 0)
(0.0547445 0.0351895 0)
(0.0536115 0.0489531 0)
(-0.072955 0.087682 0)
(0.507023 0.379831 0)
(-0.213382 0.189057 0)
(-0.100049 0.15993 0)
(-0.144853 0.120428 0)
(-0.17138 0.0776746 0)
(-0.190248 0.0262506 0)
(-0.195116 -0.0362533 0)
(-0.17949 -0.108137 0)
(-0.148262 -0.177855 0)
(-0.10781 -0.225298 0)
(-0.0664242 -0.236049 0)
(-0.0299852 -0.206505 0)
(0.00333735 -0.134615 0)
(0.0317851 -0.0622168 0)
(0.0545945 -0.00681128 0)
(0.0701493 0.027566 0)
(0.083842 0.0560039 0)
(0.0811038 0.0934314 0)
(0.123382 0.0887537 0)
(0.114556 0.00675788 0)
(0.099835 -0.0357075 0)
(0.0924292 -0.0513185 0)
(0.0860167 -0.0530075 0)
(0.0772789 -0.0466451 0)
(0.0764857 -0.0276239 0)
(0.0896897 -0.0174782 0)
(0.0998039 -0.0120739 0)
(0.1048 -0.00880714 0)
(0.106982 -0.00624946 0)
(0.106916 -0.00370282 0)
(0.103597 -0.000672066 0)
(0.0955938 0.00337945 0)
(0.0803913 0.00928753 0)
(0.0636796 0.0306181 0)
(0.0507572 0.0497946 0)
(0.0620569 0.0688969 0)
(-0.0935724 0.117125 0)
(0.649966 0.442652 0)
(-0.255829 0.224528 0)
(-0.0448206 0.189294 0)
(-0.0886117 0.144912 0)
(-0.107174 0.0977474 0)
(-0.124205 0.0381201 0)
(-0.130702 -0.0377544 0)
(-0.114323 -0.126948 0)
(-0.0891886 -0.210236 0)
(-0.0609187 -0.262461 0)
(-0.0348023 -0.270661 0)
(-0.0130201 -0.235852 0)
(0.00665994 -0.161045 0)
(0.0252972 -0.0837356 0)
(0.0413659 -0.0231889 0)
(0.0558838 0.0183458 0)
(0.0714829 0.0462098 0)
(0.0875938 0.0573758 0)
(0.105975 0.0169802 0)
(0.106279 -0.0215055 0)
(0.0987638 -0.039238 0)
(0.088008 -0.0453357 0)
(0.0766438 -0.0440513 0)
(0.0664334 -0.0360097 0)
(0.062817 -0.0192961 0)
(0.0659367 -0.00939148 0)
(0.0696817 -0.00523093 0)
(0.0723938 -0.00303072 0)
(0.0745561 -0.000579774 0)
(0.0762635 0.00309464 0)
(0.0762729 0.00829304 0)
(0.0739303 0.0154262 0)
(0.0688535 0.0253177 0)
(0.062597 0.0416734 0)
(0.0558756 0.0598512 0)
(0.082253 0.0811128 0)
(0.0245331 0.114842 0)
(0.0967482 0.138758 0)
(0.12424 0.150177 0)
(-0.177296 0.183853 0)
(0.769745 0.492544 0)
(-0.307354 0.24518 0)
(0.0102371 0.195928 0)
(-0.0263342 0.159325 0)
(-0.034572 0.114106 0)
(-0.0482048 0.0521909 0)
(-0.0514597 -0.0343077 0)
(-0.0291362 -0.142523 0)
(-0.0117791 -0.233544 0)
(0.00135999 -0.285156 0)
(0.00942456 -0.288522 0)
(0.0138405 -0.248936 0)
(0.0168125 -0.175203 0)
(0.0216175 -0.0947311 0)
(0.0272288 -0.0328271 0)
(0.0350739 0.00664183 0)
(0.0467354 0.0290956 0)
(0.0629857 0.0321237 0)
(0.0758331 0.00918705 0)
(0.0774435 -0.0120267 0)
(0.0705906 -0.0258495 0)
(0.0597369 -0.0322632 0)
(0.0484261 -0.0323778 0)
(0.0388227 -0.0271806 0)
(0.0337218 -0.0179396 0)
(0.03358 -0.0118451 0)
(0.0357811 -0.00918532 0)
(0.0388728 -0.00757558 0)
(0.0425247 -0.00521451 0)
(0.0465907 -0.000877837 0)
(0.0507705 0.00601721 0)
(0.0537247 0.0153069 0)
(0.0558622 0.0270513 0)
(0.0586067 0.0418884 0)
(0.0612374 0.0580502 0)
(0.0832844 0.0768629 0)
(0.0773634 0.0829935 0)
(0.0950415 0.033506 0)
(0.124491 -0.0148237 0)
(-0.212371 0.0920101 0)
(0.843614 0.535723 0)
(-0.344791 0.222676 0)
(0.0595419 0.146689 0)
(0.0487634 0.156694 0)
(0.0434967 0.125771 0)
(0.0331289 0.0605894 0)
(0.0465419 -0.0451956 0)
(0.0710233 -0.15979 0)
(0.0785446 -0.244253 0)
(0.0746618 -0.2876 0)
(0.0626482 -0.285924 0)
(0.0465989 -0.244496 0)
(0.029244 -0.171311 0)
(0.0158929 -0.090482 0)
(0.00854548 -0.0311619 0)
(0.00802712 0.00155525 0)
(0.0158383 0.0170798 0)
(0.0280225 0.0182412 0)
(0.0360127 0.00588018 0)
(0.0363462 -0.00775451 0)
(0.0305222 -0.0176476 0)
(0.0212757 -0.0224434 0)
(0.0115062 -0.0228464 0)
(0.00332877 -0.0200478 0)
(-0.00122875 -0.0155734 0)
(-0.00176121 -0.0128445 0)
(0.000100317 -0.0119276 0)
(0.00327314 -0.0114125 0)
(0.00740118 -0.00997966 0)
(0.0125433 -0.00645503 0)
(0.0197046 0.000346742 0)
(0.0278933 0.0101746 0)
(0.0359251 0.02156 0)
(0.0453937 0.0341837 0)
(0.0555385 0.0468678 0)
(0.0748422 0.0610333 0)
(0.0885056 0.0631831 0)
(0.104504 0.0404628 0)
(0.158482 0.0473057 0)
(-0.144065 0.150957 0)
(0.956821 0.531316 0)
(-0.0574594 0.196836 0)
(0.138666 0.086406 0)
(0.176498 0.0987128 0)
(0.153795 0.0783159 0)
(0.13824 0.00548983 0)
(0.167956 -0.0885134 0)
(0.186141 -0.175104 0)
(0.178518 -0.240019 0)
(0.153792 -0.270278 0)
(0.11771 -0.260708 0)
(0.076716 -0.217088 0)
(0.0346929 -0.145651 0)
(0.000977804 -0.0676904 0)
(-0.0174245 -0.0188472 0)
(-0.0224129 0.000854327 0)
(-0.0184283 0.00934266 0)
(-0.0113199 0.0100121 0)
(-0.00714198 0.003576 0)
(-0.0079433 -0.00445901 0)
(-0.013069 -0.0106189 0)
(-0.0205454 -0.0138619 0)
(-0.0281044 -0.0147847 0)
(-0.0341317 -0.0143764 0)
(-0.0375778 -0.0136545 0)
(-0.0385784 -0.013667 0)
(-0.0381064 -0.0142921 0)
(-0.0368169 -0.0149039 0)
(-0.0348509 -0.0148691 0)
(-0.0319361 -0.0135894 0)
(-0.0272072 -0.0103872 0)
(-0.0182443 -0.00458139 0)
(-0.00569804 0.00333679 0)
(0.00768306 0.0116441 0)
(0.0210293 0.0171731 0)
(0.0384392 0.0219844 0)
(0.0533721 0.0156554 0)
(0.0654959 -0.0045503 0)
(0.148834 0.0592961 0)
(-0.466462 0.250422 0)
(1.10441 0.465244 0)
(0.554942 0.318975 0)
(0.569006 0.346154 0)
(0.524638 0.279533 0)
(0.445309 0.183375 0)
(0.396783 0.0748475 0)
(0.36442 -0.0392274 0)
(0.328434 -0.135478 0)
(0.280889 -0.197786 0)
(0.222479 -0.221865 0)
(0.155314 -0.207657 0)
(0.0860556 -0.164625 0)
(0.0175502 -0.0967784 0)
(-0.0316564 -0.0301155 0)
(-0.049094 -0.00639577 0)
(-0.0548833 0.00245409 0)
(-0.0538698 0.00590386 0)
(-0.0510122 0.00594769 0)
(-0.0497193 0.0029783 0)
(-0.0511627 -0.00104042 0)
(-0.0551604 -0.00461849 0)
(-0.0606546 -0.0072029 0)
(-0.0662417 -0.0089842 0)
(-0.0710275 -0.0103255 0)
(-0.0746712 -0.0115339 0)
(-0.0774939 -0.0128135 0)
(-0.0801284 -0.0139839 0)
(-0.0830887 -0.0146667 0)
(-0.0867727 -0.0143696 0)
(-0.0916133 -0.0124725 0)
(-0.0982046 -0.00820678 0)
(-0.107371 -0.000749927 0)
(-0.118226 0.0101373 0)
(-0.13191 0.0246435 0)
(-0.154741 0.0436817 0)
(-0.189709 0.0675556 0)
(-0.239011 0.0938768 0)
(-0.295173 0.119604 0)
(-0.367463 0.140985 0)
(-0.666975 0.156114 0)
(0.795365 0.142783 0)
(0.646462 0.247777 0)
(0.542421 0.21334 0)
(0.480877 0.12326 0)
(0.441594 0.0233106 0)
(0.381228 -0.063829 0)
(0.305406 -0.121302 0)
(0.220997 -0.144294 0)
(0.129834 -0.129851 0)
(0.0424799 -0.0908335 0)
(-0.0462095 -0.0250611 0)
(-0.0751877 -0.00171728 0)
(-0.0854336 0.00322373 0)
(-0.0882815 0.00463257 0)
(-0.0882654 0.00523189 0)
(-0.0874576 0.00500563 0)
(-0.0874945 0.00357259 0)
(-0.0890725 0.00140085 0)
(-0.0918216 -0.000942611 0)
(-0.0955993 -0.00313991 0)
(-0.0997912 -0.00512091 0)
(-0.104006 -0.00680864 0)
(-0.108241 -0.00812509 0)
(-0.112711 -0.0090167 0)
(-0.117658 -0.00931661 0)
(-0.1232 -0.00873746 0)
(-0.129303 -0.00688505 0)
(-0.135762 -0.00329597 0)
(-0.142103 0.00249784 0)
(-0.147383 0.0108595 0)
(-0.151706 0.0225943 0)
(-0.155616 0.0385971 0)
(-0.160193 0.0587436 0)
(-0.166168 0.0803998 0)
(-0.170495 0.0943787 0)
(-0.161735 0.0787889 0)
(-0.145481 -0.00922823 0)
(-0.280374 -0.214048 0)
(0.42275 0.618046 0)
(-0.0138579 0.395351 0)
(0.0859686 0.266736 0)
(0.134187 0.138917 0)
(0.141909 0.0324274 0)
(0.13807 -0.0405973 0)
(0.10652 -0.0744108 0)
(0.0519334 -0.0759431 0)
(-0.0376142 -0.0344827 0)
(-0.0919019 -0.00265527 0)
(-0.115285 0.00925431 0)
(-0.117868 0.00836479 0)
(-0.11796 0.00630157 0)
(-0.11742 0.00538249 0)
(-0.11653 0.00534978 0)
(-0.115584 0.00546176 0)
(-0.115056 0.00518192 0)
(-0.115223 0.00452111 0)
(-0.11601 0.00370997 0)
(-0.117215 0.00286153 0)
(-0.118806 0.00196999 0)
(-0.120878 0.00114034 0)
(-0.123451 0.000485012 0)
(-0.126472 6.68952e-05 0)
(-0.129816 -2.95118e-05 0)
(-0.133261 0.000333758 0)
(-0.136477 0.00137141 0)
(-0.138997 0.00339466 0)
(-0.140117 0.00685034 0)
(-0.138969 0.0126803 0)
(-0.134067 0.021897 0)
(-0.123787 0.0355969 0)
(-0.107361 0.0544412 0)
(-0.0854854 0.0767347 0)
(-0.0596616 0.094976 0)
(-0.0318322 0.0935061 0)
(0.137488 0.0130307 0)
(-0.211652 -0.123895 0)
(-1.05268 -0.933903 0)
(-1.15204 -0.199593 0)
(-0.773065 0.433647 0)
(-0.643558 0.238836 0)
(-0.309281 0.128747 0)
(-0.145975 0.0164796 0)
(-0.0752895 -0.0846157 0)
(-0.0611515 -0.0875523 0)
(-0.0959257 -0.0497032 0)
(-0.13394 -0.0209951 0)
(-0.152835 -0.00565526 0)
(-0.154428 0.000122676 0)
(-0.14874 0.00279427 0)
(-0.142086 0.0025777 0)
(-0.136616 0.00215753 0)
(-0.131954 0.00205881 0)
(-0.127509 0.00195603 0)
(-0.123104 0.00139754 0)
(-0.11899 6.09906e-05 0)
(-0.115583 -0.00208322 0)
(-0.113219 -0.00477992 0)
(-0.112074 -0.0076212 0)
(-0.112167 -0.0102123 0)
(-0.113341 -0.0123353 0)
(-0.115348 -0.0139257 0)
(-0.117924 -0.0149577 0)
(-0.120771 -0.0154064 0)
(-0.123516 -0.0152131 0)
(-0.125674 -0.0142583 0)
(-0.126591 -0.012327 0)
(-0.125339 -0.00908719 0)
(-0.120151 -0.0043388 0)
(-0.10842 0.00245931 0)
(-0.0871901 0.0121823 0)
(-0.055209 0.025912 0)
(-0.012375 0.044607 0)
(0.0468399 0.0579239 0)
(0.0948696 0.0435269 0)
(0.166573 0.00626103 0)
(-0.195556 -0.0611817 0)
)
;

boundaryField
{
    floor
    {
        type            noSlip;
    }
    ceiling
    {
        type            noSlip;
    }
    sWall
    {
        type            noSlip;
    }
    nWall
    {
        type            noSlip;
    }
    sideWalls
    {
        type            empty;
    }
    glass1
    {
        type            noSlip;
    }
    glass2
    {
        type            noSlip;
    }
    sun
    {
        type            noSlip;
    }
    Table_master
    {
        type            noSlip;
    }
    Table_slave
    {
        type            noSlip;
    }
    inlet
    {
        type            fixedValue;
        value           uniform (0.980785 -0.19509 0);
    }
    outlet
    {
        type            zeroGradient;
    }
}


// ************************************************************************* //
