/*--------------------------------*- C++ -*----------------------------------*\
  =========                 |
  \\      /  F ield         | OpenFOAM: The Open Source CFD Toolbox
   \\    /   O peration     | Website:  https://openfoam.org
    \\  /    A nd           | Version:  6
     \\/     M anipulation  |
\*---------------------------------------------------------------------------*/
FoamFile
{
    version     2.0;
    format      ascii;
    class       volScalarField;
    location    "1200";
    object      alphat;
}
// * * * * * * * * * * * * * * * * * * * * * * * * * * * * * * * * * * * * * //

dimensions      [1 -1 -1 0 0 0 0];

internalField   nonuniform List<scalar> 
458
(
0.000821278
0.000854696
0.000819314
0.000851517
0.00088269
0.000911053
0.000937104
0.000961658
0.000985706
0.00101058
0.00103317
0.0010517
0.0010664
0.00107924
0.00108991
0.000321886
0.000356032
0.000364805
0.000284847
0.000225681
0.000206949
0.000197118
0.000199253
0.000197452
0.000212256
0.000238838
0.000262505
0.00027366
0.000304444
0.000358915
0.000443408
0.000485523
0.000424572
0.00132248
0.00228745
0.00184354
0.00225815
0.00244473
0.00263729
0.00283086
0.00301196
0.00316085
0.00324991
0.0032877
0.003237
0.00304124
0.00261408
0.00188854
0.00117001
0.00112318
0.000749264
0.000465047
0.00105423
0.00121315
0.00115563
0.000847442
0.000392417
0.000263613
0.000259014
0.000298402
0.000408773
0.000603267
0.000837965
0.00102782
0.0012658
0.00166169
0.00174399
0.00168647
0.000515023
0.0017717
0.00360355
0.00201254
0.00329979
0.0036821
0.00392676
0.00413544
0.00431178
0.00445492
0.00455892
0.00463191
0.00465748
0.00459529
0.00438166
0.00393954
0.00323669
0.0022561
0.00120573
0.000837705
0.00232101
0.00210993
0.00171914
0.00124035
0.000413764
0.00028461
0.000280546
0.000325943
0.000372251
0.000422991
0.000483058
0.000562928
0.000688183
0.00195135
0.00199461
0.00157729
0.000640056
0.00221473
0.00540134
0.00211963
0.0036355
0.00437572
0.00462706
0.00478669
0.00490169
0.00499028
0.00506461
0.00513873
0.00523084
0.00532997
0.00539364
0.0053144
0.00490466
0.00395626
0.00246089
0.00120535
0.00287282
0.00304634
0.00250502
0.00182516
0.00120073
0.000752267
0.000747262
0.000750133
0.000758854
0.000774083
0.000797259
0.000830246
0.000876239
0.000952989
0.00237357
0.00299956
0.00292537
0.00101281
0.00264602
0.00754761
0.00277052
0.00336114
0.00459832
0.00491979
0.00504149
0.00509047
0.00510369
0.00511492
0.00514908
0.00525948
0.00546251
0.00576292
0.00612983
0.00647851
0.00669914
0.00665774
0.0062711
0.00600308
0.00554919
0.00506052
0.00463717
0.00428585
0.00399989
0.00383072
0.00369369
0.0035869
0.0035185
0.00349774
0.00352683
0.00359801
0.00370571
0.00387764
0.00396971
0.00388567
0.00310651
0.00141743
0.0012912
0.00115308
0.00306924
0.00967318
0.00452646
0.00308356
0.00413286
0.0047282
0.00498973
0.00509103
0.00508097
0.00500884
0.00494621
0.00500115
0.0051624
0.00545492
0.00590501
0.0064818
0.00706937
0.00746196
0.00748858
0.0072288
0.00686004
0.00651588
0.00622526
0.00595962
0.00568906
0.00540762
0.00511691
0.00482955
0.00456992
0.0043674
0.00423708
0.00416853
0.00413661
0.00411759
0.00412392
0.00413337
0.00395906
0.0035978
0.00273379
0.00123114
0.00347033
0.0113447
0.00766128
0.00445941
0.00348547
0.00368969
0.00423646
0.00470502
0.00497561
0.00491694
0.00477541
0.00476216
0.00481634
0.00496423
0.00526686
0.00575611
0.00637344
0.00694024
0.00726299
0.00731153
0.00720321
0.00706221
0.00693169
0.00679129
0.00661546
0.0063954
0.00612409
0.00579464
0.00542061
0.00504665
0.00471821
0.00444553
0.00421453
0.00400615
0.00380475
0.00357293
0.00325322
0.00283089
0.00230912
0.00119752
0.00356279
0.0112917
0.00921338
0.00757673
0.00586039
0.00470015
0.00430578
0.0044175
0.0046943
0.00472705
0.00463024
0.00455175
0.00452413
0.00455962
0.00467944
0.00491988
0.00530928
0.00580067
0.00625692
0.0065694
0.00674304
0.0068422
0.00691117
0.00694772
0.00694618
0.00691747
0.00685593
0.00672681
0.00648556
0.00613265
0.0057159
0.0052465
0.00472718
0.00418033
0.00365959
0.00317985
0.00273416
0.0023681
0.00202944
0.00138188
0.00346557
0.00415574
0.00454507
0.00480885
0.00483949
0.00462356
0.0043676
0.0041962
0.00412013
0.00408641
0.00407753
0.00408383
0.00410157
0.00413287
0.00418767
0.00428651
0.00445927
0.00472546
0.00506286
0.00541353
0.00573179
0.00600422
0.0062307
0.00641198
0.00656002
0.00670059
0.00686213
0.00705161
0.00722612
0.00729777
0.00719665
0.00697708
0.00670677
0.00640216
0.00593682
0.00521984
0.00446139
0.00393007
0.00369947
0.00172322
0.00245935
0.00398571
0.00441709
0.00448657
0.00440672
0.00428674
0.00417264
0.00407089
0.00398772
0.00392441
0.00387856
0.00384927
0.00384022
0.00386153
0.00392955
0.00406216
0.00426774
0.00453156
0.00481479
0.00508591
0.00532141
0.0055145
0.00568596
0.00585908
0.00605846
0.00630566
0.00660888
0.00693904
0.00720095
0.00731005
0.00725793
0.00709427
0.0068908
0.00671619
0.00638831
0.00560146
0.00502438
0.00175308
0.00236303
0.0042931
0.00459747
0.00459786
0.00450716
0.00437381
0.00423262
0.0041128
0.00401185
0.00390506
0.00381859
0.00376927
0.00377138
0.00383886
0.0039818
0.00419767
0.00446383
0.00473681
0.00493224
0.00505375
0.00513565
0.00520784
0.00528507
0.00537088
0.00546469
0.00556642
0.00567946
0.0058086
0.00594838
0.00607085
0.00613751
0.00612476
0.00604005
0.005867
0.00540941
0.00462396
0.00442713
0.00162584
0.00191821
0.00207071
0.00220142
0.0023568
0.00231318
0.00220682
0.00206676
0.00193352
0.0018047
0.00168111
0.00156776
0.00147346
0.00139184
0.0013206
0.00126007
0.00121246
0.00118084
0.00116715
0.00116993
0.00118378
0.00120732
0.00122728
0.00123924
0.0012446
0.00124612
0.00124642
0.00124734
0.00125005
0.00125532
0.00126334
0.00127356
0.0012845
0.00129366
0.00129669
0.00128634
0.00125723
0.00122581
0.00118579
0.001218
0.00115895
)
;

boundaryField
{
    floor
    {
        type            compressible::alphatWallFunction;
        Prt             0.85;
        value           nonuniform List<scalar> 
36
(
0.000154959
4.12483e-05
4.67446e-05
4.81436e-05
3.5195e-05
2.53037e-05
2.21015e-05
2.04044e-05
2.0773e-05
2.04602e-05
2.30098e-05
2.75291e-05
3.14951e-05
3.33473e-05
3.84105e-05
4.72104e-05
6.05306e-05
6.7049e-05
5.75963e-05
5.75956e-05
7.15544e-05
9.03794e-05
0.00014415
0.000199918
0.000182747
0.000163737
0.000154958
0.000166079
0.000159585
0.000106464
4.12477e-05
0.000106463
6.38649e-05
0.000171004
0.000119237
0.000170947
)
;
    }
    ceiling
    {
        type            compressible::alphatWallFunction;
        Prt             0.85;
        value           nonuniform List<scalar> 
43
(
0.000266576
0.000286446
0.000303357
0.000323356
0.000317783
0.000304116
0.000286003
0.000268645
0.000251737
0.00023539
0.000220281
0.000207619
0.000196586
0.000186895
0.000178615
0.000172071
0.000167707
0.000165812
0.000166195
0.000168108
0.000171356
0.000174105
0.000175748
0.000176485
0.000176693
0.000176734
0.000176859
0.00017723
0.000177953
0.000179051
0.000180452
0.000181948
0.0001832
0.000183615
0.000182199
0.00017821
0.000173893
0.000168375
0.000172817
0.000164664
0.000462403
0.000546438
0.000324065
)
;
    }
    sWall
    {
        type            compressible::alphatWallFunction;
        Prt             0.85;
        value           uniform 0.000265493;
    }
    nWall
    {
        type            compressible::alphatWallFunction;
        Prt             0.85;
        value           nonuniform List<scalar> 6(0.000163539 0.000174311 0.000169683 0.00024458 0.000227693 0.000164355);
    }
    sideWalls
    {
        type            empty;
    }
    glass1
    {
        type            compressible::alphatWallFunction;
        Prt             0.85;
        value           nonuniform List<scalar> 9(0.000113892 0.000182979 0.000242529 0.000299766 0.000354398 0.000407159 0.000456506 0.000467914 0.00045623);
    }
    glass2
    {
        type            compressible::alphatWallFunction;
        Prt             0.85;
        value           nonuniform List<scalar> 2(0.000193963 0.000239555);
    }
    sun
    {
        type            compressible::alphatWallFunction;
        Prt             0.85;
        value           nonuniform List<scalar> 
14
(
0.000116923
0.000121713
0.000116624
0.000121256
0.000125721
0.000129767
0.00013347
0.00013695
0.000140347
0.000143851
0.000147024
0.000149621
0.000151678
0.00015347
)
;
    }
    Table_master
    {
        type            compressible::alphatWallFunction;
        Prt             0.85;
        value           nonuniform List<scalar> 9(5.59807e-05 3.52474e-05 3.45701e-05 4.19922e-05 4.94228e-05 5.74274e-05 6.67461e-05 7.89149e-05 9.75816e-05);
    }
    Table_slave
    {
        type            compressible::alphatWallFunction;
        Prt             0.85;
        value           nonuniform List<scalar> 9(0.000106966 0.000106237 0.000106656 0.000107927 0.00011014 0.000113499 0.00011826 0.000124861 0.000135786);
    }
    inlet
    {
        type            fixedValue;
        value           uniform 1.94e-05;
    }
    outlet
    {
        type            zeroGradient;
    }
}


// ************************************************************************* //
