// -*- C++ -*-
// File generated by PyFoam - sorry for the ugliness

FoamFile
{
 version 2.0;
 format ascii;
 class volVectorField;
 location "1200";
 object U;
}

dimensions [ 0 1 -1 0 0 0 0 ];

internalField nonuniform List<vector> 458
(
  (0.0835196 0.0666063 0)
  (-0.133306 0.00569126 0)
  (-0.124439 0.0082303 0)
  (-0.14228 0.00815409 0)
  (-0.159034 0.00654495 0)
  (-0.173783 0.00429054 0)
  (-0.185684 0.00153622 0)
  (-0.19401 -0.00175905 0)
  (-0.197995 -0.00570088 0)
  (-0.196629 -0.010452 0)
  (-0.188228 -0.0164685 0)
  (-0.169984 -0.0243085 0)
  (-0.14026 -0.0355907 0)
  (-0.108139 -0.0537626 0)
  (-0.106419 -0.0796725 0)
  (0.0203371 0.0107638 0)
  (-0.0304211 -0.00557541 0)
  (-0.0208945 -0.00595722 0)
  (-0.0199123 -0.00297494 0)
  (-0.0196566 -0.00280545 0)
  (-0.0158008 -0.00653764 0)
  (-0.00868357 -0.00885165 0)
  (-0.00221063 -0.0113275 0)
  (0.00777284 -0.00694684 0)
  (0.0130753 -0.00542842 0)
  (0.0168815 -0.0046627 0)
  (0.0199398 -0.00375895 0)
  (0.0219013 -0.00181385 0)
  (0.0205175 0.0011754 0)
  (0.0188936 0.00209305 0)
  (0.0197412 -0.00323576 0)
  (0.0293064 -0.00357021 0)
  (-0.0137139 0.0110002 0)
  (0.273311 0.144135 0)
  (-0.151728 0.0257278 0)
  (-0.111519 0.0278405 0)
  (-0.134398 0.0274534 0)
  (-0.152276 0.0251415 0)
  (-0.167838 0.0217563 0)
  (-0.18065 0.0173808 0)
  (-0.190217 0.0118707 0)
  (-0.195881 0.00501305 0)
  (-0.196749 -0.00343234 0)
  (-0.19197 -0.0134379 0)
  (-0.180758 -0.0250208 0)
  (-0.164071 -0.0393057 0)
  (-0.147857 -0.0582968 0)
  (-0.136311 -0.0760961 0)
  (-0.105765 -0.0643923 0)
  (-0.0588068 -0.0681866 0)
  (0.00300236 0.0455424 0)
  (0.0955324 0.0130591 0)
  (0.0343534 0.00893786 0)
  (0.0111188 0.00388708 0)
  (0.00588781 0.00371424 0)
  (0.00169286 0.00775409 0)
  (-0.00531123 -0.00386476 0)
  (-0.00331463 -0.0104247 0)
  (-0.00739265 -0.0132679 0)
  (-0.002554 -0.00724291 0)
  (-0.00115189 -0.00493273 0)
  (-0.00240124 -0.00312798 0)
  (-0.00498939 0.000467684 0)
  (-0.00963286 0.00435134 0)
  (-0.0116564 0.00369645 0)
  (-0.00875621 -0.0038911 0)
  (-5.09616e-05 -0.0108016 0)
  (0.0153244 -0.00432024 0)
  (-0.0784998 0.0275056 0)
  (0.435847 0.220122 0)
  (-0.193064 0.0536973 0)
  (-0.0905245 0.0499659 0)
  (-0.118809 0.0451267 0)
  (-0.135557 0.0400773 0)
  (-0.150328 0.033851 0)
  (-0.162798 0.0261261 0)
  (-0.172598 0.0166548 0)
  (-0.179124 0.0052719 0)
  (-0.181519 -0.00797409 0)
  (-0.178932 -0.0229177 0)
  (-0.171828 -0.0392223 0)
  (-0.161901 -0.0565317 0)
  (-0.152471 -0.0737712 0)
  (-0.142974 -0.0853718 0)
  (-0.126747 -0.0851082 0)
  (-0.113173 -0.0923784 0)
  (-0.127611 -0.0905198 0)
  (0.0238742 0.0170466 0)
  (-0.0346108 0.00925851 0)
  (-0.0308514 0.00672276 0)
  (-0.0244545 0.00123079 0)
  (-0.0201373 -0.00370475 0)
  (0.0159051 0.000559645 0)
  (0.00758491 -0.0101745 0)
  (-0.0167236 -0.0132103 0)
  (-0.0241544 -0.00823907 0)
  (-0.029178 -0.00574571 0)
  (-0.0322532 -0.00403025 0)
  (-0.033221 -0.00258266 0)
  (-0.0321057 -0.00167157 0)
  (-0.0278461 -0.00344596 0)
  (-0.0105799 -0.00910699 0)
  (-0.00947247 -0.00155237 0)
  (-0.0331868 0.00720615 0)
  (-0.118851 0.0149579 0)
  (0.570165 0.283495 0)
  (-0.239027 0.0853492 0)
  (-0.0641318 0.0710727 0)
  (-0.0986005 0.0617455 0)
  (-0.112521 0.0549367 0)
  (-0.125007 0.0471279 0)
  (-0.136002 0.0375225 0)
  (-0.14516 0.025637 0)
  (-0.151878 0.0111195 0)
  (-0.155172 -0.00606147 0)
  (-0.153777 -0.0252307 0)
  (-0.149196 -0.0449868 0)
  (-0.143349 -0.0637192 0)
  (-0.138616 -0.0793747 0)
  (-0.135186 -0.0887148 0)
  (-0.132795 -0.0907533 0)
  (-0.138175 -0.0878044 0)
  (-0.155358 -0.0650083 0)
  (-0.148595 -0.00501842 0)
  (-0.103783 0.00928286 0)
  (-0.0925354 0.00388637 0)
  (-0.0808316 -0.00222851 0)
  (-0.0761558 -0.00816388 0)
  (-0.0755826 -0.0124041 0)
  (-0.0725746 -0.00925635 0)
  (-0.0633358 -0.00868559 0)
  (-0.0546023 -0.00899441 0)
  (-0.0457288 -0.0093936 0)
  (-0.0365006 -0.009902 0)
  (-0.0267005 -0.0106494 0)
  (-0.0160786 -0.0118364 0)
  (-0.00408946 -0.0135827 0)
  (0.0130831 -0.0157768 0)
  (0.0176452 -0.0162288 0)
  (0.0281618 -0.00495325 0)
  (0.0350722 0.00663365 0)
  (-0.0129528 0.0210382 0)
  (0.677642 0.33564 0)
  (-0.280365 0.117497 0)
  (-0.0363747 0.0864858 0)
  (-0.0748892 0.0743393 0)
  (-0.0852093 0.0663674 0)
  (-0.0939953 0.057479 0)
  (-0.101984 0.046566 0)
  (-0.10892 0.0328765 0)
  (-0.11435 0.0158294 0)
  (-0.117032 -0.00471504 0)
  (-0.11505 -0.0273796 0)
  (-0.111002 -0.0492222 0)
  (-0.106836 -0.067786 0)
  (-0.104345 -0.0813508 0)
  (-0.104012 -0.0887247 0)
  (-0.106204 -0.090468 0)
  (-0.112386 -0.0869907 0)
  (-0.119274 -0.072429 0)
  (-0.117374 -0.0415627 0)
  (-0.105049 -0.0186893 0)
  (-0.0909865 -0.00980926 0)
  (-0.0802826 -0.00918177 0)
  (-0.0741435 -0.0109668 0)
  (-0.0705844 -0.0124853 0)
  (-0.0668595 -0.0116506 0)
  (-0.0619193 -0.0117344 0)
  (-0.056674 -0.0120817 0)
  (-0.0512438 -0.0125972 0)
  (-0.0455692 -0.0133126 0)
  (-0.0395263 -0.0144416 0)
  (-0.0329 -0.0162986 0)
  (-0.0253621 -0.0190346 0)
  (-0.016413 -0.0220816 0)
  (-0.00658466 -0.0253153 0)
  (0.0110455 -0.0221949 0)
  (0.040113 -0.0123441 0)
  (0.0681375 0.00973292 0)
  (0.111646 0.0223716 0)
  (0.127424 0.0513188 0)
  (-0.0125094 0.104108 0)
  (0.747875 0.382008 0)
  (-0.313832 0.145619 0)
  (-0.0157162 0.0903691 0)
  (-0.0466086 0.0827269 0)
  (-0.0537224 0.0743573 0)
  (-0.0584915 0.0641489 0)
  (-0.06228 0.052184 0)
  (-0.0652499 0.0374258 0)
  (-0.0674945 0.0187962 0)
  (-0.0670967 -0.00446821 0)
  (-0.062585 -0.0303332 0)
  (-0.0582918 -0.0532481 0)
  (-0.0555006 -0.0706169 0)
  (-0.0551725 -0.08166 0)
  (-0.0575255 -0.0863876 0)
  (-0.0625049 -0.0854653 0)
  (-0.0697364 -0.0788295 0)
  (-0.0761029 -0.0644751 0)
  (-0.0770889 -0.0442748 0)
  (-0.0723492 -0.027749 0)
  (-0.0655465 -0.0187853 0)
  (-0.0601336 -0.0154703 0)
  (-0.0570558 -0.0149337 0)
  (-0.055537 -0.0151283 0)
  (-0.0543828 -0.0149551 0)
  (-0.0530735 -0.0151388 0)
  (-0.0517855 -0.0155552 0)
  (-0.0506628 -0.016093 0)
  (-0.0498044 -0.0168273 0)
  (-0.049233 -0.0180621 0)
  (-0.0488358 -0.0202436 0)
  (-0.0483306 -0.0237221 0)
  (-0.047168 -0.0285374 0)
  (-0.0441393 -0.0344116 0)
  (-0.0357833 -0.0399283 0)
  (-0.0193366 -0.0453776 0)
  (0.007998 -0.0520282 0)
  (0.0366513 -0.047884 0)
  (0.0903836 0.014267 0)
  (-0.0556398 0.121786 0)
  (0.769668 0.42412 0)
  (-0.328524 0.144579 0)
  (0.000208319 0.0588316 0)
  (-0.000774753 0.0831578 0)
  (-0.00883743 0.0847275 0)
  (-0.0135182 0.0697433 0)
  (-0.0141289 0.0541055 0)
  (-0.0126578 0.0378708 0)
  (-0.010656 0.0179342 0)
  (-0.00277124 -0.00826595 0)
  (0.00517583 -0.036543 0)
  (0.00839372 -0.0576974 0)
  (0.00835107 -0.0720319 0)
  (0.00527778 -0.0799705 0)
  (-0.000644777 -0.082124 0)
  (-0.00876417 -0.0791771 0)
  (-0.0180293 -0.0716041 0)
  (-0.0262262 -0.0591151 0)
  (-0.0308067 -0.0439039 0)
  (-0.0316389 -0.0306406 0)
  (-0.0308664 -0.0219082 0)
  (-0.030471 -0.0173269 0)
  (-0.0311461 -0.0154284 0)
  (-0.0326431 -0.014798 0)
  (-0.034461 -0.0145547 0)
  (-0.0364414 -0.0145612 0)
  (-0.0388021 -0.0145842 0)
  (-0.0419033 -0.0144883 0)
  (-0.0462158 -0.0144084 0)
  (-0.0521801 -0.0148469 0)
  (-0.0599998 -0.016523 0)
  (-0.0694944 -0.0200539 0)
  (-0.079978 -0.0258582 0)
  (-0.0902673 -0.0343438 0)
  (-0.0983413 -0.0458638 0)
  (-0.102276 -0.060958 0)
  (-0.100085 -0.077284 0)
  (-0.0847793 -0.0815549 0)
  (-0.00114422 -0.0297724 0)
  (-0.13056 0.193846 0)
  (0.866134 0.443216 0)
  (-0.133244 0.124428 0)
  (0.0701353 -0.015112 0)
  (0.112118 0.018531 0)
  (0.090627 0.0491164 0)
  (0.0715373 0.0470164 0)
  (0.0658134 0.0335061 0)
  (0.067201 0.0178685 0)
  (0.0710647 -0.00241687 0)
  (0.0829588 -0.0243717 0)
  (0.0883598 -0.0437153 0)
  (0.0869812 -0.058669 0)
  (0.0811637 -0.0685138 0)
  (0.0723632 -0.0732346 0)
  (0.0615611 -0.0732337 0)
  (0.0496033 -0.0691522 0)
  (0.0373446 -0.0616253 0)
  (0.0260714 -0.0511721 0)
  (0.017385 -0.0392123 0)
  (0.0117142 -0.0283075 0)
  (0.00782218 -0.0202241 0)
  (0.00430008 -0.0152244 0)
  (0.000474279 -0.0126798 0)
  (-0.003653 -0.011658 0)
  (-0.00780345 -0.0112551 0)
  (-0.0119961 -0.010926 0)
  (-0.0164465 -0.0102038 0)
  (-0.0216009 -0.00871473 0)
  (-0.0282344 -0.00634691 0)
  (-0.0373828 -0.00347382 0)
  (-0.0504637 -0.00114972 0)
  (-0.0694643 -0.00132552 0)
  (-0.09476 -0.00561042 0)
  (-0.124901 -0.0139928 0)
  (-0.156897 -0.024409 0)
  (-0.189359 -0.0345076 0)
  (-0.220021 -0.0403595 0)
  (-0.24665 -0.0314575 0)
  (-0.304086 0.00605397 0)
  (-0.486781 0.0861334 0)
  (0.996914 0.420535 0)
  (0.469431 0.283437 0)
  (0.47691 0.228103 0)
  (0.456612 0.189038 0)
  (0.381719 0.15906 0)
  (0.312138 0.123034 0)
  (0.268488 0.0858681 0)
  (0.242842 0.0523141 0)
  (0.227633 0.0224695 0)
  (0.211155 -0.00494926 0)
  (0.193191 -0.0274377 0)
  (0.174868 -0.0435163 0)
  (0.156527 -0.0532977 0)
  (0.138311 -0.0576046 0)
  (0.120471 -0.0573195 0)
  (0.103369 -0.0532973 0)
  (0.0874365 -0.0464466 0)
  (0.073251 -0.037772 0)
  (0.0615089 -0.0285312 0)
  (0.0524904 -0.0201714 0)
  (0.0455119 -0.0136435 0)
  (0.0395268 -0.00926801 0)
  (0.0338884 -0.00683795 0)
  (0.0284157 -0.00579277 0)
  (0.0231366 -0.00542043 0)
  (0.0181046 -0.00510593 0)
  (0.0133697 -0.00429111 0)
  (0.00899011 -0.00246759 0)
  (0.00513434 0.000776415 0)
  (0.00189166 0.00559763 0)
  (-0.00212062 0.0115084 0)
  (-0.00719782 0.0170139 0)
  (-0.0142092 0.0201587 0)
  (-0.0239324 0.0186945 0)
  (-0.0411549 0.00968436 0)
  (-0.0680511 -0.00802971 0)
  (-0.089105 -0.0336954 0)
  (-0.0925358 -0.0725475 0)
  (-0.127119 -0.133014 0)
  (-0.462282 -0.197168 0)
  (-0.172986 -0.0333453 0)
  (0.174777 0.114316 0)
  (0.249461 0.139327 0)
  (0.248441 0.123413 0)
  (0.248118 0.0940144 0)
  (0.249084 0.0622569 0)
  (0.247071 0.0338659 0)
  (0.240953 0.0112383 0)
  (0.229415 -0.006694 0)
  (0.214006 -0.0203537 0)
  (0.196029 -0.0297571 0)
  (0.176592 -0.0349936 0)
  (0.156777 -0.0362772 0)
  (0.137543 -0.0340254 0)
  (0.119712 -0.0288945 0)
  (0.103996 -0.021793 0)
  (0.090966 -0.0138982 0)
  (0.0808743 -0.00653714 0)
  (0.0732845 -0.000530312 0)
  (0.0673167 0.003562 0)
  (0.062253 0.00555394 0)
  (0.0576215 0.00587459 0)
  (0.053143 0.0053844 0)
  (0.0488099 0.00470707 0)
  (0.0447858 0.0043427 0)
  (0.0413513 0.00475315 0)
  (0.0387943 0.00636912 0)
  (0.0372452 0.00947064 0)
  (0.0371132 0.0138067 0)
  (0.0383438 0.018249 0)
  (0.0403836 0.021409 0)
  (0.042759 0.0222963 0)
  (0.0448276 0.0200679 0)
  (0.0472613 0.0144539 0)
  (0.0543468 0.00656061 0)
  (0.0666804 -0.00555646 0)
  (0.118844 -0.0599398 0)
  (-0.122036 -0.153417 0)
  (-0.126792 0.16438 0)
  (0.0754176 0.133347 0)
  (0.099059 0.110558 0)
  (0.131526 0.0948377 0)
  (0.164833 0.0693827 0)
  (0.191011 0.0396821 0)
  (0.206932 0.0121433 0)
  (0.213076 -0.0112346 0)
  (0.211283 -0.029464 0)
  (0.202706 -0.0414933 0)
  (0.189265 -0.049103 0)
  (0.17294 -0.0535053 0)
  (0.155462 -0.0556893 0)
  (0.138227 -0.0565648 0)
  (0.122291 -0.0569199 0)
  (0.10838 -0.0572487 0)
  (0.096905 -0.0576259 0)
  (0.087981 -0.0577692 0)
  (0.081502 -0.0560467 0)
  (0.0772844 -0.0536261 0)
  (0.0746826 -0.0513526 0)
  (0.0728398 -0.0495482 0)
  (0.0711878 -0.0483034 0)
  (0.0694857 -0.0473049 0)
  (0.0677355 -0.0460667 0)
  (0.0661628 -0.0440081 0)
  (0.0652217 -0.0405611 0)
  (0.065516 -0.0355094 0)
  (0.0676846 -0.0293648 0)
  (0.0720423 -0.023432 0)
  (0.0782652 -0.0192948 0)
  (0.085531 -0.0184693 0)
  (0.0926269 -0.022774 0)
  (0.0985292 -0.0330002 0)
  (0.100488 -0.0431366 0)
  (0.0951656 -0.0539109 0)
  (0.130988 -0.0757848 0)
  (-0.183294 -0.0971986 0)
  (0.064447 -0.239813 0)
  (-0.309429 -0.0678813 0)
  (-0.23794 0.134121 0)
  (-0.133505 0.104135 0)
  (-0.071164 0.101641 0)
  (0.00964973 0.105224 0)
  (0.0710904 0.0956122 0)
  (0.11544 0.0869861 0)
  (0.144726 0.0837195 0)
  (0.158643 0.0865574 0)
  (0.16036 0.0934612 0)
  (0.154429 0.10041 0)
  (0.143668 0.107997 0)
  (0.13041 0.116861 0)
  (0.116513 0.127386 0)
  (0.103543 0.139454 0)
  (0.0927525 0.152229 0)
  (0.0848943 0.164183 0)
  (0.0800757 0.17367 0)
  (0.077822 0.179738 0)
  (0.0774945 0.18006 0)
  (0.0783703 0.177484 0)
  (0.0798933 0.174055 0)
  (0.0816707 0.170647 0)
  (0.0834338 0.167605 0)
  (0.0850363 0.16477 0)
  (0.0865044 0.161751 0)
  (0.088048 0.158036 0)
  (0.0900653 0.153112 0)
  (0.0931002 0.146733 0)
  (0.0976998 0.139203 0)
  (0.10414 0.131414 0)
  (0.11208 0.124405 0)
  (0.12039 0.119019 0)
  (0.127127 0.116054 0)
  (0.1295 0.115628 0)
  (0.12388 0.111875 0)
  (0.107241 0.105172 0)
  (0.146376 0.0870717 0)
  (-0.279252 0.0814056 0)
)
;

boundaryField
{
  floor
  {
    type noSlip;
  }
  ceiling
  {
    type noSlip;
  }
  sWall
  {
    type noSlip;
  }
  nWall
  {
    type noSlip;
  }
  sideWalls
  {
    type empty;
  }
  glass1
  {
    type noSlip;
  }
  glass2
  {
    type noSlip;
  }
  sun
  {
    type noSlip;
  }
  Table_master
  {
    type noSlip;
  }
  Table_slave
  {
    type noSlip;
  }
  inlet
  {
    type fixedValue;
    value uniform (0.1 0 0);
  }
  outlet
  {
    type zeroGradient;
  }
} 	// ************************************************************************* //

