/*--------------------------------*- C++ -*----------------------------------*\
  =========                 |
  \\      /  F ield         | OpenFOAM: The Open Source CFD Toolbox
   \\    /   O peration     | Website:  https://openfoam.org
    \\  /    A nd           | Version:  6
     \\/     M anipulation  |
\*---------------------------------------------------------------------------*/
FoamFile
{
    version     2.0;
    format      ascii;
    class       volScalarField;
    location    "1000";
    object      alphat;
}
// * * * * * * * * * * * * * * * * * * * * * * * * * * * * * * * * * * * * * //

dimensions      [1 -1 -1 0 0 0 0];

internalField   nonuniform List<scalar> 
458
(
0.00127181
0.00139447
0.00143811
0.00151067
0.00157752
0.00164132
0.00170584
0.00177096
0.00182524
0.00186102
0.00186842
0.00183712
0.00175473
0.00157475
0.00120367
0.000427449
0.000491034
0.000544546
0.000564321
0.000533878
0.000464814
0.000404742
0.000369649
0.000347674
0.000328267
0.000307227
0.000284876
0.000268383
0.000274036
0.000333326
0.000466566
0.00051155
0.000433419
0.00167213
0.00386441
0.00362309
0.00416715
0.00473203
0.00530977
0.00582472
0.00624063
0.00667571
0.00709621
0.00745116
0.00768183
0.00773079
0.00743666
0.00601024
0.00160293
0.00132466
0.0010581
0.000495438
0.00110678
0.00146348
0.00179616
0.0019431
0.00163727
0.00149547
0.00139211
0.00130475
0.00120761
0.0010802
0.00091647
0.000731243
0.000586332
0.000618927
0.000912839
0.00127769
0.000553427
0.00200663
0.00519574
0.00442913
0.00530853
0.00575149
0.00607277
0.00632169
0.00656507
0.00690546
0.00733653
0.00783047
0.00831032
0.00869585
0.00879421
0.00828056
0.00677313
0.00505835
0.00131627
0.000643721
0.000974378
0.00130227
0.00169802
0.00191775
0.00079648
0.000702574
0.000629463
0.000571992
0.000525366
0.000485607
0.000449858
0.000416866
0.000392114
0.000621703
0.00125236
0.00121207
0.000592605
0.00232926
0.00654313
0.00435281
0.0054862
0.00572351
0.0057221
0.00571849
0.00584499
0.00612837
0.00657111
0.00717212
0.0078092
0.00837795
0.00867374
0.00863267
0.0081828
0.00700023
0.0038092
0.00148767
0.00153014
0.00176193
0.00213511
0.00255872
0.00276415
0.00102473
0.00096483
0.000925307
0.000900907
0.000886483
0.000875441
0.000858314
0.000831478
0.000796713
0.000839283
0.00110852
0.00147351
0.000810979
0.00266298
0.00836264
0.00454388
0.00522067
0.00552238
0.00534064
0.00519969
0.00530687
0.00558699
0.00604422
0.00672171
0.00742066
0.00798287
0.00829349
0.00834308
0.00817422
0.00762765
0.00617233
0.00492868
0.00472653
0.00473129
0.00487662
0.00506954
0.00520061
0.00495254
0.00484967
0.00484206
0.00487311
0.00488658
0.00483213
0.00466433
0.00426672
0.00362319
0.00295622
0.00247096
0.00216274
0.00182031
0.000928033
0.000914922
0.000868148
0.00302647
0.0104408
0.00614583
0.00489634
0.00525756
0.00528827
0.0050578
0.0051898
0.00545199
0.0059117
0.00657946
0.00730076
0.00785666
0.00810937
0.00808129
0.0079078
0.00767353
0.00725298
0.00692705
0.00698698
0.00711776
0.00722526
0.00730082
0.00733041
0.00729094
0.00723952
0.00716687
0.0070381
0.00682814
0.00653512
0.00617693
0.00577427
0.00529728
0.00471912
0.00413337
0.00362576
0.00322083
0.00284209
0.00291312
0.00111375
0.00338232
0.0119843
0.00894378
0.00610769
0.00541035
0.00548808
0.00544407
0.00542399
0.00557678
0.00602703
0.00673234
0.00748158
0.0080163
0.00819301
0.00807944
0.00790343
0.00790947
0.00810313
0.00834645
0.00861459
0.00878591
0.00881928
0.00874811
0.00860869
0.00840896
0.00815823
0.00785375
0.00748293
0.00706598
0.00664531
0.00626505
0.0059595
0.00574268
0.00555544
0.00528159
0.00489656
0.00449443
0.00402753
0.00378797
0.00139167
0.00346808
0.0109582
0.00944936
0.00814966
0.00720061
0.00665735
0.00603619
0.00568804
0.00579372
0.0063457
0.00716343
0.00794297
0.00840628
0.00846185
0.00830804
0.00829733
0.00871832
0.00910423
0.00935986
0.00950861
0.00950828
0.009354
0.00906929
0.00867719
0.0082027
0.00768917
0.00718678
0.00672794
0.00630875
0.00596356
0.0057096
0.00556817
0.00556715
0.00572629
0.00600114
0.00616866
0.00602688
0.00533181
0.00538568
0.00161629
0.00339679
0.00409463
0.00451193
0.0047345
0.00477198
0.00473215
0.00481236
0.00519029
0.00593299
0.00694693
0.00796617
0.00866951
0.00887768
0.00868308
0.00872941
0.00897235
0.00924561
0.00941137
0.00945932
0.00937828
0.00914578
0.00876532
0.00825951
0.0076633
0.0070315
0.00643219
0.00591699
0.00550252
0.00517413
0.00488611
0.00463432
0.00442675
0.00426211
0.00411872
0.0039578
0.00376172
0.00347734
0.00311116
0.00279466
0.00156378
0.00139201
0.00244205
0.00344298
0.00438436
0.00540363
0.00655563
0.00770372
0.00870793
0.00929236
0.00929677
0.00898106
0.00858499
0.00853904
0.00858142
0.00857388
0.00850649
0.00834986
0.00807351
0.00767753
0.00719244
0.00666293
0.00613686
0.00565898
0.00526078
0.00495043
0.00471274
0.00452031
0.00434867
0.00417839
0.00401047
0.00386288
0.00374855
0.00365512
0.00352108
0.00328839
0.00294199
0.0024721
0.00131663
0.00222948
0.00473857
0.00633917
0.00764947
0.00868358
0.00904489
0.00928312
0.00945325
0.00905787
0.00825157
0.00751296
0.007012
0.00668642
0.00646235
0.00630351
0.00616342
0.00599316
0.00577064
0.00550448
0.00522121
0.00495072
0.00471824
0.0045413
0.00442813
0.0043766
0.00437452
0.00440105
0.00442814
0.00442221
0.00435528
0.00422284
0.00404681
0.00385419
0.00364686
0.00338125
0.00307123
0.00227635
0.00137117
0.00240062
0.00247139
0.00253265
0.00284309
0.00270186
0.00244373
0.00219037
0.00203715
0.00193002
0.00179634
0.001642
0.00149163
0.00135669
0.00126445
0.00121167
0.00118197
0.00116363
0.00114929
0.00113509
0.00112022
0.00110583
0.00109379
0.00108575
0.00108282
0.00108532
0.00109286
0.00110428
0.00111788
0.00113178
0.00114464
0.00115681
0.00117152
0.00119435
0.00123048
0.00127978
0.00133636
0.00133202
0.00117818
0.0011204
0.001345
)
;

boundaryField
{
    floor
    {
        type            compressible::alphatWallFunction;
        Prt             0.85;
        value           nonuniform List<scalar> 
36
(
0.000170676
5.80142e-05
6.78557e-05
7.60106e-05
7.89991e-05
7.4389e-05
6.3811e-05
5.44489e-05
4.88957e-05
4.53811e-05
4.22523e-05
3.88339e-05
3.51717e-05
3.24515e-05
3.34009e-05
4.30941e-05
6.41038e-05
7.09864e-05
5.89276e-05
5.89269e-05
7.73405e-05
8.32519e-05
0.000115364
0.000132132
0.000130269
0.000123595
0.000170674
0.000224794
0.000187264
0.000150466
5.80135e-05
0.000150464
6.85379e-05
0.00018612
9.08785e-05
0.000209349
)
;
    }
    ceiling
    {
        type            compressible::alphatWallFunction;
        Prt             0.85;
        value           nonuniform List<scalar> 
43
(
0.000328723
0.000337747
0.000345538
0.000384797
0.000367073
0.000334375
0.000301914
0.000282091
0.000268135
0.000250596
0.000230158
0.000210038
0.000191787
0.000179191
0.000171939
0.000167842
0.000165305
0.000163319
0.00016135
0.000159284
0.000157281
0.000155602
0.000154481
0.00015407
0.00015442
0.000155472
0.000157066
0.000158962
0.0001609
0.000162691
0.000164385
0.000166427
0.000169583
0.000174554
0.000181309
0.000189021
0.000188413
0.000167311
0.000159311
0.000190206
0.000453879
0.000538995
0.00030667
)
;
    }
    sWall
    {
        type            compressible::alphatWallFunction;
        Prt             0.85;
        value           uniform 0.000327513;
    }
    nWall
    {
        type            compressible::alphatWallFunction;
        Prt             0.85;
        value           nonuniform List<scalar> 6(0.000123394 0.000158023 0.000196167 0.000186005 0.000193427 0.00018989);
    }
    sideWalls
    {
        type            empty;
    }
    glass1
    {
        type            compressible::alphatWallFunction;
        Prt             0.85;
        value           nonuniform List<scalar> 9(0.000175713 0.00022897 0.000272495 0.000313811 0.000355966 0.000401294 0.000445162 0.000455788 0.00044728);
    }
    glass2
    {
        type            compressible::alphatWallFunction;
        Prt             0.85;
        value           nonuniform List<scalar> 2(0.000225088 0.000218183);
    }
    sun
    {
        type            compressible::alphatWallFunction;
        Prt             0.85;
        value           nonuniform List<scalar> 
14
(
0.000180052
0.000196752
0.000202656
0.000212432
0.000221391
0.000229903
0.000238473
0.000247088
0.000254241
0.000258944
0.000259915
0.000255804
0.000244947
0.000221033
)
;
    }
    Table_master
    {
        type            compressible::alphatWallFunction;
        Prt             0.85;
        value           nonuniform List<scalar> 9(0.000113368 9.96839e-05 8.88764e-05 8.02727e-05 7.32133e-05 6.71311e-05 6.16081e-05 5.64614e-05 5.25676e-05);
    }
    Table_slave
    {
        type            compressible::alphatWallFunction;
        Prt             0.85;
        value           nonuniform List<scalar> 9(0.000145889 0.000137449 0.000131846 0.000128372 0.000126311 0.000124728 0.000122272 0.000118414 0.000113397);
    }
    inlet
    {
        type            fixedValue;
        value           uniform 1.94e-05;
    }
    outlet
    {
        type            zeroGradient;
    }
}


// ************************************************************************* //
