/*--------------------------------*- C++ -*----------------------------------*\
  =========                 |
  \\      /  F ield         | OpenFOAM: The Open Source CFD Toolbox
   \\    /   O peration     | Website:  https://openfoam.org
    \\  /    A nd           | Version:  6
     \\/     M anipulation  |
\*---------------------------------------------------------------------------*/
FoamFile
{
    version     2.0;
    format      ascii;
    class       volScalarField;
    location    "1100";
    object      alphat;
}
// * * * * * * * * * * * * * * * * * * * * * * * * * * * * * * * * * * * * * //

dimensions      [1 -1 -1 0 0 0 0];

internalField   nonuniform List<scalar> 
458
(
0.000820558
0.000848839
0.000803849
0.000834423
0.000864498
0.000891837
0.000916838
0.00094028
0.000963131
0.000986702
0.00100782
0.00102485
0.00103807
0.00104953
0.00105926
0.000363803
0.000426189
0.000442287
0.000351245
0.000250622
0.000210806
0.000203278
0.000190343
0.000183736
0.000205255
0.000219395
0.000239767
0.000260005
0.000288303
0.000338796
0.000395254
0.000432443
0.0003985
0.00134783
0.00228976
0.00178107
0.00221035
0.00238022
0.00255647
0.00273464
0.00290058
0.00303458
0.00311019
0.00313518
0.0030753
0.00287967
0.00247198
0.00179881
0.00113832
0.00109677
0.000763674
0.00057482
0.00119959
0.00142983
0.00144003
0.00114718
0.000811839
0.000539007
0.000292788
0.000229985
0.000265979
0.000334243
0.000520847
0.000825805
0.00108975
0.0015319
0.00179307
0.00174031
0.000545834
0.00181462
0.00364962
0.00192131
0.00322472
0.00358283
0.0037975
0.00398114
0.00413569
0.00425807
0.00434087
0.00439001
0.00438675
0.00429271
0.00405135
0.003606
0.0029559
0.00209896
0.00119017
0.000946386
0.002868
0.00272225
0.00223508
0.00160795
0.000534345
0.000416724
0.000336303
0.000268513
0.00032395
0.000380797
0.000439487
0.000515334
0.000641268
0.00180762
0.00222339
0.00211691
0.00062185
0.00226789
0.00546107
0.00203576
0.00355517
0.00427052
0.00448711
0.00462347
0.0047236
0.00480028
0.00486018
0.00491373
0.00497421
0.0050283
0.00503307
0.00489052
0.00444437
0.00354541
0.0022608
0.00124148
0.00318752
0.00361191
0.00308027
0.00224388
0.00138836
0.000785716
0.000767356
0.000760894
0.000763104
0.000774705
0.000797621
0.000835432
0.000890411
0.000947972
0.00198464
0.00269378
0.0029857
0.000984354
0.00270113
0.00756281
0.0026062
0.0033064
0.00451888
0.00478801
0.00488297
0.00492282
0.00493597
0.00494546
0.00496833
0.00505243
0.00521418
0.00545543
0.00574791
0.00602982
0.00622502
0.00623282
0.00598141
0.00590063
0.00557434
0.00514989
0.00475122
0.00439149
0.00406819
0.00385577
0.00366864
0.00352064
0.00343237
0.00341405
0.00345706
0.00354408
0.00364994
0.00380692
0.00395047
0.00385091
0.00298129
0.00141497
0.00132125
0.00118558
0.0031176
0.00957533
0.00403629
0.00292635
0.00419651
0.00470973
0.00489642
0.00495666
0.00493252
0.00486195
0.00479621
0.00482224
0.00494513
0.00518159
0.00554167
0.00600372
0.00648681
0.0068281
0.00688386
0.0067139
0.00644769
0.0062017
0.00599928
0.00579786
0.00554614
0.00523473
0.00488342
0.00453893
0.00426223
0.00409348
0.00402669
0.00402927
0.00407143
0.004149
0.00430158
0.00452395
0.0045632
0.00451536
0.00353538
0.00134662
0.0035167
0.0111213
0.00673589
0.00361614
0.00319439
0.00374907
0.00434766
0.0047468
0.00492457
0.00480368
0.00463951
0.00457952
0.00459834
0.00470801
0.00493638
0.00530475
0.00577548
0.00621004
0.00645962
0.00650801
0.00645981
0.006418
0.00639634
0.00635762
0.0062497
0.00603851
0.00571053
0.00528956
0.00485876
0.00451092
0.00427045
0.00410859
0.00399521
0.0039172
0.00387199
0.00383192
0.00370252
0.00351485
0.00343179
0.00137108
0.00361754
0.0113644
0.00874077
0.00654424
0.00480904
0.00396442
0.0039704
0.0043455
0.00470003
0.00461695
0.00445452
0.00433695
0.0042785
0.00427861
0.00434547
0.00450299
0.00477253
0.00511856
0.0054403
0.00566665
0.00582229
0.00597521
0.00613401
0.00628886
0.00641024
0.00646761
0.00640809
0.00616818
0.00576104
0.00530639
0.00486865
0.00442774
0.00397706
0.00354282
0.00314957
0.00277184
0.00242284
0.00212399
0.0018669
0.00140136
0.00352291
0.0042501
0.00466288
0.00478175
0.0045839
0.00423494
0.00395726
0.00382204
0.00378785
0.00378645
0.00379444
0.00380191
0.00380579
0.00380821
0.00381731
0.00384978
0.00393018
0.00407663
0.00427984
0.00451009
0.00475119
0.00500996
0.00529057
0.00558286
0.00587811
0.00618414
0.00649848
0.00674897
0.00680214
0.00663375
0.00633227
0.00600984
0.00569569
0.00531716
0.00478763
0.0042098
0.00368622
0.00328636
0.00295922
0.00156274
0.00254725
0.00383504
0.00419738
0.00417315
0.00403743
0.003898
0.00378209
0.00368484
0.00360596
0.00353878
0.0034772
0.00341778
0.00336151
0.00331508
0.00329152
0.00330843
0.0033823
0.0035215
0.00372374
0.00397788
0.00426656
0.00457209
0.00488807
0.00522745
0.00561676
0.00605833
0.0064425
0.0066739
0.00668503
0.0065237
0.00628864
0.00606012
0.00591486
0.00583919
0.00554384
0.00484155
0.00431612
0.00156666
0.00246504
0.00411315
0.00433539
0.00426289
0.00411882
0.00395215
0.00379203
0.00365114
0.00351031
0.00336284
0.0032235
0.00310134
0.00300328
0.00293661
0.00291097
0.00293878
0.00303268
0.00319931
0.00343246
0.00371134
0.0040054
0.00427742
0.00451347
0.00471459
0.00488856
0.00504941
0.00522087
0.00539258
0.00551658
0.00554683
0.00547421
0.00532022
0.00510967
0.00464688
0.00391059
0.00300985
0.00271788
0.00132198
0.00203689
0.00218009
0.00230406
0.00244564
0.00233752
0.00216903
0.00202957
0.00189915
0.00177745
0.00166308
0.00156056
0.00146997
0.00138675
0.00130862
0.00123478
0.00116564
0.00110269
0.00104836
0.00100551
0.000976491
0.000962186
0.000961377
0.000970948
0.000987872
0.00100664
0.00102373
0.00103837
0.00105164
0.00106655
0.00108381
0.00110299
0.00112252
0.00113862
0.00114279
0.00112116
0.00108574
0.00103607
0.000969046
0.00102501
0.00126836
)
;

boundaryField
{
    floor
    {
        type            compressible::alphatWallFunction;
        Prt             0.85;
        value           nonuniform List<scalar> 
36
(
0.000150656
4.7966e-05
5.78042e-05
6.03141e-05
4.59504e-05
2.94861e-05
2.2742e-05
2.14483e-05
1.92035e-05
1.80503e-05
2.1797e-05
2.42241e-05
2.76801e-05
3.10724e-05
3.57643e-05
4.39852e-05
5.299e-05
5.88202e-05
5.34962e-05
5.34955e-05
7.62335e-05
8.76472e-05
0.000140117
0.000199557
0.000186821
0.000168204
0.000150654
0.000161669
0.00015589
0.00010854
4.79653e-05
0.000108539
8.0568e-05
0.000168838
0.000134731
0.000175903
)
;
    }
    ceiling
    {
        type            compressible::alphatWallFunction;
        Prt             0.85;
        value           nonuniform List<scalar> 
43
(
0.000282037
0.000300585
0.000316538
0.000334684
0.000320881
0.000299216
0.000281144
0.000264119
0.000248117
0.000232969
0.000219291
0.000207121
0.000195868
0.000185234
0.000175117
0.000165581
0.000156842
0.000149254
0.000143234
0.000139141
0.000137115
0.000136998
0.000138349
0.000140736
0.00014338
0.000145783
0.000147836
0.000149697
0.000151783
0.000154194
0.000156868
0.000159584
0.000161818
0.000162395
0.000159392
0.00015446
0.000147511
0.000138074
0.000145965
0.000179713
0.000469422
0.000557787
0.000337087
)
;
    }
    sWall
    {
        type            compressible::alphatWallFunction;
        Prt             0.85;
        value           uniform 0.000280936;
    }
    nWall
    {
        type            compressible::alphatWallFunction;
        Prt             0.85;
        value           nonuniform List<scalar> 6(0.000167993 0.000190056 0.00019338 0.000219754 0.000186713 0.00017939);
    }
    sideWalls
    {
        type            empty;
    }
    glass1
    {
        type            compressible::alphatWallFunction;
        Prt             0.85;
        value           nonuniform List<scalar> 9(0.000113654 0.0001862 0.000247909 0.000306301 0.000361042 0.000412858 0.000461878 0.000474293 0.000462954);
    }
    glass2
    {
        type            compressible::alphatWallFunction;
        Prt             0.85;
        value           nonuniform List<scalar> 2(0.000196416 0.000218099);
    }
    sun
    {
        type            compressible::alphatWallFunction;
        Prt             0.85;
        value           nonuniform List<scalar> 
14
(
0.000116795
0.000120847
0.000114366
0.000118775
0.000123093
0.000127003
0.000130566
0.000133897
0.000137134
0.000140464
0.00014344
0.000145833
0.000147689
0.000149294
)
;
    }
    Table_master
    {
        type            compressible::alphatWallFunction;
        Prt             0.85;
        value           nonuniform List<scalar> 9(7.4572e-05 5.64296e-05 4.36455e-05 3.256e-05 4.16767e-05 5.07917e-05 6.0014e-05 7.17032e-05 9.0655e-05);
    }
    Table_slave
    {
        type            compressible::alphatWallFunction;
        Prt             0.85;
        value           nonuniform List<scalar> 9(0.000111827 0.000109163 0.000108223 0.000108544 0.000110229 0.000113549 0.000119001 0.000126883 0.000135074);
    }
    inlet
    {
        type            fixedValue;
        value           uniform 1.94e-05;
    }
    outlet
    {
        type            zeroGradient;
    }
}


// ************************************************************************* //
