/*--------------------------------*- C++ -*----------------------------------*\
  =========                 |
  \\      /  F ield         | OpenFOAM: The Open Source CFD Toolbox
   \\    /   O peration     | Website:  https://openfoam.org
    \\  /    A nd           | Version:  6
     \\/     M anipulation  |
\*---------------------------------------------------------------------------*/
FoamFile
{
    version     2.0;
    format      ascii;
    class       surfaceScalarField;
    location    "1100";
    object      phi;
}
// * * * * * * * * * * * * * * * * * * * * * * * * * * * * * * * * * * * * * //

dimensions      [1 0 -1 0 0 0 0];

internalField   nonuniform List<scalar> 
850
(
-0.00240373
0.00246332
-0.00265017
0.000246542
-0.00299934
0.000349263
-0.00338462
0.00038538
-0.00374416
0.00035964
-0.00405018
0.000306118
-0.00428291
0.000232833
-0.0044231
0.000140284
-0.00444995
2.69543e-05
-0.00433896
-0.000110887
-0.00406505
-0.000273802
-0.00360838
-0.000456568
-0.00292915
-0.000679122
-0.0018626
-0.00106644
-0.00186117
-0.000462902
0.000466842
-0.000372053
-9.07687e-05
-0.000169971
-0.000201987
-0.000113865
-5.60205e-05
-0.000207578
9.37675e-05
-0.000327631
0.000120094
-0.000259939
-6.76509e-05
-2.92226e-05
-0.00023067
0.000365249
-0.000394418
0.000614979
-0.000249684
0.000742713
-0.000127694
0.000837817
-9.50675e-05
0.0008674
-2.95518e-05
0.000816833
5.05844e-05
0.000753506
6.33206e-05
0.000749632
3.84802e-06
0.000657311
9.23011e-05
0.000660901
-0.00176938
0.00438826
-0.00236131
0.000838563
-0.00287046
0.000858508
-0.00330455
0.000819571
-0.00368817
0.000743351
-0.004015
0.000633052
-0.00427248
0.000490405
-0.0044452
0.000313105
-0.00451656
9.84166e-05
-0.00447323
-0.000154115
-0.00430564
-0.000441289
-0.00400263
-0.000759481
-0.00355899
-0.00112266
-0.0030828
-0.00154252
-0.00313764
-0.00180622
-0.00153379
-0.00160126
0.000172446
-0.00170351
0.000181499
0.000736795
-0.000261455
0.000639248
6.88514e-06
0.000443499
-6.13112e-06
0.000476924
-8.93418e-05
0.000467665
0.000103117
0.000289229
0.000298619
0.000154404
6.72882e-05
0.000135645
-0.00021182
0.000213786
-0.000472473
0.000256075
-0.000291903
0.000250531
-0.000122095
0.000191417
-3.59105e-05
8.9902e-05
7.19735e-05
3.29149e-06
0.000137184
8.37648e-05
-1.7165e-05
0.000275833
-0.000188192
0.000296051
7.21136e-05
0.000965663
-0.00132308
0.00594342
-0.00204086
0.00155644
-0.00258262
0.00140035
-0.00300698
0.00124403
-0.00337764
0.00111411
-0.00369723
0.000952739
-0.00395708
0.00075035
-0.0041446
0.000500729
-0.0042457
0.000199607
-0.00424861
-0.000151106
-0.00414806
-0.000541736
-0.00395197
-0.000955473
-0.00369938
-0.00137515
-0.00348427
-0.00175753
-0.00330552
-0.00198487
-0.00284407
-0.00206261
-0.00238911
-0.00215835
-0.00220114
-0.000798526
0.000546095
-0.000880715
8.92155e-05
-0.000758429
-0.000128286
-0.000499361
-0.000348288
0.000208557
-0.000604683
0.000507443
0.000574998
0.000363446
-0.000108771
-0.000400432
-0.000522308
-0.000558009
-0.000485829
-0.000348451
2.30229e-05
-0.000388582
-0.000201447
3.63501e-05
-0.000475923
0.000346647
0.00050288
-0.00100122
0.00723925
-0.00174314
0.00229845
-0.00220224
0.00185954
-0.00256636
0.00160824
-0.00288791
0.00143575
-0.00316983
0.00123475
-0.0034069
0.000987509
-0.00358887
0.000682786
-0.0037011
0.000311939
-0.00372799
-0.000124129
-0.00366744
-0.000602192
-0.00354667
-0.00107615
-0.00341861
-0.00150313
-0.00333897
-0.00183707
-0.00329245
-0.00203129
-0.00324968
-0.00210527
-0.00333954
-0.00206838
-0.00390571
-0.00163486
-0.00308063
-0.00081749
-0.00226477
-0.000269641
-0.0019799
-0.000195535
-0.00180175
-0.000306324
-0.001718
-0.000431933
-0.00185516
-0.000467409
-0.00152319
-0.000332024
-0.00124119
-0.000282042
-0.000976511
-0.000264732
-0.000719199
-0.000257364
-0.000460294
-0.000258959
-0.000185704
-0.000274647
0.000120169
-0.000305931
0.00045479
-0.000334691
0.000805232
-0.000350518
0.000777235
-0.000360516
0.000859828
-4.61864e-05
0.000774932
0.000431592
0.00128973
-0.00075172
0.00833832
-0.00147539
0.0030222
-0.0017634
0.00214764
-0.00202983
0.00187477
-0.00226952
0.00167553
-0.0024774
0.00144273
-0.00265265
0.00116284
-0.00279
0.000820224
-0.00287665
0.000398678
-0.00289063
-0.000110063
-0.00282943
-0.000663312
-0.00273495
-0.00117054
-0.00265783
-0.00158016
-0.00262926
-0.00186555
-0.00264269
-0.00201778
-0.00269847
-0.00204939
-0.0028338
-0.00193296
-0.00291182
-0.00155673
-0.00268645
-0.00104276
-0.00229981
-0.000656178
-0.00198897
-0.000506274
-0.00179351
-0.000501678
-0.00169039
-0.000534959
-0.00162599
-0.000531712
-0.00147484
-0.000483071
-0.00130642
-0.000450372
-0.00113876
-0.0004323
-0.000972685
-0.000423343
-0.000805777
-0.00042578
-0.000632776
-0.000447567
-0.000445139
-0.000493493
-0.000222479
-0.000557283
5.66923e-05
-0.000629629
0.000373029
-0.000676801
0.000900119
-0.000573234
0.00159195
-0.000260211
0.00289177
-1.00678e-05
0.00296789
-6.70268e-05
0.00222691
0.000750514
0.00227478
-0.000679568
0.00941094
-0.00133656
0.00367928
-0.00129653
0.0021077
-0.00140898
0.0019873
-0.00155205
0.0018187
-0.00165928
0.00155004
-0.00173159
0.00123524
-0.00177522
0.000863937
-0.00178713
0.00041067
-0.00174441
-0.000152699
-0.00165418
-0.00075346
-0.00156988
-0.00125476
-0.00153073
-0.00161923
-0.00155049
-0.00184571
-0.00162289
-0.00194529
-0.00174144
-0.00193075
-0.00188532
-0.00178899
-0.00194534
-0.00149662
-0.00185852
-0.00112949
-0.0016815
-0.000833107
-0.00151926
-0.000668415
-0.00141603
-0.000604822
-0.00136549
-0.000585406
-0.00133167
-0.000565444
-0.00128078
-0.000533876
-0.0012237
-0.000507358
-0.00117108
-0.000484837
-0.00112851
-0.000465826
-0.00109675
-0.000457461
-0.00107153
-0.00047271
-0.0010425
-0.000522462
-0.000990962
-0.000608767
-0.000894941
-0.000725603
-0.000714718
-0.000856984
-0.00030452
-0.000983397
0.000533431
-0.00109813
0.00159639
-0.001073
0.00185521
-0.000325829
0.00129546
0.00131029
0.0036116
-0.000922883
0.0107677
-0.00112791
0.00388439
-0.000575763
0.00155563
-0.000529082
0.00194071
-0.000629448
0.00191915
-0.000663393
0.00158407
-0.000620392
0.00119232
-0.000531118
0.000774744
-0.000401648
0.000281279
-0.000257506
-0.000296763
-0.000139853
-0.000871036
-8.77464e-05
-0.00130679
-0.000111898
-0.00159501
-0.00020465
-0.00175288
-0.00035092
-0.00179895
-0.00053329
-0.00174831
-0.000716963
-0.00160524
-0.000839845
-0.00137366
-0.000872106
-0.00109715
-0.000849616
-0.000855512
-0.000825222
-0.000692724
-0.000826904
-0.000603056
-0.000854329
-0.000557899
-0.000892333
-0.000527359
-0.000929774
-0.000496355
-0.000974372
-0.00046268
-0.00103877
-0.000420357
-0.00113618
-0.000368346
-0.0012746
-0.000318961
-0.00145313
-0.000294119
-0.0016593
-0.00031623
-0.00187186
-0.000396155
-0.00206601
-0.000531414
-0.0022106
-0.000712355
-0.0022585
-0.000935469
-0.00213432
-0.00122229
-0.0016233
-0.00158399
-0.000184375
-0.00176473
0.000974893
0.000151045
0.00463427
0.00172431
0.00952675
0.00209715
0.00351164
0.0018747
0.00177816
0.00155073
0.00226476
0.0012351
0.00223486
0.00108746
0.00173178
0.00111651
0.00116336
0.00125094
0.000640388
0.00146689
6.54055e-05
0.00166634
-0.000496133
0.00172682
-0.000931438
0.00166544
-0.00124534
0.00151707
-0.00144657
0.00131043
-0.00154616
0.00106701
-0.00155546
0.00080498
-0.00148621
0.0005498
-0.00134999
0.000337158
-0.00116094
0.000187546
-0.000947463
8.40206e-05
-0.00075191
-4.5771e-06
-0.000604049
-9.80229e-05
-0.000509533
-0.000199556
-0.00045629
-0.000303773
-0.000423068
-0.000407322
-0.000392734
-0.00051765
-0.000352281
-0.000650638
-0.000287298
-0.000832031
-0.000186881
-0.00108974
-6.11844e-05
-0.00144885
6.50597e-05
-0.0019237
0.000158678
-0.00250373
0.000183928
-0.00314847
0.00011337
-0.00380822
-5.25675e-05
-0.00446516
-0.000278496
-0.00516095
-0.000526474
-0.00598451
-0.000760396
-0.00684356
-0.00090566
-0.00567834
-0.00101416
-0.000801044
0.0100538
0.0135555
0.010807
0.00452674
0.00881241
0.00425943
0.00725163
0.00379572
0.0061662
0.0028173
0.00546838
0.00186126
0.00504514
0.00106371
0.00470047
0.000410153
0.00433241
-0.000127996
0.00395741
-0.000556365
0.00357828
-0.00086613
0.00319597
-0.0010642
0.00281431
-0.00116443
0.00243957
-0.00118065
0.00207992
-0.00112649
0.0017467
-0.00101671
0.00145471
-0.00086889
0.00121346
-0.00070614
0.00101657
-0.000554953
0.000847652
-0.000435064
0.000691604
-0.000353416
0.000540522
-0.000305138
0.000394058
-0.000276535
0.000255268
-0.000253878
0.000126666
-0.000223615
1.02372e-05
-0.000170806
-9.3506e-05
-8.30747e-05
-0.00018891
3.42844e-05
-0.000297473
0.000173687
-0.000447718
0.000308985
-0.000673882
0.000410152
-0.00102651
0.000466055
-0.00154225
0.000463232
-0.00217679
0.000356101
-0.0028611
0.000157899
-0.00359086
-3.05809e-05
-0.00424651
-0.000249959
-0.00378686
-0.00147376
-0.00432769
0.00504664
0.00402997
0.00488277
0.00442335
0.00544548
0.00323307
0.00573073
0.00253212
0.00578567
0.00180639
0.00574597
0.00110347
0.00563064
0.000525555
0.0054178
8.49222e-05
0.00510791
-0.000246409
0.00472599
-0.000484137
0.00430202
-0.000640164
0.00386122
-0.000723558
0.00342435
-0.000743713
0.0030086
-0.000710687
0.00262787
-0.000635906
0.00229265
-0.000533607
0.00200805
-0.000421486
0.00177108
-0.000317923
0.00157197
-0.000235887
0.00139812
-0.000179499
0.00123843
-0.00014539
0.00108552
-0.00012356
0.000939299
-0.000107594
0.000805551
-8.98066e-05
0.000694805
-6.00026e-05
0.000619416
-7.62834e-06
0.000583018
7.07397e-05
0.000583468
0.000173294
0.000609115
0.000283397
0.000643502
0.000375825
0.000681641
0.000427976
0.00074194
0.000402993
0.000859272
0.00023883
0.00108576
-6.85304e-05
0.00151199
-0.000456751
0.00217796
-0.000915875
0.00218745
-0.0014832
-0.00207873
-6.15953e-05
0.00409969
0.00196389
0.00239792
0.00315196
0.00204505
0.00403341
0.00165073
0.00468985
0.00115001
0.00508732
0.000706062
0.0052551
0.000357845
0.00524367
9.641e-05
0.00508127
-8.39389e-05
0.00480359
-0.000206398
0.00444971
-0.000286225
0.00405504
-0.000328821
0.0036506
-0.00033921
0.00326211
-0.000322145
0.00290891
-0.000282646
0.00260256
-0.000227192
0.00234575
-0.000164621
0.00213296
-0.000105066
0.00195385
-5.6724e-05
0.00179762
-2.3206e-05
0.00165574
-3.44698e-06
0.0015258
6.43449e-06
0.00140821
1.00559e-05
0.00130625
1.22107e-05
0.00122829
1.80132e-05
0.00118816
3.25597e-05
0.00119333
6.56234e-05
0.00125423
0.000112447
0.00137238
0.000165301
0.00153759
0.000210663
0.00173582
0.000229807
0.00194733
0.000191534
0.00213421
5.20141e-05
0.00225724
-0.00019151
0.00235055
-0.000550006
0.00264898
-0.00121425
0.00271435
-0.00154853
0.000713092
-0.00635539
-0.00802693
-0.00392344
-0.00152838
0.000510992
0.00215399
0.00329522
0.00399167
0.0043392
0.00442466
0.00432916
0.00411062
0.00381167
0.00346952
0.00311638
0.00277971
0.00248196
0.00223915
0.00205854
0.00193727
0.00186433
0.00182509
0.00180595
0.00179712
0.0017924
0.00179031
0.00179449
0.00181369
0.00186647
0.0019666
0.00212011
0.00231945
0.00253833
0.00271917
0.00276049
0.00255815
0.00199707
0.000771288
-0.000788914
)
;

boundaryField
{
    floor
    {
        type            calculated;
        value           nonuniform List<scalar> 
36
(
0
0
0
0
0
0
0
0
0
0
0
0
0
0
0
0
0
0
0
-3.59423e-06
-8.69182e-06
-1.31048e-05
-1.18851e-05
-9.06686e-06
-9.51694e-06
-1.02375e-05
-1.32362e-06
-2.48534e-06
-2.61327e-06
-3.55015e-06
-3.88176e-06
-5.40164e-06
-8.38089e-06
-6.36064e-06
-8.88754e-06
-7.47079e-06
)
;
    }
    ceiling
    {
        type            calculated;
        value           nonuniform List<scalar> 
43
(
-3.39179e-06
-3.8995e-06
-3.76048e-06
2.90809e-06
5.73778e-06
7.78462e-06
8.84762e-06
9.67144e-06
1.03751e-05
1.10147e-05
1.16181e-05
1.22035e-05
1.27895e-05
1.33841e-05
1.39873e-05
1.45887e-05
1.51632e-05
1.56694e-05
1.60536e-05
1.62646e-05
1.62739e-05
1.60906e-05
1.57568e-05
1.53169e-05
1.48387e-05
1.43605e-05
1.38881e-05
1.34101e-05
1.28998e-05
1.2366e-05
1.184e-05
1.13631e-05
1.09784e-05
1.07443e-05
1.07452e-05
1.08705e-05
1.11268e-05
1.15845e-05
1.17214e-05
1.08339e-05
1.35369e-05
9.97242e-06
-8.09526e-06
)
;
    }
    sWall
    {
        type            calculated;
        value           uniform -0.00021701;
    }
    nWall
    {
        type            calculated;
        value           nonuniform List<scalar> 6(-3.76191e-05 -4.13438e-05 -4.77539e-05 -6.14541e-05 -7.74199e-05 -8.66068e-05);
    }
    sideWalls
    {
        type            empty;
        value           nonuniform 0();
    }
    glass1
    {
        type            calculated;
        value           nonuniform List<scalar> 9(-5.95077e-05 -0.000155467 -0.000231994 -0.000294531 -0.000347271 -0.000392974 -0.00043376 -0.00048332 -0.000540484);
    }
    glass2
    {
        type            calculated;
        value           nonuniform List<scalar> 2(-0.000243015 -0.000260169);
    }
    sun
    {
        type            calculated;
        value           uniform 0;
    }
    Table_master
    {
        type            calculated;
        value           nonuniform List<scalar> 9(-1.53535e-07 -1.53635e-07 -1.5371e-07 -1.5379e-07 -1.53694e-07 -1.53571e-07 -1.535e-07 -1.53439e-07 -1.53346e-07);
    }
    Table_slave
    {
        type            calculated;
        value           nonuniform List<scalar> 9(1.52589e-07 1.52709e-07 1.52799e-07 1.5288e-07 1.52954e-07 1.53025e-07 1.53057e-07 1.52985e-07 1.5284e-07);
    }
    inlet
    {
        type            calculated;
        value           uniform -0.00454985;
    }
    outlet
    {
        type            calculated;
        value           nonuniform List<scalar> 2(0.00657583 0.00167547);
    }
}


// ************************************************************************* //
