/*--------------------------------*- C++ -*----------------------------------*\
  =========                 |
  \\      /  F ield         | OpenFOAM: The Open Source CFD Toolbox
   \\    /   O peration     | Website:  https://openfoam.org
    \\  /    A nd           | Version:  6
     \\/     M anipulation  |
\*---------------------------------------------------------------------------*/
FoamFile
{
    version     2.0;
    format      ascii;
    class       volScalarField;
    location    "2000";
    object      T;
}
// * * * * * * * * * * * * * * * * * * * * * * * * * * * * * * * * * * * * * //

dimensions      [0 0 0 1 0 0 0];

internalField   nonuniform List<scalar> 
458
(
303.511
303.2
303.192
303.193
303.194
303.195
303.195
303.196
303.196
303.196
303.194
303.192
303.187
303.181
303.175
303.026
302.994
302.985
302.979
302.975
302.971
302.968
302.966
302.963
302.96
302.956
302.952
302.948
302.944
302.94
302.934
302.928
302.932
303.734
303.232
303.208
303.214
303.219
303.224
303.228
303.231
303.233
303.234
303.232
303.225
303.213
303.195
303.171
303.152
303.135
303.124
303.012
302.995
302.984
302.976
302.97
302.963
302.956
302.948
302.941
302.934
302.928
302.921
302.914
302.909
302.905
302.902
302.9
302.915
303.947
303.28
303.234
303.244
303.258
303.271
303.282
303.292
303.299
303.302
303.301
303.292
303.273
303.245
303.21
303.174
303.14
303.113
303.013
303
302.991
302.98
302.973
302.964
302.952
302.939
302.928
302.917
302.907
302.898
302.89
302.884
302.882
302.882
302.883
302.905
304.146
303.344
303.26
303.273
303.294
303.316
303.337
303.355
303.37
303.379
303.38
303.371
303.349
303.314
303.27
303.219
303.165
303.111
303.073
303.042
303.021
303.002
302.986
302.976
302.966
302.96
302.956
302.953
302.949
302.945
302.94
302.935
302.93
302.913
302.896
302.884
302.899
304.329
303.424
303.292
303.295
303.321
303.35
303.379
303.407
303.431
303.448
303.456
303.45
303.428
303.391
303.343
303.288
303.231
303.175
303.126
303.083
303.045
303.012
302.992
302.984
302.978
302.973
302.969
302.964
302.96
302.955
302.949
302.942
302.934
302.922
302.906
302.89
302.892
302.891
302.89
302.934
304.484
303.526
303.353
303.32
303.34
303.369
303.402
303.435
303.468
303.496
303.513
303.512
303.491
303.454
303.405
303.348
303.29
303.233
303.178
303.125
303.07
303.023
302.998
302.99
302.986
302.982
302.978
302.974
302.968
302.962
302.954
302.945
302.935
302.924
302.911
302.896
302.89
302.886
302.883
302.932
304.606
303.695
303.525
303.427
303.391
303.397
303.42
303.449
303.481
303.52
303.549
303.552
303.532
303.494
303.445
303.388
303.331
303.276
303.221
303.163
303.096
303.033
303.002
302.995
302.993
302.99
302.987
302.983
302.977
302.97
302.96
302.948
302.936
302.925
302.913
302.9
302.892
302.887
302.886
302.927
304.819
304.138
303.96
303.786
303.645
303.563
303.528
303.522
303.534
303.562
303.579
303.573
303.546
303.504
303.455
303.402
303.349
303.298
303.247
303.192
303.121
303.044
303.007
303
302.999
302.998
302.996
302.992
302.987
302.981
302.972
302.961
302.946
302.932
302.923
302.915
302.911
302.914
302.924
303.066
305.115
304.825
304.533
304.291
304.085
303.927
303.817
303.746
303.704
303.674
303.632
303.583
303.531
303.478
303.428
303.379
303.333
303.29
303.247
303.202
303.143
303.055
303.011
303.005
303.006
303.007
303.006
303.005
303.003
302.999
302.995
302.993
302.994
302.999
303.013
303.035
303.066
303.101
303.13
303.198
297.37
301.47
302.777
303.21
303.38
303.448
303.469
303.465
303.454
303.433
303.405
303.375
303.344
303.312
303.282
303.252
303.223
303.19
303.147
303.069
303.016
303.01
303.013
303.016
303.018
303.021
303.023
303.025
303.028
303.032
303.036
303.043
303.056
303.074
303.098
303.122
303.142
303.16
298.295
301.329
302.332
302.821
303.059
303.172
303.223
303.243
303.249
303.25
303.246
303.238
303.229
303.218
303.206
303.193
303.179
303.162
303.136
303.083
303.023
303.016
303.02
303.024
303.028
303.032
303.036
303.04
303.044
303.049
303.053
303.06
303.069
303.082
303.098
303.114
303.115
303.142
300.258
300.193
300.189
301.942
302.479
302.799
302.976
303.045
303.08
303.098
303.106
303.114
303.12
303.124
303.128
303.131
303.132
303.131
303.128
303.122
303.113
303.094
303.036
303.023
303.028
303.032
303.036
303.04
303.043
303.047
303.05
303.053
303.057
303.061
303.067
303.074
303.089
303.095
303.094
303.129
)
;

boundaryField
{
    floor
    {
        type            wallHeatTransfer;
        Tinf            uniform 305.2;
        alphaWall       uniform 0.24;
        value           nonuniform List<scalar> 
36
(
303.44
303.463
303.379
303.352
303.34
303.337
303.344
303.352
303.361
303.369
303.377
303.384
303.392
303.399
303.407
303.416
303.426
303.436
303.47
303.47
303.399
303.354
303.312
303.258
303.248
303.282
303.44
303.413
303.408
303.421
303.463
303.421
303.367
303.366
303.324
303.324
)
;
    }
    ceiling
    {
        type            wallHeatTransfer;
        Tinf            uniform 303.2;
        alphaWall       uniform 0.24;
        value           nonuniform List<scalar> 
43
(
300.442
300.369
300.356
302.009
302.52
302.823
302.99
303.055
303.089
303.106
303.114
303.121
303.127
303.132
303.136
303.138
303.14
303.14
303.138
303.134
303.127
303.113
303.066
303.053
303.056
303.058
303.06
303.062
303.064
303.067
303.069
303.071
303.073
303.077
303.081
303.087
303.1
303.105
303.105
303.137
305.026
304.76
298.547
)
;
    }
    sWall
    {
        type            wallHeatTransfer;
        Tinf            uniform 315.2;
        alphaWall       uniform 0.36;
        value           uniform 301.621;
    }
    nWall
    {
        type            wallHeatTransfer;
        Tinf            uniform 307.2;
        alphaWall       uniform 0.36;
        value           nonuniform List<scalar> 6(303.848 303.702 303.597 303.759 303.741 303.765);
    }
    sideWalls
    {
        type            empty;
    }
    glass1
    {
        type            wallHeatTransfer;
        Tinf            uniform 315.2;
        alphaWall       uniform 4.3;
        value           nonuniform List<scalar> 9(312.427 311.55 310.962 310.498 310.132 309.829 309.579 309.626 309.839);
    }
    glass2
    {
        type            wallHeatTransfer;
        Tinf            uniform 307.2;
        alphaWall       uniform 4.3;
        value           nonuniform List<scalar> 2(305.671 305.74);
    }
    sun
    {
        type            wallHeatTransfer;
        Tinf            uniform 305.2;
        alphaWall       uniform 0.24;
        value           nonuniform List<scalar> 
14
(
303.763
303.492
303.493
303.487
303.482
303.478
303.474
303.471
303.467
303.464
303.46
303.456
303.452
303.446
)
;
    }
    Table_master
    {
        type            zeroGradient;
    }
    Table_slave
    {
        type            zeroGradient;
    }
    inlet
    {
        type            fixedValue;
        value           uniform 292.15;
    }
    outlet
    {
        type            zeroGradient;
    }
}


// ************************************************************************* //
