/*--------------------------------*- C++ -*----------------------------------*\
  =========                 |
  \\      /  F ield         | OpenFOAM: The Open Source CFD Toolbox
   \\    /   O peration     | Website:  https://openfoam.org
    \\  /    A nd           | Version:  6
     \\/     M anipulation  |
\*---------------------------------------------------------------------------*/
FoamFile
{
    version     2.0;
    format      ascii;
    class       volVectorField;
    location    "700";
    object      U;
}
// * * * * * * * * * * * * * * * * * * * * * * * * * * * * * * * * * * * * * //

dimensions      [0 1 -1 0 0 0 0];

internalField   nonuniform List<vector> 
458
(
(0.0256372 0.0945075 0)
(-0.18398 0.0304531 0)
(-0.214762 0.0197999 0)
(-0.248283 0.0126865 0)
(-0.271451 0.00537933 0)
(-0.283687 -0.0020397 0)
(-0.283671 -0.00970515 0)
(-0.27075 -0.0177109 0)
(-0.245729 -0.0254478 0)
(-0.21028 -0.0318915 0)
(-0.167539 -0.0361619 0)
(-0.121434 -0.0375691 0)
(-0.076413 -0.0355689 0)
(-0.0384273 -0.0297395 0)
(-0.0237272 -0.0186462 0)
(-0.0121307 0.0111866 0)
(-0.0361368 -0.0219155 0)
(-0.0067973 -0.0358187 0)
(0.025019 -0.0283987 0)
(0.0482795 -0.0195978 0)
(0.0652095 -0.0109884 0)
(0.0750947 -0.00643181 0)
(0.0796142 -0.00465738 0)
(0.0815547 -0.00386303 0)
(0.0825527 -0.00331189 0)
(0.0829988 -0.00285353 0)
(0.0828477 -0.00237103 0)
(0.0818863 -0.00165067 0)
(0.0794813 -0.000240858 0)
(0.0742304 0.0024822 0)
(0.0645518 0.00553005 0)
(0.0543861 0.00847567 0)
(-0.0110049 0.0266559 0)
(0.206247 0.191966 0)
(-0.165274 0.0784574 0)
(-0.168035 0.0581863 0)
(-0.201045 0.0434383 0)
(-0.223028 0.0277582 0)
(-0.234924 0.0110277 0)
(-0.235341 -0.00710413 0)
(-0.223609 -0.0259957 0)
(-0.201089 -0.043484 0)
(-0.169815 -0.0573026 0)
(-0.132901 -0.0658656 0)
(-0.093825 -0.0682146 0)
(-0.0560514 -0.0638264 0)
(-0.0226243 -0.0527571 0)
(0.00354229 -0.0354954 0)
(0.0303991 -0.00663775 0)
(0.050282 0.031721 0)
(-0.0254518 0.0767765 0)
(0.0656337 0.0466847 0)
(0.029372 -0.027396 0)
(0.0422876 -0.0446793 0)
(0.0583379 -0.0401357 0)
(0.0719786 -0.0290925 0)
(0.0787647 -0.013135 0)
(0.0805003 -0.00364937 0)
(0.0805851 3.40656e-05 0)
(0.0808055 0.00153206 0)
(0.0811801 0.00244087 0)
(0.0814302 0.00314079 0)
(0.0814627 0.00382856 0)
(0.081252 0.00496797 0)
(0.0801975 0.00766407 0)
(0.0754366 0.0150098 0)
(0.0636151 0.0216357 0)
(0.0566704 0.026905 0)
(-0.0559588 0.0573257 0)
(0.372137 0.285515 0)
(-0.176331 0.121967 0)
(-0.122539 0.0917821 0)
(-0.152044 0.0664976 0)
(-0.169933 0.0411096 0)
(-0.179481 0.0144346 0)
(-0.178382 -0.0143584 0)
(-0.165992 -0.0437965 0)
(-0.144592 -0.0701242 0)
(-0.116886 -0.0898585 0)
(-0.0858265 -0.101098 0)
(-0.0542338 -0.102973 0)
(-0.0246109 -0.0952603 0)
(0.00148784 -0.078501 0)
(0.0214229 -0.0552148 0)
(0.0361124 -0.0279312 0)
(0.042426 0.00623976 0)
(-0.0227013 0.0643774 0)
(0.131134 -0.0298386 0)
(0.0900638 -0.0505698 0)
(0.085422 -0.0547295 0)
(0.0893794 -0.0488744 0)
(0.0939508 -0.0405526 0)
(0.0935828 -0.0300633 0)
(0.0830784 -0.0193597 0)
(0.0752744 -0.0134865 0)
(0.0720869 -0.0101 0)
(0.0710174 -0.00787396 0)
(0.0706309 -0.00632375 0)
(0.070821 -0.00505703 0)
(0.0721476 -0.00353403 0)
(0.076034 0.000663097 0)
(0.0743893 0.0208591 0)
(0.0593725 0.0355311 0)
(0.0622845 0.0464941 0)
(-0.096998 0.0885507 0)
(0.521623 0.359663 0)
(-0.207447 0.158818 0)
(-0.0772445 0.118484 0)
(-0.10138 0.0842039 0)
(-0.111313 0.0514891 0)
(-0.114552 0.0167633 0)
(-0.107306 -0.0218336 0)
(-0.0920497 -0.0609314 0)
(-0.0715773 -0.0943463 0)
(-0.0489111 -0.117921 0)
(-0.0258726 -0.130288 0)
(-0.00401394 -0.130869 0)
(0.015618 -0.11953 0)
(0.0318615 -0.0987777 0)
(0.0452201 -0.0707238 0)
(0.0571076 -0.0369541 0)
(0.0737878 0.00180592 0)
(0.0829625 0.0457594 0)
(0.134727 0.0410201 0)
(0.136777 -0.0211905 0)
(0.118024 -0.0440177 0)
(0.106235 -0.0478539 0)
(0.098482 -0.0438305 0)
(0.0908317 -0.0348278 0)
(0.0900582 -0.0203053 0)
(0.0990068 -0.0129492 0)
(0.105639 -0.00892451 0)
(0.108276 -0.00636649 0)
(0.108425 -0.00419929 0)
(0.106267 -0.00190872 0)
(0.101186 0.000793626 0)
(0.0918487 0.00438743 0)
(0.0751323 0.00965667 0)
(0.0603024 0.0327612 0)
(0.0465906 0.0526869 0)
(0.0671257 0.0691155 0)
(-0.135416 0.115186 0)
(0.648906 0.416184 0)
(-0.24755 0.187859 0)
(-0.035949 0.131296 0)
(-0.0501544 0.0916603 0)
(-0.0482777 0.0543487 0)
(-0.0398816 0.01329 0)
(-0.0189442 -0.0339711 0)
(-0.000129173 -0.0787935 0)
(0.0172044 -0.11451 0)
(0.0313889 -0.137309 0)
(0.0429805 -0.14769 0)
(0.0517658 -0.145769 0)
(0.0582674 -0.132524 0)
(0.0633696 -0.110045 0)
(0.0679822 -0.080882 0)
(0.0738969 -0.0477689 0)
(0.0856632 -0.0150454 0)
(0.103878 0.00441694 0)
(0.119599 -0.0134053 0)
(0.118089 -0.032813 0)
(0.107223 -0.0395554 0)
(0.094595 -0.0389733 0)
(0.0835775 -0.0345229 0)
(0.0747929 -0.026315 0)
(0.071348 -0.0131881 0)
(0.0731089 -0.00560294 0)
(0.0753876 -0.00230457 0)
(0.0768446 -0.000247457 0)
(0.0777981 0.00228653 0)
(0.0777013 0.00579446 0)
(0.0758962 0.0105455 0)
(0.0718114 0.0170022 0)
(0.0646885 0.0261576 0)
(0.0567348 0.0437029 0)
(0.0456345 0.0647813 0)
(0.0775591 0.088516 0)
(-0.0122168 0.124016 0)
(0.0514209 0.171285 0)
(-0.100582 0.0820922 0)
(-0.29363 -0.000593481 0)
(0.740821 0.462307 0)
(-0.286212 0.205441 0)
(-0.00491295 0.119213 0)
(0.00518555 0.0804599 0)
(0.0264681 0.0421919 0)
(0.0594163 -0.00517901 0)
(0.0861754 -0.0526153 0)
(0.103899 -0.0930515 0)
(0.113603 -0.123926 0)
(0.116392 -0.143385 0)
(0.113791 -0.150703 0)
(0.107246 -0.14626 0)
(0.0985352 -0.131557 0)
(0.089587 -0.108906 0)
(0.0819948 -0.0809315 0)
(0.0774754 -0.0510741 0)
(0.0784021 -0.0241457 0)
(0.0848409 -0.00864455 0)
(0.0889489 -0.0116182 0)
(0.0846253 -0.0200086 0)
(0.0743171 -0.0255236 0)
(0.0624318 -0.026551 0)
(0.0518414 -0.0241646 0)
(0.0437658 -0.0189494 0)
(0.0396856 -0.0117438 0)
(0.0395907 -0.00730478 0)
(0.0413919 -0.00531436 0)
(0.0439117 -0.00369985 0)
(0.0467714 -0.000920449 0)
(0.0498818 0.00375003 0)
(0.0519183 0.0103034 0)
(0.0528859 0.0188877 0)
(0.0529264 0.0301008 0)
(0.0536338 0.0459785 0)
(0.0521246 0.0657393 0)
(0.0804035 0.091236 0)
(0.0629529 0.107925 0)
(0.102642 0.111852 0)
(0.125383 0.0604598 0)
(-0.152466 -0.0418623 0)
(0.806643 0.504555 0)
(-0.302602 0.18369 0)
(0.039572 0.041369 0)
(0.0921345 0.0231596 0)
(0.142659 -0.00257076 0)
(0.182132 -0.0381182 0)
(0.205801 -0.0731428 0)
(0.215518 -0.10259 0)
(0.212542 -0.123986 0)
(0.199087 -0.135795 0)
(0.178048 -0.137482 0)
(0.152572 -0.129721 0)
(0.125821 -0.114172 0)
(0.100674 -0.0928698 0)
(0.0790502 -0.067801 0)
(0.0625497 -0.0423678 0)
(0.0524027 -0.020886 0)
(0.0480434 -0.0082135 0)
(0.0448429 -0.00715027 0)
(0.0387049 -0.011377 0)
(0.029777 -0.0152316 0)
(0.0201616 -0.0165957 0)
(0.011666 -0.0157503 0)
(0.00543681 -0.0133169 0)
(0.00249328 -0.0102123 0)
(0.00275909 -0.00849866 0)
(0.00495069 -0.007948 0)
(0.00818423 -0.00721085 0)
(0.0121665 -0.00506157 0)
(0.0173176 -0.000466132 0)
(0.0234591 0.00677597 0)
(0.0291235 0.015786 0)
(0.0351015 0.026731 0)
(0.0430123 0.0404459 0)
(0.0506224 0.0561807 0)
(0.0746434 0.0764684 0)
(0.0883836 0.0835707 0)
(0.125914 0.0717 0)
(0.175504 0.0511319 0)
(-0.0145271 0.0968877 0)
(0.920229 0.4962 0)
(-0.0305806 0.154666 0)
(0.176755 -0.0567279 0)
(0.29784 -0.0980179 0)
(0.339136 -0.0992062 0)
(0.350983 -0.100056 0)
(0.348291 -0.103992 0)
(0.332136 -0.108297 0)
(0.30288 -0.110708 0)
(0.263191 -0.109527 0)
(0.217212 -0.103711 0)
(0.169426 -0.0932281 0)
(0.123765 -0.0788151 0)
(0.0833395 -0.0614053 0)
(0.049439 -0.0416635 0)
(0.0240157 -0.022729 0)
(0.0073144 -0.00831974 0)
(-0.00197777 -0.000881131 0)
(-0.00721974 -0.000760537 0)
(-0.0125704 -0.00387647 0)
(-0.0190479 -0.00691044 0)
(-0.0256218 -0.00868666 0)
(-0.0312456 -0.00933998 0)
(-0.0351911 -0.00935442 0)
(-0.037005 -0.00929426 0)
(-0.0369557 -0.00974888 0)
(-0.0357974 -0.0104762 0)
(-0.0339871 -0.0108611 0)
(-0.0315314 -0.0103083 0)
(-0.0279431 -0.00817708 0)
(-0.0215853 -0.00377995 0)
(-0.0124313 0.00286884 0)
(-0.00384354 0.0106143 0)
(0.00809572 0.0192249 0)
(0.0195173 0.027182 0)
(0.0395168 0.0369565 0)
(0.0572078 0.0323705 0)
(0.0846618 0.0103928 0)
(0.157659 0.0521329 0)
(-0.479629 0.228024 0)
(1.07589 0.42548 0)
(0.500593 0.269951 0)
(0.522503 0.173914 0)
(0.57874 0.0963359 0)
(0.575797 0.0446426 0)
(0.53556 0.00852383 0)
(0.48 -0.0171183 0)
(0.414442 -0.0339701 0)
(0.341195 -0.0430748 0)
(0.264865 -0.0455582 0)
(0.191091 -0.0428256 0)
(0.124727 -0.0366637 0)
(0.0680873 -0.0284034 0)
(0.0219619 -0.0186228 0)
(-0.0158847 -0.00749205 0)
(-0.0380001 1.43464e-05 0)
(-0.0503167 0.00407632 0)
(-0.0559866 0.00505111 0)
(-0.0592125 0.00357801 0)
(-0.0623412 0.00107219 0)
(-0.065963 -0.00139598 0)
(-0.069956 -0.00350876 0)
(-0.0735971 -0.00525007 0)
(-0.0765953 -0.00671084 0)
(-0.0789304 -0.00800835 0)
(-0.0809457 -0.0091969 0)
(-0.0831454 -0.0100349 0)
(-0.08594 -0.0101186 0)
(-0.0896988 -0.00896619 0)
(-0.0949429 -0.00595701 0)
(-0.102495 -0.000428328 0)
(-0.111466 0.00806974 0)
(-0.12248 0.0198319 0)
(-0.139865 0.035644 0)
(-0.167828 0.0554804 0)
(-0.208968 0.077157 0)
(-0.266424 0.0947458 0)
(-0.330184 0.104059 0)
(-0.410499 0.104176 0)
(-0.700097 0.0932303 0)
(0.163631 -0.398053 0)
(0.215213 -0.210885 0)
(0.215309 -0.112763 0)
(0.167562 -0.0530607 0)
(0.117418 -0.0152465 0)
(0.0750786 0.00596326 0)
(0.0381707 0.0156026 0)
(0.00484696 0.0180265 0)
(-0.0246207 0.0165074 0)
(-0.0487504 0.0138422 0)
(-0.0690476 0.0115395 0)
(-0.084387 0.00982672 0)
(-0.0940422 0.00792875 0)
(-0.0992343 0.00549371 0)
(-0.101584 0.00296538 0)
(-0.102338 9.90088e-06 0)
(-0.102874 -0.00358238 0)
(-0.104013 -0.00748364 0)
(-0.105833 -0.011173 0)
(-0.108075 -0.0142202 0)
(-0.110683 -0.0164255 0)
(-0.113526 -0.0180907 0)
(-0.116843 -0.0192 0)
(-0.120864 -0.0196484 0)
(-0.125684 -0.0191385 0)
(-0.131157 -0.0171811 0)
(-0.136839 -0.013163 0)
(-0.14208 -0.00643388 0)
(-0.146118 0.00294546 0)
(-0.149194 0.0151728 0)
(-0.151677 0.0310855 0)
(-0.154112 0.05144 0)
(-0.157877 0.0756527 0)
(-0.163894 0.0992869 0)
(-0.168513 0.110031 0)
(-0.154592 0.0831522 0)
(-0.116949 -0.028283 0)
(-0.293539 -0.239717 0)
(-0.129186 0.272708 0)
(-0.166749 0.117594 0)
(-0.170655 0.0735759 0)
(-0.166942 0.0582065 0)
(-0.162022 0.0535357 0)
(-0.158582 0.0506765 0)
(-0.15657 0.0479236 0)
(-0.155548 0.0453362 0)
(-0.15506 0.0430375 0)
(-0.154577 0.0414993 0)
(-0.153764 0.0410638 0)
(-0.152117 0.0415193 0)
(-0.149556 0.0425876 0)
(-0.146506 0.0442312 0)
(-0.143308 0.0467307 0)
(-0.140208 0.0499487 0)
(-0.13752 0.053527 0)
(-0.135481 0.0569859 0)
(-0.134193 0.0596865 0)
(-0.1336 0.0608691 0)
(-0.133498 0.060795 0)
(-0.133866 0.0606143 0)
(-0.134689 0.0601736 0)
(-0.135926 0.0592256 0)
(-0.137504 0.0575552 0)
(-0.139303 0.0549577 0)
(-0.141082 0.0511548 0)
(-0.142227 0.0466494 0)
(-0.141758 0.043651 0)
(-0.138332 0.0437648 0)
(-0.130197 0.048458 0)
(-0.115898 0.0592967 0)
(-0.0955948 0.076916 0)
(-0.0709238 0.0977462 0)
(-0.0441477 0.112775 0)
(-0.00486314 0.10188 0)
(0.147366 0.0194132 0)
(-0.206137 -0.158413 0)
(-0.261797 -0.406472 0)
(-0.50824 -0.147363 0)
(-0.441731 0.0345058 0)
(-0.401132 -0.051394 0)
(-0.375521 -0.047909 0)
(-0.35812 -0.0374443 0)
(-0.335648 -0.0313448 0)
(-0.309574 -0.0309866 0)
(-0.282957 -0.0351147 0)
(-0.258084 -0.0421825 0)
(-0.236198 -0.0511344 0)
(-0.21756 -0.061143 0)
(-0.201853 -0.0716569 0)
(-0.188675 -0.0825636 0)
(-0.177773 -0.0939148 0)
(-0.168932 -0.105709 0)
(-0.161852 -0.117723 0)
(-0.156256 -0.12975 0)
(-0.151976 -0.141391 0)
(-0.148903 -0.15187 0)
(-0.146959 -0.160217 0)
(-0.146142 -0.16563 0)
(-0.146448 -0.168502 0)
(-0.147581 -0.169503 0)
(-0.149085 -0.168665 0)
(-0.150597 -0.165858 0)
(-0.151763 -0.160818 0)
(-0.152208 -0.153162 0)
(-0.151551 -0.142384 0)
(-0.14933 -0.128762 0)
(-0.144451 -0.113254 0)
(-0.13471 -0.0961461 0)
(-0.116941 -0.0772924 0)
(-0.0882112 -0.0558117 0)
(-0.0483185 -0.0306206 0)
(0.0129602 0.000994638 0)
(0.0747286 0.00748802 0)
(0.130568 -0.0186581 0)
(0.188362 -0.0739473 0)
(-0.152803 -0.152507 0)
)
;

boundaryField
{
    floor
    {
        type            noSlip;
    }
    ceiling
    {
        type            noSlip;
    }
    sWall
    {
        type            noSlip;
    }
    nWall
    {
        type            noSlip;
    }
    sideWalls
    {
        type            empty;
    }
    glass1
    {
        type            noSlip;
    }
    glass2
    {
        type            noSlip;
    }
    sun
    {
        type            noSlip;
    }
    Table_master
    {
        type            noSlip;
    }
    Table_slave
    {
        type            noSlip;
    }
    inlet
    {
        type            fixedValue;
        value           uniform (0.306147 -0.739104 0);
    }
    outlet
    {
        type            zeroGradient;
    }
}


// ************************************************************************* //
