// -*- C++ -*-
// File generated by PyFoam - sorry for the ugliness

FoamFile
{
 version 2.0;
 format ascii;
 class volVectorField;
 location "1800";
 object U;
}

dimensions [ 0 1 -1 0 0 0 0 ];

internalField nonuniform List<vector> 458
(
  (0.0243502 0.0949935 0)
  (-0.185622 0.0316097 0)
  (-0.223736 0.0214909 0)
  (-0.263989 0.0126164 0)
  (-0.291855 0.00288645 0)
  (-0.30461 -0.00794888 0)
  (-0.298107 -0.0203674 0)
  (-0.269362 -0.0353886 0)
  (-0.217654 -0.0520153 0)
  (-0.148031 -0.0675512 0)
  (-0.0720987 -0.0775201 0)
  (0.0197078 -0.0659449 0)
  (0.0706774 -0.0320683 0)
  (0.084913 -0.00181271 0)
  (0.0694142 0.0466899 0)
  (-0.0123265 0.00952866 0)
  (-0.0359221 -0.0216837 0)
  (-0.00761774 -0.0357337 0)
  (0.0261648 -0.0300909 0)
  (0.0505189 -0.0215184 0)
  (0.068435 -0.0117898 0)
  (0.0785739 -0.00664743 0)
  (0.0826487 -0.00478206 0)
  (0.0839552 -0.00406886 0)
  (0.0844666 -0.00361115 0)
  (0.0845921 -0.00321983 0)
  (0.0842061 -0.00276943 0)
  (0.083052 -0.00205265 0)
  (0.0804573 -0.000622683 0)
  (0.0749972 0.00213402 0)
  (0.065068 0.00544749 0)
  (0.0529982 0.00921381 0)
  (-0.00380032 0.0260501 0)
  (0.200976 0.196185 0)
  (-0.173945 0.0866534 0)
  (-0.188726 0.0706466 0)
  (-0.232405 0.0539481 0)
  (-0.262283 0.0342052 0)
  (-0.277583 0.0104079 0)
  (-0.274568 -0.0186282 0)
  (-0.250966 -0.0524804 0)
  (-0.206985 -0.0870055 0)
  (-0.147568 -0.114384 0)
  (-0.082727 -0.125278 0)
  (-0.021188 -0.107339 0)
  (0.0344883 -0.0481172 0)
  (0.0696218 0.00431807 0)
  (0.0941955 0.0531639 0)
  (0.110549 0.0571097 0)
  (0.0883481 0.0628489 0)
  (0.00832428 0.0856845 0)
  (0.0651333 0.0453235 0)
  (0.0157757 -0.0297982 0)
  (0.032977 -0.0468117 0)
  (0.0511695 -0.0435427 0)
  (0.0672261 -0.0330479 0)
  (0.0762335 -0.0140122 0)
  (0.0783924 -0.0026605 0)
  (0.0782043 0.00149245 0)
  (0.0782237 0.00293438 0)
  (0.0785687 0.00370439 0)
  (0.0788409 0.00426535 0)
  (0.078859 0.00479872 0)
  (0.0786275 0.00581179 0)
  (0.0775632 0.00835349 0)
  (0.0729646 0.0152618 0)
  (0.061654 0.0218574 0)
  (0.0526979 0.0280917 0)
  (-0.0451935 0.0554441 0)
  (0.364298 0.296145 0)
  (-0.187298 0.13908 0)
  (-0.148597 0.116023 0)
  (-0.194076 0.0863938 0)
  (-0.224349 0.0529218 0)
  (-0.24226 0.0135072 0)
  (-0.243222 -0.0329105 0)
  (-0.224172 -0.0859373 0)
  (-0.186666 -0.138148 0)
  (-0.136381 -0.175279 0)
  (-0.0829477 -0.184453 0)
  (-0.0350183 -0.158021 0)
  (0.00917485 -0.0909101 0)
  (0.0422091 -0.0273096 0)
  (0.0691977 0.0202399 0)
  (0.0781109 0.029336 0)
  (0.0697046 0.0430977 0)
  (-0.00782774 0.0850596 0)
  (0.127523 -0.0126829 0)
  (0.0736502 -0.0430258 0)
  (0.0678316 -0.0545682 0)
  (0.0741059 -0.0535782 0)
  (0.0815689 -0.0480851 0)
  (0.0860734 -0.0344324 0)
  (0.0753878 -0.0217527 0)
  (0.0668695 -0.0150482 0)
  (0.0639004 -0.0113451 0)
  (0.0633906 -0.00894054 0)
  (0.0634244 -0.00725469 0)
  (0.0638938 -0.00582579 0)
  (0.0653945 -0.00411071 0)
  (0.0693702 0.000381762 0)
  (0.0687152 0.0206508 0)
  (0.0559239 0.0351136 0)
  (0.0566685 0.047375 0)
  (-0.0826073 0.0862342 0)
  (0.517278 0.378406 0)
  (-0.218484 0.18571 0)
  (-0.101151 0.15875 0)
  (-0.147937 0.119618 0)
  (-0.17532 0.0768235 0)
  (-0.194647 0.024863 0)
  (-0.199326 -0.0383542 0)
  (-0.183341 -0.110685 0)
  (-0.151748 -0.17981 0)
  (-0.111127 -0.225134 0)
  (-0.0698609 -0.232843 0)
  (-0.0337924 -0.199225 0)
  (-0.00233211 -0.127141 0)
  (0.0247809 -0.0531603 0)
  (0.0460014 -0.000723717 0)
  (0.0596546 0.0286402 0)
  (0.073269 0.052587 0)
  (0.0651981 0.0868148 0)
  (0.108693 0.0918672 0)
  (0.101234 0.00375231 0)
  (0.0873008 -0.0375731 0)
  (0.0821098 -0.0508908 0)
  (0.0780065 -0.0517023 0)
  (0.0711133 -0.0454618 0)
  (0.0717899 -0.027353 0)
  (0.0860182 -0.0177828 0)
  (0.0973976 -0.0126959 0)
  (0.104073 -0.00958469 0)
  (0.108005 -0.00707345 0)
  (0.109714 -0.00449091 0)
  (0.107621 -0.00127682 0)
  (0.100268 0.00305176 0)
  (0.085286 0.00930616 0)
  (0.068008 0.0311887 0)
  (0.0539203 0.0504771 0)
  (0.0665453 0.0687274 0)
  (-0.102693 0.116089 0)
  (0.661003 0.441995 0)
  (-0.262369 0.222294 0)
  (-0.0461621 0.189383 0)
  (-0.093435 0.145298 0)
  (-0.113559 0.0978994 0)
  (-0.131927 0.0371921 0)
  (-0.138965 -0.0400097 0)
  (-0.122691 -0.129952 0)
  (-0.0974293 -0.212626 0)
  (-0.068733 -0.262367 0)
  (-0.0421843 -0.267351 0)
  (-0.0201384 -0.227934 0)
  (-0.00175004 -0.15191 0)
  (0.0159531 -0.0727211 0)
  (0.0309646 -0.0160571 0)
  (0.0448197 0.020707 0)
  (0.0605747 0.0446429 0)
  (0.0749716 0.0530347 0)
  (0.0938142 0.0125658 0)
  (0.0947083 -0.0255988 0)
  (0.0879954 -0.0416886 0)
  (0.0784489 -0.0464693 0)
  (0.0688571 -0.0446958 0)
  (0.0606099 -0.0368845 0)
  (0.0589736 -0.0209831 0)
  (0.0639929 -0.0117709 0)
  (0.069671 -0.00799302 0)
  (0.0743719 -0.00588469 0)
  (0.0783783 -0.00328184 0)
  (0.0814438 0.000940362 0)
  (0.0825855 0.00697733 0)
  (0.0806006 0.0150019 0)
  (0.0753315 0.0257396 0)
  (0.0684594 0.0429052 0)
  (0.0605106 0.0615968 0)
  (0.0871538 0.0827546 0)
  (0.024107 0.114559 0)
  (0.0987527 0.142483 0)
  (0.126246 0.154661 0)
  (-0.175793 0.191156 0)
  (0.781696 0.492946 0)
  (-0.314968 0.244482 0)
  (0.0101895 0.197762 0)
  (-0.0313556 0.161516 0)
  (-0.0415092 0.115714 0)
  (-0.0573771 0.0516377 0)
  (-0.0628909 -0.0370618 0)
  (-0.0411975 -0.146048 0)
  (-0.0240943 -0.236595 0)
  (-0.0102191 -0.285621 0)
  (-0.00122372 -0.286003 0)
  (0.00390808 -0.241551 0)
  (0.00665114 -0.164132 0)
  (0.01165 -0.0830203 0)
  (0.0176801 -0.0254553 0)
  (0.0260809 0.00898904 0)
  (0.0384256 0.0276649 0)
  (0.0544912 0.0282013 0)
  (0.0675228 0.00473821 0)
  (0.0691968 -0.0159147 0)
  (0.0627641 -0.0290313 0)
  (0.0527978 -0.0348426 0)
  (0.0429179 -0.0348015 0)
  (0.0350916 -0.0299881 0)
  (0.0319374 -0.0215413 0)
  (0.0337133 -0.0161838 0)
  (0.0377154 -0.0138874 0)
  (0.0424364 -0.0122126 0)
  (0.0474807 -0.00939272 0)
  (0.0525117 -0.00421002 0)
  (0.0575811 0.00406736 0)
  (0.0606739 0.0148717 0)
  (0.0624045 0.0279137 0)
  (0.0645263 0.0438129 0)
  (0.0662832 0.0607025 0)
  (0.0881605 0.0797779 0)
  (0.080517 0.0842561 0)
  (0.0977168 0.0338116 0)
  (0.126698 -0.0170302 0)
  (-0.215942 0.0953695 0)
  (0.852974 0.536989 0)
  (-0.353907 0.22279 0)
  (0.0607346 0.149939 0)
  (0.0447923 0.162295 0)
  (0.0371713 0.131119 0)
  (0.0235189 0.064514 0)
  (0.0322654 -0.0445261 0)
  (0.0568346 -0.163494 0)
  (0.0636693 -0.248647 0)
  (0.0606232 -0.289792 0)
  (0.0498888 -0.284128 0)
  (0.0348932 -0.238077 0)
  (0.0181306 -0.16105 0)
  (0.00689091 -0.0797005 0)
  (0.0017199 -0.0251935 0)
  (0.0032289 0.00240767 0)
  (0.0119048 0.0147702 0)
  (0.0240305 0.0141921 0)
  (0.0317524 0.00159046 0)
  (0.0318896 -0.0117089 0)
  (0.0262243 -0.0213417 0)
  (0.0176161 -0.0260148 0)
  (0.00893763 -0.0266306 0)
  (0.00212865 -0.0244542 0)
  (-0.000987567 -0.0208727 0)
  (-0.000277206 -0.0188214 0)
  (0.00260543 -0.0181048 0)
  (0.00652484 -0.0172878 0)
  (0.0112145 -0.0151241 0)
  (0.0167475 -0.0104744 0)
  (0.0238698 -0.00209683 0)
  (0.032809 0.00981778 0)
  (0.0406956 0.0228908 0)
  (0.0498063 0.0367127 0)
  (0.0595724 0.0501369 0)
  (0.0789103 0.0645724 0)
  (0.0919913 0.0656942 0)
  (0.1075 0.0419528 0)
  (0.162433 0.0480965 0)
  (-0.148415 0.155287 0)
  (0.966265 0.534462 0)
  (-0.0647169 0.196959 0)
  (0.137123 0.0896681 0)
  (0.172252 0.106987 0)
  (0.145812 0.0882827 0)
  (0.12605 0.0143978 0)
  (0.151757 -0.0850597 0)
  (0.169216 -0.177032 0)
  (0.161506 -0.244575 0)
  (0.138388 -0.273842 0)
  (0.104475 -0.260648 0)
  (0.0652188 -0.212502 0)
  (0.0242466 -0.137339 0)
  (-0.00533125 -0.0590745 0)
  (-0.0194183 -0.0167885 0)
  (-0.0224042 -0.000193308 0)
  (-0.0180112 0.00666828 0)
  (-0.0112241 0.00644647 0)
  (-0.00759557 -0.000127977 0)
  (-0.00864839 -0.00817814 0)
  (-0.0137717 -0.0144821 0)
  (-0.0208526 -0.018007 0)
  (-0.0277832 -0.0194639 0)
  (-0.0331524 -0.0198046 0)
  (-0.0361355 -0.0198098 0)
  (-0.0370034 -0.0201863 0)
  (-0.0366615 -0.0207143 0)
  (-0.0356427 -0.0208287 0)
  (-0.0339805 -0.019958 0)
  (-0.0313363 -0.0175421 0)
  (-0.0268039 -0.0129529 0)
  (-0.0175333 -0.00548874 0)
  (-0.00393539 0.00439411 0)
  (0.00956539 0.0139808 0)
  (0.0231865 0.0200266 0)
  (0.0410385 0.024884 0)
  (0.0557867 0.0177069 0)
  (0.0673245 -0.00364938 0)
  (0.153195 0.0615015 0)
  (-0.482299 0.258192 0)
  (1.11198 0.469188 0)
  (0.559475 0.321939 0)
  (0.572417 0.353583 0)
  (0.522326 0.289898 0)
  (0.436157 0.195325 0)
  (0.380927 0.0863954 0)
  (0.34444 -0.0328035 0)
  (0.306351 -0.137243 0)
  (0.261006 -0.204162 0)
  (0.207067 -0.228415 0)
  (0.14427 -0.210787 0)
  (0.0776749 -0.163072 0)
  (0.0101172 -0.0916049 0)
  (-0.0318943 -0.0281063 0)
  (-0.0461863 -0.0070017 0)
  (-0.0507087 0.000595595 0)
  (-0.0495843 0.00334873 0)
  (-0.047086 0.002945 0)
  (-0.0462909 -0.00026987 0)
  (-0.0480135 -0.00471091 0)
  (-0.0523296 -0.0088562 0)
  (-0.0578867 -0.0120935 0)
  (-0.0634946 -0.0145509 0)
  (-0.0684702 -0.0164428 0)
  (-0.0726437 -0.017924 0)
  (-0.0763323 -0.0191218 0)
  (-0.0800151 -0.0198879 0)
  (-0.0840447 -0.0198873 0)
  (-0.0886994 -0.0186529 0)
  (-0.0943342 -0.0155978 0)
  (-0.101504 -0.0100093 0)
  (-0.110976 -0.0011204 0)
  (-0.121822 0.0112133 0)
  (-0.135407 0.0269325 0)
  (-0.158844 0.0469804 0)
  (-0.195294 0.071727 0)
  (-0.247062 0.0985891 0)
  (-0.305857 0.12438 0)
  (-0.380442 0.145099 0)
  (-0.686323 0.158396 0)
  (0.79209 0.154784 0)
  (0.638937 0.265792 0)
  (0.530286 0.233102 0)
  (0.463088 0.142328 0)
  (0.41868 0.0371603 0)
  (0.355566 -0.0632135 0)
  (0.286644 -0.128589 0)
  (0.210476 -0.1534 0)
  (0.126259 -0.135054 0)
  (0.0421623 -0.0914404 0)
  (-0.0446106 -0.0276706 0)
  (-0.0687405 -0.0069723 0)
  (-0.0776522 -0.00284444 0)
  (-0.0801313 -0.0020477 0)
  (-0.0800284 -0.00213893 0)
  (-0.0794183 -0.00313112 0)
  (-0.079784 -0.00530195 0)
  (-0.0815706 -0.00799422 0)
  (-0.0849963 -0.0104801 0)
  (-0.0892856 -0.0126622 0)
  (-0.0940207 -0.0144516 0)
  (-0.0990918 -0.0158171 0)
  (-0.104575 -0.0167475 0)
  (-0.110619 -0.0172036 0)
  (-0.117335 -0.0170029 0)
  (-0.124712 -0.0158039 0)
  (-0.132587 -0.0131167 0)
  (-0.140594 -0.00835824 0)
  (-0.148067 -0.000951596 0)
  (-0.15395 0.00941767 0)
  (-0.158208 0.0231012 0)
  (-0.161889 0.0409335 0)
  (-0.166366 0.0626997 0)
  (-0.172672 0.0855341 0)
  (-0.177809 0.0996076 0)
  (-0.170075 0.0821774 0)
  (-0.154846 -0.0107783 0)
  (-0.286151 -0.222802 0)
  (0.420828 0.630909 0)
  (-0.00992174 0.409225 0)
  (0.0926174 0.28329 0)
  (0.140796 0.15926 0)
  (0.144932 0.0505397 0)
  (0.1377 -0.0487587 0)
  (0.116788 -0.087062 0)
  (0.0648901 -0.0875376 0)
  (-0.0210271 -0.0323206 0)
  (-0.0806958 0.0168061 0)
  (-0.103577 0.029905 0)
  (-0.107064 0.0293726 0)
  (-0.107326 0.0282603 0)
  (-0.106674 0.0287107 0)
  (-0.105646 0.0301854 0)
  (-0.104603 0.0319118 0)
  (-0.10404 0.0331051 0)
  (-0.104275 0.0330471 0)
  (-0.105394 0.0311586 0)
  (-0.107469 0.0285572 0)
  (-0.110454 0.0258156 0)
  (-0.114238 0.0232858 0)
  (-0.118662 0.0211231 0)
  (-0.123554 0.0193571 0)
  (-0.128709 0.0180043 0)
  (-0.133858 0.0171109 0)
  (-0.138651 0.016763 0)
  (-0.142623 0.0170823 0)
  (-0.144996 0.0181863 0)
  (-0.144635 0.0218549 0)
  (-0.139894 0.0295652 0)
  (-0.129164 0.0424314 0)
  (-0.11187 0.0611552 0)
  (-0.0891224 0.0840541 0)
  (-0.0625558 0.103025 0)
  (-0.0349264 0.101771 0)
  (0.138198 0.0189758 0)
  (-0.212798 -0.134968 0)
  (-1.07289 -0.948837 0)
  (-1.16876 -0.197524 0)
  (-0.778606 0.455994 0)
  (-0.641017 0.264857 0)
  (-0.291408 0.163568 0)
  (-0.10828 0.0646463 0)
  (-0.00428865 -0.0850527 0)
  (0.0153607 -0.173733 0)
  (-0.0473535 -0.115419 0)
  (-0.104974 -0.0810154 0)
  (-0.131399 -0.0686978 0)
  (-0.135087 -0.0651345 0)
  (-0.129524 -0.0641356 0)
  (-0.124007 -0.0684738 0)
  (-0.120227 -0.0731399 0)
  (-0.117506 -0.0773863 0)
  (-0.11517 -0.0817074 0)
  (-0.113042 -0.086362 0)
  (-0.111305 -0.0909109 0)
  (-0.110302 -0.094223 0)
  (-0.110406 -0.0952095 0)
  (-0.111797 -0.094477 0)
  (-0.11433 -0.0924763 0)
  (-0.117746 -0.0895667 0)
  (-0.121746 -0.0860118 0)
  (-0.126027 -0.0819432 0)
  (-0.130265 -0.0773673 0)
  (-0.134059 -0.0721737 0)
  (-0.136883 -0.0661216 0)
  (-0.138058 -0.0588025 0)
  (-0.136694 -0.0496043 0)
  (-0.131099 -0.03924 0)
  (-0.118436 -0.027304 0)
  (-0.095424 -0.0129042 0)
  (-0.0606623 0.00524652 0)
  (-0.0145016 0.0285394 0)
  (0.05012 0.0450248 0)
  (0.101567 0.0279012 0)
  (0.172432 -0.017214 0)
  (-0.180096 -0.092378 0)
)
;

boundaryField
{
  floor
  {
    type noSlip;
  }
  ceiling
  {
    type noSlip;
  }
  sWall
  {
    type noSlip;
  }
  nWall
  {
    type noSlip;
  }
  sideWalls
  {
    type empty;
  }
  glass1
  {
    type noSlip;
  }
  glass2
  {
    type noSlip;
  }
  sun
  {
    type noSlip;
  }
  Table_master
  {
    type noSlip;
  }
  Table_slave
  {
    type noSlip;
  }
  inlet
  {
    type fixedValue;
    value uniform (0.212132 -0.212132 0);
  }
  outlet
  {
    type zeroGradient;
  }
} 	// ************************************************************************* //

