/*--------------------------------*- C++ -*----------------------------------*\
  =========                 |
  \\      /  F ield         | OpenFOAM: The Open Source CFD Toolbox
   \\    /   O peration     | Website:  https://openfoam.org
    \\  /    A nd           | Version:  6
     \\/     M anipulation  |
\*---------------------------------------------------------------------------*/
FoamFile
{
    version     2.0;
    format      ascii;
    class       volScalarField;
    location    "2200";
    object      T;
}
// * * * * * * * * * * * * * * * * * * * * * * * * * * * * * * * * * * * * * //

dimensions      [0 0 0 1 0 0 0];

internalField   nonuniform List<scalar> 
458
(
303.462
303.206
303.192
303.187
303.182
303.178
303.172
303.165
303.155
303.145
303.138
303.136
303.139
303.154
303.187
303.392
303.363
303.349
303.356
303.366
303.375
303.384
303.394
303.404
303.413
303.423
303.433
303.443
303.454
303.465
303.477
303.493
303.523
303.629
303.245
303.219
303.218
303.218
303.215
303.209
303.194
303.172
303.149
303.131
303.122
303.123
303.133
303.148
303.157
303.169
303.193
303.398
303.33
303.323
303.333
303.347
303.356
303.364
303.372
303.381
303.389
303.398
303.406
303.416
303.426
303.438
303.453
303.473
303.513
303.805
303.296
303.254
303.26
303.27
303.274
303.269
303.244
303.204
303.162
303.13
303.113
303.113
303.123
303.136
303.147
303.158
303.18
303.321
303.297
303.304
303.326
303.351
303.356
303.363
303.371
303.379
303.387
303.396
303.406
303.416
303.426
303.438
303.452
303.471
303.511
303.984
303.36
303.295
303.309
303.334
303.353
303.349
303.307
303.241
303.176
303.127
303.103
303.104
303.117
303.134
303.148
303.16
303.174
303.185
303.212
303.251
303.296
303.342
303.382
303.414
303.439
303.46
303.478
303.494
303.508
303.521
303.533
303.542
303.519
303.497
303.489
303.515
304.161
303.442
303.346
303.36
303.402
303.442
303.431
303.361
303.265
303.179
303.119
303.092
303.094
303.115
303.14
303.163
303.178
303.194
303.218
303.254
303.301
303.352
303.403
303.448
303.488
303.518
303.543
303.563
303.579
303.589
303.595
303.596
303.591
303.571
303.541
303.516
303.52
303.61
303.704
303.702
304.322
303.55
303.432
303.433
303.484
303.522
303.478
303.379
303.262
303.161
303.096
303.072
303.084
303.119
303.161
303.197
303.225
303.252
303.287
303.332
303.384
303.437
303.487
303.531
303.567
303.596
303.619
303.637
303.649
303.654
303.653
303.647
303.635
303.613
303.582
303.549
303.537
303.578
303.614
303.655
304.478
303.72
303.61
303.603
303.635
303.594
303.482
303.337
303.199
303.096
303.044
303.042
303.079
303.14
303.205
303.262
303.307
303.347
303.39
303.437
303.488
303.537
303.581
303.619
303.649
303.672
303.689
303.701
303.708
303.709
303.703
303.691
303.674
303.651
303.622
303.59
303.57
303.579
303.596
303.627
304.696
304.135
304.015
303.94
303.792
303.586
303.364
303.171
303.034
302.967
302.966
303.015
303.098
303.199
303.293
303.368
303.423
303.465
303.509
303.554
303.598
303.638
303.672
303.7
303.721
303.736
303.745
303.751
303.752
303.748
303.74
303.727
303.71
303.688
303.665
303.64
303.626
303.631
303.648
303.765
305.011
304.742
304.481
304
303.491
303.093
302.843
302.725
302.719
302.794
302.915
303.051
303.192
303.339
303.442
303.504
303.547
303.585
303.624
303.662
303.696
303.725
303.748
303.765
303.776
303.783
303.785
303.784
303.78
303.774
303.767
303.761
303.757
303.756
303.762
303.777
303.802
303.831
303.854
303.908
294.456
296.445
298.794
300.283
301.277
301.975
302.489
302.874
303.152
303.317
303.432
303.517
303.579
303.624
303.659
303.692
303.723
303.752
303.775
303.792
303.804
303.812
303.815
303.815
303.813
303.81
303.807
303.803
303.8
303.797
303.796
303.799
303.807
303.821
303.842
303.868
303.897
303.934
296.25
299.13
300.793
301.757
302.369
302.777
303.057
303.268
303.422
303.526
303.599
303.652
303.692
303.724
303.751
303.775
303.797
303.814
303.827
303.835
303.839
303.841
303.84
303.839
303.836
303.833
303.83
303.827
303.824
303.822
303.822
303.823
303.827
303.836
303.85
303.87
303.88
303.916
300.574
300.484
300.477
302.239
302.808
303.069
303.251
303.394
303.505
303.592
303.658
303.707
303.742
303.769
303.79
303.806
303.819
303.83
303.838
303.843
303.846
303.846
303.846
303.845
303.844
303.843
303.841
303.84
303.839
303.837
303.836
303.835
303.835
303.835
303.836
303.841
303.85
303.859
303.865
303.913
)
;

boundaryField
{
    floor
    {
        type            wallHeatTransfer;
        Tinf            uniform 305.2;
        alphaWall       uniform 0.24;
        value           nonuniform List<scalar> 
36
(
303.413
303.719
303.657
303.615
303.611
303.622
303.642
303.666
303.69
303.713
303.735
303.757
303.778
303.798
303.818
303.839
303.862
303.887
303.935
303.935
303.887
303.861
303.84
303.867
303.928
303.912
303.413
303.341
303.38
303.441
303.719
303.441
303.725
303.387
303.562
303.368
)
;
    }
    ceiling
    {
        type            wallHeatTransfer;
        Tinf            uniform 303.2;
        alphaWall       uniform 0.24;
        value           nonuniform List<scalar> 
43
(
300.76
300.665
300.651
302.296
302.832
303.078
303.248
303.381
303.483
303.562
303.619
303.66
303.689
303.71
303.726
303.739
303.749
303.757
303.762
303.765
303.765
303.764
303.763
303.76
303.758
303.756
303.754
303.753
303.753
303.753
303.754
303.755
303.758
303.761
303.765
303.773
303.782
303.789
303.791
303.83
304.927
304.68
296.681
)
;
    }
    sWall
    {
        type            wallHeatTransfer;
        Tinf            uniform 315.2;
        alphaWall       uniform 0.36;
        value           uniform 302.081;
    }
    nWall
    {
        type            wallHeatTransfer;
        Tinf            uniform 307.2;
        alphaWall       uniform 0.36;
        value           nonuniform List<scalar> 6(304.391 304.337 304.238 304.412 304.387 304.457);
    }
    sideWalls
    {
        type            empty;
    }
    glass1
    {
        type            wallHeatTransfer;
        Tinf            uniform 315.2;
        alphaWall       uniform 4.3;
        value           nonuniform List<scalar> 9(311.337 310.724 310.342 310.055 309.814 309.596 309.448 309.533 309.769);
    }
    glass2
    {
        type            wallHeatTransfer;
        Tinf            uniform 307.2;
        alphaWall       uniform 4.3;
        value           nonuniform List<scalar> 2(305.936 306.019);
    }
    sun
    {
        type            wallHeatTransfer;
        Tinf            uniform 305.2;
        alphaWall       uniform 0.24;
        value           nonuniform List<scalar> 
14
(
303.636
303.392
303.375
303.364
303.354
303.344
303.333
303.323
303.312
303.303
303.299
303.302
303.315
303.348
)
;
    }
    Table_master
    {
        type            zeroGradient;
    }
    Table_slave
    {
        type            zeroGradient;
    }
    inlet
    {
        type            fixedValue;
        value           uniform 292.15;
    }
    outlet
    {
        type            zeroGradient;
    }
}


// ************************************************************************* //
