/*--------------------------------*- C++ -*----------------------------------*\
  =========                 |
  \\      /  F ield         | OpenFOAM: The Open Source CFD Toolbox
   \\    /   O peration     | Website:  https://openfoam.org
    \\  /    A nd           | Version:  6
     \\/     M anipulation  |
\*---------------------------------------------------------------------------*/
FoamFile
{
    version     2.0;
    format      ascii;
    class       surfaceScalarField;
    location    "200";
    object      phi;
}
// * * * * * * * * * * * * * * * * * * * * * * * * * * * * * * * * * * * * * //

dimensions      [1 0 -1 0 0 0 0];

internalField   nonuniform List<scalar> 
850
(
-0.00241984
0.00248235
-0.00261327
0.000193505
-0.00294513
0.000331947
-0.00332756
0.000382505
-0.00369035
0.000362871
-0.00400164
0.000311377
-0.00423971
0.000238145
-0.00438449
0.000144863
-0.00441503
3.06171e-05
-0.00430668
-0.000108267
-0.00403401
-0.00027259
-0.00357684
-0.000457088
-0.00289616
-0.000680601
-0.00183229
-0.00106379
-0.00183035
-0.000351214
0.000354985
-0.000158266
-0.000192871
0.000110046
-0.000268236
0.000115655
-5.55432e-06
-0.000200689
0.00031631
-0.000463809
0.000263138
-0.00058343
0.000119667
-0.000578887
-4.48914e-06
-0.000494334
-8.44955e-05
-0.000380267
-0.000114009
-0.000228475
-0.00015173
1.65156e-05
-0.000244924
0.000389455
-0.000372865
0.000560205
-0.000170681
0.000594211
-3.39446e-05
0.000653233
-5.89696e-05
0.000652564
7.21459e-07
0.000657173
-0.00179772
0.00444265
-0.00239034
0.000786202
-0.00290744
0.000849137
-0.00335184
0.00082698
-0.00374697
0.000758083
-0.00408454
0.000649029
-0.00435073
0.000504415
-0.00452973
0.00032395
-0.00460529
0.000106255
-0.00456423
-0.000149252
-0.00439559
-0.00044115
-0.00408467
-0.000767927
-0.00362239
-0.0011428
-0.00311241
-0.00157368
-0.003093
-0.00184969
-0.00141606
-0.00167336
0.000308874
-0.00172119
0.000320551
0.000591313
-0.000227486
0.000371959
2.65571e-05
0.000184785
-8.09836e-05
0.000379316
-0.000200009
0.000590657
0.000105015
0.000434243
0.000419614
0.000332881
0.000221095
0.000249942
7.85116e-05
0.000174206
-8.70009e-06
0.00013555
-7.52914e-05
0.000134758
-0.000150872
0.000168169
-0.000278264
0.000261401
-0.000466021
0.000145029
-5.42484e-05
0.000105398
5.72718e-06
0.000282271
-0.000235797
0.000278043
4.99915e-06
0.000945784
-0.00135748
0.0060424
-0.00210804
0.00153685
-0.00268516
0.00142633
-0.00313935
0.00128125
-0.00353677
0.00115559
-0.00387968
0.000992018
-0.00415926
0.000784072
-0.00436324
0.000528011
-0.00447853
0.000221631
-0.00449527
-0.000132433
-0.00440864
-0.000527697
-0.00422382
-0.000952675
-0.00397537
-0.00139116
-0.00375166
-0.00179731
-0.00354958
-0.00205169
-0.00307279
-0.00215006
-0.0025582
-0.0022357
-0.00222871
-0.0010249
0.00080813
-0.00111428
0.000116016
-0.000984355
-0.000210823
-0.000686267
-0.000498011
0.000218207
-0.000799366
0.000638071
0.000859407
0.000938152
0.00092968
0.000854613
0.000703965
0.000425927
-3.98637e-05
-9.38905e-05
0.000300484
-0.000388597
-0.000121348
0.000186074
-0.000616956
0.000500645
0.000344544
-0.0010354
0.00738535
-0.00182565
0.00232718
-0.00234091
0.00194167
-0.00274846
0.00168888
-0.0031076
0.00151482
-0.0034216
0.00130609
-0.00368581
0.00104836
-0.00389122
0.000733504
-0.00402538
0.000355872
-0.00407628
-8.14564e-05
-0.00404389
-0.00056
-0.00395315
-0.00104334
-0.00385228
-0.00149196
-0.00379345
-0.00185606
-0.00376261
-0.00208245
-0.00373221
-0.00218038
-0.003825
-0.00214283
-0.00439276
-0.00166088
-0.00357154
-0.000810935
-0.00257602
-0.00018731
-0.00227413
-0.000185797
-0.00209751
-0.000387366
-0.00202384
-0.000571593
-0.00221005
-0.000613079
-0.00177574
-0.000434379
-0.0013913
-0.000384507
-0.000996693
-0.000394682
-0.000563767
-0.000432998
-7.25316e-05
-0.000491306
0.000463915
-0.000536517
0.00101641
-0.00055257
0.00154865
-0.000532307
0.00199025
-0.000441671
0.00183579
-0.000234058
0.00169202
0.000329909
0.00130714
0.000885602
0.00166642
-0.000779552
0.00852769
-0.00155721
0.00310492
-0.00191215
0.0022967
-0.00222982
0.00200662
-0.0025105
0.00179558
-0.00275178
0.00154745
-0.00295456
0.00125123
-0.00311551
0.000894536
-0.00322484
0.000465275
-0.00326667
-3.95432e-05
-0.00324003
-0.000586555
-0.00318205
-0.00110124
-0.00313736
-0.00153657
-0.00313367
-0.00185967
-0.00316385
-0.00205219
-0.00322857
-0.00211558
-0.00336262
-0.00200871
-0.00341036
-0.00161306
-0.00314546
-0.00107576
-0.00265239
-0.000680302
-0.00226865
-0.000569454
-0.0020376
-0.000618342
-0.00191836
-0.000690755
-0.00183115
-0.00070021
-0.00160881
-0.000656642
-0.00134186
-0.000651376
-0.00105005
-0.000686408
-0.000731676
-0.000751297
-0.00038559
-0.000837313
2.88015e-06
-0.000924909
0.000429964
-0.000979576
0.000868799
-0.000971064
0.00129126
-0.000864056
0.00163628
-0.000579005
0.00197694
-1.06735e-05
0.00224183
0.000620792
0.00309489
0.000813441
0.00277254
0.000336039
0.00208536
0.000701427
0.00214635
-0.000693411
0.00963202
-0.00140243
0.00381402
-0.00143071
0.00232506
-0.00161352
0.00218951
-0.00179481
0.00197695
-0.00192828
0.001681
-0.00202269
0.00134572
-0.00208686
0.00095879
-0.00212067
0.00049916
-0.00210804
-5.20848e-05
-0.00205234
-0.000642185
-0.00200057
-0.00115293
-0.00198734
-0.00154972
-0.0020245
-0.00182243
-0.00210519
-0.00197142
-0.00222254
-0.00199816
-0.00235223
-0.00187894
-0.00237515
-0.00159005
-0.00223032
-0.00122051
-0.00198036
-0.000930181
-0.00175929
-0.000790449
-0.00161876
-0.000758797
-0.00154272
-0.000766714
-0.0014748
-0.000768059
-0.00136647
-0.000764899
-0.00122874
-0.000789028
-0.00107283
-0.000842246
-0.000904186
-0.000919864
-0.000724714
-0.00101671
-0.000529661
-0.00111989
-0.000303853
-0.00120531
-3.12366e-05
-0.00124361
0.000292487
-0.00118771
0.000698365
-0.000984811
0.001293
-0.000605232
0.00199944
-8.55873e-05
0.0025447
0.000268258
0.00244266
0.00043815
0.00166858
0.00147558
0.00386349
-0.000961427
0.0110472
-0.00118916
0.00404183
-0.00071023
0.00184621
-0.000775758
0.00225511
-0.000910709
0.00211198
-0.000945973
0.00171635
-0.000906376
0.0013062
-0.000825886
0.000878378
-0.000716568
0.000389921
-0.000597569
-0.000171006
-0.000502552
-0.000737125
-0.00046665
-0.00118876
-0.000501042
-0.00151525
-0.000599365
-0.00172403
-0.000746332
-0.00182438
-0.000921915
-0.0018225
-0.00108641
-0.00171438
-0.00117395
-0.00150242
-0.00115709
-0.0012373
-0.00108129
-0.00100591
-0.001012
-0.00085966
-0.000983437
-0.000787284
-0.000991345
-0.000758731
-0.00100993
-0.000749397
-0.00101986
-0.000754904
-0.00102473
-0.000784085
-0.00103331
-0.000833594
-0.00105407
-0.000899028
-0.00108972
-0.000980989
-0.00113328
-0.00107626
-0.00116686
-0.00117165
-0.0011693
-0.0012411
-0.00111162
-0.00124532
-0.00095165
-0.00114471
-0.000633398
-0.000923417
-6.08719e-05
-0.000658049
0.000707147
-0.000499706
0.00142732
-0.000281957
0.0014314
0.00147156
0.00534741
0.00172101
0.00983114
0.00207761
0.0036853
0.00163142
0.00229248
0.00115486
0.00273175
0.000799039
0.00246788
0.000675496
0.00183997
0.000746013
0.00123576
0.000911505
0.000712964
0.00113638
0.000165127
0.00134139
-0.000375947
0.00141501
-0.000810662
0.00137259
-0.00114626
0.00124202
-0.00138461
0.00104782
-0.00152976
0.000811178
-0.00158766
0.000554165
-0.00156541
0.000309799
-0.00146994
0.000119851
-0.0013124
4.1065e-06
-0.00112148
-6.14358e-05
-0.000940292
-0.000118356
-0.000802665
-0.000193361
-0.000712204
-0.000290761
-0.000661258
-0.000402475
-0.000637611
-0.000524023
-0.000633286
-0.000663064
-0.000644975
-0.000833803
-0.000662788
-0.00105289
-0.000679874
-0.00133112
-0.000702688
-0.00166843
-0.000738881
-0.00205013
-0.000789886
-0.00245107
-0.000840087
-0.00283752
-0.000858811
-0.00316638
-0.000815785
-0.00339953
-0.000690212
-0.00357217
-0.000485345
-0.00383563
-0.000236187
-0.00416708
4.95562e-05
-0.00338739
0.000691946
0.00224492
0.0103846
0.0140626
0.0106376
0.00571763
0.00848875
0.00488063
0.00686238
0.00409432
0.00574028
0.00296214
0.00504627
0.00192985
0.00464699
0.00111231
0.00435056
0.000461637
0.00405126
-7.65723e-05
0.00375107
-0.000510394
0.0034374
-0.000832523
0.00310361
-0.00105075
0.00275202
-0.00117809
0.00239145
-0.00122701
0.00203529
-0.00120918
0.00170185
-0.00113643
0.00141231
-0.0010228
0.00117872
-0.000887812
0.000993243
-0.000754745
0.000832719
-0.000642069
0.000676923
-0.000556335
0.000513099
-0.000497362
0.000336183
-0.000460623
0.000141647
-0.000438681
-8.12164e-05
-0.000422046
-0.000347861
-0.000396079
-0.000683259
-0.000344412
-0.00111969
-0.000266194
-0.00168363
-0.000174874
-0.00238206
-9.13934e-05
-0.0031988
-2.32863e-05
-0.00410193
4.43735e-05
-0.00504918
0.000131517
-0.00598673
0.00024739
-0.00688674
0.000414709
-0.00779989
0.000677013
-0.00860835
0.000858066
-0.00715894
-0.000757425
-0.00461378
0.00646944
0.00580302
0.00577264
0.00557748
0.00589019
0.00397682
0.00599563
0.00285676
0.00599814
0.00192741
0.00595387
0.00115664
0.00585434
0.000561241
0.00566043
0.000117407
0.00536527
-0.000215174
0.00499409
-0.000461275
0.00457494
-0.000631529
0.00413182
-0.000734905
0.00368554
-0.000780664
0.00325443
-0.000778003
0.00285449
-0.000736427
0.00249848
-0.000666714
0.00219241
-0.000581683
0.00193256
-0.000494825
0.00170717
-0.000416604
0.00150273
-0.000351828
0.00130665
-0.00030121
0.00110935
-0.000263256
0.00090588
-0.000235141
0.000695953
-0.000212052
0.000483402
-0.000183464
0.000275067
-0.000136015
7.67811e-05
-6.78467e-05
-0.000106428
8.39687e-06
-0.000286354
8.85945e-05
-0.000489313
0.000179733
-0.000726248
0.000281366
-0.000988723
0.000394046
-0.00125873
0.000517448
-0.00146751
0.000623547
-0.00132915
0.000538706
-0.000280616
-0.00019042
0.00070805
-0.00174604
-0.00384045
0.000159332
0.00565687
0.00228364
0.00345322
0.00358822
0.0026723
0.00455133
0.0018937
0.00524319
0.00123562
0.00565612
0.000743767
0.00583298
0.00038445
0.00582745
0.000122999
0.00567575
-6.34083e-05
0.00540988
-0.000195345
0.00506419
-0.000285773
0.00467037
-0.00034102
0.00425623
-0.000366471
0.00384551
-0.000367213
0.00345739
-0.000348241
0.00310566
-0.00031492
0.00279731
-0.000273273
0.00253197
-0.000229419
0.00230359
-0.000188154
0.00210369
-0.000151862
0.00192337
-0.000120825
0.00175429
-9.41103e-05
0.00158955
-7.03254e-05
0.00142592
-4.83637e-05
0.00126993
-2.74072e-05
0.00114029
-6.30593e-06
0.0010543
1.81989e-05
0.0010115
5.12642e-05
0.0010055
9.46527e-05
0.00103457
0.000150718
0.00109648
0.000219523
0.0011939
0.000296679
0.00134343
0.00036797
0.00158464
0.000382396
0.00191765
0.000205747
0.00199815
-0.000270862
0.00127017
-0.00101801
-0.00249482
-0.00870982
-0.0107595
-0.00509234
-0.00163521
0.00103843
0.00293215
0.00416718
0.00490998
0.00529323
0.00541488
0.00535
0.00515308
0.00486562
0.00452282
0.00415448
0.0037853
0.00343501
0.00311797
0.00284253
0.0026109
0.00242052
0.00226647
0.00214351
0.00204737
0.00197518
0.00192515
0.00189636
0.00188904
0.0019067
0.00195795
0.00205306
0.00220461
0.0024252
0.00272308
0.00309231
0.00347597
0.00368302
0.00341353
0.00239696
)
;

boundaryField
{
    floor
    {
        type            calculated;
        value           nonuniform List<scalar> 
36
(
0
0
0
0
0
0
0
0
0
0
0
0
0
0
0
0
0
0
0
-4.55475e-06
-1.05133e-05
-1.56648e-05
-1.46633e-05
-1.36155e-05
-1.41625e-05
-1.50896e-05
-1.85675e-06
-3.50031e-06
-3.65855e-06
-4.60855e-06
-3.69403e-06
-6.98942e-06
-8.7705e-06
-8.85873e-06
-1.06368e-05
-1.01994e-05
)
;
    }
    ceiling
    {
        type            calculated;
        value           nonuniform List<scalar> 
43
(
-1.04636e-05
-1.05387e-05
-1.02346e-05
-3.86959e-06
-1.28445e-06
3.63006e-08
6.46055e-07
1.01763e-06
1.25713e-06
1.41255e-06
1.52796e-06
1.63664e-06
1.7405e-06
1.84023e-06
1.93569e-06
2.02582e-06
2.10854e-06
2.18053e-06
2.23723e-06
2.27311e-06
2.28207e-06
2.25818e-06
2.19604e-06
2.09088e-06
1.93764e-06
1.72813e-06
1.4462e-06
1.07096e-06
5.97434e-07
7.77986e-08
-3.99484e-07
-7.69597e-07
-1.01337e-06
-1.1456e-06
-1.19897e-06
-1.21586e-06
-1.24804e-06
-1.31605e-06
-1.37411e-06
-9.72413e-07
1.06442e-05
7.35162e-06
-1.31583e-05
)
;
    }
    sWall
    {
        type            calculated;
        value           uniform -0.00021188;
    }
    nWall
    {
        type            calculated;
        value           nonuniform List<scalar> 6(-4.58185e-05 -4.84824e-05 -5.24415e-05 -6.52227e-05 -7.53949e-05 -9.68395e-05);
    }
    sideWalls
    {
        type            empty;
        value           nonuniform 0();
    }
    glass1
    {
        type            calculated;
        value           nonuniform List<scalar> 9(-6.24337e-05 -0.000162498 -0.000242208 -0.000307475 -0.000362715 -0.000410848 -0.00045365 -0.000504912 -0.000564064);
    }
    glass2
    {
        type            calculated;
        value           nonuniform List<scalar> 2(-0.000284835 -0.000300187);
    }
    sun
    {
        type            calculated;
        value           uniform 0;
    }
    Table_master
    {
        type            calculated;
        value           nonuniform List<scalar> 9(-1.53964e-07 -1.54e-07 -1.54025e-07 -1.54061e-07 -1.54098e-07 -1.54158e-07 -1.54246e-07 -1.54333e-07 -1.54207e-07);
    }
    Table_slave
    {
        type            calculated;
        value           nonuniform List<scalar> 9(1.53039e-07 1.53189e-07 1.5331e-07 1.53432e-07 1.53563e-07 1.5356e-07 1.53393e-07 1.53214e-07 1.53065e-07);
    }
    inlet
    {
        type            calculated;
        value           uniform -0.00655481;
    }
    outlet
    {
        type            calculated;
        value           nonuniform List<scalar> 2(0.0089322 0.00206024);
    }
}


// ************************************************************************* //
