/*--------------------------------*- C++ -*----------------------------------*\
  =========                 |
  \\      /  F ield         | OpenFOAM: The Open Source CFD Toolbox
   \\    /   O peration     | Website:  https://openfoam.org
    \\  /    A nd           | Version:  6
     \\/     M anipulation  |
\*---------------------------------------------------------------------------*/
FoamFile
{
    version     2.0;
    format      ascii;
    class       volVectorField;
    location    "200";
    object      U;
}
// * * * * * * * * * * * * * * * * * * * * * * * * * * * * * * * * * * * * * //

dimensions      [0 1 -1 0 0 0 0];

internalField   nonuniform List<vector> 
458
(
(0.0973687 0.0666034 0)
(-0.134602 0.00247981 0)
(-0.118651 0.00710021 0)
(-0.135421 0.0079458 0)
(-0.151809 0.00678312 0)
(-0.166547 0.00474559 0)
(-0.178542 0.0021116 0)
(-0.186955 -0.00108635 0)
(-0.19099 -0.00491203 0)
(-0.189712 -0.00951006 0)
(-0.181386 -0.0153012 0)
(-0.163316 -0.0228083 0)
(-0.134231 -0.0335953 0)
(-0.103786 -0.0509712 0)
(-0.105096 -0.0754605 0)
(0.043217 0.00446464 0)
(-0.0189882 -0.00729905 0)
(-0.00511567 -0.00924852 0)
(0.00601534 -0.00148028 0)
(0.00277831 0.0113961 0)
(-0.0177674 0.00450945 0)
(-0.0244697 -0.00329638 0)
(-0.0259159 -0.00597258 0)
(-0.0226292 -0.00670367 0)
(-0.0189014 -0.00765949 0)
(-0.0130935 -0.00948442 0)
(-0.00445377 -0.0126323 0)
(0.0111174 -0.0180784 0)
(0.0186039 -0.0112008 0)
(0.0251855 -0.00581901 0)
(0.0271334 -0.00561269 0)
(0.0357133 -0.00366812 0)
(-0.0235226 0.014265 0)
(0.295663 0.145946 0)
(-0.159668 0.0202675 0)
(-0.111909 0.0254564 0)
(-0.135299 0.0265426 0)
(-0.153512 0.0249416 0)
(-0.169486 0.0218043 0)
(-0.182622 0.0174479 0)
(-0.192359 0.0118736 0)
(-0.198036 0.00495996 0)
(-0.19884 -0.00349588 0)
(-0.193949 -0.0134789 0)
(-0.182483 -0.0250002 0)
(-0.165318 -0.0390827 0)
(-0.147808 -0.057377 0)
(-0.132858 -0.0735391 0)
(-0.0986639 -0.0599167 0)
(-0.0469004 -0.0617043 0)
(-0.0141091 0.0560477 0)
(0.100095 0.00307545 0)
(0.0221989 0.00115539 0)
(0.00205413 -0.00295844 0)
(0.00759041 -0.00166756 0)
(0.0219493 0.0122844 0)
(0.0229427 0.0173161 0)
(0.0175803 0.010529 0)
(0.0139865 0.00296498 0)
(0.00852683 -0.00264972 0)
(0.00624438 -0.00546551 0)
(0.00580324 -0.00799717 0)
(0.00907106 -0.0127235 0)
(0.00941854 -0.0186937 0)
(0.00426234 -0.00700921 0)
(0.0060277 -0.000956116 0)
(0.0132869 -0.00670119 0)
(0.0262722 -0.00137367 0)
(-0.0794188 0.0322669 0)
(0.462867 0.224441 0)
(-0.205168 0.0493314 0)
(-0.0948832 0.0486508 0)
(-0.126048 0.0452131 0)
(-0.144346 0.0408701 0)
(-0.160471 0.034756 0)
(-0.173986 0.026839 0)
(-0.18454 0.0170732 0)
(-0.191596 0.00543457 0)
(-0.194419 -0.0079682 0)
(-0.192361 -0.0230321 0)
(-0.185883 -0.0395906 0)
(-0.176506 -0.0573425 0)
(-0.166995 -0.0751312 0)
(-0.156224 -0.087564 0)
(-0.138604 -0.0888161 0)
(-0.126103 -0.0946039 0)
(-0.147619 -0.0885548 0)
(0.0125003 0.0233817 0)
(-0.0491105 0.00608696 0)
(-0.0457854 -0.00478238 0)
(-0.036422 -0.0166206 0)
(-0.0286911 -0.0233013 0)
(0.0325524 0.0117675 0)
(0.036008 0.00992042 0)
(0.0388279 0.00642924 0)
(0.0407209 0.00355538 0)
(0.0391625 0.000691685 0)
(0.0345517 -0.00267893 0)
(0.0269817 -0.00768684 0)
(0.00891811 -0.0148624 0)
(-0.0243944 -0.0017159 0)
(0.0247562 -0.00703431 0)
(0.0170633 0.00595526 0)
(-0.0104602 0.0189271 0)
(-0.143061 0.0285324 0)
(0.600278 0.290811 0)
(-0.252989 0.0836861 0)
(-0.0706809 0.0726985 0)
(-0.11031 0.0641838 0)
(-0.12667 0.0577084 0)
(-0.141258 0.0496149 0)
(-0.153809 0.0394512 0)
(-0.164064 0.0269835 0)
(-0.171572 0.0120594 0)
(-0.175639 -0.00521366 0)
(-0.175274 -0.0242478 0)
(-0.172093 -0.0440289 0)
(-0.167744 -0.0631748 0)
(-0.164166 -0.0795936 0)
(-0.161303 -0.0899773 0)
(-0.159323 -0.0929742 0)
(-0.165367 -0.0890754 0)
(-0.182477 -0.0620258 0)
(-0.173183 0.00596023 0)
(-0.122066 0.0141848 0)
(-0.108401 -0.00111451 0)
(-0.0934762 -0.0141134 0)
(-0.0893761 -0.0241529 0)
(-0.0920393 -0.0280211 0)
(-0.0867667 -0.017035 0)
(-0.0685499 -0.0150164 0)
(-0.0513601 -0.0157777 0)
(-0.0335896 -0.0175615 0)
(-0.0151396 -0.0200868 0)
(0.0092773 -0.0224254 0)
(0.0322272 -0.0225582 0)
(0.0549869 -0.0211334 0)
(0.0766327 -0.0184216 0)
(0.0851921 -0.0122213 0)
(0.0811145 0.010636 0)
(0.0711993 0.030543 0)
(-0.0197008 0.050355 0)
(0.711968 0.346067 0)
(-0.295964 0.119411 0)
(-0.0431322 0.0927079 0)
(-0.0897787 0.0801387 0)
(-0.102747 0.0718248 0)
(-0.113897 0.0619688 0)
(-0.123533 0.0499026 0)
(-0.13152 0.0351872 0)
(-0.137588 0.0175124 0)
(-0.141021 -0.00299115 0)
(-0.140314 -0.0250836 0)
(-0.137951 -0.0466395 0)
(-0.135483 -0.0657219 0)
(-0.134326 -0.0806092 0)
(-0.134772 -0.0899056 0)
(-0.137251 -0.0937414 0)
(-0.142932 -0.0916985 0)
(-0.147755 -0.0773115 0)
(-0.142337 -0.0452281 0)
(-0.124882 -0.0220593 0)
(-0.105488 -0.0175199 0)
(-0.0918752 -0.0220808 0)
(-0.0850785 -0.0270593 0)
(-0.0811329 -0.0285386 0)
(-0.0744653 -0.0242308 0)
(-0.0637586 -0.0234339 0)
(-0.0515809 -0.0246101 0)
(-0.0383698 -0.0271918 0)
(-0.024191 -0.0307732 0)
(-0.00882469 -0.0340142 0)
(0.00956234 -0.0355523 0)
(0.0274708 -0.0343079 0)
(0.0456684 -0.0287967 0)
(0.0621877 -0.0163465 0)
(0.0808162 0.010099 0)
(0.100021 0.0364277 0)
(0.0960223 0.0576213 0)
(0.133859 0.0717632 0)
(0.133762 0.0921507 0)
(-0.0662598 0.139947 0)
(0.789626 0.395529 0)
(-0.332748 0.151681 0)
(-0.0193171 0.103437 0)
(-0.0648476 0.09224 0)
(-0.0743229 0.0821118 0)
(-0.0808253 0.0704088 0)
(-0.0856942 0.0568481 0)
(-0.0892892 0.0406714 0)
(-0.091777 0.0211984 0)
(-0.0921382 -0.00181062 0)
(-0.0892369 -0.0264549 0)
(-0.0864174 -0.0487989 0)
(-0.0849086 -0.0668581 0)
(-0.0854958 -0.079707 0)
(-0.0882234 -0.0869286 0)
(-0.0929879 -0.0885544 0)
(-0.0991272 -0.0837043 0)
(-0.10305 -0.0703591 0)
(-0.100333 -0.0512886 0)
(-0.0911193 -0.0363119 0)
(-0.0802154 -0.0304903 0)
(-0.0722215 -0.0305061 0)
(-0.0678714 -0.0321219 0)
(-0.0651268 -0.0326743 0)
(-0.0614134 -0.0317635 0)
(-0.0559816 -0.0323191 0)
(-0.0495352 -0.0343845 0)
(-0.0424591 -0.0376351 0)
(-0.0349666 -0.0417563 0)
(-0.0270215 -0.046044 0)
(-0.0180814 -0.0492989 0)
(-0.00803291 -0.0503322 0)
(0.00435013 -0.0470984 0)
(0.0190934 -0.0366541 0)
(0.0402711 -0.0157011 0)
(0.0741072 0.0123788 0)
(0.0970139 0.0241203 0)
(0.110777 0.014491 0)
(0.119854 0.0417932 0)
(-0.0807796 0.130661 0)
(0.812068 0.44027 0)
(-0.353204 0.155572 0)
(2.03526e-05 0.085072 0)
(-0.0262818 0.101455 0)
(-0.0377337 0.0908257 0)
(-0.0413163 0.0741646 0)
(-0.0407391 0.0582275 0)
(-0.0383551 0.0409904 0)
(-0.0352468 0.0205376 0)
(-0.0283775 -0.00436674 0)
(-0.0220701 -0.0303764 0)
(-0.0191328 -0.0515262 0)
(-0.0193738 -0.0671357 0)
(-0.0225678 -0.0774126 0)
(-0.0282221 -0.0826648 0)
(-0.0356593 -0.0831424 0)
(-0.0436395 -0.0783859 0)
(-0.0496162 -0.0679071 0)
(-0.0512007 -0.054453 0)
(-0.0487467 -0.0430125 0)
(-0.0450451 -0.0365382 0)
(-0.0427175 -0.0340937 0)
(-0.0423751 -0.0336442 0)
(-0.0431097 -0.0336487 0)
(-0.0437285 -0.0339093 0)
(-0.0439071 -0.0352679 0)
(-0.0440582 -0.0377314 0)
(-0.044572 -0.0411197 0)
(-0.0457534 -0.0453109 0)
(-0.0475485 -0.049919 0)
(-0.0494538 -0.0541427 0)
(-0.0507459 -0.0568316 0)
(-0.0503167 -0.0563738 0)
(-0.0464785 -0.0512074 0)
(-0.0363849 -0.0411462 0)
(-0.0179831 -0.0299152 0)
(0.0137075 -0.0268028 0)
(0.0479142 -0.0313127 0)
(0.0985671 0.0296105 0)
(-0.0965077 0.184093 0)
(0.912791 0.464628 0)
(-0.159057 0.135195 0)
(0.0616225 0.0327476 0)
(0.0789597 0.0593665 0)
(0.0440992 0.0676714 0)
(0.0274461 0.0534832 0)
(0.0280987 0.0375062 0)
(0.0342075 0.0219292 0)
(0.0410418 0.00218648 0)
(0.0556037 -0.0192215 0)
(0.0618867 -0.0378167 0)
(0.0619312 -0.052951 0)
(0.0577078 -0.0641593 0)
(0.0503492 -0.0713201 0)
(0.0407378 -0.0745404 0)
(0.029734 -0.0740385 0)
(0.0184239 -0.0698733 0)
(0.00849063 -0.0621013 0)
(0.00165781 -0.0521825 0)
(-0.00199276 -0.0428958 0)
(-0.0041157 -0.0364761 0)
(-0.00668229 -0.0327756 0)
(-0.0103528 -0.031028 0)
(-0.014883 -0.0303935 0)
(-0.0198087 -0.0305448 0)
(-0.025186 -0.0315424 0)
(-0.0316628 -0.0331461 0)
(-0.039836 -0.0351942 0)
(-0.0504116 -0.0378349 0)
(-0.0636867 -0.0410798 0)
(-0.079412 -0.0445396 0)
(-0.0967694 -0.0471666 0)
(-0.11437 -0.0472097 0)
(-0.130599 -0.0426105 0)
(-0.143952 -0.0315336 0)
(-0.152921 -0.0129136 0)
(-0.153432 0.0151546 0)
(-0.146354 0.0603774 0)
(-0.174475 0.130252 0)
(-0.485514 0.237573 0)
(1.04424 0.437979 0)
(0.503618 0.297195 0)
(0.486489 0.260191 0)
(0.42308 0.208391 0)
(0.333471 0.16403 0)
(0.266047 0.118245 0)
(0.226998 0.0769857 0)
(0.205599 0.0436716 0)
(0.194248 0.0160289 0)
(0.181618 -0.00838951 0)
(0.168817 -0.0283222 0)
(0.155608 -0.0432326 0)
(0.141605 -0.0533569 0)
(0.126697 -0.0592563 0)
(0.111139 -0.0614907 0)
(0.0954367 -0.0605621 0)
(0.0802648 -0.0569473 0)
(0.066499 -0.0512253 0)
(0.0550174 -0.0443416 0)
(0.0460641 -0.0375694 0)
(0.0389027 -0.0319325 0)
(0.0323625 -0.0278219 0)
(0.0256338 -0.025186 0)
(0.0183585 -0.0237129 0)
(0.0104873 -0.0230496 0)
(0.00175572 -0.0228911 0)
(-0.00861678 -0.0226066 0)
(-0.0210711 -0.0216664 0)
(-0.0372946 -0.020431 0)
(-0.058638 -0.0196309 0)
(-0.0858864 -0.0197246 0)
(-0.118929 -0.0203642 0)
(-0.156373 -0.0205109 0)
(-0.196942 -0.0196382 0)
(-0.239101 -0.0180983 0)
(-0.280071 -0.0172919 0)
(-0.313553 -0.0203021 0)
(-0.33461 -0.0325921 0)
(-0.370358 -0.0566635 0)
(-0.590299 -0.0907482 0)
(0.089651 0.177748 0)
(0.229416 0.211392 0)
(0.261846 0.180095 0)
(0.256606 0.134977 0)
(0.255568 0.0924939 0)
(0.256576 0.0570971 0)
(0.255298 0.0288815 0)
(0.250127 0.00672817 0)
(0.239026 -0.0109943 0)
(0.224232 -0.0244786 0)
(0.20692 -0.0339741 0)
(0.188064 -0.0398611 0)
(0.168613 -0.0425904 0)
(0.149435 -0.042643 0)
(0.131282 -0.0405316 0)
(0.114785 -0.0368434 0)
(0.100394 -0.0322872 0)
(0.0882155 -0.0276163 0)
(0.077905 -0.0234219 0)
(0.0688369 -0.0199885 0)
(0.0603828 -0.0173841 0)
(0.0520381 -0.0155322 0)
(0.0434733 -0.0142339 0)
(0.0345717 -0.0131742 0)
(0.0254645 -0.0117916 0)
(0.0164767 -0.00928291 0)
(0.00778426 -0.00534108 0)
(-0.000664028 -0.00035501 0)
(-0.00815836 0.00485413 0)
(-0.0159258 0.00980861 0)
(-0.0254715 0.0145935 0)
(-0.0364243 0.0199371 0)
(-0.0481813 0.0265356 0)
(-0.0599261 0.0348914 0)
(-0.0678402 0.0428556 0)
(-0.0569754 0.0367772 0)
(0.0928628 -0.0535097 0)
(-0.208472 -0.218349 0)
(0.0237717 0.279382 0)
(0.0811342 0.217005 0)
(0.126782 0.15948 0)
(0.17148 0.1129 0)
(0.209477 0.0741695 0)
(0.235669 0.0436164 0)
(0.249542 0.0204393 0)
(0.253432 0.00332833 0)
(0.249722 -0.00889883 0)
(0.24026 -0.0173524 0)
(0.226697 -0.0229361 0)
(0.210405 -0.0262235 0)
(0.192647 -0.0276412 0)
(0.174552 -0.0275495 0)
(0.157069 -0.0262878 0)
(0.140925 -0.0242172 0)
(0.126588 -0.0217389 0)
(0.114214 -0.0192447 0)
(0.103649 -0.0170147 0)
(0.0945416 -0.0151526 0)
(0.0864801 -0.0136278 0)
(0.0790784 -0.0123313 0)
(0.0719971 -0.0111071 0)
(0.064962 -0.00974187 0)
(0.0579626 -0.00793134 0)
(0.0515839 -0.00540452 0)
(0.0468695 -0.00215174 0)
(0.0443442 0.00151524 0)
(0.0432894 0.00544114 0)
(0.0439068 0.00970381 0)
(0.0459088 0.0142231 0)
(0.0493381 0.0188649 0)
(0.0543675 0.0233052 0)
(0.0609014 0.0260583 0)
(0.0693312 0.0210887 0)
(0.0857371 -0.00493521 0)
(0.130087 -0.0557306 0)
(-0.186081 -0.133102 0)
(-0.220186 -0.377982 0)
(-0.454548 -0.0822077 0)
(-0.296796 0.214057 0)
(-0.170019 0.146638 0)
(-0.0230616 0.105122 0)
(0.0842685 0.0723267 0)
(0.151026 0.0499444 0)
(0.196563 0.0338454 0)
(0.222614 0.0227508 0)
(0.233576 0.0153897 0)
(0.234195 0.010555 0)
(0.227956 0.00719605 0)
(0.217028 0.00495096 0)
(0.203037 0.00366636 0)
(0.187342 0.00326017 0)
(0.171114 0.00366183 0)
(0.155327 0.00478454 0)
(0.140733 0.00650183 0)
(0.127834 0.00863116 0)
(0.116864 0.0109429 0)
(0.107803 0.0131981 0)
(0.100458 0.0151863 0)
(0.0945756 0.0167329 0)
(0.0899309 0.017688 0)
(0.086367 0.0178967 0)
(0.0837913 0.0171508 0)
(0.0821371 0.0151965 0)
(0.0813926 0.0119411 0)
(0.0815789 0.00768257 0)
(0.0829961 0.00330038 0)
(0.0860717 -0.000122155 0)
(0.0913276 -0.00175846 0)
(0.0992951 -0.00141143 0)
(0.11038 0.000524432 0)
(0.124458 0.00319025 0)
(0.139972 0.00470647 0)
(0.153821 0.00105948 0)
(0.157246 -0.0101566 0)
(0.16893 -0.0318291 0)
(-0.165 -0.075333 0)
)
;

boundaryField
{
    floor
    {
        type            noSlip;
    }
    ceiling
    {
        type            noSlip;
    }
    sWall
    {
        type            noSlip;
    }
    nWall
    {
        type            noSlip;
    }
    sideWalls
    {
        type            empty;
    }
    glass1
    {
        type            noSlip;
    }
    glass2
    {
        type            noSlip;
    }
    sun
    {
        type            noSlip;
    }
    Table_master
    {
        type            noSlip;
    }
    Table_slave
    {
        type            noSlip;
    }
    inlet
    {
        type            fixedValue;
        value           uniform (0.294236 -0.0585271 0);
    }
    outlet
    {
        type            zeroGradient;
    }
}


// ************************************************************************* //
