/*--------------------------------*- C++ -*----------------------------------*\
  =========                 |
  \\      /  F ield         | OpenFOAM: The Open Source CFD Toolbox
   \\    /   O peration     | Website:  https://openfoam.org
    \\  /    A nd           | Version:  6
     \\/     M anipulation  |
\*---------------------------------------------------------------------------*/
FoamFile
{
    version     2.0;
    format      ascii;
    class       volScalarField;
    location    "400";
    object      nut;
}
// * * * * * * * * * * * * * * * * * * * * * * * * * * * * * * * * * * * * * //

dimensions      [0 2 -1 0 0 0 0];

internalField   nonuniform List<scalar> 
458
(
0.000729552
0.000740737
0.00061249
0.000628055
0.000651627
0.000675482
0.000699112
0.000722855
0.000747582
0.000772744
0.000794616
0.000812129
0.000825065
0.000834341
0.000837846
0.000447506
0.000511937
0.000519422
0.000438097
0.000355172
0.00028787
0.000243226
0.000221527
0.00020828
0.000200718
0.000199484
0.000202768
0.000237815
0.000314749
0.000461038
0.000594175
0.000636898
0.000544138
0.00133498
0.0023981
0.00147476
0.00223874
0.0024595
0.00262099
0.00278284
0.00293098
0.00304568
0.00312157
0.00314153
0.00307287
0.00286283
0.00242506
0.00169548
0.000934041
0.000862965
0.000701634
0.000645079
0.00110336
0.00120504
0.00113872
0.00090922
0.000585379
0.000487646
0.000435118
0.000413115
0.000406573
0.00036364
0.000349159
0.000411347
0.000718703
0.00144672
0.00182294
0.00193642
0.000670069
0.00186302
0.00426629
0.00164877
0.00295096
0.00372693
0.00397712
0.00416582
0.00432728
0.00445089
0.00452836
0.00455289
0.00448838
0.00428842
0.00389521
0.00328483
0.0025379
0.00174198
0.000949752
0.000921527
0.0021882
0.00181373
0.00140258
0.000980152
0.000350394
0.000239675
0.000217537
0.00020712
0.000199262
0.000211745
0.000283686
0.000434445
0.000672543
0.00203294
0.0022606
0.00198136
0.000737366
0.00234525
0.00648329
0.0022457
0.00288401
0.00435389
0.00477779
0.00501678
0.00522206
0.00539749
0.00553185
0.00563305
0.00567834
0.00561834
0.00537639
0.00486113
0.00401465
0.00288615
0.00175963
0.00109452
0.00224338
0.0022144
0.00190536
0.00160015
0.00127458
0.000967656
0.000988073
0.00101027
0.00103156
0.00105156
0.00107131
0.00109254
0.00111723
0.00115727
0.00270359
0.0033812
0.00330899
0.00113328
0.00277905
0.00875249
0.00345002
0.00268418
0.00433543
0.00501621
0.00534787
0.00561371
0.00584778
0.00605629
0.00627264
0.00651473
0.00675322
0.00693896
0.0070113
0.00691885
0.00663678
0.00618285
0.00564664
0.00528114
0.00489636
0.00467712
0.00453098
0.00444316
0.00440333
0.00444683
0.00450213
0.00455155
0.00458885
0.00461994
0.0046589
0.00472168
0.00480768
0.00494444
0.00496588
0.00469658
0.00374394
0.00162368
0.00145955
0.00130538
0.00317661
0.0107176
0.0055865
0.00318509
0.00367861
0.00447173
0.00500945
0.00539916
0.00568331
0.00589725
0.00617517
0.00654817
0.00698842
0.00744907
0.00786991
0.0081887
0.00834279
0.00826777
0.00795977
0.00751852
0.00705914
0.00668651
0.00642083
0.00623489
0.00610301
0.00601586
0.00595358
0.00588947
0.00580288
0.0056914
0.00556993
0.00545701
0.00535685
0.00526304
0.00517628
0.00505609
0.0046716
0.00383014
0.00296104
0.00135311
0.00352491
0.0120372
0.00866949
0.00539235
0.0038222
0.00371514
0.00421669
0.00474092
0.00509027
0.00526113
0.0055203
0.00590007
0.00639829
0.0069857
0.00760377
0.00817565
0.00861334
0.00882483
0.00878803
0.00856837
0.00826935
0.00797358
0.00771133
0.00747816
0.00727185
0.00710371
0.00697156
0.00684315
0.00667247
0.00642713
0.006106
0.00573616
0.00535465
0.00498487
0.00461655
0.00418863
0.00359877
0.00288228
0.00220394
0.00130851
0.00356189
0.0112885
0.00972732
0.00831676
0.0063836
0.00507458
0.00459208
0.00460527
0.00475546
0.00480763
0.0049033
0.00509644
0.00541766
0.00588607
0.00648888
0.007164
0.00780927
0.00827046
0.00850686
0.0085592
0.00850633
0.00842046
0.00833322
0.00823971
0.00813125
0.00802195
0.0079361
0.0078717
0.00778869
0.00762783
0.00734063
0.00689779
0.00630112
0.00559989
0.00487074
0.00420234
0.00355635
0.00300707
0.00255383
0.00153692
0.00341797
0.00397548
0.00752077
0.00804374
0.00726678
0.00629308
0.00552375
0.00501711
0.00471766
0.00454392
0.00448048
0.00450239
0.00460498
0.00480771
0.00514188
0.00561975
0.00619525
0.0067549
0.0072005
0.00750204
0.0076915
0.00782522
0.00794804
0.00807843
0.00821331
0.00834058
0.00845148
0.00854573
0.00863366
0.00872604
0.0087613
0.00870879
0.00858448
0.00842265
0.00818983
0.00757184
0.00646652
0.00524901
0.00480366
0.00169597
0.0159638
0.0152615
0.00929455
0.00732862
0.00626488
0.00557534
0.00510557
0.00477303
0.00452817
0.00434559
0.00421865
0.00415171
0.00416137
0.00427322
0.00450661
0.00484712
0.00524015
0.00562164
0.00595549
0.00624281
0.00650671
0.00677396
0.0070632
0.00737715
0.00769963
0.00800564
0.00827799
0.00851018
0.00869444
0.0088141
0.00885769
0.00882768
0.0087187
0.00848562
0.00781451
0.00665255
0.00576935
0.00167313
0.00640119
0.0129311
0.00901475
0.00725281
0.00621879
0.00549281
0.00494971
0.0045257
0.00418248
0.00388533
0.00362959
0.00341727
0.00325188
0.00314006
0.00309175
0.00311688
0.00321836
0.00338683
0.00360309
0.00384699
0.00410588
0.00437811
0.00467164
0.00499791
0.00536143
0.0057484
0.00613058
0.00649695
0.0068236
0.0070862
0.00726197
0.00733247
0.00727594
0.00702965
0.00635956
0.0053487
0.0046118
0.00149272
0.00312745
0.00385908
0.00492958
0.00439944
0.00345884
0.00288972
0.00250642
0.002221
0.00199591
0.00181221
0.0016589
0.00153084
0.00142191
0.00132783
0.00124593
0.0011745
0.0011125
0.00105934
0.00101468
0.00097824
0.000949684
0.000928541
0.00091431
0.000906639
0.000905511
0.000911381
0.000925135
0.000948279
0.000983996
0.00103351
0.00109603
0.00116705
0.00123802
0.00129803
0.00133584
0.00134204
0.00133189
0.00130205
0.00128277
0.00119523
)
;

boundaryField
{
    floor
    {
        type            nutkWallFunction;
        Cmu             0.09;
        kappa           0.41;
        E               9.8;
        value           nonuniform List<scalar> 
36
(
0.000101445
5.29826e-05
6.12656e-05
6.22175e-05
5.17736e-05
4.0871e-05
3.17796e-05
2.55816e-05
2.25154e-05
2.0623e-05
1.95333e-05
1.93536e-05
1.98259e-05
2.48147e-05
3.54406e-05
5.47512e-05
7.16552e-05
7.69849e-05
6.53544e-05
6.53544e-05
8.10727e-05
8.9313e-05
0.00013627
0.000191964
0.000173576
0.000156087
0.000101445
0.000112918
0.000104452
8.49249e-05
5.29826e-05
8.49249e-05
7.79774e-05
0.000114774
0.000111445
0.000131757
)
;
    }
    ceiling
    {
        type            nutkWallFunction;
        Cmu             0.09;
        kappa           0.41;
        E               9.8;
        value           nonuniform List<scalar> 
43
(
0.000353349
0.000428625
0.00053628
0.000483247
0.000387588
0.000328463
0.000287975
0.000257409
0.000233012
0.000212885
0.000195917
0.000181615
0.000169345
0.000158665
0.000149298
0.000141072
0.000133887
0.000127689
0.000122454
0.000118165
0.00011479
0.000112283
0.000110592
0.000109678
0.000109543
0.00011024
0.000111874
0.000114618
0.000118839
0.00012466
0.000131966
0.000140207
0.000148388
0.000155265
0.000159582
0.000160291
0.000159138
0.000155735
0.000153528
0.000143473
0.000383401
0.000440405
0.000680656
)
;
    }
    sWall
    {
        type            nutkWallFunction;
        Cmu             0.09;
        kappa           0.41;
        E               9.8;
        value           uniform 0.000353419;
    }
    nWall
    {
        type            nutkWallFunction;
        Cmu             0.09;
        kappa           0.41;
        E               9.8;
        value           nonuniform List<scalar> 6(0.000156096 0.00016156 0.000156474 0.000197487 0.000177333 0.000143483);
    }
    sideWalls
    {
        type            empty;
    }
    glass1
    {
        type            nutkWallFunction;
        Cmu             0.09;
        kappa           0.41;
        E               9.8;
        value           nonuniform List<scalar> 9(8.83115e-05 0.000159635 0.000218743 0.000271115 0.000317245 0.000358864 0.000394886 0.000398704 0.000383908);
    }
    glass2
    {
        type            nutkWallFunction;
        Cmu             0.09;
        kappa           0.41;
        E               9.8;
        value           nonuniform List<scalar> 2(0.000182357 0.000200106);
    }
    sun
    {
        type            nutkWallFunction;
        Cmu             0.09;
        kappa           0.41;
        E               9.8;
        value           nonuniform List<scalar> 
14
(
8.83381e-05
8.97013e-05
7.39109e-05
7.58482e-05
7.87704e-05
8.17147e-05
8.46187e-05
8.75249e-05
9.05395e-05
9.3595e-05
9.62412e-05
9.83538e-05
9.99106e-05
0.000101025
)
;
    }
    Table_master
    {
        type            nutkWallFunction;
        Cmu             0.09;
        kappa           0.41;
        E               9.8;
        value           nonuniform List<scalar> 9(4.02396e-05 2.51114e-05 2.19842e-05 2.04973e-05 1.93679e-05 2.11397e-05 3.11527e-05 5.12126e-05 8.12864e-05);
    }
    Table_slave
    {
        type            nutkWallFunction;
        Cmu             0.09;
        kappa           0.41;
        E               9.8;
        value           nonuniform List<scalar> 9(0.000116906 0.000119321 0.000121939 0.000124444 0.000126793 0.000129105 0.000131585 0.000134459 0.000139088);
    }
    inlet
    {
        type            calculated;
        value           uniform 0.0159638;
    }
    outlet
    {
        type            calculated;
        value           nonuniform List<scalar> 2(0.00312745 0.00385908);
    }
}


// ************************************************************************* //
