/*--------------------------------*- C++ -*----------------------------------*\
  =========                 |
  \\      /  F ield         | OpenFOAM: The Open Source CFD Toolbox
   \\    /   O peration     | Website:  https://openfoam.org
    \\  /    A nd           | Version:  6
     \\/     M anipulation  |
\*---------------------------------------------------------------------------*/
FoamFile
{
    version     2.0;
    format      ascii;
    class       surfaceScalarField;
    location    "400";
    object      phi;
}
// * * * * * * * * * * * * * * * * * * * * * * * * * * * * * * * * * * * * * //

dimensions      [1 0 -1 0 0 0 0];

internalField   nonuniform List<scalar> 
850
(
-0.00243285
0.00250243
-0.00241531
-1.74135e-05
-0.00243157
1.6398e-05
-0.00254345
0.000112022
-0.00268118
0.000137881
-0.00280672
0.000125693
-0.00289827
9.17228e-05
-0.00293945
4.13545e-05
-0.00291484
-2.44283e-05
-0.00280752
-0.000107133
-0.00260115
-0.000206176
-0.00228228
-0.000318673
-0.00182283
-0.000459246
-0.0011203
-0.000702324
-0.0011168
-0.000527316
0.000533
-0.000371971
-0.000155276
-6.43808e-05
-0.000307518
7.74202e-05
-0.000141741
2.33956e-06
7.51263e-05
-0.000148362
0.000150727
-0.000190728
4.23838e-05
-0.000235815
4.50979e-05
-0.000276346
4.0534e-05
-0.000240667
-3.56956e-05
-9.28538e-05
-0.000147848
6.65417e-05
-0.000159419
0.000170355
-0.000103805
0.000199479
-2.90926e-05
0.000290921
-9.13916e-05
0.00057592
-0.000284928
0.000722633
-0.000146606
0.000727836
-0.00176662
0.00444474
-0.00223621
0.00045232
-0.00246829
0.000248633
-0.00265089
0.000294787
-0.00282127
0.000308428
-0.00296891
0.000273511
-0.00308146
0.000204459
-0.00314768
0.000107776
-0.00315745
-1.44547e-05
-0.00310214
-0.000162239
-0.00297121
-0.000336891
-0.00274938
-0.000540286
-0.00242275
-0.000785668
-0.0020461
-0.00107877
-0.00187363
-0.00128906
-0.000582406
-0.00128501
0.000591612
-0.00116738
0.000610782
0.000944565
-0.00039839
0.00077776
1.16237e-05
0.000379329
9.10052e-05
0.000182361
5.53056e-05
-2.16437e-06
0.000259716
-0.000145272
0.000293855
-0.00015205
4.91767e-05
-0.000144017
3.70766e-05
-0.000130469
2.69867e-05
-9.441e-05
-7.17733e-05
-4.14051e-05
-0.000200872
-9.83745e-07
-0.000199834
-1.98794e-05
-8.48564e-05
-5.23492e-05
3.49939e-06
0.000111202
-0.000254824
0.000312865
-0.000486523
0.000308994
-0.000142646
0.00105014
-0.00130295
0.0060046
-0.00196635
0.00111588
-0.00231705
0.000599493
-0.00255594
0.000533847
-0.00275331
0.000505981
-0.00291827
0.000438659
-0.00304925
0.000335633
-0.00314192
0.000200653
-0.00319168
3.55076e-05
-0.00319602
-0.000157689
-0.00315559
-0.000377097
-0.0030726
-0.000623063
-0.00296263
-0.000895421
-0.00286956
-0.00117163
-0.00278023
-0.00137819
-0.00257494
-0.00149011
-0.00217014
-0.001572
-0.00154407
-0.00102717
0.000645551
-0.00124205
0.000226615
-0.00117773
2.67743e-05
-0.000967653
-0.000154705
-0.000382817
-0.000325045
-8.87406e-05
-3.93792e-05
-2.1247e-06
2.5036e-05
-4.6569e-05
-0.000247245
-0.000446774
-0.000531178
-0.000527173
-0.000247915
-0.000533986
-0.000734395
6.25834e-09
-0.00111811
0.000241174
-4.7352e-05
-0.000960289
0.00728769
-0.00168966
0.00184541
-0.00206917
0.000979171
-0.00233311
0.000797966
-0.00253186
0.00070491
-0.00268628
0.000593265
-0.0028058
0.000455348
-0.00289439
0.000289444
-0.00295387
9.51988e-05
-0.00298621
-0.000125137
-0.00300023
-0.000362868
-0.0030129
-0.000610184
-0.00304954
-0.000858573
-0.00313667
-0.0010843
-0.00326478
-0.00124989
-0.00341038
-0.00134433
-0.00363829
-0.00134391
-0.00420338
-0.000978843
-0.00373048
-0.000456547
-0.0030945
9.6826e-06
-0.00295182
8.40399e-05
-0.00286161
-6.33393e-05
-0.00279364
-0.000222565
-0.00280387
-0.000314689
-0.00250547
-0.000298434
-0.00218827
-0.000317217
-0.0018397
-0.000348573
-0.00146784
-0.000371853
-0.00108353
-0.000384287
-0.00069523
-0.000388261
-0.000308415
-0.000386761
6.81814e-05
-0.000376519
0.000448
-0.000379724
0.000337279
-0.000423023
0.00052204
-0.000184513
0.000661899
0.000101557
0.000634599
-0.000708659
0.00837542
-0.00145668
0.0025936
-0.00176801
0.00129067
-0.00201947
0.00104961
-0.00219812
0.000883738
-0.00231373
0.000709063
-0.00238555
0.000527367
-0.00242825
0.000332333
-0.00245094
0.000118092
-0.00246072
-0.000115162
-0.0024712
-0.00035218
-0.00250377
-0.000577412
-0.00257831
-0.000783834
-0.00270402
-0.000958387
-0.00286997
-0.00108374
-0.00306856
-0.00114555
-0.00331494
-0.00109735
-0.00345127
-0.000842354
-0.00340944
-0.000498227
-0.00316075
-0.000238883
-0.00291846
-0.000158116
-0.00276384
-0.000217828
-0.00267035
-0.000315926
-0.00258943
-0.00039546
-0.00244019
-0.000447512
-0.00225698
-0.000500245
-0.00205588
-0.000549475
-0.00184385
-0.000583652
-0.00162998
-0.000597901
-0.00142209
-0.00059587
-0.00122133
-0.00058721
-0.00101381
-0.000583698
-0.000787065
-0.00060609
-0.000546835
-0.000662842
-9.49207e-06
-0.000721389
0.000865749
-0.000773106
0.00232806
-0.000827085
0.00323374
-0.000889612
0.0028213
0.000430086
0.00288893
-0.000670501
0.0094746
-0.0013639
0.00328716
-0.00138158
0.00130852
-0.00154083
0.00120905
-0.00172619
0.00106928
-0.00180628
0.000789346
-0.00181054
0.000531823
-0.00177896
0.000300948
-0.00173098
7.03054e-05
-0.0016838
-0.000162144
-0.00165886
-0.000376934
-0.00167642
-0.000559659
-0.00174842
-0.000711639
-0.00187391
-0.000832715
-0.00204084
-0.000916618
-0.00223688
-0.000949328
-0.00243633
-0.000897732
-0.00254411
-0.000734398
-0.00252863
-0.000513547
-0.00242322
-0.000344141
-0.00230753
-0.000273658
-0.0022357
-0.000289515
-0.00220531
-0.000346171
-0.00218989
-0.00041072
-0.00216478
-0.000472444
-0.00213142
-0.000533411
-0.00209633
-0.000584326
-0.00206586
-0.000613849
-0.00204634
-0.000617118
-0.0020411
-0.000600776
-0.00204639
-0.000581551
-0.00204642
-0.000583276
-0.00201707
-0.000634998
-0.00191753
-0.000761911
-0.00165263
-0.000985776
-0.00106833
-0.00135687
-7.92298e-07
-0.00189408
0.00120925
-0.00209911
0.00159624
4.36529e-05
0.00454252
-0.000914103
0.0108632
-0.00101044
0.00338366
-0.00044107
0.000739338
-0.000473028
0.00124121
-0.00081367
0.00141012
-0.000961625
0.000937501
-0.000935487
0.000505886
-0.00084648
0.000212142
-0.000737635
-3.83374e-05
-0.000644428
-0.000255156
-0.000595157
-0.000426017
-0.000605152
-0.000549478
-0.000678283
-0.000638325
-0.000807312
-0.000703504
-0.000977216
-0.000746535
-0.00116761
-0.000758754
-0.00134551
-0.000719657
-0.00146239
-0.000617345
-0.00149492
-0.000480854
-0.00147298
-0.000365914
-0.00144264
-0.000303846
-0.00143864
-0.000293364
-0.00146961
-0.000315043
-0.0015288
-0.000351371
-0.00160821
-0.000392855
-0.00170756
-0.000433849
-0.00182933
-0.000462308
-0.00197829
-0.000464611
-0.00216119
-0.000433896
-0.00238309
-0.000378534
-0.00264329
-0.00032098
-0.00293188
-0.000294295
-0.0032302
-0.00033627
-0.00350921
-0.000482472
-0.00372762
-0.000766925
-0.00383308
-0.00125097
-0.00374234
-0.00198438
-0.00319741
-0.00264359
-0.00129625
-0.00185701
0.00331544
0.00194829
0.00944728
0.00265559
0.00267651
0.00259737
0.000797723
0.00193999
0.00189877
0.00131637
0.00203395
0.000970723
0.00128335
0.000806778
0.000670041
0.000744682
0.000274447
0.000746251
-3.96995e-05
0.000764417
-0.000273124
0.000750846
-0.000412256
0.000690948
-0.000489396
0.000584724
-0.000531922
0.000436175
-0.000554778
0.000253941
-0.000564126
5.43124e-05
-0.000558951
-0.000132928
-0.000532245
-0.000273883
-0.000476219
-0.00035449
-0.000400078
-0.000391968
-0.000328269
-0.000416001
-0.000279651
-0.00045166
-0.000257545
-0.000511955
-0.000254592
-0.00060152
-0.000261646
-0.000722568
-0.000271635
-0.000878086
-0.000278132
-0.00106973
-0.000270425
-0.00129982
-0.000234253
-0.00157572
-0.000157696
-0.00190811
-4.58244e-05
-0.00231721
8.84385e-05
-0.00283784
0.00022667
-0.00349582
0.000322049
-0.00427666
0.000298716
-0.00512276
7.95278e-05
-0.00604895
-0.000324437
-0.00724222
-0.000790755
-0.00853675
-0.0013487
-0.00781318
-0.00258019
-0.00417203
0.010043
0.0127177
0.0100616
0.00345389
0.00686586
0.00509472
0.00534777
0.00355221
0.00440691
0.00222439
0.00375723
0.0013199
0.00330936
0.000722513
0.0029515
0.000318348
0.00264156
3.70019e-05
0.00238295
-0.000153462
0.0021628
-0.00026906
0.00196168
-0.000330627
0.00176409
-0.00035701
0.00156194
-0.000361798
0.00135673
-0.000353573
0.00116066
-0.000336001
0.000992951
-0.000308344
0.000865767
-0.000272727
0.000774773
-0.000237109
0.000704668
-0.00020938
0.000639367
-0.000192082
0.000567638
-0.000182702
0.000482869
-0.000176717
0.000381016
-0.00016962
0.000260087
-0.00015703
0.000123082
-0.000133225
-1.95967e-05
-9.13458e-05
-0.000151774
-2.52597e-05
-0.000269254
7.19338e-05
-0.000380178
0.000199651
-0.000487712
0.000334499
-0.00059721
0.000431847
-0.000738318
0.000440117
-0.000983259
0.000324747
-0.00135578
4.8336e-05
-0.00185129
-0.000295003
-0.00241589
-0.000783876
-0.00240669
-0.00258917
-0.00623674
-0.000711515
0.00370485
0.00144088
0.0029425
0.00294356
0.00204971
0.00350308
0.00166504
0.0036796
0.00114356
0.00371605
0.000686239
0.00367664
0.000357934
0.00357759
0.00013623
0.00343649
-1.21814e-05
0.00327434
-0.000106729
0.00310356
-0.000159677
0.0029294
-0.000182672
0.00275332
-0.000185546
0.00257619
-0.000176274
0.00240147
-0.000161108
0.00223731
-0.000144011
0.00209233
-0.000127586
0.00196957
-0.000114175
0.00186551
-0.000105151
0.00177366
-0.000100072
0.00168811
-9.69876e-05
0.00160489
-9.33352e-05
0.00152204
-8.66046e-05
0.0014397
-7.45265e-05
0.00136141
-5.47737e-05
0.00129497
-2.47237e-05
0.00124954
2.0374e-05
0.00123424
8.7441e-05
0.001259
0.000175126
0.00132643
0.000267317
0.00142484
0.000333697
0.00152887
0.000336351
0.00161327
0.000240604
0.00165009
1.17722e-05
0.00171048
-0.000355139
0.00187709
-0.000950243
0.00156285
-0.0022747
-0.00460018
-0.00123964
0.0049408
0.000697262
0.00100579
0.00194775
0.000799397
0.00286327
0.000749688
0.00345352
0.000553494
0.00378502
0.000354919
0.00394456
0.000198568
0.00399473
8.62324e-05
0.00397241
1.03193e-05
0.00390271
-3.6857e-05
0.00380608
-6.287e-05
0.00369655
-7.29686e-05
0.003583
-7.18169e-05
0.00347025
-6.33495e-05
0.00336034
-5.10223e-05
0.00325428
-3.77734e-05
0.00315298
-2.61125e-05
0.00305692
-1.79446e-05
0.00296597
-1.40312e-05
0.00287982
-1.37513e-05
0.00279853
-1.5532e-05
0.00272289
-1.75308e-05
0.00265456
-1.81025e-05
0.00259615
-1.59547e-05
0.00255153
-9.99571e-06
0.00252551
1.45956e-06
0.00252523
2.08206e-05
0.00256193
5.09117e-05
0.00264595
9.12957e-05
0.00277859
0.00013487
0.00294564
0.00016685
0.0031153
0.000166916
0.00324171
0.000114419
0.00326449
-1.07666e-05
0.00315217
-0.000242584
0.0027961
-0.000593939
0.00175732
-0.00123569
-0.00275416
-0.00391912
-0.00433593
0.000600357
0.00160307
0.00239979
0.00314723
0.00369883
0.00405212
0.00424929
0.00433433
0.00434366
0.00430604
0.00424265
0.00416945
0.00409773
0.00403482
0.00398464
0.00394813
0.00392375
0.00390806
0.00389683
0.00388647
0.00387496
0.00386209
0.00384933
0.00383939
0.0038361
0.00384495
0.00387382
0.00393342
0.004034
0.00417871
0.00435589
0.0045336
0.00465927
0.00466025
0.00442993
0.00384887
0.00262657
)
;

boundaryField
{
    floor
    {
        type            calculated;
        value           nonuniform List<scalar> 
36
(
0
0
0
0
0
0
0
0
0
0
0
0
0
0
0
0
0
0
0
-5.0781e-06
-1.31945e-05
-2.0463e-05
-1.97559e-05
-1.5441e-05
-1.70294e-05
-1.87876e-05
-3.28996e-06
-6.00681e-06
-6.44457e-06
-7.56219e-06
-5.62255e-06
-1.14204e-05
-1.30792e-05
-1.51105e-05
-1.66379e-05
-1.62228e-05
)
;
    }
    ceiling
    {
        type            calculated;
        value           nonuniform List<scalar> 
43
(
7.35277e-06
5.89238e-06
4.72221e-06
3.27952e-06
2.87088e-06
2.4415e-06
2.09085e-06
1.81266e-06
1.5811e-06
1.37432e-06
1.17446e-06
9.49622e-07
6.94796e-07
4.08871e-07
9.01469e-08
-2.63405e-07
-6.54054e-07
-1.08414e-06
-1.55557e-06
-2.06901e-06
-2.62326e-06
-3.21516e-06
-3.84e-06
-4.49208e-06
-5.16486e-06
-5.85047e-06
-6.53875e-06
-7.21908e-06
-7.88359e-06
-8.51997e-06
-9.11595e-06
-9.66274e-06
-1.01595e-05
-1.06176e-05
-1.10658e-05
-1.15503e-05
-1.20708e-05
-1.26783e-05
-1.318e-05
-1.36419e-05
3.66729e-06
1.93946e-06
3.89087e-06
)
;
    }
    sWall
    {
        type            calculated;
        value           uniform -0.000123728;
    }
    nWall
    {
        type            calculated;
        value           nonuniform List<scalar> 6(-4.82529e-05 -5.67782e-05 -6.863e-05 -7.34948e-05 -8.84739e-05 -0.000113744);
    }
    sideWalls
    {
        type            empty;
        value           nonuniform 0();
    }
    glass1
    {
        type            calculated;
        value           nonuniform List<scalar> 9(-6.94579e-05 -0.000175568 -0.000256789 -0.00032268 -0.000378961 -0.000428561 -0.000474355 -0.000532285 -0.000599247);
    }
    glass2
    {
        type            calculated;
        value           nonuniform List<scalar> 2(-0.000325268 -0.000341757);
    }
    sun
    {
        type            calculated;
        value           uniform 0;
    }
    Table_master
    {
        type            calculated;
        value           nonuniform List<scalar> 9(-1.55608e-07 -1.55817e-07 -1.55867e-07 -1.55896e-07 -1.5591e-07 -1.55863e-07 -1.55753e-07 -1.55613e-07 -1.55397e-07);
    }
    Table_slave
    {
        type            calculated;
        value           nonuniform List<scalar> 9(1.54141e-07 1.54247e-07 1.54353e-07 1.54468e-07 1.5459e-07 1.54716e-07 1.54843e-07 1.54947e-07 1.54895e-07);
    }
    inlet
    {
        type            calculated;
        value           uniform 0.000460776;
    }
    outlet
    {
        type            calculated;
        value           nonuniform List<scalar> 2(0.00403569 0.000411113);
    }
}


// ************************************************************************* //
