/*--------------------------------*- C++ -*----------------------------------*\
  =========                 |
  \\      /  F ield         | OpenFOAM: The Open Source CFD Toolbox
   \\    /   O peration     | Website:  https://openfoam.org
    \\  /    A nd           | Version:  6
     \\/     M anipulation  |
\*---------------------------------------------------------------------------*/
FoamFile
{
    version     2.0;
    format      ascii;
    class       volScalarField;
    location    "2300";
    object      alphat;
}
// * * * * * * * * * * * * * * * * * * * * * * * * * * * * * * * * * * * * * //

dimensions      [1 -1 -1 0 0 0 0];

internalField   nonuniform List<scalar> 
458
(
0.0012853
0.00140854
0.00143308
0.00150304
0.00156871
0.00163078
0.00169245
0.00174819
0.00178468
0.00179632
0.00177881
0.00173013
0.00165037
0.00154286
0.00141412
0.000550856
0.000669518
0.000765505
0.000780318
0.000761955
0.000713634
0.000661214
0.000613904
0.000572618
0.000536614
0.000505107
0.000477426
0.000452903
0.000430581
0.000409364
0.000387803
0.000371564
0.000338067
0.00175497
0.00444445
0.00431025
0.00503542
0.00574505
0.00643895
0.00702096
0.00747322
0.00786195
0.00815877
0.0083293
0.00834128
0.0081495
0.00763359
0.00623709
0.00149364
0.00120015
0.00092084
0.000577788
0.00135338
0.00199466
0.0024691
0.00259299
0.00192574
0.00162999
0.00142751
0.00127613
0.00115865
0.00106456
0.000985214
0.000911082
0.000837176
0.000769906
0.000713922
0.000836657
0.000427214
0.00214242
0.00609211
0.00540372
0.0067819
0.00748428
0.00800935
0.00841454
0.00874916
0.00908632
0.00940905
0.00967564
0.00984103
0.0098568
0.00965558
0.00905473
0.00745332
0.00582935
0.00124955
0.00107839
0.00177048
0.00248954
0.00313005
0.0032242
0.000997466
0.00086759
0.000762917
0.000679396
0.000612411
0.00055818
0.000513929
0.000477993
0.000449914
0.000496117
0.000581879
0.000964646
0.000492274
0.00251105
0.00775559
0.00550811
0.00721837
0.00784713
0.00810618
0.00829659
0.00851491
0.00881044
0.00916106
0.00951181
0.00980589
0.00998233
0.00998588
0.00978829
0.00927506
0.00822009
0.00513638
0.00157546
0.00211006
0.00295694
0.00382946
0.00448165
0.00433573
0.00112387
0.00101684
0.000943023
0.00088822
0.000842626
0.000799447
0.000758665
0.000716142
0.000667181
0.00062549
0.000628711
0.00110958
0.000555516
0.00288457
0.00985454
0.00617186
0.00707071
0.00783135
0.00796518
0.00797818
0.00814675
0.00841637
0.00878903
0.00919549
0.00956085
0.00979679
0.00985105
0.00973345
0.00946153
0.0089789
0.00803605
0.00680942
0.00650823
0.00655791
0.00668302
0.00671855
0.00644902
0.00530233
0.00474373
0.00442627
0.00419693
0.00397605
0.00370128
0.00328681
0.00277285
0.00219978
0.00165028
0.00123427
0.00116998
0.000934253
0.000732559
0.000799094
0.00087568
0.00327768
0.0121315
0.00849698
0.00736753
0.00785089
0.00798393
0.00797757
0.00807227
0.00827315
0.00861267
0.00904868
0.00946637
0.00973658
0.0097777
0.00959826
0.00929178
0.00898476
0.00875141
0.0085966
0.00856655
0.00851524
0.00836221
0.00808663
0.0076647
0.00705833
0.0065404
0.00611831
0.00574472
0.00538672
0.00502182
0.00459152
0.0040531
0.00340853
0.00270231
0.00207109
0.00155417
0.00122958
0.00102956
0.00130185
0.000907466
0.00362126
0.0136644
0.0116495
0.00954273
0.00907952
0.0087033
0.00835362
0.00820795
0.0083225
0.00867966
0.00917631
0.00964491
0.00991886
0.00990377
0.00962448
0.00924394
0.00901552
0.00909965
0.00934514
0.00947032
0.00934541
0.00899527
0.00848793
0.00787849
0.00722303
0.00662649
0.00611199
0.00566185
0.00526325
0.00491589
0.00462067
0.00432304
0.0038858
0.00331688
0.00273828
0.00220766
0.00183394
0.00164922
0.00155702
0.00108246
0.00367345
0.0118358
0.0108293
0.00997567
0.00923855
0.00854563
0.00812981
0.00809514
0.00842571
0.00901034
0.00966173
0.0101638
0.0103521
0.0101792
0.00974087
0.00930785
0.00920999
0.00947727
0.00971715
0.00963825
0.00923792
0.00861383
0.00785669
0.00705398
0.0063009
0.00566905
0.00516211
0.0047589
0.00444836
0.00422978
0.00410508
0.00406518
0.00400024
0.0036901
0.00339331
0.00322303
0.0032707
0.00339096
0.00393375
0.0016658
0.00356182
0.00418285
0.00457665
0.00474961
0.00510615
0.00575648
0.00668599
0.00782414
0.00902386
0.010089
0.010824
0.0110847
0.0108547
0.0102759
0.0096182
0.00936697
0.00936205
0.00937225
0.00918707
0.00873987
0.00805771
0.00722716
0.00634849
0.00553013
0.00485228
0.00433185
0.00393919
0.00364092
0.00341373
0.00323874
0.00309646
0.00296862
0.00286182
0.00277353
0.00270738
0.00266028
0.00258317
0.00244543
0.00228451
0.00157697
0.00170885
0.0056814
0.00905694
0.0110644
0.0123211
0.0130023
0.0131738
0.0129287
0.0123615
0.0115588
0.0105685
0.00959534
0.00890002
0.00858346
0.00833214
0.00793955
0.00737621
0.00668126
0.00592466
0.00517667
0.00450791
0.00396961
0.00356096
0.00325206
0.00301515
0.00283513
0.00270429
0.00261773
0.00257185
0.00256601
0.00257963
0.00259661
0.00260377
0.00257501
0.0024712
0.00228492
0.00204796
0.00131512
0.00247761
0.00904803
0.0113881
0.0120608
0.0122559
0.0120481
0.0114929
0.0106993
0.00978049
0.00885236
0.00799237
0.00728359
0.00675442
0.00631914
0.00586738
0.0053873
0.00490115
0.00443719
0.00402767
0.00369206
0.00342935
0.00321778
0.0030369
0.0028751
0.00273079
0.00261475
0.00253229
0.00248243
0.00247062
0.00249485
0.00254883
0.00262001
0.00268651
0.00272134
0.00267544
0.00265979
0.00270329
0.00134404
0.00210359
0.00227622
0.00239951
0.0025949
0.00255066
0.00251905
0.00245927
0.00234648
0.00218693
0.00199166
0.00177664
0.00156324
0.00137573
0.00122945
0.00112403
0.00104961
0.00099491
0.000951619
0.000915083
0.000883609
0.000857078
0.000835592
0.000819083
0.000807367
0.000801031
0.00080143
0.000810189
0.000827215
0.00085291
0.000888407
0.000933022
0.000985553
0.00104594
0.00111406
0.00118882
0.00127461
0.00130749
0.00127588
0.00119623
0.00111749
)
;

boundaryField
{
    floor
    {
        type            compressible::alphatWallFunction;
        Prt             0.85;
        value           nonuniform List<scalar> 
36
(
0.000199407
7.69933e-05
9.47245e-05
0.000108788
0.00011094
0.000108274
0.000101219
9.35e-05
8.64693e-05
8.02794e-05
7.48362e-05
7.00356e-05
6.5787e-05
6.1997e-05
5.85246e-05
5.52029e-05
5.18044e-05
4.92287e-05
4.38689e-05
4.38683e-05
5.79971e-05
6.8067e-05
7.76962e-05
0.00010399
0.000113666
0.00012468
0.000199405
0.00021014
0.000170186
0.000131107
7.69923e-05
0.000131105
8.10527e-05
0.000176983
0.00015329
0.000221116
)
;
    }
    ceiling
    {
        type            compressible::alphatWallFunction;
        Prt             0.85;
        value           nonuniform List<scalar> 
43
(
0.000290511
0.000312776
0.000328571
0.000353549
0.000347975
0.000343978
0.000336382
0.000321983
0.00030148
0.000276164
0.000247969
0.000219613
0.000194341
0.000174358
0.00015979
0.000149412
0.000141729
0.000135614
0.000130426
0.000125937
0.000122139
0.000119052
0.000116674
0.000114982
0.000114066
0.000114123
0.000115388
0.000117843
0.000121536
0.000126618
0.000132971
0.000140406
0.000148895
0.000158405
0.000168765
0.000180561
0.000185059
0.000180736
0.000169789
0.000158886
0.000474161
0.000549648
0.00033828
)
;
    }
    sWall
    {
        type            compressible::alphatWallFunction;
        Prt             0.85;
        value           uniform 0.000289314;
    }
    nWall
    {
        type            compressible::alphatWallFunction;
        Prt             0.85;
        value           nonuniform List<scalar> 6(0.00012448 0.000129012 0.000153667 0.000185779 0.000189718 0.000158567);
    }
    sideWalls
    {
        type            empty;
    }
    glass1
    {
        type            compressible::alphatWallFunction;
        Prt             0.85;
        value           nonuniform List<scalar> 9(0.000177518 0.000239788 0.000289899 0.000336761 0.000383569 0.000432199 0.000474258 0.000480745 0.000467382);
    }
    glass2
    {
        type            compressible::alphatWallFunction;
        Prt             0.85;
        value           nonuniform List<scalar> 2(0.000231647 0.000219918);
    }
    sun
    {
        type            compressible::alphatWallFunction;
        Prt             0.85;
        value           nonuniform List<scalar> 
14
(
0.000181905
0.000198665
0.000201984
0.000211414
0.000220222
0.00022851
0.000236709
0.000244091
0.00024891
0.000250443
0.000248132
0.000241697
0.000231111
0.000216752
)
;
    }
    Table_master
    {
        type            compressible::alphatWallFunction;
        Prt             0.85;
        value           nonuniform List<scalar> 9(0.000142066 0.00012362 0.000108516 9.62848e-05 8.63435e-05 7.81969e-05 7.14767e-05 6.59658e-05 6.16234e-05);
    }
    Table_slave
    {
        type            compressible::alphatWallFunction;
        Prt             0.85;
        value           nonuniform List<scalar> 9(0.000159754 0.000144796 0.000134374 0.000126574 0.000120041 0.000113816 0.000107899 0.000101689 9.44829e-05);
    }
    inlet
    {
        type            fixedValue;
        value           uniform 1.94e-05;
    }
    outlet
    {
        type            zeroGradient;
    }
}


// ************************************************************************* //
