/*--------------------------------*- C++ -*----------------------------------*\
  =========                 |
  \\      /  F ield         | OpenFOAM: The Open Source CFD Toolbox
   \\    /   O peration     | Website:  https://openfoam.org
    \\  /    A nd           | Version:  6
     \\/     M anipulation  |
\*---------------------------------------------------------------------------*/
FoamFile
{
    version     2.0;
    format      ascii;
    class       volScalarField;
    location    "2300";
    object      epsilon;
}
// * * * * * * * * * * * * * * * * * * * * * * * * * * * * * * * * * * * * * //

dimensions      [0 2 -3 0 0 0 0];

internalField   nonuniform List<scalar> 
458
(
0.000480998
0.000631449
0.000664958
0.000767162
0.000872155
0.00097983
0.00109521
0.00120697
0.00128405
0.00130919
0.00127113
0.00116949
0.00101501
0.000829242
0.000638464
3.77858e-05
6.78289e-05
0.000101385
0.000107397
9.99988e-05
8.21575e-05
6.53514e-05
5.23048e-05
4.24468e-05
3.49339e-05
2.91355e-05
2.4604e-05
2.10047e-05
1.80502e-05
1.55119e-05
1.31883e-05
1.16006e-05
8.73908e-06
0.00122658
0.00172666
0.000598121
0.000579666
0.00061309
0.000665678
0.000739478
0.000826863
0.000900499
0.000937494
0.000923532
0.000857668
0.000749982
0.000623777
0.000536885
0.000752378
0.000390331
0.000176355
4.36017e-05
9.83737e-05
0.000108946
0.000104064
9.5089e-05
9.21433e-05
7.27737e-05
5.57482e-05
4.28567e-05
3.33163e-05
2.6257e-05
2.09951e-05
1.70438e-05
1.41061e-05
1.2242e-05
1.13503e-05
2.45052e-05
1.7633e-05
0.00223559
0.00418563
0.000765022
0.000571345
0.00060832
0.000695623
0.00081698
0.000952079
0.00105888
0.001109
0.00109218
0.00101421
0.000888102
0.000738098
0.00059913
0.000500321
0.000396039
0.000440625
0.000283328
0.000211268
0.000166934
0.000135784
0.000119393
0.000224379
0.000147644
0.000100389
7.08939e-05
5.19228e-05
3.93133e-05
3.06845e-05
2.4687e-05
2.05869e-05
1.57518e-05
1.33141e-05
4.53311e-05
2.69777e-05
0.00360612
0.00858116
0.00124483
0.000614777
0.000636255
0.000771522
0.00097393
0.00117623
0.00130836
0.00135333
0.00131664
0.00121323
0.00105616
0.00087272
0.000703981
0.000567934
0.000473076
0.000488963
0.000883252
0.000499311
0.000307882
0.000214043
0.000161841
0.000139191
0.000321146
0.000237885
0.000189769
0.000158584
0.000135405
0.000115644
9.88378e-05
8.3135e-05
6.72235e-05
3.96761e-05
2.47718e-05
7.27214e-05
3.87713e-05
0.0054764
0.0150858
0.0024925
0.000815653
0.000746645
0.000951972
0.00131321
0.00157071
0.00168517
0.00168756
0.00160687
0.00145873
0.00125778
0.00102912
0.000806158
0.000615744
0.000472416
0.000390349
0.000358906
0.000297911
0.0002411
0.000194777
0.00015793
0.00013075
0.000123328
0.000112058
0.000102629
9.42519e-05
8.58839e-05
7.69467e-05
6.79661e-05
5.93684e-05
5.13985e-05
4.08865e-05
3.0902e-05
5.19763e-05
7.37413e-05
8.89892e-05
0.000115597
0.000152124
0.00804746
0.0221701
0.00559696
0.00175378
0.00136506
0.00172273
0.00213112
0.00227056
0.00225592
0.0021586
0.00200276
0.00178713
0.00151632
0.00121324
0.000915204
0.00065959
0.000471542
0.000357192
0.000298213
0.000258518
0.000221648
0.000185702
0.000153194
0.000126748
0.000110406
0.000102083
9.77977e-05
9.43159e-05
8.99323e-05
8.34716e-05
7.40229e-05
6.36258e-05
5.3872e-05
4.48435e-05
3.81418e-05
4.31267e-05
6.22821e-05
7.74501e-05
0.000168248
0.000169238
0.0108695
0.0263254
0.0113648
0.00556344
0.00430893
0.00410633
0.00378489
0.00343622
0.00311485
0.00282631
0.00253815
0.00221107
0.00183193
0.00142322
0.00103022
0.000701916
0.000472356
0.000340886
0.000276064
0.000237833
0.000204443
0.000171874
0.000142925
0.000120727
0.000108007
0.000103934
0.00010447
0.000106589
0.000108773
0.000109544
0.000106479
9.62945e-05
8.55406e-05
7.62701e-05
7.19463e-05
7.72876e-05
0.000100314
0.000144048
0.000267722
0.000287202
0.0113711
0.0273823
0.0161247
0.0118785
0.00940612
0.00737011
0.00588097
0.00486511
0.00418188
0.00368102
0.00322847
0.00273612
0.00218802
0.00162499
0.00110797
0.00069769
0.000438565
0.000305479
0.000244027
0.000207576
0.000176997
0.000149593
0.00012786
0.00011376
0.000107972
0.000109208
0.000115215
0.00012481
0.000137929
0.000154764
0.000174951
0.000195333
0.000208621
0.000233446
0.000283128
0.000406854
0.000674305
0.00109657
0.00320038
0.00104827
0.010398
0.0167955
0.0137385
0.0105839
0.00837735
0.00699579
0.00615085
0.00561888
0.00520331
0.00473378
0.00410566
0.0033112
0.00245508
0.00166108
0.00100311
0.000534678
0.000332501
0.000243229
0.000199237
0.000170445
0.0001468
0.000127628
0.00011419
0.000107177
0.000106393
0.000111026
0.00012047
0.000135042
0.000155954
0.000185118
0.000224969
0.000278455
0.00035101
0.000451426
0.00059656
0.000789893
0.00101193
0.00122031
0.00140105
0.000890653
0.0028843
0.00720355
0.00834015
0.00866894
0.00860378
0.00803548
0.00696549
0.00555745
0.00403996
0.00258668
0.0015424
0.000906135
0.000533352
0.000327817
0.000230617
0.000183307
0.000156496
0.000137747
0.000123322
0.000112649
0.00010595
0.000102787
0.000102555
0.000104979
0.000110424
0.000119918
0.000134929
0.000157496
0.000190494
0.000237746
0.000303674
0.000392999
0.000508766
0.000641344
0.000758116
0.000814802
0.000795993
0.000516626
0.00320392
0.00784448
0.00776702
0.00670195
0.00596136
0.00509629
0.00405902
0.0029959
0.00204718
0.00129328
0.000788008
0.000490757
0.000328549
0.000245669
0.000206671
0.000188599
0.00017985
0.000175036
0.000171882
0.000169363
0.000166894
0.000164203
0.000161203
0.00015834
0.000156737
0.000158161
0.000164275
0.000176923
0.000198774
0.000233345
0.000284651
0.000356613
0.000449733
0.000556236
0.000639745
0.000730421
0.000731583
0.000551402
0.00204051
0.0025828
0.0030254
0.00389708
0.0037231
0.00359642
0.00335313
0.00291726
0.0023647
0.00178792
0.00127007
0.000865677
0.0005903
0.000421464
0.00032217
0.000262376
0.00022349
0.000195586
0.000173922
0.00015659
0.000142905
0.000132424
0.000124727
0.000119449
0.000116657
0.000116829
0.000120698
0.000128466
0.000140811
0.000159133
0.000184329
0.000217247
0.000259677
0.000313794
0.000381315
0.00046999
0.000507356
0.000471466
0.000388587
0.000316928
)
;

boundaryField
{
    floor
    {
        Cmu             0.09;
        kappa           0.41;
        E               9.8;
        type            epsilonWallFunction;
        value           nonuniform List<scalar> 
36
(
0.000638464
3.77858e-05
6.78289e-05
0.000101385
0.000107397
9.99988e-05
8.21575e-05
6.53514e-05
5.23048e-05
4.24468e-05
3.49339e-05
2.91355e-05
2.4604e-05
2.10047e-05
1.80502e-05
1.55119e-05
1.31883e-05
1.16006e-05
8.73908e-06
8.73908e-06
1.7633e-05
2.69777e-05
3.87713e-05
8.89892e-05
0.000115597
0.000152124
0.000638464
0.000752378
0.000390331
0.000176355
3.77858e-05
0.000176355
4.36017e-05
0.000440625
0.000283328
0.000883252
)
;
    }
    ceiling
    {
        Cmu             0.09;
        kappa           0.41;
        E               9.8;
        type            epsilonWallFunction;
        value           nonuniform List<scalar> 
43
(
0.00204051
0.0025828
0.0030254
0.00389708
0.0037231
0.00359642
0.00335313
0.00291726
0.0023647
0.00178792
0.00127007
0.000865677
0.0005903
0.000421464
0.00032217
0.000262376
0.00022349
0.000195586
0.000173922
0.00015659
0.000142905
0.000132424
0.000124727
0.000119449
0.000116657
0.000116829
0.000120698
0.000128466
0.000140811
0.000159133
0.000184329
0.000217247
0.000259677
0.000313794
0.000381315
0.00046999
0.000507356
0.000471466
0.000388587
0.000316928
0.010398
0.0167955
0.00320392
)
;
    }
    sWall
    {
        Cmu             0.09;
        kappa           0.41;
        E               9.8;
        type            epsilonWallFunction;
        value           uniform 0.00204051;
    }
    nWall
    {
        Cmu             0.09;
        kappa           0.41;
        E               9.8;
        type            epsilonWallFunction;
        value           nonuniform List<scalar> 6(0.000152124 0.000169238 0.000287202 0.000516626 0.000551402 0.000316928);
    }
    sideWalls
    {
        type            empty;
    }
    glass1
    {
        Cmu             0.09;
        kappa           0.41;
        E               9.8;
        type            epsilonWallFunction;
        value           nonuniform List<scalar> 9(0.000480998 0.00122658 0.00223559 0.00360612 0.0054764 0.00804746 0.0108695 0.0113711 0.010398);
    }
    glass2
    {
        Cmu             0.09;
        kappa           0.41;
        E               9.8;
        type            epsilonWallFunction;
        value           nonuniform List<scalar> 2(0.00104827 0.000890653);
    }
    sun
    {
        Cmu             0.09;
        kappa           0.41;
        E               9.8;
        type            epsilonWallFunction;
        value           nonuniform List<scalar> 
14
(
0.000480998
0.000631449
0.000664958
0.000767162
0.000872155
0.00097983
0.00109521
0.00120697
0.00128405
0.00130919
0.00127113
0.00116949
0.00101501
0.000829242
)
;
    }
    Table_master
    {
        Cmu             0.09;
        kappa           0.41;
        E               9.8;
        type            epsilonWallFunction;
        value           nonuniform List<scalar> 9(0.000224379 0.000147644 0.000100389 7.08939e-05 5.19228e-05 3.93133e-05 3.06845e-05 2.4687e-05 2.05869e-05);
    }
    Table_slave
    {
        Cmu             0.09;
        kappa           0.41;
        E               9.8;
        type            epsilonWallFunction;
        value           nonuniform List<scalar> 9(0.000321146 0.000237885 0.000189769 0.000158584 0.000135405 0.000115644 9.88378e-05 8.3135e-05 6.72235e-05);
    }
    inlet
    {
        type            turbulentMixingLengthDissipationRateInlet;
        mixingLength    0.01;
        phi             phi;
        k               k;
        value           uniform 0.000101881;
    }
    outlet
    {
        type            zeroGradient;
    }
}


// ************************************************************************* //
