/*--------------------------------*- C++ -*----------------------------------*\
  =========                 |
  \\      /  F ield         | OpenFOAM: The Open Source CFD Toolbox
   \\    /   O peration     | Website:  https://openfoam.org
    \\  /    A nd           | Version:  6
     \\/     M anipulation  |
\*---------------------------------------------------------------------------*/
FoamFile
{
    version     2.0;
    format      ascii;
    class       volScalarField;
    location    "2300";
    object      T;
}
// * * * * * * * * * * * * * * * * * * * * * * * * * * * * * * * * * * * * * //

dimensions      [0 0 0 1 0 0 0];

internalField   nonuniform List<scalar> 
458
(
303.52
303.262
303.251
303.249
303.247
303.245
303.242
303.237
303.23
303.221
303.212
303.203
303.197
303.195
303.199
303.301
303.283
303.28
303.286
303.291
303.294
303.297
303.3
303.304
303.307
303.31
303.314
303.317
303.321
303.325
303.331
303.337
303.357
303.692
303.303
303.28
303.284
303.288
303.29
303.289
303.283
303.27
303.251
303.23
303.212
303.198
303.191
303.189
303.192
303.194
303.208
303.301
303.271
303.271
303.279
303.287
303.288
303.288
303.289
303.289
303.289
303.289
303.29
303.292
303.294
303.298
303.304
303.314
303.344
303.871
303.353
303.313
303.323
303.337
303.348
303.352
303.346
303.324
303.29
303.255
303.224
303.203
303.192
303.189
303.191
303.192
303.201
303.259
303.259
303.271
303.287
303.301
303.299
303.297
303.295
303.294
303.292
303.291
303.291
303.291
303.291
303.295
303.3
303.309
303.34
304.051
303.416
303.349
303.363
303.39
303.414
303.43
303.423
303.388
303.334
303.279
303.234
303.205
303.192
303.191
303.195
303.199
303.204
303.215
303.233
303.259
303.286
303.312
303.334
303.352
303.366
303.378
303.389
303.398
303.405
303.411
303.415
303.417
303.383
303.349
303.329
303.343
304.226
303.496
303.394
303.403
303.44
303.482
303.512
303.499
303.444
303.366
303.293
303.237
303.202
303.189
303.192
303.202
303.214
303.226
303.244
303.269
303.298
303.329
303.359
303.384
303.407
303.425
303.439
303.451
303.46
303.465
303.465
303.462
303.454
303.429
303.392
303.357
303.349
303.427
303.506
303.507
304.385
303.602
303.475
303.467
303.506
303.561
303.582
303.545
303.468
303.375
303.289
303.225
303.19
303.181
303.192
303.214
303.237
303.261
303.287
303.318
303.352
303.385
303.415
303.441
303.462
303.48
303.493
303.503
303.509
303.511
303.507
303.498
303.485
303.462
303.428
303.39
303.369
303.399
303.427
303.465
304.535
303.77
303.651
303.633
303.653
303.676
303.64
303.555
303.444
303.332
303.242
303.184
303.161
303.168
303.197
303.236
303.276
303.312
303.348
303.383
303.417
303.449
303.476
303.499
303.517
303.53
303.54
303.546
303.549
303.547
303.541
303.528
303.512
303.49
303.461
303.427
303.402
303.405
303.416
303.443
304.75
304.181
304.054
303.989
303.911
303.788
303.631
303.465
303.316
303.202
303.133
303.109
303.123
303.163
303.22
303.283
303.339
303.384
303.423
303.457
303.487
303.513
303.534
303.55
303.562
303.57
303.575
303.576
303.575
303.57
303.563
303.551
303.535
303.515
303.494
303.47
303.455
303.456
303.47
303.589
305.061
304.791
304.519
304.196
303.829
303.489
303.224
303.046
302.952
302.931
302.963
303.031
303.113
303.2
303.289
303.375
303.43
303.469
303.5
303.526
303.548
303.566
303.58
303.59
303.596
303.598
303.598
303.595
303.591
303.586
303.581
303.577
303.575
303.576
303.583
303.599
303.624
303.653
303.676
303.731
294.681
296.711
298.828
300.174
301.099
301.782
302.29
302.66
302.929
303.129
303.262
303.354
303.423
303.476
303.514
303.542
303.565
303.583
303.597
303.607
303.613
303.617
303.618
303.617
303.615
303.613
303.611
303.609
303.608
303.608
303.609
303.613
303.622
303.637
303.657
303.681
303.705
303.732
296.197
298.807
300.508
301.457
302.062
302.478
302.786
303.02
303.193
303.321
303.41
303.472
303.518
303.551
303.576
303.595
303.61
303.62
303.627
303.631
303.633
303.634
303.633
303.632
303.631
303.63
303.629
303.628
303.627
303.627
303.628
303.631
303.637
303.647
303.66
303.678
303.682
303.715
300.143
300.05
300.042
301.881
302.48
302.762
302.966
303.129
303.259
303.362
303.44
303.499
303.54
303.57
303.591
303.606
303.617
303.624
303.629
303.631
303.633
303.633
303.633
303.633
303.633
303.633
303.633
303.633
303.633
303.633
303.633
303.634
303.635
303.637
303.64
303.646
303.655
303.662
303.665
303.708
)
;

boundaryField
{
    floor
    {
        type            wallHeatTransfer;
        Tinf            uniform 305.2;
        alphaWall       uniform 0.24;
        value           nonuniform List<scalar> 
36
(
303.392
303.661
303.602
303.571
303.572
303.581
303.597
303.616
303.635
303.654
303.672
303.689
303.706
303.722
303.738
303.754
303.772
303.789
303.83
303.83
303.758
303.719
303.693
303.704
303.755
303.74
303.392
303.377
303.413
303.472
303.661
303.472
303.649
303.413
303.489
303.391
)
;
    }
    ceiling
    {
        type            wallHeatTransfer;
        Tinf            uniform 303.2;
        alphaWall       uniform 0.24;
        value           nonuniform List<scalar> 
43
(
300.359
300.258
300.243
301.96
302.523
302.789
302.981
303.134
303.255
303.35
303.421
303.472
303.507
303.53
303.546
303.557
303.564
303.569
303.571
303.572
303.572
303.571
303.571
303.57
303.569
303.569
303.57
303.571
303.572
303.574
303.576
303.579
303.582
303.586
303.591
303.6
303.608
303.614
303.615
303.65
304.976
304.727
296.63
)
;
    }
    sWall
    {
        type            wallHeatTransfer;
        Tinf            uniform 315.2;
        alphaWall       uniform 0.36;
        value           uniform 301.687;
    }
    nWall
    {
        type            wallHeatTransfer;
        Tinf            uniform 307.2;
        alphaWall       uniform 0.36;
        value           nonuniform List<scalar> 6(304.221 304.17 304.071 304.237 304.214 304.279);
    }
    sideWalls
    {
        type            empty;
    }
    glass1
    {
        type            wallHeatTransfer;
        Tinf            uniform 315.2;
        alphaWall       uniform 4.3;
        value           nonuniform List<scalar> 9(311.451 310.807 310.404 310.101 309.849 309.622 309.466 309.549 309.784);
    }
    glass2
    {
        type            wallHeatTransfer;
        Tinf            uniform 307.2;
        alphaWall       uniform 4.3;
        value           nonuniform List<scalar> 2(305.848 305.939);
    }
    sun
    {
        type            wallHeatTransfer;
        Tinf            uniform 305.2;
        alphaWall       uniform 0.24;
        value           nonuniform List<scalar> 
14
(
303.694
303.449
303.437
303.429
303.421
303.413
303.406
303.398
303.389
303.379
303.372
303.368
303.368
303.376
)
;
    }
    Table_master
    {
        type            zeroGradient;
    }
    Table_slave
    {
        type            zeroGradient;
    }
    inlet
    {
        type            fixedValue;
        value           uniform 292.15;
    }
    outlet
    {
        type            zeroGradient;
    }
}


// ************************************************************************* //
