/*--------------------------------*- C++ -*----------------------------------*\
  =========                 |
  \\      /  F ield         | OpenFOAM: The Open Source CFD Toolbox
   \\    /   O peration     | Website:  https://openfoam.org
    \\  /    A nd           | Version:  6
     \\/     M anipulation  |
\*---------------------------------------------------------------------------*/
FoamFile
{
    version     2.0;
    format      ascii;
    class       volVectorField;
    location    "2300";
    object      U;
}
// * * * * * * * * * * * * * * * * * * * * * * * * * * * * * * * * * * * * * //

dimensions      [0 1 -1 0 0 0 0];

internalField   nonuniform List<vector> 
458
(
(0.0333478 0.0849857 0)
(-0.165433 0.02517 0)
(-0.188849 0.0169078 0)
(-0.217913 0.011263 0)
(-0.238291 0.00504404 0)
(-0.2491 -0.00143407 0)
(-0.249074 -0.00814961 0)
(-0.237753 -0.0150539 0)
(-0.216082 -0.021492 0)
(-0.185911 -0.0265569 0)
(-0.150226 -0.0296114 0)
(-0.112252 -0.0304631 0)
(-0.0750615 -0.029332 0)
(-0.042816 -0.0269132 0)
(-0.027123 -0.0236744 0)
(-0.00372333 0.00743475 0)
(-0.0243786 -0.0171775 0)
(-0.00159721 -0.0264986 0)
(0.0210722 -0.0206342 0)
(0.0378931 -0.0141782 0)
(0.0496633 -0.00782942 0)
(0.0563015 -0.00446619 0)
(0.0591742 -0.00322409 0)
(0.0603257 -0.00275251 0)
(0.0609427 -0.00246823 0)
(0.0612959 -0.00224476 0)
(0.0613323 -0.00200553 0)
(0.0608687 -0.00157824 0)
(0.0594051 -0.000608519 0)
(0.0558458 0.00138948 0)
(0.0489817 0.0036816 0)
(0.0415898 0.00612143 0)
(-0.00782878 0.0204851 0)
(0.204134 0.173731 0)
(-0.153529 0.0664496 0)
(-0.15128 0.0501821 0)
(-0.181025 0.0381753 0)
(-0.200972 0.0246751 0)
(-0.211798 0.00987761 0)
(-0.212218 -0.00621556 0)
(-0.201814 -0.0227191 0)
(-0.182072 -0.0374699 0)
(-0.155142 -0.0484733 0)
(-0.124049 -0.0545575 0)
(-0.0917662 -0.0556173 0)
(-0.0609535 -0.0521828 0)
(-0.0343405 -0.045193 0)
(-0.0154529 -0.0351861 0)
(0.005269 -0.00818749 0)
(0.0281882 0.0253236 0)
(-0.0406358 0.0610629 0)
(0.0598785 0.0314249 0)
(0.0251356 -0.0194602 0)
(0.0336284 -0.0315824 0)
(0.0455077 -0.0281723 0)
(0.0552245 -0.0203971 0)
(0.0600062 -0.00883967 0)
(0.0610351 -0.00190831 0)
(0.0609088 0.000733951 0)
(0.0609702 0.00171613 0)
(0.0612053 0.00225382 0)
(0.0613783 0.00264617 0)
(0.0614285 0.00306889 0)
(0.0613292 0.0038393 0)
(0.0606208 0.00577164 0)
(0.0571641 0.0111472 0)
(0.0484187 0.0159485 0)
(0.0433221 0.0201048 0)
(-0.0437623 0.043982 0)
(0.359911 0.259546 0)
(-0.168475 0.10546 0)
(-0.113565 0.0807824 0)
(-0.14182 0.0595057 0)
(-0.159127 0.0373524 0)
(-0.168502 0.0134553 0)
(-0.167776 -0.0124308 0)
(-0.156579 -0.0384219 0)
(-0.137425 -0.0607314 0)
(-0.112983 -0.0764125 0)
(-0.0863075 -0.084091 0)
(-0.0597908 -0.0841477 0)
(-0.0353155 -0.0776036 0)
(-0.0146251 -0.065795 0)
(0.000836935 -0.0495876 0)
(0.0131556 -0.0278887 0)
(0.0206522 -0.00346697 0)
(-0.0351209 0.0328256 0)
(0.102034 -0.0290768 0)
(0.0660722 -0.0387509 0)
(0.0622716 -0.0392585 0)
(0.0656171 -0.0345352 0)
(0.0692223 -0.0290366 0)
(0.0700717 -0.0218534 0)
(0.0631162 -0.0144409 0)
(0.0578339 -0.0105034 0)
(0.0557763 -0.00833211 0)
(0.0551418 -0.006952 0)
(0.0548611 -0.00601932 0)
(0.0548332 -0.00528311 0)
(0.0555094 -0.00431298 0)
(0.0579159 -0.00109839 0)
(0.0564778 0.0151961 0)
(0.0451041 0.0264338 0)
(0.0477401 0.0350671 0)
(-0.0770444 0.0680498 0)
(0.499366 0.328443 0)
(-0.20028 0.140118 0)
(-0.0745008 0.106471 0)
(-0.10009 0.0771379 0)
(-0.11181 0.0482513 0)
(-0.116769 0.0164794 0)
(-0.111239 -0.0190514 0)
(-0.0972085 -0.054223 0)
(-0.078361 -0.0826878 0)
(-0.0574127 -0.101311 0)
(-0.0369153 -0.109144 0)
(-0.0179868 -0.107547 0)
(-0.00132715 -0.0978683 0)
(0.0123583 -0.081736 0)
(0.0227862 -0.0611439 0)
(0.0322039 -0.036016 0)
(0.0453036 -0.00895464 0)
(0.0522807 0.0170274 0)
(0.0891044 0.0195339 0)
(0.0928858 -0.0226359 0)
(0.0795477 -0.0346849 0)
(0.0722805 -0.0349965 0)
(0.0681445 -0.0316063 0)
(0.0636823 -0.0254712 0)
(0.0636942 -0.0153206 0)
(0.0714079 -0.0103862 0)
(0.0778298 -0.00776603 0)
(0.0816699 -0.00617382 0)
(0.0839874 -0.00480331 0)
(0.0848986 -0.00320001 0)
(0.0831703 -0.000965791 0)
(0.0774694 0.00227086 0)
(0.0656185 0.00705558 0)
(0.0524684 0.0248525 0)
(0.0404142 0.0401362 0)
(0.0537976 0.0532434 0)
(-0.102274 0.0894377 0)
(0.618252 0.381848 0)
(-0.238883 0.168538 0)
(-0.0369732 0.120581 0)
(-0.0561192 0.0865356 0)
(-0.0593159 0.0533435 0)
(-0.0556115 0.0150334 0)
(-0.038933 -0.0297141 0)
(-0.0213089 -0.0710348 0)
(-0.00449549 -0.101711 0)
(0.0102489 -0.119867 0)
(0.0215112 -0.125241 0)
(0.0302042 -0.120883 0)
(0.0364924 -0.108799 0)
(0.0410324 -0.0909296 0)
(0.0446736 -0.069072 0)
(0.0490952 -0.0446699 0)
(0.0574944 -0.0213086 0)
(0.069811 -0.00880328 0)
(0.0801657 -0.0165233 0)
(0.0793815 -0.0281574 0)
(0.0720656 -0.0311316 0)
(0.0639563 -0.0295925 0)
(0.0572974 -0.0261154 0)
(0.0521484 -0.0203835 0)
(0.0507553 -0.0113352 0)
(0.0532238 -0.00637177 0)
(0.0562507 -0.00446466 0)
(0.058948 -0.00344996 0)
(0.0614814 -0.00196044 0)
(0.0636449 0.000862338 0)
(0.0645528 0.00532695 0)
(0.0631645 0.0116433 0)
(0.0590004 0.0203187 0)
(0.0531638 0.0344953 0)
(0.0448622 0.0504461 0)
(0.0657202 0.0687421 0)
(0.000816863 0.0962269 0)
(0.0551993 0.13304 0)
(-0.0727148 0.059791 0)
(-0.263688 -0.004868 0)
(0.703184 0.426242 0)
(-0.275789 0.187285 0)
(-0.00877258 0.114356 0)
(-0.00872674 0.0837444 0)
(0.00194391 0.0484751 0)
(0.0246118 0.00191764 0)
(0.0511082 -0.0476678 0)
(0.068753 -0.0868078 0)
(0.0794967 -0.113267 0)
(0.0840457 -0.127124 0)
(0.0836562 -0.129531 0)
(0.0798857 -0.122663 0)
(0.0740021 -0.108831 0)
(0.0673794 -0.0902778 0)
(0.0613923 -0.068996 0)
(0.0574739 -0.0468597 0)
(0.0572646 -0.0271157 0)
(0.0603656 -0.0154491 0)
(0.061949 -0.0153881 0)
(0.0583599 -0.0196125 0)
(0.051087 -0.0220923 0)
(0.0431076 -0.0218569 0)
(0.0362784 -0.0197955 0)
(0.0312556 -0.0161189 0)
(0.0290406 -0.0112632 0)
(0.0296792 -0.00854335 0)
(0.0317578 -0.00769058 0)
(0.0345583 -0.00724251 0)
(0.0379221 -0.00597281 0)
(0.041643 -0.00281863 0)
(0.0457033 0.00305571 0)
(0.0485109 0.0114419 0)
(0.0501633 0.0221145 0)
(0.0518443 0.0357178 0)
(0.0524508 0.0511753 0)
(0.0716382 0.0703217 0)
(0.0623238 0.0833095 0)
(0.0940524 0.089037 0)
(0.110762 0.0544468 0)
(-0.127571 -0.0224205 0)
(0.758321 0.466767 0)
(-0.291902 0.172157 0)
(0.0225575 0.0577934 0)
(0.059955 0.047346 0)
(0.0904044 0.0212951 0)
(0.131061 -0.0261867 0)
(0.156445 -0.06805 0)
(0.168173 -0.0980119 0)
(0.168163 -0.115968 0)
(0.158904 -0.122988 0)
(0.14327 -0.120566 0)
(0.124046 -0.110749 0)
(0.103616 -0.0957961 0)
(0.0839975 -0.0778363 0)
(0.0668099 -0.0585722 0)
(0.053219 -0.039558 0)
(0.0440904 -0.0234766 0)
(0.0388682 -0.0136777 0)
(0.0347393 -0.0114603 0)
(0.0292278 -0.0130725 0)
(0.022356 -0.0147434 0)
(0.0153822 -0.0150607 0)
(0.00937477 -0.0142239 0)
(0.00497789 -0.0125361 0)
(0.00284259 -0.0105619 0)
(0.0029483 -0.00977557 0)
(0.00446648 -0.0100709 0)
(0.00687336 -0.0105075 0)
(0.0100975 -0.0100973 0)
(0.0142685 -0.00777314 0)
(0.0198387 -0.00226896 0)
(0.0273422 0.00688301 0)
(0.0341918 0.0177328 0)
(0.042021 0.0298935 0)
(0.0504873 0.0426544 0)
(0.0688337 0.0577006 0)
(0.0823572 0.0637642 0)
(0.111699 0.0585775 0)
(0.152515 0.0494939 0)
(-0.0246388 0.0908571 0)
(0.864757 0.466095 0)
(-0.0546033 0.148446 0)
(0.118425 -0.0386859 0)
(0.216718 -0.0700934 0)
(0.259485 -0.0774029 0)
(0.279316 -0.0877284 0)
(0.284611 -0.0982057 0)
(0.275249 -0.104901 0)
(0.253024 -0.106525 0)
(0.221682 -0.102962 0)
(0.185429 -0.094719 0)
(0.147951 -0.0827471 0)
(0.112122 -0.0683738 0)
(0.0799824 -0.0529932 0)
(0.052821 -0.0376418 0)
(0.0313468 -0.0232431 0)
(0.0164383 -0.0121645 0)
(0.00715063 -0.00628802 0)
(0.0010576 -0.00531559 0)
(-0.00444664 -0.00681799 0)
(-0.0100903 -0.00844655 0)
(-0.0155626 -0.00936295 0)
(-0.0203127 -0.00968706 0)
(-0.0238875 -0.00971637 0)
(-0.0259641 -0.00986505 0)
(-0.0267118 -0.0106399 0)
(-0.0266803 -0.0119089 0)
(-0.0262213 -0.0131865 0)
(-0.0253354 -0.0139154 0)
(-0.0237212 -0.013482 0)
(-0.0206705 -0.0111654 0)
(-0.0141067 -0.00611198 0)
(-0.00261119 0.00181049 0)
(0.00832911 0.0104456 0)
(0.0198715 0.0167769 0)
(0.0363366 0.0225924 0)
(0.0520572 0.0180279 0)
(0.0751741 0.00340167 0)
(0.137761 0.0439195 0)
(-0.392741 0.197542 0)
(1.01492 0.417252 0)
(0.475872 0.272879 0)
(0.500482 0.169107 0)
(0.538144 0.0932136 0)
(0.519324 0.0415379 0)
(0.472706 0.00232847 0)
(0.419045 -0.0255773 0)
(0.36073 -0.0425705 0)
(0.298684 -0.0501084 0)
(0.236223 -0.0503545 0)
(0.177109 -0.0456126 0)
(0.123995 -0.037698 0)
(0.0784882 -0.0281796 0)
(0.0409479 -0.0183742 0)
(0.0108044 -0.00925784 0)
(-0.0118374 -0.00215673 0)
(-0.0238285 0.000800906 0)
(-0.0306507 0.00120651 0)
(-0.0348993 -7.17818e-06 0)
(-0.038638 -0.00185286 0)
(-0.0426787 -0.00355214 0)
(-0.0467896 -0.00490402 0)
(-0.0506778 -0.00602194 0)
(-0.0540834 -0.00707797 0)
(-0.0569317 -0.00823685 0)
(-0.0594845 -0.00959454 0)
(-0.0622191 -0.0109865 0)
(-0.065578 -0.0120725 0)
(-0.0699409 -0.0123406 0)
(-0.0757451 -0.0110751 0)
(-0.0835401 -0.00738545 0)
(-0.0938957 -0.000323839 0)
(-0.105522 0.0100592 0)
(-0.119224 0.0233796 0)
(-0.141292 0.0397602 0)
(-0.174281 0.0587149 0)
(-0.21974 0.0772388 0)
(-0.269867 0.0923652 0)
(-0.338945 0.102534 0)
(-0.604419 0.107168 0)
(-0.24038 -0.0953874 0)
(0.0903416 -0.0788843 0)
(0.161554 -0.0660576 0)
(0.151526 -0.0462455 0)
(0.136254 -0.0280386 0)
(0.114309 -0.0142108 0)
(0.0855983 -0.00451447 0)
(0.0543659 0.00181035 0)
(0.0241207 0.00563623 0)
(-0.00410781 0.00814768 0)
(-0.026449 0.0097826 0)
(-0.0426975 0.0108506 0)
(-0.0533142 0.0110754 0)
(-0.0596363 0.010332 0)
(-0.063317 0.00902145 0)
(-0.0659405 0.00784426 0)
(-0.0683051 0.006873 0)
(-0.0708815 0.00620932 0)
(-0.0736863 0.00586448 0)
(-0.0767565 0.00570189 0)
(-0.0800071 0.00538581 0)
(-0.0833478 0.00482065 0)
(-0.0868218 0.00402863 0)
(-0.0906046 0.00312415 0)
(-0.0948979 0.00236626 0)
(-0.0998042 0.00208041 0)
(-0.10529 0.00265846 0)
(-0.111236 0.00449443 0)
(-0.117287 0.0078831 0)
(-0.122426 0.0138607 0)
(-0.126714 0.0235884 0)
(-0.13029 0.0376815 0)
(-0.13401 0.0554191 0)
(-0.138309 0.073901 0)
(-0.13984 0.0848081 0)
(-0.124265 0.0680244 0)
(-0.0925337 -0.0173694 0)
(-0.269254 -0.192299 0)
(0.0467585 0.142041 0)
(0.0143248 0.0345851 0)
(-0.028337 -0.0042815 0)
(-0.0549478 0.00103084 0)
(-0.0708948 0.00859884 0)
(-0.0794734 0.012178 0)
(-0.0853643 0.0137224 0)
(-0.0900596 0.0137833 0)
(-0.0933314 0.0122332 0)
(-0.095386 0.00917737 0)
(-0.0961069 0.00503853 0)
(-0.0956576 0.000676587 0)
(-0.094299 -0.00356249 0)
(-0.0925983 -0.00783978 0)
(-0.0912208 -0.0123193 0)
(-0.0905354 -0.0168305 0)
(-0.0906251 -0.0213849 0)
(-0.0914576 -0.0258981 0)
(-0.092888 -0.0301407 0)
(-0.0947552 -0.0338498 0)
(-0.0969676 -0.0367722 0)
(-0.0995953 -0.0388574 0)
(-0.102637 -0.0400016 0)
(-0.105991 -0.0400372 0)
(-0.109447 -0.0387592 0)
(-0.112749 -0.036273 0)
(-0.115528 -0.0323639 0)
(-0.117277 -0.0264166 0)
(-0.117522 -0.0181079 0)
(-0.115602 -0.00761686 0)
(-0.110216 0.00563505 0)
(-0.100016 0.0222197 0)
(-0.084335 0.0417584 0)
(-0.0636085 0.0610836 0)
(-0.040031 0.0741152 0)
(-0.00426411 0.0638743 0)
(0.143508 -0.00702565 0)
(-0.202332 -0.104464 0)
(0.0731544 -0.259167 0)
(-0.357393 -0.123925 0)
(-0.276373 0.0214032 0)
(-0.259068 -0.0184577 0)
(-0.239081 -0.0126571 0)
(-0.233371 -0.00134602 0)
(-0.226333 0.00765961 0)
(-0.216545 0.014953 0)
(-0.204297 0.0216693 0)
(-0.190347 0.0281181 0)
(-0.175713 0.0344505 0)
(-0.161521 0.0408492 0)
(-0.148644 0.0473984 0)
(-0.137486 0.0540832 0)
(-0.12806 0.060737 0)
(-0.120235 0.067348 0)
(-0.113826 0.074086 0)
(-0.108587 0.0810196 0)
(-0.104302 0.0879946 0)
(-0.100835 0.0946861 0)
(-0.0980926 0.100673 0)
(-0.0960006 0.105559 0)
(-0.0944885 0.109045 0)
(-0.093518 0.111036 0)
(-0.0930884 0.111391 0)
(-0.0932001 0.109906 0)
(-0.0938111 0.106434 0)
(-0.0947501 0.1015 0)
(-0.095713 0.0954035 0)
(-0.0961443 0.0881703 0)
(-0.0948626 0.0808048 0)
(-0.0900003 0.0748273 0)
(-0.0792142 0.0713642 0)
(-0.0605207 0.0715256 0)
(-0.0338328 0.0759756 0)
(0.00712214 0.0839338 0)
(0.0493709 0.0861508 0)
(0.0886873 0.0751366 0)
(0.159462 0.0509789 0)
(-0.244457 0.00410679 0)
)
;

boundaryField
{
    floor
    {
        type            noSlip;
    }
    ceiling
    {
        type            noSlip;
    }
    sWall
    {
        type            noSlip;
    }
    nWall
    {
        type            noSlip;
    }
    sideWalls
    {
        type            empty;
    }
    glass1
    {
        type            noSlip;
    }
    glass2
    {
        type            noSlip;
    }
    sun
    {
        type            noSlip;
    }
    Table_master
    {
        type            noSlip;
    }
    Table_slave
    {
        type            noSlip;
    }
    inlet
    {
        type            fixedValue;
        value           uniform (0.212132 -0.212132 0);
    }
    outlet
    {
        type            zeroGradient;
    }
}


// ************************************************************************* //
