/*--------------------------------*- C++ -*----------------------------------*=========                 |
  \      /  F ield         | OpenFOAM: The Open Source CFD Toolbox
   \    /   O peration     | Website:  https://openfoam.org
    \  /    A nd           | Version:  6
     \/     M anipulation  |
\*---------------------------------------------------------------------------*/
FoamFile
{
    version     2.0;
    format      ascii;
    class       volScalarField;
    location    "1000";
    object      PPD;
}
// * * * * * * * * * * * * * * * * * * * * * * * * * * * * * * * * * * * * * //

dimensions      [0 0 0 0 0 0 0];

internalField   nonuniform List<scalar> 
458
(
70.56053173739895
61.63943403293731
62.16964225611136
61.40130456970496
60.759767498490135
60.199134495817425
59.78481842685853
59.49489235505452
59.36711949150065
59.39705745080547
59.64659813870876
60.15542028335241
61.08786062618482
61.93659392853039
60.97563061038136
59.820905966514445
59.6399448961931
59.6399448961931
59.61408372105018
59.53648604787078
59.484742586298104
59.38122802967737
59.19999073894115
58.88905081520533
58.34420485897216
57.590496729096714
56.627066206588125
55.5838423451244
54.617899183157114
53.78217864095605
53.18153538426271
52.84210946206301
52.97264987546841
71.29665992187807
61.65279617372735
63.18363509871673
62.28952400973378
61.76330655112688
61.39669590564455
61.12167833640318
60.931850877720194
60.82983127501044
60.800859839575764
60.86551435468629
60.944690927776506
60.955758162478915
60.65457358548468
59.934512033387335
60.78815581684774
62.27720794247383
64.14449158213046
56.43991191692767
59.510615477673504
59.58822018059452
59.56235428585701
59.35534369791218
59.04455898379555
58.811268820360894
58.55186565955683
58.18838230259594
57.694537809962334
57.09598458203145
56.444609302138794
55.76650287140599
55.06178867080902
54.40898049277067
53.78217864095605
53.233760239519356
48.60299567519131
75.05818311576596
61.5305907399756
64.68623697970148
63.812245641014854
63.6647543140735
63.61890682124357
63.6412678854018
63.66606015832309
63.68978903738961
63.66309637785948
63.62072262795662
63.33659924286113
62.691411956157395
61.53707562785917
60.08267106644907
58.90526103675094
57.63083855097026
56.12039342481382
59.872587212693595
59.71710885205091
59.702361572121944
58.866737859503594
58.40549117334565
58.70753121864415
58.37016896201422
58.08446527450304
57.72054423325624
57.35631727979145
56.96576890387017
56.57494099805111
56.13171144814406
55.68822400937691
55.505549091435725
55.009572048484394
54.095582990573746
45.20355034659125
79.26516191030429
62.049320358667586
66.0644127482407
65.41099713993407
65.78116898432972
66.20797760238321
66.63032830996838
67.04091726179931
67.33026849994746
67.49808937668095
67.48555616196934
67.10773207649237
66.17637081846442
64.62756211876267
62.55476621576793
60.090257584329024
57.24903960343285
54.4487257520693
53.24447257943524
54.94225583914895
55.794466888454416
56.58586666828319
56.00223231028655
55.224273235559615
55.74677538913035
57.56291624587537
59.40711009543295
59.277677216882424
59.174090854019326
58.86049731825475
56.653567569191104
55.019726943265724
53.98400756686057
53.59562220090104
53.78335527809887
53.3412648128974
56.07648301909994
83.17635833530726
63.27179216842811
67.07289536649074
66.7829182640769
67.68910360071987
68.60266792035893
69.53928355544333
70.41382225748583
71.13683923487126
71.6019050389046
71.79295218400839
71.57808194428803
70.8621045670995
69.52655752575613
67.61912804210515
65.13974945248694
62.269563660968885
59.55141413467275
57.88942617813684
57.484418593704646
58.083436330362375
58.24348785877463
57.68260227685683
57.12241416515407
57.24621401406346
57.8991998397615
58.80801825820925
59.74422692012817
59.61408372105018
59.53648604787078
58.35590881691655
56.91235881080432
55.7091122651022
54.6545217587623
53.89344383657002
52.49881209270891
52.4873649324839
50.163575322044025
48.99364208514583
48.38295801466241
86.35077051727075
65.21856592913296
68.25663278862335
67.88734518748987
69.13573359642152
70.49741521591484
71.89984452341882
73.22311884918308
74.40820156825474
75.32540178764484
75.7749391464269
75.69734632058058
75.1919628677215
74.25538005311304
72.95586963308884
71.2083980992448
69.06976357617259
66.85850688075809
65.02970411345592
63.82608374574616
63.0665655463398
62.120061625208464
60.902208010111565
59.7593026007058
58.96712596986597
58.474546441279784
58.14295887237465
58.043582180535644
58.17884071349984
58.510286123805855
58.59743014431321
58.33921116336954
57.82134723259325
56.70253928548272
55.06708654694717
53.34053092917343
52.513081679400145
52.75501658509513
51.848410304344455
48.951248577733885
88.59118019576132
69.17169979920249
72.48989873838785
69.65137888053007
70.28649586263671
71.97241227915413
73.78708629562368
75.72098117724315
76.80800124105869
77.703715690788
78.47868963077326
78.83613969729953
78.12218788090223
77.49107015167932
76.78096164462104
75.90726806576333
74.87662411748963
73.76521269359125
72.67728856289631
71.52399020078714
70.09597940485989
68.20722842992936
66.02780257032352
63.88384428946207
61.89405721542487
60.080872161313884
58.52107119293913
57.42225502954566
56.97608252729179
57.14953477991034
57.65748269847781
58.31726021126126
59.247749904685925
59.76921490599144
58.231134233417706
55.66836712133106
54.222099733172804
53.63505891195416
50.63287874658152
48.570876508003636
91.92440700477034
82.08618309853868
81.5318261208584
76.36062718574226
74.65989159713331
75.01902237265178
76.02753344442226
76.67868096167365
77.34318901902095
77.35605639863878
77.43619344244823
77.5429492524145
77.55333675465018
77.52677429770222
77.44688986037033
77.37806365765456
77.31987710484509
77.29179305917916
76.54902516309838
75.38941767031595
74.02403875607878
72.3958072711886
70.60982888722054
68.80760945481447
66.56401594183939
63.22728281948876
60.25122551536216
57.946457194357144
56.72549726472202
56.4574418874476
56.81938964960505
57.28488092425947
57.86849392190604
58.90687101698486
59.92425855625589
59.12228456196022
58.75940402206993
58.47400690446282
51.65064628537116
45.691422084028694
95.38129545623674
92.36298078161745
89.3887953432898
85.36846352403532
81.59672663015174
78.96881448449746
77.36384617685096
76.47386544414425
76.10529418028447
76.00452401051813
75.9641378071468
75.92570650827098
75.94040080644807
75.96139726649503
76.02535965036964
76.11537602471589
76.22891483127995
76.34345640955326
76.33656903905428
76.14493928685395
75.75024030139176
75.16544031428492
74.09193135009764
72.51178462192881
70.5146706008199
67.85623461349722
63.95089795619541
60.00725806392529
57.57457106657218
56.568974793799505
56.592946306184416
56.46738672873369
55.90928947384359
54.956624392264686
53.75453760292964
52.70343160240158
51.80228456537381
51.03098916121619
50.13201438327741
47.95670947085686
35.34820931762948
58.71300534666749
69.73602230780077
73.3869264389635
74.39822590716878
74.57084172265228
74.53359871506638
74.43708434175036
74.40256760080692
74.33655674574868
74.3100362921166
74.31973416564149
74.38233543856806
74.5097221754647
74.6366914295558
74.76246349431477
74.85592155765639
74.84509831542863
74.68446310948374
74.40823871247628
73.96687223766173
73.38141774211081
72.69132201453534
71.57861824410034
68.71046184823913
64.23245778902739
60.086727400984614
57.92761313327913
57.705967363686106
57.50966483602978
56.775803199635675
56.03654332725538
55.49772930516255
54.94682477549567
54.74434008222583
55.34438991324471
57.33354690729617
53.719754671468095
33.8004615678704
59.55757775348651
67.94610521216875
71.17388268905262
72.19837389834822
72.39604485055429
72.37564385524222
72.3112075565711
72.27725253099447
72.307971330393
72.40850322585851
72.55988081201897
72.74210956791896
72.95719739474276
73.15496374163445
73.33290199703565
73.46519732662564
73.5112605586855
73.47062820293802
73.31346113424027
73.07450229152336
72.70777717167604
72.15532009997426
71.37785344220956
70.31636010099986
68.79318267262175
64.955478383534
60.58784556920026
59.711700661722276
60.18694650858158
59.57704868993213
59.19790242309211
59.06475817333842
59.0127659379938
59.16623170411038
60.79682197232105
56.39671179093918
61.08484991007787
45.24236155641546
42.490739835156866
43.96200750636912
62.36205245198796
70.68486022880396
72.6771428103316
71.98362840180302
71.28730994018687
70.86985744760025
70.66010602539704
70.63650994349679
70.74386299717443
70.9616782704435
71.23048299891127
71.54494663033886
71.82201254847931
72.07651552054482
72.24777860932407
72.30712734624696
72.24287715535148
72.06426262615472
71.77268331146958
71.45509812272104
71.0785861168913
70.62907812619973
70.11500358726647
69.50817702646472
68.76233933717263
67.68723849103537
63.818880041754795
58.13784903980193
58.86973790281396
59.522454426784215
60.73424629361117
61.263948598258324
61.46935651406749
61.75146113903836
58.438206591500844
56.429069754855085
50.419975178433326
)
;

boundaryField
{
    ".*"
    {
        type            zeroGradient;
    }
}


// ************************************************************************* //
