/*--------------------------------*- C++ -*----------------------------------*\
  =========                 |
  \\      /  F ield         | OpenFOAM: The Open Source CFD Toolbox
   \\    /   O peration     | Website:  https://openfoam.org
    \\  /    A nd           | Version:  6
     \\/     M anipulation  |
\*---------------------------------------------------------------------------*/
FoamFile
{
    version     2.0;
    format      ascii;
    class       volVectorField;
    location    "1900";
    object      U;
}
// * * * * * * * * * * * * * * * * * * * * * * * * * * * * * * * * * * * * * //

dimensions      [0 1 -1 0 0 0 0];

internalField   nonuniform List<vector> 
458
(
(0.0453767 0.0794097 0)
(-0.154475 0.020351 0)
(-0.170921 0.0158263 0)
(-0.19869 0.0122445 0)
(-0.221085 0.00803923 0)
(-0.237653 0.00358166 0)
(-0.247659 -0.00122995 0)
(-0.249979 -0.00656253 0)
(-0.243259 -0.0125861 0)
(-0.227155 -0.0192347 0)
(-0.201649 -0.0259217 0)
(-0.167518 -0.0322594 0)
(-0.126468 -0.0387483 0)
(-0.08532 -0.0472371 0)
(-0.0664581 -0.0581391 0)
(0.0115219 0.00895543 0)
(-0.0068564 -0.0182297 0)
(0.0174986 -0.021708 0)
(0.034019 -0.015571 0)
(0.0476354 -0.010124 0)
(0.0559767 -0.00588046 0)
(0.0598772 -0.00368745 0)
(0.0612644 -0.00281446 0)
(0.0617145 -0.00243551 0)
(0.0618511 -0.00219819 0)
(0.0617336 -0.00198498 0)
(0.0612719 -0.00171361 0)
(0.0602547 -0.00121659 0)
(0.0581291 -0.000118143 0)
(0.0537431 0.00210897 0)
(0.0458162 0.00464097 0)
(0.0370244 0.00675866 0)
(-0.00826995 0.0179721 0)
(0.221901 0.164013 0)
(-0.150159 0.0550541 0)
(-0.138844 0.045919 0)
(-0.167991 0.0385762 0)
(-0.189891 0.0302648 0)
(-0.206248 0.0212337 0)
(-0.216577 0.0110577 0)
(-0.219808 -0.000733486 0)
(-0.214374 -0.0142475 0)
(-0.200461 -0.0283374 0)
(-0.178559 -0.041108 0)
(-0.150509 -0.0509079 0)
(-0.11944 -0.0572268 0)
(-0.0912168 -0.0603498 0)
(-0.0734709 -0.0555546 0)
(-0.0542071 -0.0204356 0)
(-0.025052 0.00836813 0)
(-0.0584327 0.0217176 0)
(0.064723 0.00716532 0)
(0.0360382 -0.0220553 0)
(0.0413942 -0.0263655 0)
(0.0517956 -0.0203669 0)
(0.0595266 -0.0128728 0)
(0.0630018 -0.004816 0)
(0.0633945 -0.00024928 0)
(0.0630604 0.0015976 0)
(0.0630141 0.00239415 0)
(0.0631586 0.00289874 0)
(0.0632479 0.00329409 0)
(0.0632199 0.00375801 0)
(0.0630429 0.00464594 0)
(0.0622136 0.00681635 0)
(0.0584459 0.0127619 0)
(0.0490382 0.0179625 0)
(0.0413761 0.0215756 0)
(-0.035429 0.0394182 0)
(0.382129 0.246165 0)
(-0.173979 0.0899735 0)
(-0.104603 0.0749005 0)
(-0.133651 0.0605759 0)
(-0.152459 0.0466036 0)
(-0.16703 0.0319101 0)
(-0.176858 0.0154044 0)
(-0.18047 -0.00368406 0)
(-0.175365 -0.0251762 0)
(-0.16219 -0.0471735 0)
(-0.14197 -0.0663187 0)
(-0.117174 -0.0798596 0)
(-0.0909668 -0.0866306 0)
(-0.0670387 -0.0862574 0)
(-0.0473502 -0.0762692 0)
(-0.0273989 -0.0515918 0)
(-0.00718331 -0.0307613 0)
(-0.0249799 -0.0171265 0)
(0.0858336 -0.0522569 0)
(0.0563011 -0.0453821 0)
(0.056055 -0.0364644 0)
(0.0611323 -0.027369 0)
(0.0649527 -0.0199631 0)
(0.0656851 -0.0150932 0)
(0.0612886 -0.0105062 0)
(0.0580228 -0.00810164 0)
(0.0569139 -0.00677446 0)
(0.0568086 -0.0059256 0)
(0.0570403 -0.0052866 0)
(0.0575889 -0.00466037 0)
(0.0589275 -0.00368579 0)
(0.0622531 -0.000433615 0)
(0.0612298 0.0166095 0)
(0.0497969 0.0288665 0)
(0.0468503 0.0379095 0)
(-0.0583403 0.0633679 0)
(0.523159 0.312617 0)
(-0.213317 0.122496 0)
(-0.0677778 0.0991558 0)
(-0.0967827 0.0787315 0)
(-0.109816 0.0611946 0)
(-0.120379 0.0429575 0)
(-0.128299 0.0217492 0)
(-0.131275 -0.00399058 0)
(-0.125307 -0.0336816 0)
(-0.112114 -0.0634626 0)
(-0.0937041 -0.0881805 0)
(-0.0728401 -0.104336 0)
(-0.0520872 -0.110712 0)
(-0.0333883 -0.107144 0)
(-0.0172871 -0.0934631 0)
(-0.00050341 -0.0698825 0)
(0.018925 -0.0462748 0)
(0.0373865 -0.0301309 0)
(0.0672715 -0.0143663 0)
(0.076486 -0.0410234 0)
(0.0645718 -0.0408498 0)
(0.0589307 -0.0335827 0)
(0.0578613 -0.0262332 0)
(0.0573428 -0.0183948 0)
(0.0601223 -0.0117857 0)
(0.0673637 -0.00885752 0)
(0.0736446 -0.00721456 0)
(0.0782048 -0.00606991 0)
(0.0814319 -0.00490343 0)
(0.0830828 -0.00341217 0)
(0.0819125 -0.00131033 0)
(0.0767401 0.00168779 0)
(0.0654105 0.00609058 0)
(0.0541917 0.0254693 0)
(0.0444243 0.042154 0)
(0.0516009 0.056602 0)
(-0.0738681 0.0873998 0)
(0.640841 0.364988 0)
(-0.256234 0.150821 0)
(-0.0314424 0.11236 0)
(-0.0578668 0.0889042 0)
(-0.0633626 0.0697133 0)
(-0.0676333 0.0497354 0)
(-0.0716301 0.0257545 0)
(-0.0715036 -0.00519043 0)
(-0.0625559 -0.0424706 0)
(-0.0490975 -0.0785927 0)
(-0.0339021 -0.106565 0)
(-0.0190549 -0.123179 0)
(-0.00599493 -0.12809 0)
(0.00495385 -0.121857 0)
(0.0138127 -0.106527 0)
(0.0229269 -0.0849719 0)
(0.0338061 -0.0629116 0)
(0.0451241 -0.0461221 0)
(0.0555609 -0.0376145 0)
(0.0581793 -0.041112 0)
(0.0531544 -0.0376547 0)
(0.0476469 -0.0310523 0)
(0.044682 -0.0246017 0)
(0.0438049 -0.0181761 0)
(0.0459053 -0.0112462 0)
(0.0505589 -0.00768192 0)
(0.0552857 -0.00619191 0)
(0.0595063 -0.00504693 0)
(0.0631754 -0.00319965 0)
(0.0659147 2.86237e-05 0)
(0.0669317 0.00475143 0)
(0.0652365 0.0109853 0)
(0.0604973 0.019286 0)
(0.0544026 0.0340359 0)
(0.0472099 0.0514787 0)
(0.0629004 0.071054 0)
(0.0112631 0.0974921 0)
(0.0509393 0.118268 0)
(-0.0708969 0.0407934 0)
(-0.255246 -0.015217 0)
(0.721284 0.409739 0)
(-0.293908 0.171411 0)
(-0.00547317 0.106755 0)
(-0.0166624 0.0896109 0)
(-0.0133465 0.0729131 0)
(-0.010466 0.0524108 0)
(-0.00929993 0.0271646 0)
(-0.000745363 -0.00865519 0)
(0.0131443 -0.0534238 0)
(0.0252334 -0.0920744 0)
(0.0345182 -0.119106 0)
(0.0406392 -0.133222 0)
(0.0435818 -0.135297 0)
(0.0439922 -0.127124 0)
(0.0430693 -0.111146 0)
(0.0422896 -0.0904002 0)
(0.042687 -0.069094 0)
(0.0437469 -0.0514609 0)
(0.0440217 -0.0400804 0)
(0.0410775 -0.0355812 0)
(0.0351227 -0.0316124 0)
(0.0292547 -0.0267752 0)
(0.0256261 -0.0221809 0)
(0.0244796 -0.0179282 0)
(0.0258778 -0.0140723 0)
(0.0292046 -0.0121324 0)
(0.0332091 -0.0112377 0)
(0.0373643 -0.0101604 0)
(0.0415292 -0.00798319 0)
(0.0455035 -0.00386487 0)
(0.0492741 0.00276878 0)
(0.0511783 0.0114104 0)
(0.0515746 0.0218959 0)
(0.0520373 0.0356765 0)
(0.0523262 0.0522247 0)
(0.0688975 0.0723086 0)
(0.0625137 0.0873248 0)
(0.0894807 0.0889569 0)
(0.107452 0.0538808 0)
(-0.127903 -0.0215764 0)
(0.761639 0.450533 0)
(-0.309835 0.15902 0)
(0.0169623 0.0553553 0)
(0.0400449 0.0698072 0)
(0.0500786 0.0702617 0)
(0.0574588 0.0506466 0)
(0.0654056 0.0202027 0)
(0.0841105 -0.0216837 0)
(0.098642 -0.065024 0)
(0.10598 -0.0999442 0)
(0.106443 -0.122502 0)
(0.10123 -0.132462 0)
(0.0917897 -0.131266 0)
(0.0797876 -0.121091 0)
(0.0669888 -0.104557 0)
(0.0548413 -0.0844627 0)
(0.0443333 -0.064229 0)
(0.0354289 -0.0470055 0)
(0.027676 -0.0351086 0)
(0.0199729 -0.0286941 0)
(0.0125192 -0.0249807 0)
(0.00645226 -0.022042 0)
(0.00269107 -0.0197394 0)
(0.00126098 -0.0179187 0)
(0.00192336 -0.0164631 0)
(0.00404554 -0.015737 0)
(0.0068461 -0.0152911 0)
(0.00999839 -0.0144653 0)
(0.0135355 -0.0125656 0)
(0.0176331 -0.00867025 0)
(0.0229147 -0.00166193 0)
(0.0294047 0.00815541 0)
(0.0347451 0.0190271 0)
(0.0410896 0.0312686 0)
(0.0485974 0.0447492 0)
(0.0657956 0.0606131 0)
(0.0793969 0.0686884 0)
(0.10636 0.0628521 0)
(0.14624 0.0501027 0)
(-0.0331512 0.0872859 0)
(0.86157 0.456775 0)
(-0.0814852 0.138531 0)
(0.101093 -0.0292939 0)
(0.166526 -0.0143876 0)
(0.168422 0.00933774 0)
(0.166143 0.00198925 0)
(0.173815 -0.0252832 0)
(0.191319 -0.0544484 0)
(0.197655 -0.0812422 0)
(0.191826 -0.10206 0)
(0.176581 -0.114483 0)
(0.154945 -0.117918 0)
(0.129703 -0.113087 0)
(0.103324 -0.101615 0)
(0.0778999 -0.0856348 0)
(0.0547103 -0.0672326 0)
(0.0347348 -0.0492711 0)
(0.0179978 -0.0342258 0)
(0.00505909 -0.0243629 0)
(-0.00543671 -0.0195296 0)
(-0.0130487 -0.0179784 0)
(-0.0186621 -0.0175077 0)
(-0.0223368 -0.0175198 0)
(-0.0243867 -0.0176871 0)
(-0.0251539 -0.0178411 0)
(-0.0250794 -0.0179984 0)
(-0.0245976 -0.0180326 0)
(-0.0239067 -0.0177117 0)
(-0.0229352 -0.0166915 0)
(-0.0213399 -0.0144611 0)
(-0.0182468 -0.0103441 0)
(-0.0105579 -0.00350887 0)
(-0.000729739 0.00549325 0)
(0.00938062 0.0141334 0)
(0.0208424 0.0208131 0)
(0.0380756 0.0270105 0)
(0.0557698 0.0233292 0)
(0.0791849 0.0073882 0)
(0.142139 0.0406385 0)
(-0.3701 0.185719 0)
(1.00046 0.41945 0)
(0.472138 0.276578 0)
(0.493768 0.180393 0)
(0.513599 0.140152 0)
(0.46795 0.111744 0)
(0.418108 0.0775757 0)
(0.386225 0.0396455 0)
(0.353697 -0.000264524 0)
(0.313571 -0.0352686 0)
(0.269685 -0.0609307 0)
(0.224731 -0.0758195 0)
(0.180448 -0.0807578 0)
(0.138168 -0.0774974 0)
(0.0990897 -0.0682824 0)
(0.0643229 -0.0554373 0)
(0.0340118 -0.0406001 0)
(0.00934225 -0.0266426 0)
(-0.0106212 -0.0157517 0)
(-0.0230078 -0.0110708 0)
(-0.0319881 -0.00994251 0)
(-0.0386899 -0.0105931 0)
(-0.0439852 -0.0117555 0)
(-0.0482447 -0.012998 0)
(-0.0517374 -0.0141108 0)
(-0.054693 -0.0150027 0)
(-0.0573911 -0.0156562 0)
(-0.0601769 -0.0160077 0)
(-0.0634234 -0.015899 0)
(-0.0675307 -0.0149723 0)
(-0.0729134 -0.0125567 0)
(-0.0798893 -0.00773637 0)
(-0.088574 0.000330846 0)
(-0.0971555 0.0109023 0)
(-0.10856 0.0236341 0)
(-0.127556 0.0390632 0)
(-0.156701 0.0572889 0)
(-0.198191 0.0759338 0)
(-0.246378 0.0924236 0)
(-0.31561 0.104932 0)
(-0.57593 0.111547 0)
(-0.421275 -0.0600971 0)
(0.156672 0.0431799 0)
(0.245739 0.0588996 0)
(0.241962 0.0498527 0)
(0.232769 0.0279871 0)
(0.218338 0.00278347 0)
(0.201848 -0.0179045 0)
(0.177176 -0.0318121 0)
(0.147059 -0.0395503 0)
(0.113655 -0.0418466 0)
(0.0790146 -0.0390979 0)
(0.0455755 -0.0323405 0)
(0.0153175 -0.0228847 0)
(-0.0125338 -0.0109964 0)
(-0.030751 -0.00244002 0)
(-0.0428483 0.0023179 0)
(-0.0505159 0.00352159 0)
(-0.0562305 0.00284867 0)
(-0.0612329 0.00148243 0)
(-0.0662181 0.000204914 0)
(-0.0713768 -0.000690386 0)
(-0.0766884 -0.00100536 0)
(-0.0820965 -0.00065254 0)
(-0.0875575 0.000400765 0)
(-0.0930632 0.00215979 0)
(-0.098638 0.00456254 0)
(-0.104346 0.00745825 0)
(-0.110285 0.0106444 0)
(-0.116321 0.0138444 0)
(-0.12121 0.0185499 0)
(-0.124846 0.0267185 0)
(-0.127577 0.0390416 0)
(-0.130014 0.0551416 0)
(-0.132491 0.072913 0)
(-0.132276 0.0849898 0)
(-0.117328 0.0722703 0)
(-0.0902369 -0.004825 0)
(-0.253725 -0.179405 0)
(-0.0906942 0.150137 0)
(0.0845601 0.0640344 0)
(0.0360335 0.0340234 0)
(0.047323 0.0403579 0)
(0.0603752 0.030605 0)
(0.0643955 0.0108955 0)
(0.0620163 -0.0069058 0)
(0.0535071 -0.0183 0)
(0.0373771 -0.0243853 0)
(0.0170139 -0.0265346 0)
(-0.00601501 -0.0260138 0)
(-0.0264861 -0.0250172 0)
(-0.0428337 -0.0253419 0)
(-0.0540799 -0.0284035 0)
(-0.0603705 -0.0339297 0)
(-0.0639747 -0.0399121 0)
(-0.0663987 -0.0453597 0)
(-0.06884 -0.0496015 0)
(-0.0718997 -0.0526239 0)
(-0.0757803 -0.0549982 0)
(-0.0805455 -0.0575786 0)
(-0.0862203 -0.0603798 0)
(-0.0927072 -0.0631864 0)
(-0.0997679 -0.0655785 0)
(-0.106994 -0.066934 0)
(-0.113786 -0.0664579 0)
(-0.119376 -0.0632033 0)
(-0.122965 -0.056034 0)
(-0.124087 -0.0446456 0)
(-0.122502 -0.030238 0)
(-0.117251 -0.0132484 0)
(-0.107041 0.00635456 0)
(-0.0910085 0.0281112 0)
(-0.0693631 0.0494623 0)
(-0.0439602 0.063858 0)
(-0.00891176 0.0542602 0)
(0.138491 -0.0181056 0)
(-0.191339 -0.0948684 0)
(0.137172 -0.237075 0)
(-0.337456 -0.11856 0)
(-0.263132 0.03045 0)
(-0.202686 -0.0124874 0)
(-0.173871 -0.0024785 0)
(-0.137002 0.0127341 0)
(-0.107096 0.0176709 0)
(-0.0891796 0.0213193 0)
(-0.0832986 0.0313731 0)
(-0.0832423 0.0439213 0)
(-0.0884582 0.0574546 0)
(-0.0940024 0.0709826 0)
(-0.0975426 0.0833334 0)
(-0.097899 0.0942007 0)
(-0.0956307 0.105147 0)
(-0.0920228 0.117313 0)
(-0.08815 0.128956 0)
(-0.0850736 0.138517 0)
(-0.0832662 0.145459 0)
(-0.0827742 0.150043 0)
(-0.0833471 0.152754 0)
(-0.084695 0.154717 0)
(-0.0865859 0.157298 0)
(-0.0888062 0.160529 0)
(-0.0911817 0.164099 0)
(-0.0935718 0.167374 0)
(-0.0958559 0.169468 0)
(-0.097913 0.16936 0)
(-0.0995691 0.166043 0)
(-0.100453 0.158634 0)
(-0.0995883 0.14824 0)
(-0.0952923 0.137613 0)
(-0.0854379 0.128703 0)
(-0.0680403 0.12304 0)
(-0.0426958 0.121761 0)
(-0.00888895 0.124417 0)
(0.0342705 0.125983 0)
(0.0697296 0.119401 0)
(0.154562 0.105308 0)
(-0.27961 0.0717596 0)
)
;

boundaryField
{
    floor
    {
        type            noSlip;
    }
    ceiling
    {
        type            noSlip;
    }
    sWall
    {
        type            noSlip;
    }
    nWall
    {
        type            noSlip;
    }
    sideWalls
    {
        type            empty;
    }
    glass1
    {
        type            noSlip;
    }
    glass2
    {
        type            noSlip;
    }
    sun
    {
        type            noSlip;
    }
    Table_master
    {
        type            noSlip;
    }
    Table_slave
    {
        type            noSlip;
    }
    inlet
    {
        type            fixedValue;
        value           uniform (0.212132 -0.212132 0);
    }
    outlet
    {
        type            zeroGradient;
    }
}


// ************************************************************************* //
