/*--------------------------------*- C++ -*----------------------------------*\
  =========                 |
  \\      /  F ield         | OpenFOAM: The Open Source CFD Toolbox
   \\    /   O peration     | Website:  https://openfoam.org
    \\  /    A nd           | Version:  6
     \\/     M anipulation  |
\*---------------------------------------------------------------------------*/
FoamFile
{
    version     2.0;
    format      ascii;
    class       volScalarField;
    location    "200";
    object      epsilon;
}
// * * * * * * * * * * * * * * * * * * * * * * * * * * * * * * * * * * * * * //

dimensions      [0 2 -3 0 0 0 0];

internalField   nonuniform List<scalar> 
458
(
0.00015282
0.000163809
0.000124892
0.000138776
0.000154834
0.000170957
0.000187006
0.000203262
0.000220329
0.000239322
0.000256392
0.00027023
0.000280638
0.000289115
0.000295594
5.08074e-05
9.60673e-05
9.56141e-05
7.0036e-05
4.37619e-05
1.95637e-05
4.11989e-06
3.70847e-06
4.52752e-06
5.6453e-06
5.62214e-06
4.88096e-06
4.15713e-06
5.26917e-06
1.17801e-05
2.32057e-05
3.32418e-05
2.59366e-05
0.000780268
0.0018252
0.000168943
0.000110713
0.000113716
0.000120231
0.000127784
0.000137148
0.000149329
0.000165376
0.000183937
0.000204288
0.000225472
0.000247412
0.000282384
0.000380903
0.000333317
0.000157632
0.000152085
0.000172489
0.000123974
9.89191e-05
6.83998e-05
3.69337e-05
2.18973e-05
1.62924e-05
1.5743e-05
1.55809e-05
1.36903e-05
9.81968e-06
6.4037e-06
7.61238e-06
3.88379e-05
7.54637e-05
0.000184352
9.19135e-05
0.00197744
0.00604479
0.000411777
0.00012875
0.000117327
0.000123117
0.000131888
0.00014321
0.000157383
0.000174479
0.00019347
0.000212382
0.000230192
0.00024781
0.000270299
0.000307556
0.000361273
0.000455965
0.000364601
0.00030913
0.000197808
0.000179605
0.00018528
7.0947e-05
4.03586e-05
2.86465e-05
2.2247e-05
1.79266e-05
1.46177e-05
1.17053e-05
9.13406e-06
1.26237e-05
0.000149823
0.000202753
0.000547539
0.000143128
0.00387521
0.0132493
0.000991518
0.00017132
0.000129266
0.000135048
0.000146755
0.000161546
0.000179298
0.000199887
0.000221996
0.000241394
0.000256775
0.000269889
0.000284803
0.000309394
0.000360386
0.000466626
0.000633621
0.000283697
0.00016965
0.000156013
0.000172415
0.000219458
0.000319888
0.000340688
0.000379457
0.000434438
0.000506781
0.000615233
0.000687481
0.000715731
0.000682441
0.000467205
0.000370857
0.000546257
0.000466566
0.00647756
0.0227063
0.00217316
0.000258831
0.000147499
0.000150553
0.000167039
0.00018921
0.000216327
0.000247807
0.000279877
0.000303491
0.000317531
0.000324928
0.000327731
0.000326765
0.000322687
0.000310671
0.000270426
0.000189501
0.000153886
0.000145359
0.000153291
0.000171505
0.000194944
0.000219815
0.000256376
0.000307161
0.000373388
0.000457165
0.000535121
0.000579659
0.000574446
0.000509164
0.000426682
0.000423337
0.000492618
0.000771158
0.000659991
0.000507107
0.00981311
0.0312575
0.00443202
0.000527867
0.000211874
0.000188655
0.000204975
0.000235853
0.000277766
0.000330397
0.000377212
0.000400925
0.000406968
0.000404772
0.000399423
0.000391088
0.000374658
0.000339441
0.000283729
0.000225911
0.000188127
0.000171952
0.000171852
0.000181879
0.000199823
0.000228467
0.000274057
0.000340488
0.00042814
0.000531487
0.000636627
0.000726676
0.000773775
0.000779728
0.000698946
0.000617996
0.000613355
0.000689411
0.000879954
0.000893338
0.0137807
0.0351512
0.00920532
0.00208029
0.000734534
0.000430029
0.000369309
0.00038249
0.00042961
0.000510957
0.000552819
0.000549524
0.000524482
0.000495165
0.000469725
0.00044922
0.000426683
0.000388638
0.000334076
0.00027832
0.000236722
0.000213925
0.000206697
0.000210625
0.000225507
0.000256868
0.000312672
0.000399208
0.000516923
0.000655496
0.00079569
0.000922491
0.00103536
0.00115833
0.00133998
0.00142739
0.00153647
0.00143877
0.00165802
0.00143246
0.0147234
0.0428129
0.0202982
0.0111125
0.005446
0.00256172
0.00146079
0.00109113
0.000975773
0.000940313
0.000859347
0.000762547
0.00067109
0.000594019
0.000533817
0.00048991
0.000457133
0.000421295
0.000376242
0.000330222
0.000293318
0.000270389
0.000260468
0.000261083
0.000273744
0.000306863
0.000372352
0.0004813
0.000636845
0.000823795
0.00101094
0.00117832
0.00134475
0.00157269
0.00194113
0.00244283
0.0027401
0.00286883
0.00315647
0.00151
0.0134552
0.0228058
0.0183951
0.0134422
0.00933564
0.0061652
0.00405441
0.00277425
0.00203411
0.0015423
0.00120513
0.000969101
0.000800135
0.00067675
0.000585881
0.000519965
0.000473533
0.000439522
0.000410553
0.000384757
0.000364484
0.000352101
0.000347715
0.000350455
0.000362371
0.000394385
0.00046143
0.000582795
0.000774977
0.00102504
0.00127158
0.00144521
0.00151742
0.00150683
0.00148976
0.0014944
0.00155753
0.00165386
0.0017758
0.00163701
0.00861646
0.0115325
0.00815893
0.005773
0.00407685
0.00291979
0.00215216
0.00163731
0.00128541
0.00103955
0.00086325
0.00073411
0.000639066
0.000571131
0.000526579
0.000502117
0.000493063
0.000494212
0.000501267
0.000511263
0.000522518
0.000535281
0.000552918
0.000582455
0.00063233
0.00071761
0.000875589
0.00113912
0.00149526
0.00193078
0.00248276
0.00310862
0.00354087
0.00362435
0.00334204
0.00296178
0.00219941
0.00173955
0.0067183
0.00988891
0.00696491
0.00499783
0.00369114
0.00275342
0.00208317
0.0016067
0.00126628
0.00101957
0.000840315
0.000711893
0.000623997
0.000570749
0.00054927
0.000557671
0.000591999
0.000643886
0.000701783
0.000755642
0.000801129
0.000840446
0.000879699
0.000923491
0.000971725
0.0010293
0.00112163
0.00126864
0.00141946
0.00158567
0.00190171
0.00236088
0.00288071
0.00329235
0.00337785
0.00316645
0.00227885
0.0018531
0.00378362
0.00456817
0.00535387
0.00614689
0.00491537
0.00368356
0.00291976
0.00233799
0.00188691
0.00153631
0.0012621
0.00105696
0.000897394
0.000769844
0.000667195
0.000585653
0.000523302
0.000479287
0.000452997
0.000443065
0.000446606
0.000459436
0.000477328
0.000497657
0.000520537
0.000548361
0.000583818
0.000631508
0.000706705
0.000827852
0.00101134
0.00122851
0.00144092
0.00175636
0.00218226
0.00255896
0.00265639
0.00232997
0.00186734
0.00135969
)
;

boundaryField
{
    floor
    {
        Cmu             0.09;
        kappa           0.41;
        E               9.8;
        type            epsilonWallFunction;
        value           nonuniform List<scalar> 
36
(
0.000295594
5.08074e-05
9.60673e-05
9.56141e-05
7.0036e-05
4.37619e-05
1.95637e-05
4.11989e-06
3.70847e-06
4.52752e-06
5.6453e-06
5.62214e-06
4.88096e-06
4.15713e-06
5.26917e-06
1.17801e-05
2.32057e-05
3.32418e-05
2.59366e-05
2.59366e-05
9.19135e-05
0.000143128
0.000466566
0.000771158
0.000659991
0.000507107
0.000295594
0.000380903
0.000333317
0.000157632
5.08074e-05
0.000157632
0.000152085
0.000455965
0.000364601
0.000633621
)
;
    }
    ceiling
    {
        Cmu             0.09;
        kappa           0.41;
        E               9.8;
        type            epsilonWallFunction;
        value           nonuniform List<scalar> 
43
(
0.00378362
0.00456817
0.00535387
0.00614689
0.00491537
0.00368356
0.00291976
0.00233799
0.00188691
0.00153631
0.0012621
0.00105696
0.000897394
0.000769844
0.000667195
0.000585653
0.000523302
0.000479287
0.000452997
0.000443065
0.000446606
0.000459436
0.000477328
0.000497657
0.000520537
0.000548361
0.000583818
0.000631508
0.000706705
0.000827852
0.00101134
0.00122851
0.00144092
0.00175636
0.00218226
0.00255896
0.00265639
0.00232997
0.00186734
0.00135969
0.0134552
0.0228058
0.0067183
)
;
    }
    sWall
    {
        Cmu             0.09;
        kappa           0.41;
        E               9.8;
        type            epsilonWallFunction;
        value           uniform 0.00378362;
    }
    nWall
    {
        Cmu             0.09;
        kappa           0.41;
        E               9.8;
        type            epsilonWallFunction;
        value           nonuniform List<scalar> 6(0.000507107 0.000893338 0.00143246 0.00173955 0.0018531 0.00135969);
    }
    sideWalls
    {
        type            empty;
    }
    glass1
    {
        Cmu             0.09;
        kappa           0.41;
        E               9.8;
        type            epsilonWallFunction;
        value           nonuniform List<scalar> 9(0.00015282 0.000780268 0.00197744 0.00387521 0.00647756 0.00981311 0.0137807 0.0147234 0.0134552);
    }
    glass2
    {
        Cmu             0.09;
        kappa           0.41;
        E               9.8;
        type            epsilonWallFunction;
        value           nonuniform List<scalar> 2(0.00151 0.00163701);
    }
    sun
    {
        Cmu             0.09;
        kappa           0.41;
        E               9.8;
        type            epsilonWallFunction;
        value           nonuniform List<scalar> 
14
(
0.00015282
0.000163809
0.000124892
0.000138776
0.000154834
0.000170957
0.000187006
0.000203262
0.000220329
0.000239322
0.000256392
0.00027023
0.000280638
0.000289115
)
;
    }
    Table_master
    {
        Cmu             0.09;
        kappa           0.41;
        E               9.8;
        type            epsilonWallFunction;
        value           nonuniform List<scalar> 9(7.0947e-05 4.03586e-05 2.86465e-05 2.2247e-05 1.79266e-05 1.46177e-05 1.17053e-05 9.13406e-06 1.26237e-05);
    }
    Table_slave
    {
        Cmu             0.09;
        kappa           0.41;
        E               9.8;
        type            epsilonWallFunction;
        value           nonuniform List<scalar> 9(0.000319888 0.000340688 0.000379457 0.000434438 0.000506781 0.000615233 0.000687481 0.000715731 0.000682441);
    }
    inlet
    {
        type            turbulentMixingLengthDissipationRateInlet;
        mixingLength    0.01;
        phi             phi;
        k               k;
        value           uniform 0.000101881;
    }
    outlet
    {
        type            zeroGradient;
    }
}


// ************************************************************************* //
