/*--------------------------------*- C++ -*----------------------------------*\
  =========                 |
  \\      /  F ield         | OpenFOAM: The Open Source CFD Toolbox
   \\    /   O peration     | Website:  https://openfoam.org
    \\  /    A nd           | Version:  6
     \\/     M anipulation  |
\*---------------------------------------------------------------------------*/
FoamFile
{
    version     2.0;
    format      ascii;
    class       volScalarField;
    location    "200";
    object      nut;
}
// * * * * * * * * * * * * * * * * * * * * * * * * * * * * * * * * * * * * * //

dimensions      [0 2 -1 0 0 0 0];

internalField   nonuniform List<scalar> 
458
(
0.000755835
0.000773536
0.000706672
0.000731945
0.000759152
0.000784637
0.00080846
0.000831238
0.00085388
0.000877743
0.000898134
0.00091401
0.000925597
0.000934826
0.000941759
0.000523632
0.000647489
0.000646472
0.00058274
0.000498195
0.000380872
0.000226707
0.000218926
0.00023399
0.000251834
0.000251484
0.000239902
0.00022739
0.000246033
0.000321693
0.000403267
0.000454539
0.000418446
0.0013015
0.00222769
0.00161025
0.002123
0.00229049
0.00245647
0.00262495
0.00278093
0.0029044
0.0029694
0.00298695
0.00291918
0.00271769
0.00231188
0.00166222
0.00102481
0.000980231
0.000763693
0.00075461
0.0015388
0.00178749
0.00176673
0.00140454
0.000917939
0.000697532
0.000636596
0.000682365
0.000727837
0.000684625
0.000548448
0.000393948
0.000341088
0.000610306
0.00117783
0.00171892
0.000637976
0.00177446
0.00368509
0.0017129
0.00305419
0.00346526
0.00366359
0.00383261
0.00397691
0.00408987
0.00416109
0.00419446
0.0041597
0.00401425
0.00370472
0.00320286
0.00256562
0.00183638
0.00108815
0.00100999
0.00287255
0.00262979
0.0021591
0.00168382
0.000585341
0.000485018
0.000432662
0.000397704
0.000370094
0.000345767
0.000321093
0.000295621
0.000329187
0.00102186
0.00173064
0.00230862
0.00073942
0.00222057
0.0055359
0.00193284
0.00327019
0.00413229
0.00435835
0.00450088
0.00461931
0.00471992
0.00480024
0.00486842
0.00492396
0.0049351
0.00483754
0.00453134
0.00391613
0.00297715
0.00192363
0.00121429
0.00305985
0.00318815
0.00270529
0.00208656
0.00145544
0.00096693
0.000987452
0.00102357
0.0010708
0.00112721
0.00120249
0.00124778
0.00126462
0.00124468
0.00152327
0.00187674
0.00253848
0.00109648
0.00263535
0.00757449
0.00260983
0.00299542
0.00433905
0.00465047
0.00476723
0.00484495
0.0049094
0.00497266
0.0050529
0.0051957
0.00539773
0.00562935
0.00583222
0.00593858
0.00590331
0.00570997
0.00539534
0.0052805
0.00498168
0.00467948
0.00449719
0.00441364
0.00440718
0.00454067
0.00473967
0.00497944
0.00522044
0.00540875
0.00547546
0.00539494
0.00519482
0.00491377
0.00426447
0.00365846
0.00263772
0.00129644
0.00123089
0.00112739
0.00302671
0.00944369
0.00409342
0.00275405
0.00392878
0.00449426
0.0047092
0.00479977
0.00482359
0.00481714
0.004843
0.00497759
0.00521897
0.0055544
0.00594573
0.00632662
0.00660894
0.00668704
0.00651618
0.00619777
0.00585047
0.00559782
0.00548435
0.00547662
0.00553534
0.00565504
0.00583378
0.00604528
0.00623645
0.00634751
0.00633445
0.00617752
0.0059794
0.00581223
0.00558488
0.00513556
0.00460724
0.00428799
0.00396032
0.0013616
0.00338944
0.0108397
0.00675528
0.00372676
0.00307987
0.00352805
0.00412251
0.00451808
0.00468737
0.00461668
0.0045614
0.00461815
0.00478061
0.00505387
0.0054308
0.00586905
0.00627226
0.0065063
0.00648815
0.006279
0.00600895
0.00579276
0.00568336
0.00567558
0.00574897
0.00589546
0.0061035
0.00633353
0.00651524
0.00656847
0.00645436
0.00622034
0.00598654
0.00589843
0.00606356
0.00625402
0.00615854
0.00572885
0.00521867
0.00159369
0.00346503
0.0107682
0.00854302
0.00667597
0.00492248
0.00391411
0.00381256
0.00416922
0.00451697
0.00444505
0.0043367
0.00430226
0.00435205
0.00448854
0.0047205
0.00505242
0.0054452
0.005788
0.00593615
0.00589889
0.00576045
0.00561248
0.00552137
0.00552258
0.00563846
0.00587787
0.0062043
0.00654206
0.0067926
0.00684407
0.00663754
0.00624415
0.00583563
0.00558587
0.0055778
0.005645
0.00527439
0.00457802
0.00395783
0.00162195
0.00336255
0.00400916
0.00453
0.00473285
0.0046031
0.00424459
0.00392623
0.00375812
0.00371224
0.00371636
0.00375573
0.00381561
0.00389105
0.00398588
0.00411395
0.00429737
0.00454834
0.00483413
0.0050745
0.00521399
0.00525269
0.00523131
0.00520306
0.00522121
0.00534911
0.00566046
0.00613215
0.00666251
0.00711828
0.0073254
0.00712989
0.00654864
0.00574779
0.0048894
0.00413492
0.00350475
0.00302001
0.00260676
0.0022624
0.00166616
0.00284359
0.00461364
0.00465513
0.00446961
0.00423506
0.0040329
0.00388441
0.00378085
0.00371944
0.00369059
0.00368295
0.00369247
0.00372551
0.00379864
0.00393169
0.00412944
0.00436358
0.00458414
0.00475123
0.00485566
0.00491671
0.00497373
0.0050854
0.00532226
0.00572225
0.00628304
0.00699218
0.00767056
0.00803601
0.00802306
0.00791494
0.00776335
0.00733243
0.00665614
0.00588476
0.00527832
0.0048835
0.0017002
0.00266765
0.00508042
0.00501105
0.00473247
0.00448257
0.00423974
0.00401507
0.00381663
0.00364561
0.00346261
0.00328787
0.00314365
0.00304977
0.00302517
0.0030864
0.00323975
0.00346875
0.00373164
0.00397881
0.00417713
0.00432196
0.00443553
0.00455864
0.00473097
0.00496153
0.00525558
0.00570791
0.00637475
0.00703529
0.00726636
0.00737613
0.00742431
0.00735764
0.00714648
0.00680702
0.00641795
0.00479253
0.00173647
0.00220298
0.00234579
0.00247323
0.00258977
0.00240378
0.0021834
0.00202066
0.00187639
0.001747
0.0016313
0.00152782
0.0014401
0.00136364
0.0012957
0.00123534
0.0011828
0.00113924
0.00110635
0.00108573
0.00107773
0.00108059
0.00109084
0.00110481
0.00112028
0.00113719
0.00115711
0.00118153
0.00121284
0.00125915
0.00132733
0.00141886
0.00151404
0.00159678
0.00170577
0.0018338
0.00193373
0.00195796
0.00187425
0.00174094
0.00156625
)
;

boundaryField
{
    floor
    {
        type            nutkWallFunction;
        Cmu             0.09;
        kappa           0.41;
        E               9.8;
        value           nonuniform List<scalar> 
36
(
0.000113834
6.27478e-05
7.82672e-05
7.81411e-05
7.02057e-05
5.95102e-05
4.4284e-05
2.32524e-05
2.21461e-05
2.42783e-05
2.6782e-05
2.67339e-05
2.51132e-05
2.33508e-05
2.59797e-05
3.63766e-05
4.72293e-05
5.39093e-05
4.9221e-05
4.92209e-05
7.70955e-05
8.956e-05
0.000131986
0.000155024
0.000147519
0.000135576
0.000113834
0.000123619
0.000118378
9.25012e-05
6.27477e-05
9.25012e-05
9.14002e-05
0.000131018
0.000121877
0.000145614
)
;
    }
    ceiling
    {
        type            nutkWallFunction;
        Cmu             0.09;
        kappa           0.41;
        E               9.8;
        value           nonuniform List<scalar> 
43
(
0.000255255
0.000270586
0.000284187
0.000296632
0.000276872
0.00025323
0.000235602
0.000219847
0.000205605
0.000192773
0.000181211
0.000171344
0.000162689
0.000154953
0.000148042
0.000141996
0.00013696
0.000133144
0.000130745
0.000129813
0.000130147
0.000131341
0.000132967
0.000134764
0.000136725
0.00013903
0.000141851
0.00014546
0.000150779
0.000158566
0.000168956
0.000179665
0.000188917
0.000201028
0.000215154
0.00022611
0.000228757
0.000219597
0.000204922
0.000185502
0.000377623
0.000443735
0.000304728
)
;
    }
    sWall
    {
        type            nutkWallFunction;
        Cmu             0.09;
        kappa           0.41;
        E               9.8;
        value           uniform 0.000255323;
    }
    nWall
    {
        type            nutkWallFunction;
        Cmu             0.09;
        kappa           0.41;
        E               9.8;
        value           nonuniform List<scalar> 6(0.000135584 0.000162453 0.000188576 0.000200441 0.000204452 0.00018552);
    }
    sideWalls
    {
        type            empty;
    }
    glass1
    {
        type            nutkWallFunction;
        Cmu             0.09;
        kappa           0.41;
        E               9.8;
        value           nonuniform List<scalar> 9(9.15325e-05 0.000155815 0.000208977 0.000257692 0.000302045 0.000343223 0.000380896 0.000388708 0.000378153);
    }
    glass2
    {
        type            nutkWallFunction;
        Cmu             0.09;
        kappa           0.41;
        E               9.8;
        value           nonuniform List<scalar> 2(0.000191845 0.000196775);
    }
    sun
    {
        type            nutkWallFunction;
        Cmu             0.09;
        kappa           0.41;
        E               9.8;
        value           nonuniform List<scalar> 
14
(
9.15474e-05
9.36951e-05
8.55506e-05
8.8639e-05
9.19496e-05
9.5038e-05
9.79143e-05
0.000100655
0.000103371
0.000106224
0.000108655
0.000110543
0.000111919
0.000113013
)
;
    }
    Table_master
    {
        type            nutkWallFunction;
        Cmu             0.09;
        kappa           0.41;
        E               9.8;
        value           nonuniform List<scalar> 9(7.05312e-05 5.78296e-05 5.10747e-05 4.6508e-05 4.28654e-05 3.96273e-05 3.63128e-05 3.28566e-05 3.74146e-05);
    }
    Table_slave
    {
        type            nutkWallFunction;
        Cmu             0.09;
        kappa           0.41;
        E               9.8;
        value           nonuniform List<scalar> 9(0.0001168 0.000119219 0.000123462 0.000128985 0.000135546 0.000144243 0.00014945 0.000151381 0.000149098);
    }
    inlet
    {
        type            calculated;
        value           uniform 0.000100623;
    }
    outlet
    {
        type            calculated;
        value           nonuniform List<scalar> 2(0.00220298 0.00234579);
    }
}


// ************************************************************************* //
