/*--------------------------------*- C++ -*----------------------------------*\
  =========                 |
  \\      /  F ield         | OpenFOAM: The Open Source CFD Toolbox
   \\    /   O peration     | Website:  https://openfoam.org
    \\  /    A nd           | Version:  6
     \\/     M anipulation  |
\*---------------------------------------------------------------------------*/
FoamFile
{
    version     2.0;
    format      ascii;
    class       volScalarField;
    location    "200";
    object      T;
}
// * * * * * * * * * * * * * * * * * * * * * * * * * * * * * * * * * * * * * //

dimensions      [0 0 0 1 0 0 0];

internalField   nonuniform List<scalar> 
458
(
301.349
300.954
300.948
300.957
300.964
300.971
300.976
300.981
300.986
300.99
300.992
300.993
300.992
300.99
300.989
300.582
300.588
300.594
300.574
300.524
300.348
300.012
299.957
299.944
299.939
299.929
299.921
299.919
299.931
299.978
300.024
300.039
300.072
301.619
301
300.966
300.978
300.992
301.004
301.014
301.023
301.031
301.037
301.039
301.036
301.027
301.012
300.991
300.973
300.953
300.95
300.667
300.652
300.652
300.654
300.585
300.449
300.285
300.186
300.118
300.055
300.011
299.982
299.967
299.973
300.12
300.205
300.175
300.125
301.872
301.072
301
301.015
301.037
301.057
301.075
301.091
301.104
301.112
301.116
301.11
301.095
301.069
301.035
300.997
300.963
300.942
300.755
300.755
300.775
300.787
300.775
300.486
300.379
300.314
300.262
300.217
300.172
300.127
300.079
300.054
300.399
300.396
300.279
300.177
302.104
301.159
301.038
301.053
301.082
301.112
301.141
301.166
301.187
301.202
301.209
301.204
301.185
301.153
301.11
301.058
301.002
300.944
300.903
300.871
300.879
300.888
300.893
300.895
300.896
300.896
300.898
300.902
300.906
300.911
300.911
300.909
300.902
300.865
300.777
300.629
300.49
302.317
301.259
301.083
301.085
301.121
301.16
301.199
301.236
301.268
301.292
301.306
301.306
301.289
301.256
301.212
301.16
301.106
301.054
301.013
300.985
300.972
300.965
300.959
300.953
300.947
300.944
300.942
300.942
300.943
300.944
300.944
300.94
300.93
300.909
300.858
300.764
300.645
300.65
300.655
300.693
302.499
301.377
301.155
301.119
301.151
301.195
301.241
301.287
301.331
301.369
301.393
301.4
301.387
301.358
301.315
301.264
301.208
301.155
301.11
301.076
301.053
301.035
301.02
301.007
300.995
300.986
300.978
300.973
300.97
300.969
300.969
300.965
300.954
300.931
300.89
300.828
300.761
300.738
300.717
300.717
302.645
301.567
301.338
301.224
301.204
301.231
301.273
301.32
301.37
301.423
301.46
301.474
301.467
301.443
301.406
301.36
301.307
301.254
301.206
301.167
301.136
301.11
301.088
301.068
301.049
301.031
301.016
301.004
300.996
300.992
300.991
300.988
300.977
300.955
300.917
300.861
300.819
300.795
300.768
300.748
302.899
302.075
301.843
301.626
301.469
301.391
301.375
301.394
301.431
301.485
301.518
301.528
301.521
301.501
301.472
301.434
301.39
301.34
301.294
301.253
301.218
301.188
301.161
301.135
301.109
301.083
301.058
301.037
301.021
301.013
301.012
301.013
301.008
300.991
300.961
300.927
300.91
300.909
300.917
301.007
303.254
302.901
302.635
302.36
302.107
301.913
301.783
301.704
301.663
301.634
301.607
301.582
301.556
301.53
301.502
301.471
301.437
301.4
301.362
301.325
301.291
301.26
301.232
301.205
301.176
301.143
301.11
301.078
301.051
301.035
301.034
301.043
301.059
301.075
301.092
301.108
301.125
301.151
301.183
301.251
298.213
300.533
301.332
301.552
301.608
301.615
301.607
301.594
301.578
301.559
301.538
301.516
301.493
301.47
301.446
301.421
301.394
301.367
301.34
301.314
301.289
301.264
301.238
301.208
301.175
301.138
301.1
301.066
301.045
301.039
301.045
301.057
301.072
301.087
301.099
301.103
301.08
301.103
298.75
300.467
301.083
301.333
301.436
301.475
301.488
301.488
301.483
301.476
301.468
301.458
301.447
301.435
301.423
301.409
301.395
301.379
301.363
301.346
301.328
301.309
301.288
301.264
301.235
301.202
301.164
301.121
301.082
301.056
301.044
301.043
301.051
301.061
301.069
301.067
301.058
301.087
299.742
299.692
299.69
300.713
301.082
301.304
301.362
301.388
301.399
301.404
301.406
301.406
301.406
301.406
301.405
301.403
301.401
301.399
301.395
301.391
301.385
301.377
301.368
301.357
301.343
301.325
301.304
301.277
301.242
301.197
301.147
301.106
301.08
301.064
301.056
301.054
301.054
301.053
301.051
301.082
)
;

boundaryField
{
    floor
    {
        type            wallHeatTransfer;
        Tinf            uniform 305.2;
        alphaWall       uniform 0.24;
        value           nonuniform List<scalar> 
36
(
301.479
301.397
301.292
301.297
301.333
301.377
301.401
301.536
301.527
301.462
301.398
301.392
301.425
301.468
301.411
301.234
301.107
301.038
301.12
301.12
300.906
300.874
300.979
301.065
301.087
301.151
301.479
301.435
301.433
301.527
301.397
301.527
301.287
301.386
301.246
301.315
)
;
    }
    ceiling
    {
        type            wallHeatTransfer;
        Tinf            uniform 303.2;
        alphaWall       uniform 0.24;
        value           nonuniform List<scalar> 
43
(
299.949
299.891
299.881
300.843
301.2
301.419
301.48
301.511
301.529
301.541
301.55
301.557
301.564
301.57
301.575
301.579
301.583
301.584
301.584
301.581
301.575
301.567
301.557
301.545
301.53
301.512
301.49
301.462
301.425
301.377
301.322
301.276
301.244
301.221
301.205
301.197
301.196
301.199
301.207
301.249
303.251
302.912
298.977
)
;
    }
    sWall
    {
        type            wallHeatTransfer;
        Tinf            uniform 315.2;
        alphaWall       uniform 0.36;
        value           uniform 301.09;
    }
    nWall
    {
        type            wallHeatTransfer;
        Tinf            uniform 307.2;
        alphaWall       uniform 0.36;
        value           nonuniform List<scalar> 6(301.638 301.536 301.471 301.754 301.729 301.778);
    }
    sideWalls
    {
        type            empty;
    }
    glass1
    {
        type            wallHeatTransfer;
        Tinf            uniform 315.2;
        alphaWall       uniform 4.3;
        value           nonuniform List<scalar> 9(311.664 310.418 309.666 309.134 308.751 308.456 308.224 308.307 308.586);
    }
    glass2
    {
        type            wallHeatTransfer;
        Tinf            uniform 307.2;
        alphaWall       uniform 4.3;
        value           nonuniform List<scalar> 2(304.723 304.788);
    }
    sun
    {
        type            wallHeatTransfer;
        Tinf            uniform 305.2;
        alphaWall       uniform 0.24;
        value           nonuniform List<scalar> 
14
(
301.876
301.525
301.558
301.55
301.542
301.534
301.526
301.52
301.513
301.506
301.5
301.494
301.488
301.483
)
;
    }
    Table_master
    {
        type            zeroGradient;
    }
    Table_slave
    {
        type            zeroGradient;
    }
    inlet
    {
        type            fixedValue;
        value           uniform 293.15;
    }
    outlet
    {
        type            zeroGradient;
    }
}


// ************************************************************************* //
