/*--------------------------------*- C++ -*----------------------------------*\
  =========                 |
  \\      /  F ield         | OpenFOAM: The Open Source CFD Toolbox
   \\    /   O peration     | Website:  https://openfoam.org
    \\  /    A nd           | Version:  6
     \\/     M anipulation  |
\*---------------------------------------------------------------------------*/
FoamFile
{
    version     2.0;
    format      ascii;
    class       volScalarField;
    location    "2400";
    object      k;
}
// * * * * * * * * * * * * * * * * * * * * * * * * * * * * * * * * * * * * * //

dimensions      [0 2 -2 0 0 0 0];

internalField   nonuniform List<scalar> 
458
(
0.00126011
0.00141607
0.00140041
0.00150862
0.00160757
0.00169691
0.00177931
0.00185812
0.00193757
0.00201076
0.00206113
0.0020809
0.00206976
0.00204282
0.00201515
0.000456015
0.00052011
0.000517595
0.000503331
0.000483307
0.000453105
0.000421281
0.000392042
0.000365864
0.000342696
0.000321955
0.000303091
0.000285536
0.000268591
0.000251354
0.000232239
0.000212449
0.00017567
0.00273732
0.00513864
0.00208786
0.00213624
0.00224069
0.00236173
0.00249438
0.00264291
0.00280761
0.00297863
0.00312072
0.00318544
0.00312594
0.00292526
0.00259261
0.00215189
0.00171894
0.00139888
0.000879942
0.000847482
0.000822199
0.000788167
0.000739559
0.000657934
0.000581977
0.00052029
0.000469211
0.000425071
0.000386146
0.000351042
0.000318374
0.000288713
0.000271406
0.000268375
0.000376948
0.000248436
0.00451964
0.0106465
0.00273337
0.00251529
0.00260746
0.00274752
0.00290503
0.0030895
0.00330496
0.00354085
0.00375796
0.00389749
0.00392493
0.00387063
0.00381336
0.00364484
0.00298083
0.00216216
0.0012374
0.00111253
0.00101192
0.000935298
0.000865933
0.000717926
0.000593944
0.000498571
0.000426131
0.000371027
0.000328771
0.000296133
0.000271258
0.000253801
0.000242067
0.000252409
0.0004758
0.000306568
0.00679089
0.0192291
0.00381264
0.00272368
0.00275784
0.00290297
0.00306222
0.00325327
0.0034996
0.00379672
0.00406642
0.00422338
0.00424004
0.00415437
0.00402455
0.00381135
0.00337694
0.00305894
0.00179584
0.00159267
0.00133386
0.00114304
0.00102027
0.000932666
0.000770752
0.000698792
0.000667763
0.000651911
0.000636122
0.000610588
0.00057696
0.000540227
0.000494556
0.000389347
0.000324623
0.000566821
0.000370647
0.00962896
0.0310777
0.00644789
0.00299843
0.00282865
0.00294572
0.00310244
0.00332213
0.00366308
0.0041036
0.00445664
0.00461459
0.00457479
0.00439545
0.00414324
0.00382781
0.00338573
0.00291104
0.00233391
0.00182246
0.00146012
0.00121842
0.00108636
0.00102291
0.00101089
0.00104574
0.00109121
0.0011221
0.00112365
0.00108578
0.00100283
0.000896238
0.000774575
0.000618869
0.000478245
0.000531676
0.000508351
0.000496877
0.00055969
0.000611374
0.0131353
0.0436665
0.0134701
0.00442655
0.00329686
0.0031776
0.00325982
0.00348849
0.00401195
0.00466296
0.00506267
0.005167
0.00502455
0.00472762
0.00436032
0.00396409
0.00351411
0.00298134
0.00236028
0.00183866
0.00147558
0.00125191
0.00115604
0.00114128
0.00119121
0.00128217
0.00137386
0.00144225
0.00147246
0.00144812
0.00134921
0.00119133
0.00101104
0.000820305
0.000653983
0.000577318
0.00053762
0.000670503
0.00185405
0.00109108
0.0170703
0.0521733
0.0271244
0.0116773
0.00698886
0.00513427
0.00454662
0.00458492
0.00525426
0.00579694
0.00598863
0.00589394
0.00558211
0.00514155
0.00466937
0.00421971
0.00374957
0.00316659
0.00247443
0.00187437
0.00150211
0.00131767
0.00127076
0.00129054
0.00135812
0.00146146
0.00157642
0.00167912
0.00175773
0.00179433
0.00176503
0.00161031
0.001401
0.00117802
0.000996657
0.000887365
0.000842583
0.000992374
0.00238938
0.00158242
0.0180538
0.0551723
0.03803
0.0292039
0.0204745
0.0141322
0.0106368
0.00904318
0.00834232
0.00782872
0.00734938
0.00682065
0.006201
0.00555066
0.00496832
0.00448987
0.0040115
0.00337128
0.00258152
0.00190768
0.00158452
0.00146312
0.00143683
0.00145742
0.00151302
0.00159821
0.001704
0.00182209
0.00194843
0.00207977
0.00221096
0.00231129
0.00227943
0.00219112
0.00219372
0.00241518
0.0030087
0.00385711
0.00875691
0.00310109
0.0172666
0.0248208
0.0257607
0.0233315
0.0204735
0.0172468
0.0144256
0.0123575
0.0107652
0.00956522
0.00856418
0.00761237
0.00663715
0.00576933
0.00513149
0.00470041
0.00424138
0.00350049
0.00257929
0.00201495
0.00177805
0.00168532
0.00164544
0.00163122
0.00164037
0.00167451
0.00173351
0.00181641
0.00192204
0.00204855
0.00219327
0.00235141
0.00251825
0.00274097
0.00308859
0.00357868
0.00413935
0.00461795
0.0049469
0.00304555
0.0138464
0.0285572
0.0221608
0.0185304
0.0158508
0.0137858
0.0121058
0.0105706
0.00914325
0.00777945
0.00645892
0.00554208
0.00508733
0.00489557
0.00447649
0.00349098
0.00273393
0.00237627
0.00222021
0.00212257
0.00203028
0.0019356
0.0018458
0.00177026
0.00171681
0.00169168
0.00170051
0.00174927
0.00184499
0.00199686
0.00220888
0.00247608
0.00280785
0.0031768
0.00348219
0.00357412
0.00341584
0.00225656
0.0115506
0.0257607
0.0207016
0.0174434
0.0150192
0.0130059
0.0111863
0.00952878
0.00793695
0.00646793
0.005115
0.00489246
0.0052931
0.00579272
0.00558381
0.00481325
0.00422654
0.00389755
0.00370696
0.00354515
0.00336127
0.00314629
0.00291214
0.00267828
0.00246409
0.00228555
0.00215456
0.00207972
0.00206718
0.00211997
0.00226096
0.00248804
0.00278754
0.00311332
0.00340866
0.00364366
0.00374647
0.00234975
0.00722685
0.00858574
0.00978706
0.0112484
0.0101997
0.00926552
0.00781287
0.00636661
0.00507847
0.00396339
0.00318855
0.00252323
0.00186263
0.00152661
0.00169295
0.00179196
0.00172924
0.00156859
0.00143633
0.00134808
0.00128376
0.00122774
0.00117622
0.00113247
0.00110164
0.00108783
0.00109315
0.00111811
0.00116264
0.00122721
0.00131418
0.00142982
0.00156408
0.00172064
0.001904
0.00211003
0.0023432
0.00230017
0.00198822
0.00173889
)
;

boundaryField
{
    floor
    {
        type            kqRWallFunction;
        value           nonuniform List<scalar> 
36
(
0.00201515
0.000456015
0.00052011
0.000517595
0.000503331
0.000483307
0.000453105
0.000421281
0.000392042
0.000365864
0.000342696
0.000321955
0.000303091
0.000285536
0.000268591
0.000251354
0.000232239
0.000212449
0.00017567
0.00017567
0.000248436
0.000306568
0.000370647
0.000496877
0.00055969
0.000611374
0.00201515
0.00215189
0.00171894
0.00139888
0.000456015
0.00139888
0.000879942
0.00216216
0.0012374
0.00179584
)
;
    }
    ceiling
    {
        type            kqRWallFunction;
        value           nonuniform List<scalar> 
43
(
0.00722685
0.00858574
0.00978706
0.0112484
0.0101997
0.00926552
0.00781287
0.00636661
0.00507847
0.00396339
0.00318855
0.00252323
0.00186263
0.00152661
0.00169295
0.00179196
0.00172924
0.00156859
0.00143633
0.00134808
0.00128376
0.00122774
0.00117622
0.00113247
0.00110164
0.00108783
0.00109315
0.00111811
0.00116264
0.00122721
0.00131418
0.00142982
0.00156408
0.00172064
0.001904
0.00211003
0.0023432
0.00230017
0.00198822
0.00173889
0.0172666
0.0248208
0.0115506
)
;
    }
    sWall
    {
        type            kqRWallFunction;
        value           uniform 0.00722685;
    }
    nWall
    {
        type            kqRWallFunction;
        value           nonuniform List<scalar> 6(0.000611374 0.00109108 0.00158242 0.00225656 0.00234975 0.00173889);
    }
    sideWalls
    {
        type            empty;
    }
    glass1
    {
        type            kqRWallFunction;
        value           nonuniform List<scalar> 9(0.00126011 0.00273732 0.00451964 0.00679089 0.00962896 0.0131353 0.0170703 0.0180538 0.0172666);
    }
    glass2
    {
        type            kqRWallFunction;
        value           nonuniform List<scalar> 2(0.00310109 0.00304555);
    }
    sun
    {
        type            kqRWallFunction;
        value           nonuniform List<scalar> 
14
(
0.00126011
0.00141607
0.00140041
0.00150862
0.00160757
0.00169691
0.00177931
0.00185812
0.00193757
0.00201076
0.00206113
0.0020809
0.00206976
0.00204282
)
;
    }
    Table_master
    {
        type            kqRWallFunction;
        value           nonuniform List<scalar> 9(0.000717926 0.000593944 0.000498571 0.000426131 0.000371027 0.000328771 0.000296133 0.000271258 0.000253801);
    }
    Table_slave
    {
        type            kqRWallFunction;
        value           nonuniform List<scalar> 9(0.000770752 0.000698792 0.000667763 0.000651911 0.000636122 0.000610588 0.00057696 0.000540227 0.000494556);
    }
    inlet
    {
        type            turbulentIntensityKineticEnergyInlet;
        intensity       0.05;
        value           uniform 0.0003375;
    }
    outlet
    {
        type            zeroGradient;
    }
}


// ************************************************************************* //
