// -*- C++ -*-
// File generated by PyFoam - sorry for the ugliness

FoamFile
{
 version 2.0;
 format ascii;
 class volScalarField;
 location "2400";
 object T;
}

dimensions [ 0 0 0 1 0 0 0 ];

internalField nonuniform List<scalar> 458
(
  304.139
  303.873
  303.863
  303.862
  303.86
  303.858
  303.856
  303.854
  303.852
  303.848
  303.843
  303.835
  303.826
  303.816
  303.806
  303.797
  303.784
  303.782
  303.781
  303.781
  303.781
  303.78
  303.78
  303.78
  303.779
  303.778
  303.778
  303.777
  303.776
  303.775
  303.774
  303.772
  303.777
  304.33
  303.909
  303.889
  303.893
  303.897
  303.9
  303.903
  303.903
  303.902
  303.897
  303.887
  303.871
  303.849
  303.824
  303.8
  303.786
  303.779
  303.779
  303.78
  303.777
  303.777
  303.778
  303.778
  303.777
  303.774
  303.772
  303.769
  303.767
  303.764
  303.762
  303.759
  303.758
  303.757
  303.756
  303.757
  303.767
  304.523
  303.954
  303.916
  303.927
  303.94
  303.952
  303.963
  303.97
  303.973
  303.97
  303.956
  303.93
  303.894
  303.854
  303.817
  303.791
  303.775
  303.77
  303.776
  303.778
  303.782
  303.785
  303.787
  303.783
  303.78
  303.776
  303.772
  303.768
  303.764
  303.76
  303.756
  303.753
  303.751
  303.75
  303.75
  303.761
  304.709
  304.011
  303.943
  303.957
  303.98
  304.003
  304.024
  304.041
  304.052
  304.052
  304.036
  303.999
  303.946
  303.888
  303.835
  303.797
  303.774
  303.765
  303.769
  303.773
  303.781
  303.789
  303.794
  303.797
  303.798
  303.797
  303.796
  303.795
  303.794
  303.792
  303.79
  303.787
  303.784
  303.771
  303.759
  303.751
  303.757
  304.884
  304.084
  303.974
  303.98
  304.008
  304.039
  304.071
  304.1
  304.122
  304.128
  304.11
  304.063
  303.993
  303.917
  303.849
  303.799
  303.771
  303.763
  303.768
  303.777
  303.789
  303.798
  303.805
  303.808
  303.809
  303.808
  303.807
  303.805
  303.803
  303.8
  303.796
  303.792
  303.787
  303.778
  303.766
  303.755
  303.754
  303.753
  303.753
  303.795
  305.034
  304.18
  304.034
  304.008
  304.028
  304.058
  304.093
  304.131
  304.166
  304.183
  304.164
  304.107
  304.022
  303.931
  303.852
  303.796
  303.766
  303.76
  303.769
  303.784
  303.798
  303.809
  303.816
  303.818
  303.819
  303.817
  303.815
  303.812
  303.809
  303.805
  303.799
  303.794
  303.788
  303.78
  303.77
  303.759
  303.754
  303.751
  303.751
  303.794
  305.159
  304.338
  304.192
  304.118
  304.094
  304.098
  304.119
  304.151
  304.194
  304.212
  304.186
  304.118
  304.024
  303.926
  303.842
  303.784
  303.757
  303.756
  303.772
  303.793
  303.81
  303.82
  303.825
  303.827
  303.827
  303.825
  303.822
  303.819
  303.815
  303.809
  303.802
  303.795
  303.788
  303.781
  303.772
  303.763
  303.757
  303.753
  303.753
  303.788
  305.361
  304.751
  304.593
  304.45
  304.337
  304.271
  304.244
  304.243
  304.256
  304.241
  304.183
  304.092
  303.985
  303.884
  303.805
  303.757
  303.741
  303.752
  303.778
  303.805
  303.82
  303.829
  303.833
  303.834
  303.834
  303.833
  303.83
  303.827
  303.822
  303.817
  303.81
  303.803
  303.795
  303.788
  303.781
  303.775
  303.772
  303.773
  303.78
  303.893
  305.644
  305.375
  305.077
  304.843
  304.663
  304.532
  304.443
  304.384
  304.328
  304.232
  304.115
  303.993
  303.881
  303.794
  303.738
  303.716
  303.724
  303.754
  303.791
  303.815
  303.828
  303.835
  303.839
  303.841
  303.842
  303.842
  303.841
  303.839
  303.836
  303.833
  303.83
  303.83
  303.832
  303.838
  303.849
  303.867
  303.891
  303.918
  303.941
  303.995
  296.86
  301.326
  302.864
  303.426
  303.669
  303.766
  303.785
  303.784
  303.759
  303.72
  303.677
  303.656
  303.656
  303.678
  303.72
  303.77
  303.804
  303.823
  303.833
  303.84
  303.845
  303.849
  303.851
  303.853
  303.855
  303.856
  303.857
  303.858
  303.86
  303.863
  303.867
  303.873
  303.883
  303.898
  303.916
  303.936
  303.953
  303.971
  297.798
  301.191
  302.322
  302.939
  303.257
  303.408
  303.47
  303.5
  303.517
  303.523
  303.528
  303.572
  303.625
  303.685
  303.748
  303.787
  303.81
  303.825
  303.834
  303.841
  303.847
  303.853
  303.857
  303.861
  303.865
  303.868
  303.872
  303.874
  303.877
  303.88
  303.883
  303.888
  303.895
  303.905
  303.917
  303.93
  303.932
  303.955
  300.299
  300.216
  300.21
  302.112
  302.659
  302.987
  303.236
  303.331
  303.372
  303.393
  303.413
  303.433
  303.468
  303.633
  303.708
  303.748
  303.775
  303.792
  303.803
  303.812
  303.82
  303.826
  303.833
  303.839
  303.844
  303.849
  303.854
  303.859
  303.864
  303.868
  303.873
  303.877
  303.881
  303.886
  303.891
  303.897
  303.908
  303.913
  303.911
  303.944
)
;

boundaryField
{
  floor
  {
    type wallHeatTransfer;
    Tinf uniform 305.2;
    alphaWall uniform 0.24;
    value nonuniform List<scalar> 36
(
  303.962
  304.061
  304.039
  304.038
  304.04
  304.043
  304.049
  304.055
  304.061
  304.067
  304.073
  304.078
  304.083
  304.088
  304.094
  304.099
  304.106
  304.114
  304.137
  304.137
  304.094
  304.069
  304.048
  304.018
  304.007
  304.035
  303.962
  303.939
  303.947
  303.96
  304.061
  303.96
  303.994
  303.925
  303.966
  303.936
)
;
  }
  ceiling
  {
    type wallHeatTransfer;
    Tinf uniform 303.2;
    alphaWall uniform 0.24;
    value nonuniform List<scalar> 43
(
  300.494
  300.403
  300.388
  302.173
  302.69
  303
  303.234
  303.322
  303.358
  303.377
  303.393
  303.409
  303.438
  303.579
  303.648
  303.684
  303.707
  303.72
  303.727
  303.733
  303.738
  303.743
  303.747
  303.751
  303.755
  303.759
  303.763
  303.768
  303.773
  303.779
  303.785
  303.791
  303.798
  303.805
  303.812
  303.821
  303.833
  303.837
  303.831
  303.857
  305.527
  305.286
  298.095
)
;
  }
  sWall
  {
    type wallHeatTransfer;
    Tinf uniform 315.2;
    alphaWall uniform 0.36;
    value uniform 301.755;
  }
  nWall
  {
    type wallHeatTransfer;
    Tinf uniform 307.2;
    alphaWall uniform 0.36;
    value nonuniform List<scalar> 6
(
  304.599
  304.461
  304.376
  304.463
  304.441
  304.487
)
;
  }
  sideWalls
  {
    type empty;
  }
  glass1
  {
    type wallHeatTransfer;
    Tinf uniform 315.2;
    alphaWall uniform 4.3;
    value nonuniform List<scalar> 9
(
  312.286
  311.593
  311.132
  310.76
  310.448
  310.174
  309.948
  309.993
  310.191
)
;
  }
  glass2
  {
    type wallHeatTransfer;
    Tinf uniform 307.2;
    alphaWall uniform 4.3;
    value nonuniform List<scalar> 2
(
  306.052
  306.093
)
;
  }
  sun
  {
    type wallHeatTransfer;
    Tinf uniform 305.2;
    alphaWall uniform 0.24;
    value nonuniform List<scalar> 14
(
  304.279
  304.041
  304.033
  304.028
  304.022
  304.018
  304.013
  304.009
  304.004
  303.999
  303.993
  303.985
  303.977
  303.969
)
;
  }
  Table_master
  {
    type zeroGradient;
  }
  Table_slave
  {
    type zeroGradient;
  }
  inlet
  {
    type fixedValue;
    value uniform 292.15;
  }
  outlet
  {
    type zeroGradient;
  }
} 	// ************************************************************************* //

