/*--------------------------------*- C++ -*----------------------------------*\
  =========                 |
  \\      /  F ield         | OpenFOAM: The Open Source CFD Toolbox
   \\    /   O peration     | Website:  https://openfoam.org
    \\  /    A nd           | Version:  6
     \\/     M anipulation  |
\*---------------------------------------------------------------------------*/
FoamFile
{
    version     2.0;
    format      ascii;
    class       volScalarField;
    location    "800";
    object      alphat;
}
// * * * * * * * * * * * * * * * * * * * * * * * * * * * * * * * * * * * * * //

dimensions      [1 -1 -1 0 0 0 0];

internalField   nonuniform List<scalar> 
458
(
0.00137549
0.00150864
0.00156338
0.00164117
0.00171265
0.00178203
0.00185479
0.00192598
0.00198855
0.00203292
0.00204624
0.0019947
0.00179729
0.00155649
0.00134205
0.000621006
0.000728705
0.000842474
0.000896906
0.000892996
0.000845421
0.000790309
0.000740016
0.000695746
0.000656758
0.000622283
0.000591725
0.000564231
0.000538706
0.000513897
0.000487935
0.000463313
0.000419203
0.00177181
0.0038964
0.0035582
0.00399361
0.00445363
0.00491284
0.00527004
0.00561096
0.00597667
0.00632034
0.00661961
0.00689132
0.00687791
0.0058129
0.00370083
0.00155337
0.00135686
0.00113871
0.000598831
0.00151759
0.00232762
0.00293708
0.00310186
0.00222249
0.00188124
0.00165757
0.00149506
0.00137136
0.00127359
0.00118786
0.00110259
0.00101057
0.000923796
0.000850561
0.00094518
0.00049867
0.00209451
0.00516649
0.00427999
0.00479647
0.00498802
0.00511349
0.00522663
0.00540698
0.00567378
0.00601288
0.00644949
0.00702011
0.00761075
0.0073778
0.00609293
0.00430496
0.0031566
0.00123585
0.000833156
0.00165069
0.00259578
0.00347533
0.00365709
0.00110126
0.000969587
0.000858474
0.00076778
0.00069425
0.000634497
0.00058609
0.000547712
0.000519593
0.000588361
0.000698333
0.00108271
0.000557704
0.00239367
0.00632896
0.00423793
0.00486661
0.00476701
0.00461803
0.00458338
0.00470547
0.0049437
0.00530001
0.0058119
0.00647163
0.00716769
0.00731631
0.00683871
0.00571641
0.00441376
0.00240446
0.00129606
0.00173643
0.00260435
0.00369893
0.00461612
0.00464845
0.00122618
0.00112663
0.00105742
0.0010049
0.000959117
0.000915291
0.000872429
0.000826243
0.000771656
0.00071709
0.000718481
0.00120005
0.000621224
0.00269045
0.00789215
0.00420116
0.00472829
0.00451331
0.00421396
0.00412502
0.00426996
0.00452576
0.00490753
0.00545077
0.00608594
0.00664723
0.00680336
0.00664763
0.00615935
0.00531752
0.00412602
0.00396039
0.00450386
0.0052771
0.00603462
0.00651429
0.00652186
0.0055709
0.00508281
0.00482572
0.00464146
0.00443951
0.00412376
0.0036571
0.00307052
0.00241279
0.00178931
0.0013399
0.00126893
0.000982563
0.000754348
0.000806568
0.000805905
0.0030073
0.00978692
0.00515392
0.00449991
0.00442371
0.0040676
0.00390744
0.00409442
0.004375
0.00477371
0.00531938
0.00588851
0.00626104
0.00628711
0.00623087
0.00621755
0.00606156
0.00581539
0.00622558
0.00701198
0.00762893
0.00793873
0.00792398
0.00763783
0.00715869
0.00678137
0.00649327
0.00622515
0.005938
0.00559871
0.00512392
0.00450476
0.00375537
0.00294602
0.00224854
0.00172237
0.00133753
0.00142546
0.00207155
0.00104741
0.00334224
0.0112766
0.0074817
0.00482474
0.00411605
0.00402676
0.00397148
0.00415879
0.0044305
0.00481037
0.00530133
0.00579223
0.00603522
0.0059432
0.0060878
0.00667922
0.00708996
0.00747065
0.00815991
0.00873399
0.00891468
0.00874517
0.0083205
0.00775575
0.00717362
0.00672127
0.00637538
0.00607635
0.00579477
0.00552286
0.00525635
0.00490108
0.00437944
0.00371456
0.00305889
0.00248162
0.00204468
0.00195798
0.00242524
0.00131409
0.00344041
0.0105184
0.00878101
0.00688801
0.00535817
0.00470454
0.00453618
0.00447972
0.00463054
0.00494689
0.00537249
0.00577383
0.00589306
0.00577452
0.00650972
0.00748357
0.00801682
0.00847724
0.00893267
0.00908309
0.00882257
0.00825289
0.00750859
0.00673658
0.00608826
0.00563939
0.00533239
0.00509942
0.00491415
0.00477656
0.00469563
0.00466077
0.00454742
0.0041702
0.00383036
0.0036342
0.00368863
0.00384331
0.00466419
0.00175503
0.00339839
0.00415966
0.00499036
0.00527576
0.00510491
0.00488565
0.00472791
0.00467588
0.00483637
0.00511587
0.00546343
0.00574061
0.0057005
0.00589772
0.00692372
0.00769471
0.00803427
0.00823951
0.00826842
0.00799238
0.0073845
0.00656955
0.00572072
0.00501139
0.00452538
0.00422394
0.0040249
0.00387443
0.00374742
0.00363028
0.00351158
0.00337983
0.00325056
0.00313705
0.00305294
0.0029969
0.00291436
0.00276173
0.00258674
0.00168144
0.00137336
0.00246931
0.0032471
0.00371128
0.00409114
0.00461591
0.00502545
0.00525502
0.00545843
0.00547378
0.00539066
0.00576
0.00658926
0.00684897
0.00683888
0.00667587
0.00631359
0.0057323
0.0050168
0.00429001
0.0037107
0.00333839
0.00312904
0.00301422
0.00294624
0.00290084
0.00286709
0.00284093
0.00282312
0.00282367
0.00283332
0.00283763
0.00282531
0.00276668
0.0026142
0.002344
0.00199958
0.00133141
0.00258088
0.00455614
0.00492095
0.00557805
0.00640365
0.00616388
0.00546854
0.00495216
0.00474356
0.00419663
0.00418752
0.00457583
0.00469105
0.00456121
0.00431412
0.00395673
0.00349559
0.002999
0.00257397
0.00228944
0.00212769
0.00206369
0.00206145
0.00209679
0.002157
0.0022352
0.00232623
0.00242403
0.00252065
0.00262668
0.00273574
0.00284018
0.00292245
0.00295019
0.00289582
0.00279551
0.0024586
0.00134537
0.00333956
0.00334034
0.0033647
0.00391968
0.00354457
0.00317372
0.00254465
0.0018189
0.00147978
0.00124948
0.00107197
0.000944473
0.000872056
0.000818901
0.000783371
0.000755448
0.000730017
0.000705882
0.000685922
0.000675184
0.000676675
0.000689618
0.000711497
0.000738571
0.000769586
0.000804048
0.000841844
0.000883174
0.000928608
0.000979279
0.00103709
0.00110029
0.00116916
0.00124405
0.00132505
0.00141359
0.00147755
0.00144804
0.00133014
0.0012202
)
;

boundaryField
{
    floor
    {
        type            compressible::alphatWallFunction;
        Prt             0.85;
        value           nonuniform List<scalar> 
36
(
0.000189563
8.74817e-05
0.000103375
0.00011986
0.000127654
0.000127098
0.000120287
0.00011234
0.000105031
9.8547e-05
9.27956e-05
8.76754e-05
8.31079e-05
7.89735e-05
7.51129e-05
7.13388e-05
6.73649e-05
6.35714e-05
5.67108e-05
5.67101e-05
6.90115e-05
7.79894e-05
8.75197e-05
0.000107126
0.000114699
0.000114607
0.000189561
0.000218097
0.000191581
0.000161629
8.74806e-05
0.000161627
8.4168e-05
0.000175041
0.000118516
0.000183299
)
;
    }
    ceiling
    {
        type            compressible::alphatWallFunction;
        Prt             0.85;
        value           nonuniform List<scalar> 
43
(
0.000446449
0.000446544
0.000449549
0.000517488
0.000471741
0.000426019
0.000347141
0.000253482
0.00020838
0.000177089
0.000152518
0.000134575
0.000124258
0.000116621
0.000111484
0.000107427
0.000103715
0.000100178
9.72417e-05
9.56568e-05
9.58755e-05
9.77819e-05
0.000100996
0.000104957
0.000109473
0.000114466
0.000119913
0.000125836
0.000132309
0.000139485
0.000147621
0.000156453
0.000166011
0.000176333
0.000187418
0.000199447
0.000208085
0.000204106
0.000188115
0.000173059
0.000453996
0.000546763
0.000351552
)
;
    }
    sWall
    {
        type            compressible::alphatWallFunction;
        Prt             0.85;
        value           uniform 0.000445169;
    }
    nWall
    {
        type            compressible::alphatWallFunction;
        Prt             0.85;
        value           nonuniform List<scalar> 6(0.000114395 0.000148711 0.000185556 0.00018795 0.00018985 0.00017272);
    }
    sideWalls
    {
        type            empty;
    }
    glass1
    {
        type            compressible::alphatWallFunction;
        Prt             0.85;
        value           nonuniform List<scalar> 9(0.000189045 0.000241311 0.000283029 0.000321166 0.000358561 0.000398048 0.000439349 0.000451511 0.000446615);
    }
    glass2
    {
        type            compressible::alphatWallFunction;
        Prt             0.85;
        value           nonuniform List<scalar> 2(0.000243124 0.000233501);
    }
    sun
    {
        type            compressible::alphatWallFunction;
        Prt             0.85;
        value           nonuniform List<scalar> 
14
(
0.000194112
0.000212078
0.000219419
0.000229803
0.000239297
0.000248469
0.000258048
0.000267381
0.000275552
0.00028133
0.000283064
0.000276362
0.000250496
0.000218511
)
;
    }
    Table_master
    {
        type            compressible::alphatWallFunction;
        Prt             0.85;
        value           nonuniform List<scalar> 9(0.000156603 0.000138129 0.000122312 0.000109221 9.84714e-05 8.96341e-05 8.24002e-05 7.66125e-05 7.23399e-05);
    }
    Table_slave
    {
        type            compressible::alphatWallFunction;
        Prt             0.85;
        value           nonuniform List<scalar> 9(0.000173897 0.000160135 0.000150485 0.000143113 0.000136651 0.00013043 0.000124313 0.000117681 0.000109785);
    }
    inlet
    {
        type            fixedValue;
        value           uniform 1.94e-05;
    }
    outlet
    {
        type            zeroGradient;
    }
}


// ************************************************************************* //
