/*--------------------------------*- C++ -*----------------------------------*\
  =========                 |
  \\      /  F ield         | OpenFOAM: The Open Source CFD Toolbox
   \\    /   O peration     | Website:  https://openfoam.org
    \\  /    A nd           | Version:  6
     \\/     M anipulation  |
\*---------------------------------------------------------------------------*/
FoamFile
{
    version     2.0;
    format      ascii;
    class       volScalarField;
    location    "800";
    object      epsilon;
}
// * * * * * * * * * * * * * * * * * * * * * * * * * * * * * * * * * * * * * //

dimensions      [0 2 -3 0 0 0 0];

internalField   nonuniform List<scalar> 
458
(
0.000581325
0.000764894
0.000851117
0.000984563
0.00111889
0.00126043
0.00142121
0.00159124
0.00175151
0.00187166
0.00190928
0.00176988
0.0012955
0.000841612
0.000539609
5.3689e-05
8.67175e-05
0.000133991
0.000161715
0.000159637
0.000135475
0.000110682
9.0877e-05
7.55312e-05
6.35382e-05
5.4054e-05
4.64804e-05
4.0302e-05
3.50798e-05
3.04565e-05
2.60733e-05
2.23255e-05
1.65426e-05
0.00124462
0.00175767
0.000716007
0.000706565
0.000728451
0.000786411
0.000894554
0.00104589
0.00121082
0.00133275
0.00135827
0.00129285
0.00103463
0.000766366
0.000562521
0.000837146
0.000558003
0.000329894
4.81483e-05
8.71928e-05
0.00011811
0.000127142
0.000128365
0.000135294
0.000109509
8.58747e-05
6.76996e-05
5.39534e-05
4.35581e-05
3.5647e-05
2.95157e-05
2.47616e-05
2.18544e-05
2.06798e-05
3.65507e-05
2.78442e-05
0.00205987
0.00370802
0.000732519
0.000621705
0.000630179
0.000691796
0.000806001
0.000966119
0.0011379
0.00126133
0.00129933
0.00126776
0.0010916
0.000818913
0.000602346
0.000503564
0.000419021
0.000421825
0.000129578
0.000147647
0.00014895
0.000144121
0.000142997
0.000299504
0.000204413
0.000141891
0.00010151
7.50548e-05
5.72994e-05
4.51636e-05
3.68627e-05
3.14741e-05
2.45313e-05
2.12966e-05
5.88486e-05
3.89514e-05
0.00308068
0.00713839
0.000898494
0.000569963
0.00056353
0.000626639
0.000752101
0.00094276
0.00114127
0.00127929
0.00133234
0.00130325
0.00110833
0.000796393
0.000568564
0.000432706
0.000357731
0.000355797
0.000486783
0.000354705
0.000260809
0.000211727
0.000182179
0.000169611
0.000413943
0.000321207
0.000265646
0.000228055
0.000198324
0.00017239
0.00014931
0.000126845
0.000103338
6.14579e-05
3.80493e-05
8.75621e-05
5.38418e-05
0.00438358
0.0126131
0.00142938
0.000545454
0.00049896
0.000567669
0.000731565
0.00101063
0.00126333
0.00142372
0.0014803
0.00142184
0.00115285
0.000770645
0.000510281
0.000378923
0.000314355
0.000310897
0.000356593
0.00031289
0.000271269
0.000239385
0.000207968
0.000176615
0.000164295
0.000152105
0.000144726
0.000137828
0.00012895
0.000117757
0.000105171
9.20434e-05
7.9075e-05
6.19491e-05
4.60655e-05
6.47169e-05
8.32557e-05
9.64394e-05
0.000117912
0.000117696
0.00613399
0.0193353
0.0030504
0.000691742
0.000472534
0.000504955
0.000751397
0.00120673
0.00151535
0.0016879
0.00172613
0.00160597
0.00124036
0.000751224
0.000429554
0.000298961
0.000265278
0.000282247
0.00030909
0.000310102
0.000294954
0.000264455
0.000223827
0.000182296
0.000154341
0.000144095
0.000142424
0.00014088
0.000135966
0.000126388
0.000111901
9.58761e-05
8.06722e-05
6.64016e-05
5.52873e-05
5.65592e-05
6.70081e-05
0.000108336
0.000420782
0.000258445
0.00843506
0.0236708
0.0070726
0.00223114
0.00102025
0.000725425
0.00112039
0.00165006
0.00194726
0.00208257
0.00205844
0.00185002
0.0013575
0.000729978
0.000344712
0.000221465
0.000223187
0.000262846
0.000300662
0.000311931
0.000293633
0.000255292
0.000210233
0.000171125
0.000149526
0.000146998
0.000152577
0.000158895
0.000163049
0.000163238
0.000155859
0.000140513
0.000124802
0.000111205
0.000104236
0.000109347
0.000132537
0.00020619
0.00079321
0.000510496
0.00922347
0.0279447
0.0152252
0.00846269
0.00446937
0.00273583
0.00251223
0.00259196
0.00266795
0.00265031
0.00248178
0.00212885
0.00145424
0.000654148
0.000260428
0.000188163
0.000205636
0.000245342
0.000274979
0.000274245
0.000246429
0.000207748
0.000173135
0.000151431
0.000145529
0.000152289
0.000165885
0.000183319
0.000204044
0.000228245
0.000255558
0.000280166
0.000298561
0.000334026
0.000402932
0.000571402
0.000948064
0.00150698
0.00498943
0.00121811
0.00892142
0.0163008
0.0143603
0.0110602
0.00802099
0.00598118
0.00470678
0.00403293
0.00369376
0.00336791
0.0029321
0.00236029
0.00140513
0.000449678
0.000206496
0.000171147
0.000183565
0.000202117
0.000208186
0.000196498
0.000172795
0.000148653
0.000132654
0.000127913
0.000133525
0.000147013
0.000166591
0.000192249
0.000225409
0.000268583
0.000325253
0.000399525
0.000498256
0.000636419
0.000837117
0.0011086
0.00142792
0.00173602
0.00201753
0.00107309
0.00591548
0.00680027
0.00663354
0.00603668
0.00552471
0.0052761
0.00478832
0.0040259
0.00316684
0.00230158
0.000819626
0.000260766
0.000151893
0.000133897
0.000133917
0.000133712
0.000127091
0.000115148
0.00010332
9.50366e-05
9.29649e-05
9.71324e-05
0.000106437
0.00012003
0.00013775
0.000160157
0.000188496
0.000224841
0.000272493
0.00033715
0.000425256
0.000543194
0.000694956
0.000866981
0.00101243
0.00106033
0.0009804
0.000533073
0.00370618
0.0249463
0.0164424
0.0133047
0.0117262
0.0084921
0.00558572
0.00357749
0.00167277
0.000631739
0.000224031
0.000122668
9.34522e-05
8.31334e-05
7.70821e-05
7.10916e-05
6.47351e-05
5.9696e-05
5.78274e-05
5.97549e-05
6.49461e-05
7.28929e-05
8.34956e-05
9.70125e-05
0.000114058
0.000135628
0.000163207
0.000198959
0.000246027
0.000308332
0.000391051
0.000500001
0.000636995
0.000789352
0.000923351
0.00103309
0.000720953
0.000549953
0.00810556
0.00810989
0.00828823
0.0131916
0.00979162
0.00705278
0.00365844
0.00134845
0.000729292
0.000439923
0.000278078
0.000190251
0.000149776
0.000124032
0.000108582
9.73816e-05
8.78733e-05
7.94398e-05
7.2885e-05
6.95093e-05
6.99646e-05
7.405e-05
8.13175e-05
9.09517e-05
0.000102892
0.000117335
0.000134664
0.00015548
0.000180723
0.000211941
0.000251728
0.000300595
0.000360631
0.000434454
0.000524966
0.0006374
0.000727969
0.000685287
0.000531207
0.000410259
)
;

boundaryField
{
    floor
    {
        Cmu             0.09;
        kappa           0.41;
        E               9.8;
        type            epsilonWallFunction;
        value           nonuniform List<scalar> 
36
(
0.000539609
5.3689e-05
8.67175e-05
0.000133991
0.000161715
0.000159637
0.000135475
0.000110682
9.0877e-05
7.55312e-05
6.35382e-05
5.4054e-05
4.64804e-05
4.0302e-05
3.50798e-05
3.04565e-05
2.60733e-05
2.23255e-05
1.65426e-05
1.65426e-05
2.78442e-05
3.89514e-05
5.38418e-05
9.64394e-05
0.000117912
0.000117696
0.000539609
0.000837146
0.000558003
0.000329894
5.3689e-05
0.000329894
4.81483e-05
0.000421825
0.000129578
0.000486783
)
;
    }
    ceiling
    {
        Cmu             0.09;
        kappa           0.41;
        E               9.8;
        type            epsilonWallFunction;
        value           nonuniform List<scalar> 
43
(
0.00810556
0.00810989
0.00828823
0.0131916
0.00979162
0.00705278
0.00365844
0.00134845
0.000729292
0.000439923
0.000278078
0.000190251
0.000149776
0.000124032
0.000108582
9.73816e-05
8.78733e-05
7.94398e-05
7.2885e-05
6.95093e-05
6.99646e-05
7.405e-05
8.13175e-05
9.09517e-05
0.000102892
0.000117335
0.000134664
0.00015548
0.000180723
0.000211941
0.000251728
0.000300595
0.000360631
0.000434454
0.000524966
0.0006374
0.000727969
0.000685287
0.000531207
0.000410259
0.00892142
0.0163008
0.00370618
)
;
    }
    sWall
    {
        Cmu             0.09;
        kappa           0.41;
        E               9.8;
        type            epsilonWallFunction;
        value           uniform 0.00810556;
    }
    nWall
    {
        Cmu             0.09;
        kappa           0.41;
        E               9.8;
        type            epsilonWallFunction;
        value           nonuniform List<scalar> 6(0.000117696 0.000258445 0.000510496 0.000533073 0.000549953 0.000410259);
    }
    sideWalls
    {
        type            empty;
    }
    glass1
    {
        Cmu             0.09;
        kappa           0.41;
        E               9.8;
        type            epsilonWallFunction;
        value           nonuniform List<scalar> 9(0.000581325 0.00124462 0.00205987 0.00308068 0.00438358 0.00613399 0.00843506 0.00922347 0.00892142);
    }
    glass2
    {
        Cmu             0.09;
        kappa           0.41;
        E               9.8;
        type            epsilonWallFunction;
        value           nonuniform List<scalar> 2(0.00121811 0.00107309);
    }
    sun
    {
        Cmu             0.09;
        kappa           0.41;
        E               9.8;
        type            epsilonWallFunction;
        value           nonuniform List<scalar> 
14
(
0.000581325
0.000764894
0.000851117
0.000984563
0.00111889
0.00126043
0.00142121
0.00159124
0.00175151
0.00187166
0.00190928
0.00176988
0.0012955
0.000841612
)
;
    }
    Table_master
    {
        Cmu             0.09;
        kappa           0.41;
        E               9.8;
        type            epsilonWallFunction;
        value           nonuniform List<scalar> 9(0.000299504 0.000204413 0.000141891 0.00010151 7.50548e-05 5.72994e-05 4.51636e-05 3.68627e-05 3.14741e-05);
    }
    Table_slave
    {
        Cmu             0.09;
        kappa           0.41;
        E               9.8;
        type            epsilonWallFunction;
        value           nonuniform List<scalar> 9(0.000413943 0.000321207 0.000265646 0.000228055 0.000198324 0.00017239 0.00014931 0.000126845 0.000103338);
    }
    inlet
    {
        type            turbulentMixingLengthDissipationRateInlet;
        mixingLength    0.01;
        phi             phi;
        k               k;
        value           uniform 0.00377336;
    }
    outlet
    {
        type            zeroGradient;
    }
}


// ************************************************************************* //
