/*--------------------------------*- C++ -*----------------------------------*\
  =========                 |
  \\      /  F ield         | OpenFOAM: The Open Source CFD Toolbox
   \\    /   O peration     | Website:  https://openfoam.org
    \\  /    A nd           | Version:  6
     \\/     M anipulation  |
\*---------------------------------------------------------------------------*/
FoamFile
{
    version     2.0;
    format      ascii;
    class       surfaceScalarField;
    location    "1300";
    object      phi;
}
// * * * * * * * * * * * * * * * * * * * * * * * * * * * * * * * * * * * * * //

dimensions      [1 0 -1 0 0 0 0];

internalField   nonuniform List<scalar> 
850
(
-0.0024985
0.00256186
-0.00276931
0.000270868
-0.00314198
0.000372718
-0.00353868
0.000396758
-0.00390259
0.000363962
-0.00420875
0.000306214
-0.00443853
0.000229831
-0.00457287
0.000134399
-0.00459065
1.78352e-05
-0.0044662
-0.000124405
-0.00417362
-0.000292521
-0.00369324
-0.000480329
-0.00298605
-0.000707135
-0.00188805
-0.00109795
-0.00188593
-0.000401337
0.000405249
-0.000154648
-0.000246628
0.000218768
-0.000373354
0.000402047
-0.000183214
0.00019801
0.000204108
-0.000163073
0.000361201
-0.000327358
0.000164357
-0.000377789
5.04986e-05
-0.00035432
-2.34011e-05
-0.000285927
-6.83231e-05
-0.000188336
-9.75219e-05
-5.26658e-05
-0.0001356
0.00014769
-0.000200287
0.000417299
-0.00026954
0.000638356
-0.000220991
0.000803499
-0.000165079
0.000774117
2.94438e-05
0.000779445
-0.00183994
0.00456733
-0.00246255
0.000893536
-0.00299385
0.000904064
-0.00344019
0.000843156
-0.00383066
0.000754487
-0.004161
0.000636606
-0.00441917
0.000488055
-0.00458962
0.000304901
-0.00465534
8.36106e-05
-0.00460281
-0.000176882
-0.00442123
-0.000474042
-0.00409791
-0.000803602
-0.00362748
-0.00117751
-0.00312224
-0.00160313
-0.0031543
-0.00185381
-0.00151025
-0.00164006
0.000211058
-0.00171713
0.0002242
0.000693638
-0.00027889
0.00049907
-5.20017e-05
0.000283819
-0.000158043
0.000445396
-0.00034473
0.0007039
-5.43264e-05
0.000650088
0.00041509
0.000565417
0.000249101
0.000512261
0.000103728
0.000448322
4.06103e-05
0.000387266
-7.19301e-06
0.00034896
-5.9143e-05
0.000333202
-0.00011977
0.000343888
-0.000210901
0.000399827
-0.000325409
0.000500518
-0.00032162
0.000621965
-0.00028647
0.000520229
0.000131237
0.00131219
-0.0013724
0.0061864
-0.00211986
0.00164105
-0.00266942
0.00145367
-0.0031001
0.00127389
-0.00347695
0.00113139
-0.00380285
0.000962562
-0.00406846
0.00075372
-0.00426013
0.000496626
-0.00436294
0.000186472
-0.00436473
-0.000175042
-0.00425942
-0.000579294
-0.00405365
-0.00100932
-0.00378763
-0.00144348
-0.00355962
-0.00183109
-0.0033659
-0.00204748
-0.00289875
-0.00210715
-0.00242649
-0.00218933
-0.00219221
-0.000794575
0.000527836
-0.000903419
5.68986e-05
-0.000804255
-0.00025715
-0.000583406
-0.000565523
0.000247506
-0.000885181
0.000662818
0.000912142
0.00101609
0.00105693
0.00104996
0.000991045
0.000871503
0.000660831
0.000335649
-8.37003e-07
1.49195e-05
-0.000669211
0.000381957
-0.00106387
0.000525955
0.000267959
-0.00103195
0.00753074
-0.00179469
0.00240385
-0.00223103
0.00189007
-0.00258941
0.00163233
-0.00291227
0.00145431
-0.00320033
0.00125067
-0.00344614
0.00099959
-0.00363743
0.000687969
-0.00375809
0.000307181
-0.00379168
-0.0001414
-0.00373473
-0.000636186
-0.00361199
-0.00113201
-0.00347633
-0.00157909
-0.00338428
-0.00192309
-0.00331743
-0.00211427
-0.00324674
-0.00217779
-0.00331183
-0.00212419
-0.00386438
-0.00163961
-0.00300557
-0.000846837
-0.00218222
-0.000295457
-0.00187113
-0.000254142
-0.00168635
-0.000441871
-0.00161987
-0.000631956
-0.00182338
-0.000681617
-0.00133134
-0.000492146
-0.000863547
-0.000467892
-0.000336688
-0.000526961
0.000269467
-0.000606256
0.000888586
-0.000619224
0.0014782
-0.000589716
0.00201749
-0.000539393
0.00243866
-0.000421277
0.00260921
-0.000170651
0.00237506
0.000249115
0.00198652
0.000770538
0.00135598
0.00115654
0.00164154
-0.00077293
0.0086708
-0.00149865
0.00312962
-0.00171748
0.00210895
-0.00195769
0.0018726
-0.00219427
0.00169094
-0.00240908
0.00146553
-0.00259616
0.00118672
-0.00274796
0.000839821
-0.00285017
0.000409445
-0.00288063
-0.00011089
-0.00283341
-0.000683356
-0.0027462
-0.00121917
-0.00266911
-0.00165613
-0.00263414
-0.00195801
-0.00263464
-0.00211372
-0.00267298
-0.0021394
-0.00278798
-0.00200914
-0.00281741
-0.00161014
-0.00256746
-0.00109673
-0.00213969
-0.000723179
-0.00179144
-0.000602336
-0.00158384
-0.000649424
-0.00148082
-0.000734922
-0.0013964
-0.000765985
-0.0011315
-0.000756992
-0.000782004
-0.000817341
-0.000363039
-0.000945876
0.000121128
-0.00109037
0.000617083
-0.00111513
0.00110267
-0.00107526
0.001582
-0.00101867
0.00202786
-0.000867083
0.00238115
-0.000523893
0.00256289
6.74204e-05
0.00257623
0.000757245
0.00243949
0.00129334
0.00269354
0.00138754
0.00140064
0.00131038
-0.000536277
0.00195512
-0.00046929
-0.00070688
0.00979151
-0.00134274
0.00376553
-0.00116691
0.00193317
-0.00119222
0.00189796
-0.00134144
0.00184021
-0.00147306
0.00159719
-0.00156913
0.00128284
-0.00163703
0.000907773
-0.00167411
0.000446574
-0.00165891
-0.000126041
-0.00159299
-0.000749217
-0.00152526
-0.00128685
-0.00149465
-0.00168669
-0.0015156
-0.00193701
-0.0015819
-0.00204736
-0.00168782
-0.00203343
-0.00181142
-0.0018855
-0.00183582
-0.00158569
-0.00171324
-0.00121926
-0.0015034
-0.000932967
-0.00131659
-0.000789092
-0.00120267
-0.000763296
-0.00114374
-0.000793798
-0.00107361
-0.000836067
-0.000929449
-0.000901103
-0.000713639
-0.0010331
-0.000430044
-0.00122942
-9.74313e-05
-0.00142293
0.000239389
-0.0014519
0.000588192
-0.00142401
0.000966145
-0.00139657
0.00137743
-0.00127832
0.00180973
-0.000956144
0.00221231
-0.000335115
0.00250096
0.000468651
0.00271031
0.00108404
0.00276046
0.00133743
0.0025496
0.00152129
0.00239338
0.00211138
0.00198561
-0.000916003
0.011163
-0.00106063
0.00391021
-0.000272977
0.00114557
-3.64197e-05
0.00166145
-0.000171345
0.00197519
-0.000293319
0.00171922
-0.000317217
0.00130679
-0.000282909
0.000873516
-0.000206633
0.000370348
-0.000106726
-0.000225898
-2.51452e-05
-0.000830747
-4.70608e-07
-0.00131147
-4.63521e-05
-0.00164076
-0.000155736
-0.00182758
-0.00031171
-0.00189134
-0.000494625
-0.00185047
-0.000667765
-0.00171231
-0.000769001
-0.00148441
-0.00077424
-0.00121397
-0.000726154
-0.000981003
-0.000682821
-0.000832376
-0.000676489
-0.00076958
-0.000700339
-0.000769899
-0.000721759
-0.000814599
-0.000708845
-0.000913969
-0.000646261
-0.00109564
-0.000520282
-0.00135535
-0.000349977
-0.00159319
-0.00020757
-0.00159425
-6.09688e-05
-0.00157056
0.000128728
-0.00158622
0.000387852
-0.00153739
0.000746365
-0.00131461
0.00123021
-0.000818907
0.00169823
6.79839e-07
0.00203521
0.000747097
0.00228232
0.00109037
0.00252996
0.0012737
0.00252941
0.00211198
0.00457791
0.00202433
0.00964678
0.00249462
0.00343997
0.00267196
0.000968284
0.00243114
0.00190233
0.00204455
0.00236183
0.00178243
0.00198139
0.00167315
0.00141613
0.00167603
0.000870683
0.0017683
0.000278133
0.00187459
-0.000332134
0.00188325
-0.000839356
0.00178174
-0.00120991
0.00159316
-0.00145214
0.00134699
-0.00158136
0.00106908
-0.00161339
0.000782454
-0.0015638
0.000516156
-0.00144597
0.000306021
-0.00127423
0.000168814
-0.00107672
8.24013e-05
-0.000894545
8.43008e-06
-0.000758358
-8.12121e-05
-0.000679891
-0.000192994
-0.000658071
-0.00031855
-0.000688997
-0.000444072
-0.000788401
-0.000548278
-0.000991385
-0.000593872
-0.00130971
-0.000581351
-0.00160566
-0.000652848
-0.0015227
-0.000775899
-0.00144746
-0.000896208
-0.00146586
-0.000971654
-0.0014619
-0.000944558
-0.00134166
-0.000733764
-0.00102965
-0.000241719
-0.000491316
0.000250119
0.000255308
0.000621229
0.000719311
0.00103775
0.000857238
0.000873836
0.00227594
0.00574074
0.0102054
0.0136385
0.0121832
0.00242363
0.00980356
0.00428199
0.00806316
0.00410228
0.00683689
0.00320771
0.00597539
0.00227768
0.00541474
0.00143139
0.00499499
0.000697927
0.00457469
8.82169e-05
0.00413316
-0.000397772
0.00368288
-0.00075959
0.00323174
-0.00100096
0.00278673
-0.0011363
0.00235688
-0.0011835
0.00195316
-0.00116003
0.00158925
-0.00108202
0.00128059
-0.000965517
0.00103421
-0.000830303
0.00083915
-0.000699437
0.000672444
-0.000591609
0.000509824
-0.000517227
0.00033212
-0.000480323
0.000126062
-0.000482894
-0.000116455
-0.00054584
-0.00038056
-0.000727236
-0.000588944
-0.00110128
-0.00068239
-0.00151217
-0.000965448
-0.00123959
-0.00140973
-0.00100313
-0.00193628
-0.000939251
-0.00254051
-0.000857619
-0.00322587
-0.000656249
-0.00397362
-0.000281854
-0.00475476
0.000289871
-0.00555416
0.00105475
-0.0066879
0.0018531
-0.00820778
0.00237717
-0.0077554
0.0018236
-0.00169631
0.00307599
0.00368348
0.00401933
0.00333866
0.00525623
0.00286541
0.00563009
0.00283388
0.00565526
0.00225255
0.0056017
0.00148499
0.0054896
0.000810062
0.00528473
0.000293139
0.00497231
-8.53146e-05
0.00457289
-0.000360126
0.00412144
-0.000549457
0.00364933
-0.000664146
0.00318173
-0.000715863
0.00273826
-0.000716507
0.00233396
-0.000677675
0.00197954
-0.000611061
0.00167869
-0.00052941
0.00142519
-0.000445888
0.0012047
-0.00037108
0.000998931
-0.000311417
0.00078932
-0.000270669
0.000558615
-0.000252147
0.000280217
-0.000267401
-7.00364e-05
-0.000376941
-0.000408362
-0.000762906
-0.000514088
-0.00140639
-0.000866725
-0.000886903
-0.00141334
-0.000456456
-0.00196886
-0.00038368
-0.00251001
-0.00031642
-0.00301171
-0.000154496
-0.00343838
0.000144866
-0.00379024
0.000641777
-0.0040481
0.00131266
-0.00418313
0.00198818
-0.00407099
0.00226507
-0.00250195
0.000254607
-0.00411516
-0.00055893
0.00428356
0.00117785
0.00160191
0.00227916
0.00176413
0.00319338
0.00191969
0.00393816
0.0015078
0.00444349
0.000979698
0.00469903
0.000554561
0.00474637
0.000245845
0.00463264
2.84567e-05
0.0043993
-0.000126747
0.00408177
-0.000231888
0.00371435
-0.000296684
0.00332635
-0.000327829
0.00294139
-0.000331506
0.00257754
-0.000313781
0.00224724
-0.000280715
0.00195663
-0.000238766
0.00170541
-0.000194624
0.0014883
-0.000153931
0.00129708
-0.000120151
0.00112108
-9.46342e-05
0.000945526
-7.65492e-05
0.000746011
-6.7845e-05
0.000482136
-0.000113024
0.000100409
-0.000381138
-0.000280284
-0.00102566
-0.000625861
-0.000541274
-0.000958718
-0.000123544
-0.00125562
-8.67238e-05
-0.00150716
-6.48271e-05
-0.00169823
3.66272e-05
-0.00179012
0.000236801
-0.00171925
0.000570964
-0.0014469
0.00104036
-0.000692482
0.00123381
0.000764783
0.000807859
0.00150852
-0.000489075
-0.00251547
-0.00678106
-0.00898346
-0.00466809
-0.00305213
-0.00127852
0.000647802
0.00216067
0.00314489
0.00370376
0.00395389
0.00398673
0.00386448
0.00363721
0.00334528
0.00302237
0.00269598
0.00238754
0.00211243
0.00187958
0.0016912
0.00154387
0.00143066
0.00134329
0.00127428
0.00121421
0.00110921
0.00073645
-0.000280356
-0.000812997
-0.000928653
-0.00100815
-0.0010664
-0.00102381
-0.000781675
-0.000205905
0.000838734
0.00207661
0.00288854
0.0024038
)
;

boundaryField
{
    floor
    {
        type            calculated;
        value           nonuniform List<scalar> 
36
(
0
0
0
0
0
0
0
0
0
0
0
0
0
0
0
0
0
0
0
-5.26638e-06
-1.2453e-05
-1.95887e-05
-1.75542e-05
-1.74313e-05
-1.81507e-05
-1.67599e-05
-2.06573e-06
-3.94392e-06
-4.12611e-06
-5.20437e-06
-3.85182e-06
-7.88321e-06
-9.44018e-06
-1.00254e-05
-1.2095e-05
-1.1915e-05
)
;
    }
    ceiling
    {
        type            calculated;
        value           nonuniform List<scalar> 
43
(
-3.50923e-05
-3.34559e-05
-3.17924e-05
-1.40238e-05
-9.4491e-06
-6.59737e-06
-5.02946e-06
-4.47979e-06
-4.26834e-06
-4.24686e-06
-4.34689e-06
-4.4589e-06
-4.57912e-06
-4.71705e-06
-4.87982e-06
-5.07334e-06
-5.30219e-06
-5.56885e-06
-5.87207e-06
-6.20517e-06
-6.55499e-06
-6.90229e-06
-7.22432e-06
-7.5015e-06
-7.73552e-06
-7.9823e-06
-8.34292e-06
-8.82442e-06
-8.58203e-06
-7.83389e-06
-7.16855e-06
-6.53156e-06
-5.90507e-06
-5.28313e-06
-4.75545e-06
-4.23446e-06
-4.01713e-06
-4.02129e-06
-4.282e-06
-3.9097e-06
9.87134e-06
6.89995e-06
-4.11633e-05
)
;
    }
    sWall
    {
        type            calculated;
        value           uniform -0.000235846;
    }
    nWall
    {
        type            calculated;
        value           nonuniform List<scalar> 6(-5.01777e-05 -6.14641e-05 -6.28408e-05 -8.30528e-05 -9.11193e-05 -0.000107711);
    }
    sideWalls
    {
        type            empty;
        value           nonuniform 0();
    }
    glass1
    {
        type            calculated;
        value           nonuniform List<scalar> 9(-6.33018e-05 -0.000165483 -0.000246627 -0.000312341 -0.000367084 -0.00041378 -0.000455437 -0.000508073 -0.000568398);
    }
    glass2
    {
        type            calculated;
        value           nonuniform List<scalar> 2(-0.000288944 -0.000318303);
    }
    sun
    {
        type            calculated;
        value           uniform 0;
    }
    Table_master
    {
        type            calculated;
        value           nonuniform List<scalar> 9(-1.54003e-07 -1.54012e-07 -1.54025e-07 -1.54047e-07 -1.54077e-07 -1.5411e-07 -1.54162e-07 -1.54235e-07 -1.54321e-07);
    }
    Table_slave
    {
        type            calculated;
        value           nonuniform List<scalar> 9(1.53387e-07 1.53553e-07 1.537e-07 1.53773e-07 1.53663e-07 1.53457e-07 1.53272e-07 1.5313e-07 1.53076e-07);
    }
    inlet
    {
        type            calculated;
        value           uniform -0.00433585;
    }
    outlet
    {
        type            calculated;
        value           nonuniform List<scalar> 2(0.00705202 0.00223586);
    }
}


// ************************************************************************* //
