/*--------------------------------*- C++ -*----------------------------------*\
  =========                 |
  \\      /  F ield         | OpenFOAM: The Open Source CFD Toolbox
   \\    /   O peration     | Website:  https://openfoam.org
    \\  /    A nd           | Version:  6
     \\/     M anipulation  |
\*---------------------------------------------------------------------------*/
FoamFile
{
    version     2.0;
    format      ascii;
    class       volScalarField;
    location    "100";
    object      k;
}
// * * * * * * * * * * * * * * * * * * * * * * * * * * * * * * * * * * * * * //

dimensions      [0 2 -2 0 0 0 0];

internalField   nonuniform List<scalar> 
458
(
0.00671643
0.0101321
0.0109998
0.0101964
0.00930498
0.00851643
0.00782986
0.00722087
0.00668312
0.00619853
0.00574213
0.0052925
0.00482478
0.0042972
0.00369344
0.000712643
0.000917664
0.00113763
0.00141242
0.00165968
0.00143965
0.00122502
0.00106417
0.000945138
0.000855453
0.000786808
0.000733053
0.000687946
0.000647794
0.000607595
0.000563074
0.000507206
0.000434838
0.00625532
0.014717
0.0155693
0.014344
0.0125564
0.0110105
0.00979038
0.00881129
0.00800012
0.00730459
0.00668829
0.00611536
0.00554185
0.00491849
0.00409128
0.0037358
0.00318521
0.00239663
0.000671114
0.000969013
0.00149234
0.00204578
0.00246337
0.00214667
0.00170103
0.0013756
0.0011601
0.00101302
0.000913192
0.000863254
0.000837504
0.000788486
0.000721289
0.000653301
0.000574268
0.000447818
0.0133182
0.0203964
0.0186818
0.0156409
0.0130845
0.0113475
0.0101927
0.00935792
0.00866568
0.00802163
0.00737578
0.0067034
0.00599713
0.00525704
0.00449084
0.00399408
0.0035304
0.00271417
0.000630154
0.00106786
0.00150368
0.0020773
0.00263867
0.00212371
0.00158165
0.00115729
0.000858983
0.000652007
0.000503524
0.00039697
0.000375424
0.000425984
0.000523279
0.00056325
0.000560026
0.000450252
0.0174296
0.0299782
0.0221226
0.0157672
0.0123473
0.0106895
0.00995844
0.00959906
0.00917523
0.00860855
0.0079124
0.00713272
0.00631775
0.00550585
0.00474759
0.00413506
0.00356364
0.00286735
0.00259247
0.00173485
0.00155471
0.00188036
0.00260427
0.00334157
0.00310145
0.00282689
0.00259092
0.0023795
0.00218754
0.00201139
0.00183215
0.00163912
0.00142482
0.0011168
0.000873478
0.000723233
0.000508677
0.0185265
0.038438
0.0207076
0.0122186
0.0096566
0.00902663
0.00913429
0.0092474
0.00904028
0.00854026
0.00787661
0.00712627
0.00633796
0.00555626
0.00484439
0.00422629
0.00365601
0.00315477
0.00292153
0.00248528
0.00244632
0.00301255
0.00391171
0.00467443
0.00485488
0.00466498
0.00444632
0.00425363
0.00402776
0.00371215
0.00330434
0.00281085
0.00225525
0.00167042
0.00118669
0.00088546
0.000600124
0.000560596
0.000817254
0.000917227
0.0189681
0.03964
0.0158151
0.00877302
0.00813704
0.00803444
0.00814149
0.00818152
0.00812772
0.00780526
0.00733962
0.00677398
0.0061387
0.0054912
0.00490404
0.0043846
0.00393572
0.00364663
0.00359294
0.00370093
0.00434211
0.0053889
0.0062775
0.00663499
0.00644205
0.00606416
0.00570912
0.00533543
0.00488855
0.0043694
0.00378409
0.00314775
0.00249233
0.001868
0.00135383
0.00101057
0.000749
0.000657248
0.00181811
0.00137838
0.0193048
0.0338692
0.01393
0.00792277
0.00753911
0.00729174
0.00720307
0.00713644
0.00706544
0.00694522
0.00672151
0.00639313
0.00598406
0.0055484
0.00514937
0.00480278
0.0046054
0.00473371
0.00535746
0.00644068
0.00780735
0.00869466
0.00895993
0.0085771
0.00779416
0.00698729
0.00628173
0.00563862
0.00500849
0.00436446
0.00370513
0.00304518
0.00241455
0.00185687
0.00141774
0.00112707
0.000946327
0.000905257
0.0013533
0.00119966
0.0197077
0.0271908
0.0177878
0.00907416
0.00717408
0.00673742
0.00662232
0.00658339
0.00654586
0.00651419
0.00645574
0.0063462
0.00619738
0.0060533
0.00597492
0.00600156
0.00629957
0.00718164
0.00850812
0.00987847
0.0108455
0.0109718
0.0103509
0.00919765
0.00793184
0.00688299
0.00605019
0.00533212
0.00465527
0.00399524
0.00335457
0.00275141
0.00221435
0.00177783
0.00147185
0.00132317
0.00141416
0.0017998
0.00481685
0.00152264
0.0203928
0.025647
0.0300541
0.0149034
0.00747109
0.00665792
0.00662905
0.00671163
0.00678011
0.00684402
0.00693368
0.0070422
0.00718236
0.00738871
0.00771198
0.00820495
0.00896015
0.0100275
0.0110974
0.011763
0.0117539
0.0110642
0.00992549
0.00864618
0.00748688
0.00654793
0.00577392
0.00507927
0.00441191
0.00375473
0.00311394
0.0025134
0.0019926
0.00160694
0.00143357
0.00156637
0.00201732
0.00258559
0.00293991
0.00170196
0.0474612
0.0213605
0.00891026
0.00728418
0.00724618
0.00744651
0.00769845
0.00796877
0.00824576
0.00856808
0.00895483
0.00941804
0.00996478
0.0105823
0.0112302
0.0117936
0.0120439
0.0118447
0.0112184
0.0103301
0.00939054
0.00854786
0.00785136
0.00727049
0.00674405
0.00621703
0.00565095
0.00502175
0.00432224
0.00357274
0.00283491
0.0022146
0.00183729
0.0017918
0.0020534
0.00245199
0.00278575
0.00217191
0.010685
0.0126033
0.00999095
0.00861972
0.00832642
0.00828304
0.00831488
0.0083926
0.00852306
0.00875328
0.00908174
0.00949493
0.00997708
0.0105
0.0110149
0.0114452
0.0116957
0.0117172
0.011533
0.0112186
0.0108605
0.010523
0.0102314
0.00997343
0.00971367
0.00940797
0.00900914
0.00847035
0.0077563
0.00686406
0.00584446
0.00480756
0.00390009
0.00325657
0.00293994
0.00294443
0.0044456
0.00301316
0.00379473
0.0043941
0.00500271
0.00430224
0.00427936
0.00436894
0.00451734
0.00467415
0.00483466
0.00500495
0.00519469
0.00537543
0.00553715
0.00567602
0.00578302
0.00584456
0.00584494
0.00577028
0.00561716
0.00540322
0.00516103
0.00492592
0.00472179
0.00455371
0.00441201
0.00428092
0.00414493
0.00399148
0.00381199
0.00360303
0.00336786
0.00311708
0.00286724
0.00263791
0.00244856
0.0023155
0.00224956
0.00226476
0.00269791
0.00280447
)
;

boundaryField
{
    floor
    {
        type            kqRWallFunction;
        value           nonuniform List<scalar> 
36
(
0.00369344
0.000712643
0.000917664
0.00113763
0.00141242
0.00165968
0.00143965
0.00122502
0.00106417
0.000945138
0.000855453
0.000786808
0.000733053
0.000687946
0.000647794
0.000607595
0.000563074
0.000507206
0.000434838
0.000434838
0.000447818
0.000450252
0.000508677
0.000560596
0.000817254
0.000917227
0.00369344
0.0037358
0.00318521
0.00239663
0.000712643
0.00239663
0.000671114
0.00271417
0.000630154
0.00259247
)
;
    }
    ceiling
    {
        type            kqRWallFunction;
        value           nonuniform List<scalar> 
43
(
0.00379473
0.0043941
0.00500271
0.00430224
0.00427936
0.00436894
0.00451734
0.00467415
0.00483466
0.00500495
0.00519469
0.00537543
0.00553715
0.00567602
0.00578302
0.00584456
0.00584494
0.00577028
0.00561716
0.00540322
0.00516103
0.00492592
0.00472179
0.00455371
0.00441201
0.00428092
0.00414493
0.00399148
0.00381199
0.00360303
0.00336786
0.00311708
0.00286724
0.00263791
0.00244856
0.0023155
0.00224956
0.00226476
0.00269791
0.00280447
0.0203928
0.025647
0.010685
)
;
    }
    sWall
    {
        type            kqRWallFunction;
        value           uniform 0.00379473;
    }
    nWall
    {
        type            kqRWallFunction;
        value           nonuniform List<scalar> 6(0.000917227 0.00137838 0.00119966 0.00217191 0.00301316 0.00280447);
    }
    sideWalls
    {
        type            empty;
    }
    glass1
    {
        type            kqRWallFunction;
        value           nonuniform List<scalar> 9(0.00671643 0.00625532 0.0133182 0.0174296 0.0185265 0.0189681 0.0193048 0.0197077 0.0203928);
    }
    glass2
    {
        type            kqRWallFunction;
        value           nonuniform List<scalar> 2(0.00152264 0.00170196);
    }
    sun
    {
        type            kqRWallFunction;
        value           nonuniform List<scalar> 
14
(
0.00671643
0.0101321
0.0109998
0.0101964
0.00930498
0.00851643
0.00782986
0.00722087
0.00668312
0.00619853
0.00574213
0.0052925
0.00482478
0.0042972
)
;
    }
    Table_master
    {
        type            kqRWallFunction;
        value           nonuniform List<scalar> 9(0.00212371 0.00158165 0.00115729 0.000858983 0.000652007 0.000503524 0.00039697 0.000375424 0.000425984);
    }
    Table_slave
    {
        type            kqRWallFunction;
        value           nonuniform List<scalar> 9(0.00310145 0.00282689 0.00259092 0.0023795 0.00218754 0.00201139 0.00183215 0.00163912 0.00142482);
    }
    inlet
    {
        type            turbulentIntensityKineticEnergyInlet;
        intensity       0.05;
        value           uniform 0.0003375;
    }
    outlet
    {
        type            zeroGradient;
    }
}


// ************************************************************************* //
