/*--------------------------------*- C++ -*----------------------------------*\
  =========                 |
  \\      /  F ield         | OpenFOAM: The Open Source CFD Toolbox
   \\    /   O peration     | Website:  https://openfoam.org
    \\  /    A nd           | Version:  6
     \\/     M anipulation  |
\*---------------------------------------------------------------------------*/
FoamFile
{
    version     2.0;
    format      ascii;
    class       volScalarField;
    location    "1300";
    object      epsilon;
}
// * * * * * * * * * * * * * * * * * * * * * * * * * * * * * * * * * * * * * //

dimensions      [0 2 -3 0 0 0 0];

internalField   nonuniform List<scalar> 
458
(
0.000119311
0.00013374
0.000123154
0.000136235
0.000148598
0.000159802
0.000169994
0.000179479
0.000188675
0.000198192
0.000205976
0.000210945
0.000213139
0.000213964
0.000213844
2.54567e-05
3.93877e-05
4.71819e-05
5.28131e-05
5.39972e-05
4.93338e-05
4.37277e-05
3.87011e-05
3.44112e-05
3.07064e-05
2.74634e-05
2.45864e-05
2.19918e-05
1.95916e-05
1.72964e-05
1.49715e-05
1.29174e-05
9.60784e-06
0.000467721
0.00103753
0.000127295
0.000106164
0.00010553
0.000106597
0.000108672
0.000112532
0.000119065
0.000129142
0.000140747
0.000151999
0.000161622
0.000170342
0.000187218
0.00023446
0.000195182
0.000160126
8.72675e-05
5.58214e-05
4.53037e-05
4.18498e-05
3.91364e-05
3.88926e-05
3.33567e-05
2.91105e-05
2.5664e-05
2.2564e-05
1.97597e-05
1.72192e-05
1.48979e-05
1.2848e-05
1.16657e-05
1.13899e-05
2.22027e-05
1.6479e-05
0.0011076
0.00339518
0.000233572
0.000113803
0.000109184
0.000113143
0.000119433
0.000128236
0.000139792
0.000153862
0.000168629
0.000180051
0.000185083
0.000184112
0.00018233
0.000184189
0.000191498
0.000272484
0.000146007
6.06802e-05
5.0079e-05
4.10297e-05
3.64928e-05
7.60293e-05
5.1312e-05
3.56886e-05
2.63381e-05
2.06859e-05
1.70855e-05
1.46732e-05
1.30772e-05
1.23096e-05
1.09229e-05
1.08634e-05
3.78116e-05
2.39765e-05
0.00219205
0.00796174
0.000541117
0.000135414
0.000119294
0.00012751
0.000139208
0.000153725
0.000171529
0.000192795
0.000215528
0.000232029
0.000236666
0.000228938
0.000211881
0.000190494
0.000178261
0.000203304
0.000267557
0.000110764
5.82435e-05
4.092e-05
3.00507e-05
2.67081e-05
5.39005e-05
5.46553e-05
5.88283e-05
6.36962e-05
6.75924e-05
6.88332e-05
6.58835e-05
6.03842e-05
5.40024e-05
3.72398e-05
2.57032e-05
5.94426e-05
3.62642e-05
0.0038502
0.0148001
0.00136442
0.000193186
0.000132074
0.000139472
0.000155632
0.000177369
0.000205911
0.000242711
0.000282832
0.000309666
0.000315277
0.000301108
0.00027152
0.000232673
0.000195539
0.000167846
0.000135013
8.02819e-05
5.24722e-05
3.69608e-05
2.93557e-05
2.80927e-05
3.382e-05
3.96813e-05
4.60889e-05
5.23067e-05
5.70893e-05
5.87012e-05
5.58054e-05
4.96201e-05
4.4705e-05
3.87001e-05
3.15785e-05
4.45044e-05
5.42861e-05
6.50258e-05
7.47049e-05
8.00957e-05
0.00623685
0.0219118
0.00358487
0.000480559
0.000205577
0.000175365
0.000183173
0.000206635
0.000245763
0.000311492
0.000380196
0.000415592
0.000415479
0.000388823
0.000344203
0.000289795
0.00023453
0.000180685
0.000127773
8.33861e-05
5.63013e-05
4.07179e-05
3.40922e-05
3.35393e-05
3.79709e-05
4.66391e-05
5.67727e-05
6.7554e-05
7.75686e-05
8.39417e-05
8.36587e-05
7.32533e-05
5.95507e-05
4.773e-05
3.88209e-05
3.89127e-05
4.38728e-05
6.56539e-05
0.000304101
0.000181866
0.00934639
0.0259725
0.00882426
0.00233325
0.000952301
0.000506842
0.000376699
0.000350998
0.000372369
0.000477075
0.000553355
0.000569045
0.000541861
0.00048922
0.000422539
0.000350009
0.000278274
0.00020827
0.00014509
9.74167e-05
6.71032e-05
4.89848e-05
4.1702e-05
4.16716e-05
4.69122e-05
5.67272e-05
6.97554e-05
8.52033e-05
0.000102504
0.000117782
0.00012805
0.000127851
0.000105881
8.45535e-05
7.16567e-05
7.01266e-05
8.00684e-05
0.000119333
0.000504156
0.000334528
0.0102041
0.0311181
0.0164114
0.0106682
0.0060306
0.00321177
0.00187627
0.00128188
0.00103384
0.000955964
0.000885205
0.000797953
0.000699894
0.000598532
0.000498689
0.000403474
0.000315327
0.000235734
0.000167719
0.000116795
8.2761e-05
6.09197e-05
5.24546e-05
5.27205e-05
5.90486e-05
7.03426e-05
8.58257e-05
0.00010521
0.00012846
0.000155166
0.000184727
0.000215282
0.00023835
0.000235761
0.000264813
0.000363451
0.000588231
0.000921128
0.00330812
0.000879184
0.00952164
0.0164645
0.0148999
0.0113372
0.00832587
0.00584029
0.00405269
0.00288104
0.0021586
0.00166344
0.00131324
0.00105428
0.000853424
0.000690623
0.000553959
0.000436679
0.00033551
0.000249754
0.000181252
0.000132655
0.000100298
7.674e-05
6.70858e-05
6.65764e-05
7.23934e-05
8.33509e-05
9.89706e-05
0.000119552
0.000146089
0.000180228
0.000224303
0.000281379
0.000355068
0.000448978
0.000584293
0.000787031
0.00104054
0.00129621
0.00152815
0.000827744
0.00753397
0.0144702
0.00881655
0.00610905
0.00438274
0.00321303
0.00241461
0.00185286
0.00143858
0.00112809
0.000890919
0.000705132
0.000555529
0.000432164
0.000329361
0.000245611
0.000184046
0.000146696
0.000122636
0.000102401
9.15342e-05
8.75909e-05
8.93282e-05
9.59049e-05
0.000106624
0.00012144
0.000141056
0.000166942
0.000201386
0.000247693
0.000310546
0.000395326
0.000504798
0.000636881
0.000762601
0.000827302
0.000802701
0.000461846
0.00569645
0.0112703
0.00719881
0.00518412
0.0038617
0.00292337
0.00222356
0.00170539
0.00132288
0.0010352
0.000815652
0.000644331
0.000507351
0.000395532
0.000303797
0.000232754
0.000194229
0.00019046
0.000190052
0.000182188
0.000169716
0.000156565
0.00014744
0.000144554
0.000147452
0.000155279
0.000167883
0.000186168
0.000212228
0.0002494
0.000301864
0.000375008
0.000470074
0.000578891
0.00068882
0.000777415
0.000660355
0.000480678
0.00280226
0.00361394
0.00441328
0.00541064
0.00451789
0.00381899
0.00290242
0.00226916
0.00176562
0.00136254
0.00105139
0.000826584
0.000650384
0.000505612
0.000383667
0.000280119
0.000193184
0.000124327
7.91862e-05
6.99922e-05
7.45046e-05
7.55786e-05
7.42863e-05
7.44215e-05
7.82643e-05
8.63971e-05
9.85575e-05
0.00011445
0.000134062
0.000157817
0.000186812
0.000223409
0.000272698
0.000330735
0.000398902
0.000475909
0.000568224
0.000541734
0.000424035
0.0003348
)
;

boundaryField
{
    floor
    {
        Cmu             0.09;
        kappa           0.41;
        E               9.8;
        type            epsilonWallFunction;
        value           nonuniform List<scalar> 
36
(
0.000213844
2.54567e-05
3.93877e-05
4.71819e-05
5.28131e-05
5.39972e-05
4.93338e-05
4.37277e-05
3.87011e-05
3.44112e-05
3.07064e-05
2.74634e-05
2.45864e-05
2.19918e-05
1.95916e-05
1.72964e-05
1.49715e-05
1.29174e-05
9.60784e-06
9.60784e-06
1.6479e-05
2.39765e-05
3.62642e-05
6.50258e-05
7.47049e-05
8.00957e-05
0.000213844
0.00023446
0.000195182
0.000160126
2.54567e-05
0.000160126
8.72675e-05
0.000272484
0.000146007
0.000267557
)
;
    }
    ceiling
    {
        Cmu             0.09;
        kappa           0.41;
        E               9.8;
        type            epsilonWallFunction;
        value           nonuniform List<scalar> 
43
(
0.00280226
0.00361394
0.00441328
0.00541064
0.00451789
0.00381899
0.00290242
0.00226916
0.00176562
0.00136254
0.00105139
0.000826584
0.000650384
0.000505612
0.000383667
0.000280119
0.000193184
0.000124327
7.91862e-05
6.99922e-05
7.45046e-05
7.55786e-05
7.42863e-05
7.44215e-05
7.82643e-05
8.63971e-05
9.85575e-05
0.00011445
0.000134062
0.000157817
0.000186812
0.000223409
0.000272698
0.000330735
0.000398902
0.000475909
0.000568224
0.000541734
0.000424035
0.0003348
0.00952164
0.0164645
0.00569645
)
;
    }
    sWall
    {
        Cmu             0.09;
        kappa           0.41;
        E               9.8;
        type            epsilonWallFunction;
        value           uniform 0.00280226;
    }
    nWall
    {
        Cmu             0.09;
        kappa           0.41;
        E               9.8;
        type            epsilonWallFunction;
        value           nonuniform List<scalar> 6(8.00957e-05 0.000181866 0.000334528 0.000461846 0.000480678 0.0003348);
    }
    sideWalls
    {
        type            empty;
    }
    glass1
    {
        Cmu             0.09;
        kappa           0.41;
        E               9.8;
        type            epsilonWallFunction;
        value           nonuniform List<scalar> 9(0.000119311 0.000467721 0.0011076 0.00219205 0.0038502 0.00623685 0.00934639 0.0102041 0.00952164);
    }
    glass2
    {
        Cmu             0.09;
        kappa           0.41;
        E               9.8;
        type            epsilonWallFunction;
        value           nonuniform List<scalar> 2(0.000879184 0.000827744);
    }
    sun
    {
        Cmu             0.09;
        kappa           0.41;
        E               9.8;
        type            epsilonWallFunction;
        value           nonuniform List<scalar> 
14
(
0.000119311
0.00013374
0.000123154
0.000136235
0.000148598
0.000159802
0.000169994
0.000179479
0.000188675
0.000198192
0.000205976
0.000210945
0.000213139
0.000213964
)
;
    }
    Table_master
    {
        Cmu             0.09;
        kappa           0.41;
        E               9.8;
        type            epsilonWallFunction;
        value           nonuniform List<scalar> 9(7.60293e-05 5.1312e-05 3.56886e-05 2.63381e-05 2.06859e-05 1.70855e-05 1.46732e-05 1.30772e-05 1.23096e-05);
    }
    Table_slave
    {
        Cmu             0.09;
        kappa           0.41;
        E               9.8;
        type            epsilonWallFunction;
        value           nonuniform List<scalar> 9(5.39005e-05 5.46553e-05 5.88283e-05 6.36962e-05 6.75924e-05 6.88332e-05 6.58835e-05 6.03842e-05 5.40024e-05);
    }
    inlet
    {
        type            turbulentMixingLengthDissipationRateInlet;
        mixingLength    0.01;
        phi             phi;
        k               k;
        value           uniform 0.000101881;
    }
    outlet
    {
        type            zeroGradient;
    }
}


// ************************************************************************* //
