/*--------------------------------*- C++ -*----------------------------------*\
  =========                 |
  \\      /  F ield         | OpenFOAM: The Open Source CFD Toolbox
   \\    /   O peration     | Website:  https://openfoam.org
    \\  /    A nd           | Version:  6
     \\/     M anipulation  |
\*---------------------------------------------------------------------------*/
FoamFile
{
    version     2.0;
    format      ascii;
    class       volScalarField;
    location    "1300";
    object      T;
}
// * * * * * * * * * * * * * * * * * * * * * * * * * * * * * * * * * * * * * //

dimensions      [0 0 0 1 0 0 0];

internalField   nonuniform List<scalar> 
458
(
303.934
303.642
303.633
303.632
303.632
303.631
303.63
303.629
303.628
303.627
303.624
303.62
303.615
303.608
303.6
303.478
303.462
303.455
303.452
303.45
303.447
303.445
303.443
303.441
303.439
303.437
303.434
303.432
303.429
303.426
303.423
303.419
303.423
304.142
303.674
303.65
303.653
303.657
303.661
303.663
303.665
303.665
303.664
303.66
303.652
303.638
303.618
303.595
303.576
303.561
303.551
303.478
303.464
303.455
303.451
303.449
303.445
303.439
303.434
303.428
303.422
303.417
303.411
303.406
303.402
303.398
303.396
303.396
303.409
304.345
303.718
303.674
303.682
303.694
303.705
303.714
303.722
303.728
303.729
303.726
303.714
303.694
303.664
303.629
303.595
303.565
303.54
303.479
303.463
303.456
303.455
303.456
303.45
303.441
303.431
303.421
303.412
303.402
303.394
303.386
303.38
303.379
303.379
303.381
303.4
304.536
303.778
303.699
303.709
303.728
303.748
303.767
303.783
303.796
303.803
303.802
303.789
303.762
303.723
303.677
303.629
303.581
303.536
303.508
303.484
303.468
303.46
303.46
303.464
303.463
303.462
303.462
303.461
303.46
303.459
303.456
303.453
303.449
303.428
303.406
303.389
303.396
304.712
303.854
303.729
303.731
303.754
303.78
303.807
303.833
303.856
303.871
303.874
303.862
303.831
303.786
303.731
303.673
303.616
303.566
303.526
303.495
303.473
303.464
303.466
303.472
303.475
303.476
303.477
303.477
303.476
303.474
303.47
303.465
303.458
303.445
303.425
303.403
303.395
303.394
303.394
303.435
304.862
303.953
303.791
303.757
303.773
303.8
303.83
303.862
303.893
303.918
303.93
303.92
303.887
303.836
303.775
303.71
303.647
303.59
303.543
303.504
303.476
303.466
303.471
303.479
303.484
303.487
303.489
303.489
303.487
303.484
303.48
303.473
303.465
303.453
303.436
303.416
303.403
303.398
303.396
303.436
304.982
304.117
303.959
303.866
303.831
303.832
303.851
303.879
303.91
303.946
303.965
303.955
303.919
303.864
303.799
303.731
303.665
303.605
303.553
303.509
303.476
303.467
303.475
303.485
303.492
303.496
303.498
303.498
303.496
303.493
303.487
303.479
303.469
303.457
303.443
303.427
303.413
303.406
303.404
303.435
305.187
304.543
304.375
304.213
304.081
304.001
303.965
303.957
303.967
303.988
303.991
303.967
303.921
303.86
303.793
303.725
303.662
303.604
303.554
303.509
303.475
303.467
303.479
303.491
303.499
303.503
303.506
303.506
303.504
303.501
303.496
303.488
303.478
303.464
303.453
303.442
303.435
303.434
303.439
303.554
305.473
305.196
304.899
304.661
304.466
304.319
304.217
304.15
304.109
304.071
304.014
303.948
303.879
303.81
303.744
303.683
303.629
303.58
303.537
303.499
303.469
303.466
303.482
303.495
303.504
303.51
303.513
303.514
303.514
303.513
303.51
303.508
303.507
303.51
303.518
303.534
303.558
303.586
303.61
303.667
297.133
301.523
302.958
303.457
303.666
303.754
303.784
303.783
303.77
303.745
303.712
303.675
303.637
303.6
303.565
303.533
303.504
303.477
303.457
303.464
303.482
303.497
303.508
303.515
303.52
303.524
303.527
303.529
303.532
303.535
303.538
303.543
303.551
303.565
303.584
303.603
303.621
303.637
298.069
301.369
302.45
303.008
303.292
303.43
303.494
303.518
303.529
303.532
303.529
303.523
303.514
303.502
303.49
303.476
303.463
303.448
303.443
303.46
303.48
303.496
303.507
303.515
303.522
303.528
303.533
303.538
303.542
303.545
303.549
303.554
303.561
303.571
303.583
303.596
303.596
303.62
300.315
300.242
300.237
302.105
302.658
302.992
303.226
303.307
303.348
303.369
303.381
303.391
303.4
303.408
303.415
303.42
303.425
303.426
303.421
303.415
303.428
303.449
303.468
303.483
303.495
303.504
303.512
303.519
303.525
303.531
303.536
303.54
303.545
303.55
303.555
303.561
303.574
303.578
303.576
303.609
)
;

boundaryField
{
    floor
    {
        type            wallHeatTransfer;
        Tinf            uniform 305.2;
        alphaWall       uniform 0.24;
        value           nonuniform List<scalar> 
36
(
303.803
303.833
303.788
303.77
303.759
303.756
303.76
303.767
303.774
303.781
303.788
303.795
303.801
303.808
303.815
303.823
303.833
303.842
303.87
303.87
303.814
303.776
303.741
303.697
303.688
303.718
303.803
303.777
303.773
303.775
303.833
303.775
303.748
303.739
303.719
303.711
)
;
    }
    ceiling
    {
        type            wallHeatTransfer;
        Tinf            uniform 303.2;
        alphaWall       uniform 0.24;
        value           nonuniform List<scalar> 
43
(
300.502
300.421
300.407
302.165
302.689
303.005
303.224
303.299
303.337
303.355
303.365
303.374
303.381
303.387
303.391
303.394
303.395
303.393
303.386
303.379
303.391
303.409
303.424
303.437
303.447
303.456
303.465
303.472
303.479
303.486
303.492
303.498
303.504
303.51
303.516
303.524
303.536
303.54
303.536
303.562
305.366
305.115
298.342
)
;
    }
    sWall
    {
        type            wallHeatTransfer;
        Tinf            uniform 315.2;
        alphaWall       uniform 0.36;
        value           uniform 301.721;
    }
    nWall
    {
        type            wallHeatTransfer;
        Tinf            uniform 307.2;
        alphaWall       uniform 0.36;
        value           nonuniform List<scalar> 6(304.273 304.135 304.042 304.169 304.15 304.188);
    }
    sideWalls
    {
        type            empty;
    }
    glass1
    {
        type            wallHeatTransfer;
        Tinf            uniform 315.2;
        alphaWall       uniform 4.3;
        value           nonuniform List<scalar> 9(312.473 311.672 311.133 310.703 310.355 310.063 309.821 309.866 310.068);
    }
    glass2
    {
        type            wallHeatTransfer;
        Tinf            uniform 307.2;
        alphaWall       uniform 4.3;
        value           nonuniform List<scalar> 2(305.877 305.933);
    }
    sun
    {
        type            wallHeatTransfer;
        Tinf            uniform 305.2;
        alphaWall       uniform 0.24;
        value           nonuniform List<scalar> 
14
(
304.119
303.863
303.86
303.854
303.849
303.845
303.841
303.837
303.834
303.83
303.826
303.821
303.816
303.81
)
;
    }
    Table_master
    {
        type            zeroGradient;
    }
    Table_slave
    {
        type            zeroGradient;
    }
    inlet
    {
        type            fixedValue;
        value           uniform 292.15;
    }
    outlet
    {
        type            zeroGradient;
    }
}


// ************************************************************************* //
