/*--------------------------------*- C++ -*----------------------------------*\
  =========                 |
  \\      /  F ield         | OpenFOAM: The Open Source CFD Toolbox
   \\    /   O peration     | Website:  https://openfoam.org
    \\  /    A nd           | Version:  6
     \\/     M anipulation  |
\*---------------------------------------------------------------------------*/
FoamFile
{
    version     2.0;
    format      ascii;
    class       volScalarField;
    location    "900";
    object      epsilon;
}
// * * * * * * * * * * * * * * * * * * * * * * * * * * * * * * * * * * * * * //

dimensions      [0 2 -3 0 0 0 0];

internalField   nonuniform List<scalar> 
458
(
0.000406776
0.00052051
0.000464259
0.000397609
0.000325689
0.00028341
0.000257033
0.000237617
0.000223533
0.000215236
0.000212046
0.000212452
0.000215234
0.000220189
0.000225295
9.00981e-06
1.29097e-05
1.57427e-05
1.28151e-05
9.84354e-06
7.95234e-06
7.92693e-06
8.83681e-06
1.02017e-05
1.1177e-05
1.11541e-05
1.08346e-05
1.02617e-05
9.5741e-06
8.92719e-06
7.7859e-06
6.58138e-06
5.16945e-06
0.00128931
0.00179691
0.00142365
0.00130061
0.000843579
0.000484723
0.000305772
0.000212455
0.000161549
0.000140204
0.000136905
0.000143674
0.000157322
0.000177628
0.000211746
0.000300067
0.000250671
8.19182e-05
3.99576e-05
3.54518e-05
2.7216e-05
2.10407e-05
1.63996e-05
1.38453e-05
1.82278e-05
2.37081e-05
2.81093e-05
3.02251e-05
3.02423e-05
2.8226e-05
2.5385e-05
2.24136e-05
1.85429e-05
1.50318e-05
1.41155e-05
1.05515e-05
0.00181484
0.00512867
0.00495996
0.00551445
0.00374877
0.00212005
0.00111855
0.000545891
0.000290028
0.000188391
0.000158438
0.000155826
0.000164557
0.000177964
0.000193194
0.000213166
0.000240969
0.000310879
0.000114619
8.86874e-05
5.49259e-05
4.00465e-05
2.98325e-05
1.45055e-05
1.65588e-05
1.94349e-05
2.23836e-05
2.55394e-05
2.90511e-05
3.38029e-05
4.21778e-05
5.94241e-05
4.3439e-05
4.25309e-05
4.28571e-05
4.0178e-05
0.00345812
0.00386109
0.00354129
0.00374224
0.00387453
0.00361639
0.00302724
0.00175045
0.000667277
0.000307374
0.000209877
0.000188529
0.000192476
0.000205053
0.000218928
0.000232048
0.000247533
0.000275845
0.000347528
0.000110922
8.39647e-05
7.76505e-05
8.35695e-05
9.929e-05
0.000132005
0.000124451
0.000118848
0.000114797
0.000112891
0.000114014
0.000119612
0.000132443
0.000158998
8.70907e-05
9.84279e-05
0.000118434
0.000168548
0.0141755
0.0100607
0.00678984
0.00478338
0.00383745
0.00337284
0.00294136
0.00224027
0.00127459
0.000527588
0.000289629
0.000234401
0.000232196
0.000247096
0.000264934
0.000277593
0.000279018
0.000262284
0.000219493
0.000157228
0.000124877
0.000110865
0.000104651
0.000101303
9.80081e-05
9.28595e-05
8.86759e-05
8.58631e-05
8.48033e-05
8.60695e-05
9.04547e-05
9.88842e-05
0.00011192
0.000127961
0.00015609
0.000195052
0.000251965
0.000330164
0.000239151
0.000151665
0.0201032
0.0142018
0.00805034
0.0050029
0.00364785
0.00302564
0.00259463
0.00205477
0.00135705
0.000713709
0.000378752
0.000281219
0.000269749
0.000288975
0.000317426
0.000343692
0.000357508
0.000347455
0.000308875
0.000257087
0.000214556
0.000186261
0.000168525
0.000156341
0.000146314
0.000137318
0.000129787
0.000123865
0.000119825
0.000118337
0.000120675
0.000128872
0.000145588
0.000173392
0.000214253
0.000266821
0.000321088
0.000352864
0.000320407
0.00016554
0.0267356
0.022877
0.00974779
0.00476861
0.00315119
0.00254932
0.00218242
0.00175635
0.00122874
0.000746377
0.000450968
0.000323844
0.000299277
0.000320443
0.000359471
0.000402439
0.000436021
0.000445006
0.000422122
0.000378102
0.000331445
0.000293154
0.000264821
0.000243766
0.000227007
0.000213013
0.000201355
0.000191814
0.000184426
0.000179745
0.000179228
0.000185762
0.00020385
0.0002384
0.000292115
0.000363091
0.000442083
0.000507733
0.00051575
0.000269994
0.03671
0.0427661
0.0256835
0.00481491
0.00261049
0.00211768
0.00182265
0.00148061
0.00107595
0.000715384
0.000480553
0.000365383
0.000330971
0.000346883
0.000392204
0.000450439
0.000506094
0.00054034
0.000540496
0.000512563
0.000471648
0.000430722
0.000395708
0.000367337
0.000344251
0.000325191
0.000309407
0.000296383
0.000285893
0.00027825
0.000274786
0.000278723
0.000296477
0.000338377
0.000415074
0.000527636
0.000673728
0.000867927
0.00113358
0.00111298
0.0559674
0.102402
0.113654
0.0201577
0.00322473
0.00205071
0.00162037
0.00129564
0.000972299
0.000699075
0.000516318
0.000418862
0.000387051
0.000402444
0.000454149
0.000524784
0.000596854
0.000652906
0.000680091
0.000677313
0.000653536
0.000620255
0.000585835
0.000554471
0.000527426
0.000504636
0.000485571
0.000469548
0.000455957
0.00044453
0.00043575
0.000431522
0.000436128
0.000457177
0.000505606
0.00059314
0.000707925
0.000814965
0.00147731
0.00132807
0.27582
0.102556
0.00928484
0.00270403
0.00169324
0.00128882
0.00100297
0.000784593
0.000640385
0.000565055
0.000546593
0.000574062
0.000645431
0.000740865
0.000839187
0.000921946
0.000976973
0.00100102
0.000999063
0.000980214
0.000953374
0.000924965
0.000898604
0.000875759
0.000856567
0.000840427
0.000826415
0.000813609
0.000801418
0.000789994
0.000780698
0.000776324
0.000780792
0.000795679
0.000812607
0.000817475
0.000944619
0.00138552
0.0731531
0.016777
0.00578081
0.002257
0.00141588
0.00110393
0.000928466
0.00082572
0.000793333
0.000830427
0.000934476
0.00110262
0.00131093
0.00152576
0.00171358
0.00185136
0.00193132
0.00195989
0.00195191
0.00192373
0.0018886
0.00185502
0.00182717
0.00180611
0.00179081
0.00177898
0.00176756
0.00175307
0.00173192
0.00170108
0.00165937
0.00160919
0.00155675
0.00150621
0.00145117
0.00135324
0.00154941
0.0017082
0.000926313
0.00126553
0.0187889
0.00729614
0.00218419
0.00180287
0.00170939
0.00153542
0.0013766
0.00124256
0.00113895
0.00106499
0.00101787
0.000995897
0.00100571
0.00104594
0.00110358
0.00116551
0.00122047
0.00126104
0.00128447
0.00129199
0.00128717
0.00127427
0.00125709
0.00123848
0.00122015
0.00120279
0.00118629
0.00116986
0.00115219
0.00113159
0.00110614
0.00107391
0.00103292
0.000980015
0.000908255
0.000803811
0.000728083
0.000737307
)
;

boundaryField
{
    floor
    {
        Cmu             0.09;
        kappa           0.41;
        E               9.8;
        type            epsilonWallFunction;
        value           nonuniform List<scalar> 
36
(
0.000225295
9.00981e-06
1.29097e-05
1.57427e-05
1.28151e-05
9.84354e-06
7.95234e-06
7.92693e-06
8.83681e-06
1.02017e-05
1.1177e-05
1.11541e-05
1.08346e-05
1.02617e-05
9.5741e-06
8.92719e-06
7.7859e-06
6.58138e-06
5.16945e-06
5.16945e-06
1.05515e-05
4.0178e-05
0.000168548
0.000330164
0.000239151
0.000151665
0.000225295
0.000300067
0.000250671
8.19182e-05
9.00981e-06
8.19182e-05
3.99576e-05
0.000310879
0.000114619
0.000347528
)
;
    }
    ceiling
    {
        Cmu             0.09;
        kappa           0.41;
        E               9.8;
        type            epsilonWallFunction;
        value           nonuniform List<scalar> 
43
(
0.000926313
0.00126553
0.0187889
0.00729614
0.00218419
0.00180287
0.00170939
0.00153542
0.0013766
0.00124256
0.00113895
0.00106499
0.00101787
0.000995897
0.00100571
0.00104594
0.00110358
0.00116551
0.00122047
0.00126104
0.00128447
0.00129199
0.00128717
0.00127427
0.00125709
0.00123848
0.00122015
0.00120279
0.00118629
0.00116986
0.00115219
0.00113159
0.00110614
0.00107391
0.00103292
0.000980015
0.000908255
0.000803811
0.000728083
0.000737307
0.0559674
0.102402
0.0731531
)
;
    }
    sWall
    {
        Cmu             0.09;
        kappa           0.41;
        E               9.8;
        type            epsilonWallFunction;
        value           uniform 0.000926313;
    }
    nWall
    {
        Cmu             0.09;
        kappa           0.41;
        E               9.8;
        type            epsilonWallFunction;
        value           nonuniform List<scalar> 6(0.000151665 0.00016554 0.000269994 0.00138552 0.0017082 0.000737307);
    }
    sideWalls
    {
        type            empty;
    }
    glass1
    {
        Cmu             0.09;
        kappa           0.41;
        E               9.8;
        type            epsilonWallFunction;
        value           nonuniform List<scalar> 9(0.000406776 0.00128931 0.00181484 0.00345812 0.0141755 0.0201032 0.0267356 0.03671 0.0559674);
    }
    glass2
    {
        Cmu             0.09;
        kappa           0.41;
        E               9.8;
        type            epsilonWallFunction;
        value           nonuniform List<scalar> 2(0.00111298 0.00132807);
    }
    sun
    {
        Cmu             0.09;
        kappa           0.41;
        E               9.8;
        type            epsilonWallFunction;
        value           nonuniform List<scalar> 
14
(
0.000406776
0.00052051
0.000464259
0.000397609
0.000325689
0.00028341
0.000257033
0.000237617
0.000223533
0.000215236
0.000212046
0.000212452
0.000215234
0.000220189
)
;
    }
    Table_master
    {
        Cmu             0.09;
        kappa           0.41;
        E               9.8;
        type            epsilonWallFunction;
        value           nonuniform List<scalar> 9(1.45055e-05 1.65588e-05 1.94349e-05 2.23836e-05 2.55394e-05 2.90511e-05 3.38029e-05 4.21778e-05 5.94241e-05);
    }
    Table_slave
    {
        Cmu             0.09;
        kappa           0.41;
        E               9.8;
        type            epsilonWallFunction;
        value           nonuniform List<scalar> 9(0.000132005 0.000124451 0.000118848 0.000114797 0.000112891 0.000114014 0.000119612 0.000132443 0.000158998);
    }
    inlet
    {
        type            turbulentMixingLengthDissipationRateInlet;
        mixingLength    0.01;
        phi             phi;
        k               k;
        value           uniform 0.27582;
    }
    outlet
    {
        type            zeroGradient;
    }
}


// ************************************************************************* //
