/*--------------------------------*- C++ -*----------------------------------*=========                 |
  \      /  F ield         | OpenFOAM: The Open Source CFD Toolbox
   \    /   O peration     | Website:  https://openfoam.org
    \  /    A nd           | Version:  6
     \/     M anipulation  |
\*---------------------------------------------------------------------------*/
FoamFile
{
    version     2.0;
    format      ascii;
    class       volScalarField;
    location    "900";
    object      PPD;
}
// * * * * * * * * * * * * * * * * * * * * * * * * * * * * * * * * * * * * * //

dimensions      [0 0 0 0 0 0 0];

internalField   nonuniform List<scalar> 
458
(
92.0233423603575
88.44651160773283
88.19331043127926
87.95400467974116
87.80397034821813
87.78259214996523
87.81562157080674
87.87659284705657
87.96905034494227
88.0671146752141
88.2104793676063
88.43299127657451
88.74578879581449
89.05411528835724
88.83949095714931
59.64748167742815
60.97461376726754
61.85514574857442
61.54479181733349
61.23397203304359
61.13026528840481
61.156196584341075
61.311719585752954
61.57067270700035
61.8809869367547
62.0875937513476
62.31976052802528
62.57738379812561
62.88604422280657
63.3479973015131
63.655246095916084
63.68082341415971
63.83419942336292
93.20866097809208
91.59522521597091
92.11768252464552
91.82793988879872
91.208833187944
90.63141754099773
90.25555491061466
90.03447313599293
89.89927030137315
89.8255037472759
89.79277501360073
89.75297314820844
89.6780666698019
89.46592064732332
89.01092955743616
88.83175084443515
88.71317785842018
87.22241041100654
68.33744870755851
67.83574968127908
66.64164801762516
66.03981264681828
65.76296288400076
66.11520869964974
66.64164801762516
67.1656830463819
67.83574968127908
68.84487603778703
69.9642412339907
70.85410971909832
71.7104305122778
72.67369356545095
73.60056047292159
72.83683225358115
70.92583404822324
67.92479083156988
95.39376329897826
95.04251061108914
96.1170665003019
96.06320571829744
95.57438704402986
94.620398040237
93.44684802150019
92.39360282068917
91.79122336651461
91.48733781080222
91.33590537886383
91.20230610235129
90.99806737912839
90.63105847830127
90.04364870246815
89.33425463439706
88.42952085779642
87.35196706061795
77.96048386469938
78.08752756788226
78.00287150349394
78.17202430856824
77.47018954284317
74.64994206248382
75.4583475988737
76.36474663836125
77.19489256939883
78.05277901981871
79.09084787716719
80.27153600046918
81.68734733045059
83.48600261592438
85.70331599524992
85.78675421962058
86.47596870385904
88.3148265816954
100.0
100.0
100.0
98.97118826963454
98.4898875729435
97.86435461715642
97.15810345401586
96.0428596033726
94.1146855832028
93.16621942170373
92.84266731329319
92.67124577531362
92.46606003277402
92.11304532783664
91.51748290967828
90.62794643646185
89.27568432821684
87.3770027950197
85.673684558737
84.95375403441885
86.90052101767179
88.3479970186423
89.27364843198703
89.84965952505816
90.34968109640754
90.5453194303178
90.73941737451167
90.9493360758055
91.16240606296824
91.39228929495854
91.60927965182094
91.8399738274477
92.03431284779833
92.0241150904771
92.35007136628215
92.7947112821158
93.2611915522181
100.0
100.0
100.0
100.0
100.0
100.0
98.8429803224088
97.76668789272449
96.39388230930322
95.05793484523817
94.29772519882674
94.07152233418462
93.9379848676685
93.73287846102187
93.40271652693156
92.90955329636243
92.24577335653788
91.50976304963183
90.92166688758273
90.64052953935463
90.82618940092796
91.15820506753592
91.37512878854184
91.50157285202492
91.60435761025437
91.69219189067988
91.80565299820928
91.95401391873654
92.13589912274081
92.34978999276447
92.59484324444581
92.8599661991945
93.12975000173797
93.39468989002359
93.72818597616657
94.0665341151199
94.34124682971851
94.11012590881094
93.71942399405376
93.8574951991434
100.0
100.0
100.0
100.0
100.0
100.0
100.0
98.59276580780869
97.37130489690573
96.29334106439582
95.67713842279852
95.35510283960274
95.21583908404992
95.10660246347165
94.93091579716008
94.64912513165514
94.25732095592846
93.80829160221255
93.41068298535814
93.12572014596522
93.00220500300266
92.95379313090346
92.91678324813185
92.86397814311898
92.82797776797288
92.81339780179437
92.81936204694588
92.86598509187432
92.94097124078911
93.07277574880403
93.22603923994379
93.4264025472438
93.64748418311817
93.86846522405861
94.08025651132772
94.25437970041627
94.3625744990705
94.43008894442978
94.63300906523648
92.95195307824073
100.0
100.0
100.0
100.0
100.0
100.0
100.0
98.9408674851115
97.97817772348056
97.02000282593899
96.5723417927188
96.29463974432446
96.23616507693562
96.26119675878684
96.15589303656527
96.00424157334277
95.78547555270269
95.51900782375037
95.24284111921605
94.99668841994149
94.80197888704807
94.63970379339597
94.48771031264614
94.33917178589702
94.20883144483942
94.10069850386617
94.00709027986917
93.9374431534815
93.90018597999894
93.89234942869098
93.92625864527992
93.99258664651342
94.09101470356124
94.200991230822
94.29493259048772
94.35412575578799
94.37020189971389
94.36248633340173
94.23836443987263
92.97611023961825
100.0
100.0
100.0
100.0
100.0
100.0
100.0
99.08268058521627
98.358679016169
97.64113900120572
97.1723434309277
96.97735433308385
96.94318869563692
96.95350521772208
96.96456088330531
96.94241757852565
96.86956464522586
96.73145911639654
96.55211785536189
96.3460212097377
96.13711649125817
95.9329714442472
95.73502828162455
95.54468990005624
95.36330720847842
95.1921675651303
95.03248434155593
94.88538760628016
94.7603333449482
94.65865646704786
94.59005979721765
94.57280869677552
94.61585992649646
94.73505072166468
94.76638969242386
94.71096170935104
94.66068971248751
94.6259255242382
94.53319388820715
94.22211799416951
100.0
100.0
100.0
100.0
100.0
100.0
100.0
100.0
98.63614207982862
98.14768378125613
97.78835000090004
97.57247607345381
97.46248476822538
97.41367691416903
97.40279070226069
97.39740473080323
97.37452116986476
97.31939502693027
97.22901930970515
97.10834623680715
96.97466274544482
96.8223064223035
96.6692617122025
96.50301245419207
96.32681865744082
96.14378196021856
95.96756121856205
95.79232215178025
95.62599327514152
95.46223936147707
95.30936260745287
95.18427663072836
95.1048285634482
95.06473599222937
95.08882109131729
95.14467518783573
95.21578177096646
95.29386286394313
95.03925431915688
94.34200685414858
100.0
100.0
100.0
100.0
100.0
100.0
98.87943646671509
98.56821172122737
98.32693626743396
98.15797440112848
98.05125657447078
97.97398818072266
97.91919463010072
97.87470295882322
97.82734814372867
97.76726860063118
97.6880413126953
97.5872240609175
97.47229259702195
97.34204812540698
97.19556310210432
97.04870879600735
96.89081477782273
96.73352269724371
96.57145420824143
96.40461544809833
96.23264012132856
96.06799886827436
95.89565711705139
95.72610334350175
95.56980272856468
95.42348939446063
95.30275126755933
95.19536516552586
95.10539262737184
95.02323496871767
94.84003776399796
94.7228497986629
100.0
100.0
100.0
100.0
100.0
100.0
99.09917826958429
98.91002994499422
98.75584562944908
98.63395876617342
98.53546468804291
98.45511092204522
98.38177021037457
98.3086128787488
98.23516658750665
98.1566414624283
98.07616420881408
97.97980520542384
97.87473052321246
97.75534055070915
97.63027837673972
97.48921531013069
97.34170329784055
97.18783387760975
97.02173340317643
96.84264245165096
96.66237610465274
96.46800875832875
96.27186479334075
96.07363050041232
95.880058490558
95.69116857050663
95.52345395342952
95.37240466104528
95.24211480859171
95.123270635329
94.8392615398388
94.70746369607559
100.0
100.0
100.0
100.0
100.0
100.0
100.0
100.0
100.0
100.0
99.06484761621951
98.98046404608485
98.90409611966675
98.82928853584347
98.75736675381884
98.67605215341555
98.59478387874393
98.50646615321203
98.414183077015
98.3175525016731
98.212031401606
98.09672364796204
97.97539107940186
97.84290059050099
97.70349423754605
97.55161908056604
97.38625910550927
97.20641403846291
97.01729082590386
96.81207006058062
96.59655403914779
96.37065884292647
96.12688172440787
95.8809006057015
95.6353819389329
95.38539255545234
95.1443465177055
94.87579932850329
94.3096990254282
92.47161908540212
)
;

boundaryField
{
    ".*"
    {
        type            zeroGradient;
    }
}


// ************************************************************************* //
