// -*- C++ -*-
// File generated by PyFoam - sorry for the ugliness

FoamFile
{
 version 2.0;
 format ascii;
 class volScalarField;
 location "900";
 object T;
}

dimensions [ 0 0 0 1 0 0 0 ];

internalField nonuniform List<scalar> 458
(
  305.458
  305.272
  305.262
  305.254
  305.248
  305.246
  305.244
  305.241
  305.238
  305.234
  305.231
  305.229
  305.226
  305.223
  305.218
  303.771
  303.822
  303.856
  303.844
  303.832
  303.828
  303.829
  303.835
  303.845
  303.857
  303.865
  303.874
  303.884
  303.896
  303.914
  303.926
  303.927
  303.933
  305.661
  305.478
  305.493
  305.477
  305.443
  305.411
  305.388
  305.371
  305.357
  305.346
  305.337
  305.326
  305.311
  305.289
  305.256
  305.219
  305.177
  305.031
  304.145
  304.092
  304.044
  304.02
  304.009
  304.023
  304.044
  304.065
  304.092
  304.133
  304.179
  304.216
  304.252
  304.293
  304.333
  304.3
  304.219
  304.167
  305.93
  305.769
  305.844
  305.836
  305.767
  305.687
  305.601
  305.524
  305.478
  305.454
  305.441
  305.429
  305.412
  305.385
  305.343
  305.287
  305.222
  305.159
  304.53
  304.536
  304.532
  304.54
  304.507
  304.379
  304.415
  304.456
  304.496
  304.536
  304.584
  304.642
  304.714
  304.81
  304.937
  304.942
  304.984
  305.103
  306.67
  306.677
  306.659
  306.559
  306.404
  306.241
  306.074
  305.833
  305.64
  305.568
  305.547
  305.537
  305.524
  305.5
  305.458
  305.396
  305.31
  305.201
  305.095
  305.019
  305.12
  305.204
  305.265
  305.306
  305.34
  305.348
  305.356
  305.365
  305.374
  305.384
  305.392
  305.399
  305.4
  305.387
  305.416
  305.457
  305.502
  308.369
  308.217
  307.979
  307.596
  307.189
  306.824
  306.506
  306.204
  305.909
  305.715
  305.656
  305.646
  305.642
  305.63
  305.606
  305.568
  305.518
  305.463
  305.414
  305.383
  305.386
  305.403
  305.415
  305.422
  305.427
  305.43
  305.435
  305.443
  305.454
  305.468
  305.485
  305.504
  305.524
  305.545
  305.573
  305.6
  305.622
  305.638
  305.616
  305.597
  308.337
  308.14
  308.069
  307.846
  307.498
  307.117
  306.756
  306.423
  306.119
  305.888
  305.781
  305.753
  305.753
  305.752
  305.741
  305.717
  305.681
  305.638
  305.597
  305.564
  305.545
  305.534
  305.526
  305.518
  305.512
  305.508
  305.506
  305.508
  305.513
  305.524
  305.538
  305.558
  305.582
  305.608
  305.634
  305.656
  305.67
  305.674
  305.649
  305.593
  308.257
  308.003
  307.98
  307.866
  307.578
  307.219
  306.866
  306.541
  306.256
  306.041
  305.92
  305.871
  305.862
  305.866
  305.865
  305.853
  305.829
  305.796
  305.759
  305.724
  305.695
  305.671
  305.65
  305.631
  305.615
  305.602
  305.591
  305.583
  305.579
  305.579
  305.585
  305.597
  305.616
  305.64
  305.665
  305.687
  305.701
  305.703
  305.687
  305.628
  308.174
  307.964
  307.892
  307.777
  307.541
  307.203
  306.885
  306.597
  306.352
  306.171
  306.061
  306.006
  305.983
  305.981
  305.983
  305.979
  305.966
  305.942
  305.912
  305.879
  305.847
  305.817
  305.789
  305.763
  305.739
  305.717
  305.697
  305.679
  305.664
  305.652
  305.644
  305.642
  305.647
  305.661
  305.682
  305.707
  305.731
  305.752
  305.771
  305.798
  308.113
  307.986
  307.987
  307.612
  307.413
  307.157
  306.875
  306.626
  306.431
  306.29
  306.201
  306.151
  306.125
  306.111
  306.105
  306.1
  306.091
  306.075
  306.052
  306.024
  305.995
  305.964
  305.934
  305.904
  305.876
  305.848
  305.822
  305.797
  305.774
  305.752
  305.732
  305.716
  305.706
  305.701
  305.704
  305.711
  305.72
  305.73
  305.742
  305.78
  308.51
  307.541
  307.248
  307.08
  306.862
  306.657
  306.512
  306.408
  306.34
  306.297
  306.271
  306.252
  306.238
  306.226
  306.213
  306.197
  306.177
  306.153
  306.127
  306.099
  306.069
  306.04
  306.01
  305.981
  305.952
  305.923
  305.894
  305.867
  305.84
  305.815
  305.794
  305.777
  305.766
  305.759
  305.756
  305.754
  305.751
  305.754
  308.137
  307.612
  307.159
  307.013
  306.848
  306.702
  306.6
  306.525
  306.473
  306.436
  306.408
  306.386
  306.366
  306.346
  306.326
  306.305
  306.284
  306.26
  306.235
  306.208
  306.181
  306.152
  306.123
  306.094
  306.064
  306.033
  306.003
  305.972
  305.942
  305.913
  305.886
  305.861
  305.84
  305.822
  305.807
  305.792
  305.772
  305.76
  309.923
  309.807
  308.255
  307.983
  307.206
  306.969
  306.839
  306.749
  306.683
  306.632
  306.593
  306.561
  306.534
  306.509
  306.486
  306.461
  306.437
  306.412
  306.387
  306.362
  306.336
  306.309
  306.282
  306.254
  306.226
  306.197
  306.167
  306.136
  306.105
  306.073
  306.041
  306.009
  305.976
  305.944
  305.913
  305.882
  305.852
  305.818
  305.765
  305.671
)
;

boundaryField
{
  floor
  {
    type wallHeatTransfer;
    Tinf uniform 305.2;
    alphaWall uniform 0.24;
    value nonuniform List<scalar> 36
(
  305.215
  304.136
  304.149
  304.163
  304.167
  304.175
  304.186
  304.188
  304.184
  304.182
  304.185
  304.192
  304.2
  304.211
  304.225
  304.243
  304.26
  304.272
  304.292
  304.292
  304.423
  305.121
  305.461
  305.588
  305.565
  305.542
  305.215
  305.217
  305.179
  305.058
  304.136
  305.058
  304.342
  305.163
  304.629
  305.107
)
;
  }
  ceiling
  {
    type wallHeatTransfer;
    Tinf uniform 303.2;
    alphaWall uniform 0.24;
    value nonuniform List<scalar> 43
(
  309.325
  309.265
  308.057
  307.739
  306.923
  306.689
  306.566
  306.475
  306.406
  306.352
  306.309
  306.275
  306.247
  306.223
  306.202
  306.183
  306.164
  306.145
  306.126
  306.105
  306.082
  306.058
  306.033
  306.007
  305.98
  305.952
  305.924
  305.895
  305.865
  305.835
  305.805
  305.774
  305.743
  305.712
  305.681
  305.649
  305.617
  305.579
  305.525
  305.441
  307.972
  307.87
  308.006
)
;
  }
  sWall
  {
    type wallHeatTransfer;
    Tinf uniform 315.2;
    alphaWall uniform 0.36;
    value uniform 310.598;
  }
  nWall
  {
    type wallHeatTransfer;
    Tinf uniform 307.2;
    alphaWall uniform 0.36;
    value nonuniform List<scalar> 6
(
  305.908
  305.899
  305.895
  305.919
  305.916
  305.876
)
;
  }
  sideWalls
  {
    type empty;
  }
  glass1
  {
    type wallHeatTransfer;
    Tinf uniform 315.2;
    alphaWall uniform 4.3;
    value nonuniform List<scalar> 9
(
  312.177
  311.531
  311.417
  311.331
  311.405
  311.215
  311.028
  310.822
  310.579
)
;
  }
  glass2
  {
    type wallHeatTransfer;
    Tinf uniform 307.2;
    alphaWall uniform 4.3;
    value nonuniform List<scalar> 2
(
  306.67
  306.646
)
;
  }
  sun
  {
    type wallHeatTransfer;
    Tinf uniform 305.2;
    alphaWall uniform 0.24;
    value nonuniform List<scalar> 14
(
  305.43
  305.265
  305.255
  305.248
  305.243
  305.24
  305.239
  305.236
  305.233
  305.23
  305.227
  305.225
  305.222
  305.22
)
;
  }
  Table_master
  {
    type zeroGradient;
  }
  Table_slave
  {
    type zeroGradient;
  }
  inlet
  {
    type fixedValue;
    value uniform 299.15;
  }
  outlet
  {
    type zeroGradient;
  }
} 	// ************************************************************************* //

