// -*- C++ -*-
// File generated by PyFoam - sorry for the ugliness

FoamFile
{
 version 2.0;
 format ascii;
 class volVectorField;
 location "900";
 object U;
}

dimensions [ 0 1 -1 0 0 0 0 ];

internalField nonuniform List<vector> 458
(
  (0.0128405 0.081494 0)
  (-0.159146 0.0196562 0)
  (-0.167909 0.00461479 0)
  (-0.177046 0.000641811 0)
  (-0.18137 -0.00229157 0)
  (-0.18034 -0.00486376 0)
  (-0.174792 -0.00718349 0)
  (-0.165873 -0.00917149 0)
  (-0.154978 -0.0106143 0)
  (-0.143129 -0.0119919 0)
  (-0.129984 -0.0140084 0)
  (-0.113606 -0.0173773 0)
  (-0.0920604 -0.0233106 0)
  (-0.0699079 -0.0341411 0)
  (-0.0675909 -0.0505968 0)
  (0.0534362 0.000116632 0)
  (-0.0158544 -0.0042203 0)
  (-4.58783e-05 -0.00691552 0)
  (0.00593761 -0.00651867 0)
  (0.0126515 -0.00593003 0)
  (0.0183717 -0.00521528 0)
  (0.0227317 -0.00400307 0)
  (0.0257948 -0.00306745 0)
  (0.0279523 -0.00255589 0)
  (0.0294989 -0.00221726 0)
  (0.0305353 -0.00189223 0)
  (0.0301959 -0.00151785 0)
  (0.0288044 -0.00104141 0)
  (0.0267233 -0.000495058 0)
  (0.0243305 -4.9314e-05 0)
  (0.0237697 -0.00169241 0)
  (0.0271799 -0.00109772 0)
  (-0.0184854 0.0111522 0)
  (0.164708 0.159047 0)
  (-0.132393 0.0461568 0)
  (-0.106619 0.0144678 0)
  (-0.115704 0.0122 0)
  (-0.133817 0.00679408 0)
  (-0.148273 -0.00186799 0)
  (-0.153356 -0.00942456 0)
  (-0.151098 -0.0144693 0)
  (-0.145082 -0.0164753 0)
  (-0.137864 -0.017289 0)
  (-0.129931 -0.0187478 0)
  (-0.120483 -0.0220367 0)
  (-0.109199 -0.0283252 0)
  (-0.0987203 -0.0392457 0)
  (-0.0907239 -0.0523928 0)
  (-0.0692532 -0.0501431 0)
  (-0.0378871 -0.0522985 0)
  (0.0199721 0.016689 0)
  (0.0643827 -0.00505893 0)
  (0.0205769 -0.00114206 0)
  (0.00654768 -0.00173939 0)
  (0.000362168 -0.00273265 0)
  (-0.00155982 -0.00365744 0)
  (-0.00389288 -0.00470542 0)
  (-0.00460576 -0.00313262 0)
  (-0.00546516 -0.00181956 0)
  (-0.0067835 -0.000609791 0)
  (-0.00889511 0.00104173 0)
  (-0.0112787 0.00289704 0)
  (-0.0129898 0.00439417 0)
  (-0.0148348 0.00576952 0)
  (-0.0163936 0.00676913 0)
  (-0.0169069 0.00698838 0)
  (-0.0180379 0.00707481 0)
  (-0.0300922 0.00914454 0)
  (-0.0769243 0.0133097 0)
  (0.390348 0.253633 0)
  (-0.0853536 0.0346904 0)
  (0.011279 -0.0212912 0)
  (0.0168764 0.00944856 0)
  (-0.0177314 0.0236946 0)
  (-0.0594869 0.0107734 0)
  (-0.0947276 -0.00707434 0)
  (-0.11443 -0.0182926 0)
  (-0.118895 -0.0217651 0)
  (-0.119089 -0.023146 0)
  (-0.117429 -0.0253149 0)
  (-0.114601 -0.0297487 0)
  (-0.111043 -0.0370644 0)
  (-0.108108 -0.0469002 0)
  (-0.104897 -0.0557475 0)
  (-0.096319 -0.0585665 0)
  (-0.087666 -0.064616 0)
  (-0.095069 -0.0624076 0)
  (-0.0185311 0.0184634 0)
  (-0.0471691 0.00888767 0)
  (-0.0495439 0.00455269 0)
  (-0.0495809 -0.000488321 0)
  (-0.047368 -0.00422003 0)
  (-0.0431468 -0.00402993 0)
  (-0.0485247 -0.00421775 0)
  (-0.0505161 -0.00342973 0)
  (-0.0513525 -0.00280618 0)
  (-0.0508904 -0.00223369 0)
  (-0.0494949 -0.00177202 0)
  (-0.0475006 -0.00149855 0)
  (-0.0446803 -0.00150011 0)
  (-0.0395637 -0.00240329 0)
  (-0.0306625 -0.00313833 0)
  (-0.0175018 -0.000365322 0)
  (-0.00654988 -0.00124404 0)
  (-0.0150739 -0.000338904 0)
  (0.585455 0.201837 0)
  (0.347699 0.124978 0)
  (0.335952 0.112063 0)
  (0.301696 0.117247 0)
  (0.226877 0.115816 0)
  (0.14129 0.0976505 0)
  (0.0618512 0.0674187 0)
  (-0.0179593 0.0234258 0)
  (-0.0676122 -0.00696942 0)
  (-0.0870942 -0.0177355 0)
  (-0.0950078 -0.0230938 0)
  (-0.0992684 -0.028948 0)
  (-0.102497 -0.0366148 0)
  (-0.10634 -0.045499 0)
  (-0.111058 -0.0532322 0)
  (-0.116691 -0.0576781 0)
  (-0.128119 -0.05847 0)
  (-0.147579 -0.0452715 0)
  (-0.146555 -0.00408222 0)
  (-0.113262 0.0146575 0)
  (-0.10424 0.00692032 0)
  (-0.0984786 0.00100432 0)
  (-0.0971509 -0.00382663 0)
  (-0.0971949 -0.00722563 0)
  (-0.0950889 -0.00607105 0)
  (-0.0896004 -0.00544189 0)
  (-0.0841748 -0.00570637 0)
  (-0.078598 -0.00595686 0)
  (-0.0728668 -0.0062409 0)
  (-0.0669178 -0.0066169 0)
  (-0.0604434 -0.00717766 0)
  (-0.0528576 -0.00811864 0)
  (-0.0441001 -0.00973017 0)
  (-0.0371309 -0.0123296 0)
  (-0.0295306 -0.0128858 0)
  (-0.0178945 -0.0130002 0)
  (0.00253356 -0.00815447 0)
  (0.561213 -0.293448 0)
  (0.302553 -0.157051 0)
  (0.335377 -0.0131075 0)
  (0.338017 0.10051 0)
  (0.282372 0.155776 0)
  (0.205303 0.161668 0)
  (0.13073 0.138201 0)
  (0.0620655 0.0974066 0)
  (0.00103836 0.0472267 0)
  (-0.0426965 0.00621952 0)
  (-0.0636156 -0.0122318 0)
  (-0.0738385 -0.0223604 0)
  (-0.0810069 -0.0308804 0)
  (-0.0876538 -0.0388824 0)
  (-0.0946958 -0.0455778 0)
  (-0.102638 -0.0500746 0)
  (-0.11256 -0.0512755 0)
  (-0.122004 -0.0442627 0)
  (-0.123257 -0.0243532 0)
  (-0.114794 -0.00757203 0)
  (-0.104196 -0.00215974 0)
  (-0.0961461 -0.00301387 0)
  (-0.0914147 -0.00526097 0)
  (-0.0885284 -0.00692938 0)
  (-0.0856631 -0.00690905 0)
  (-0.0821582 -0.00717006 0)
  (-0.0785774 -0.00741172 0)
  (-0.0750237 -0.00763521 0)
  (-0.0714709 -0.00791127 0)
  (-0.067876 -0.00836463 0)
  (-0.0641051 -0.00921425 0)
  (-0.0599295 -0.0108709 0)
  (-0.0552999 -0.013958 0)
  (-0.0503304 -0.0186811 0)
  (-0.0440146 -0.0232823 0)
  (-0.0335212 -0.0289438 0)
  (-0.0179538 -0.0350799 0)
  (0.0143304 -0.0651883 0)
  (0.0638034 -0.0532509 0)
  (-0.0549491 -0.0126387 0)
  (0.490422 -0.424607 0)
  (0.094046 -0.177787 0)
  (0.19309 0.0461701 0)
  (0.230472 0.168741 0)
  (0.202887 0.218049 0)
  (0.158821 0.220988 0)
  (0.116493 0.194451 0)
  (0.0757468 0.149409 0)
  (0.0366317 0.095511 0)
  (0.00149207 0.0431404 0)
  (-0.0249032 0.00722158 0)
  (-0.0412237 -0.0118604 0)
  (-0.0505981 -0.0232113 0)
  (-0.058342 -0.0314757 0)
  (-0.0659431 -0.0377351 0)
  (-0.0739505 -0.0416269 0)
  (-0.0824227 -0.0419032 0)
  (-0.0893172 -0.0361604 0)
  (-0.0911597 -0.0247957 0)
  (-0.0874746 -0.0147877 0)
  (-0.0813661 -0.00994793 0)
  (-0.0759966 -0.00879057 0)
  (-0.0722927 -0.00926393 0)
  (-0.0698428 -0.00990604 0)
  (-0.0678496 -0.0100188 0)
  (-0.0659011 -0.0101359 0)
  (-0.0640482 -0.0102854 0)
  (-0.062351 -0.0104285 0)
  (-0.0608629 -0.0105988 0)
  (-0.0596742 -0.0109114 0)
  (-0.0588916 -0.0116169 0)
  (-0.0586216 -0.0131952 0)
  (-0.058948 -0.016339 0)
  (-0.0596258 -0.0215446 0)
  (-0.0595278 -0.0287635 0)
  (-0.0566778 -0.0387865 0)
  (-0.0486094 -0.0510282 0)
  (-0.0325471 -0.0591043 0)
  (0.0164429 -0.0289216 0)
  (-0.125757 0.0665348 0)
  (0.393926 -0.468262 0)
  (-0.0922082 -0.219447 0)
  (0.0960605 0.0411559 0)
  (0.11961 0.187451 0)
  (0.0960239 0.239544 0)
  (0.083227 0.245428 0)
  (0.0745162 0.220768 0)
  (0.063324 0.176225 0)
  (0.0490549 0.122656 0)
  (0.0326169 0.0706479 0)
  (0.0155136 0.0300884 0)
  (-0.000688886 0.00233124 0)
  (-0.0128275 -0.0142722 0)
  (-0.0210571 -0.0240232 0)
  (-0.0286778 -0.0305017 0)
  (-0.0362036 -0.0343894 0)
  (-0.043547 -0.0350898 0)
  (-0.0494344 -0.0316074 0)
  (-0.0520593 -0.0249179 0)
  (-0.0512239 -0.0184104 0)
  (-0.0485917 -0.0142625 0)
  (-0.0459575 -0.0123217 0)
  (-0.0440875 -0.0117009 0)
  (-0.042969 -0.0115729 0)
  (-0.0422699 -0.0114783 0)
  (-0.0417567 -0.0114335 0)
  (-0.0413984 -0.01139 0)
  (-0.0412218 -0.0112752 0)
  (-0.0413139 -0.0110495 0)
  (-0.0418679 -0.0107397 0)
  (-0.0432339 -0.0105123 0)
  (-0.0459761 -0.0107949 0)
  (-0.0508418 -0.0123525 0)
  (-0.0584549 -0.016142 0)
  (-0.0688607 -0.0230444 0)
  (-0.0810014 -0.0335964 0)
  (-0.0905771 -0.0461094 0)
  (-0.0918193 -0.0512152 0)
  (-0.0988736 -0.0237396 0)
  (-0.184584 0.0772725 0)
  (0.218457 -0.384258 0)
  (-0.20547 -0.221512 0)
  (-0.0927454 -0.0463397 0)
  (0.00707038 0.199206 0)
  (-0.0209676 0.227779 0)
  (0.0106275 0.236713 0)
  (0.0330505 0.217118 0)
  (0.0471025 0.177395 0)
  (0.0545243 0.128993 0)
  (0.0555066 0.0818483 0)
  (0.0508449 0.0436539 0)
  (0.042605 0.0160532 0)
  (0.0320606 -0.0031858 0)
  (0.0233905 -0.0155436 0)
  (0.0157364 -0.0231239 0)
  (0.00851215 -0.0274377 0)
  (0.00165084 -0.0288417 0)
  (-0.00416763 -0.0271557 0)
  (-0.00779707 -0.0232156 0)
  (-0.00918481 -0.0188769 0)
  (-0.00921132 -0.0154997 0)
  (-0.00892607 -0.0133575 0)
  (-0.00890233 -0.0121804 0)
  (-0.00926323 -0.0115665 0)
  (-0.00989416 -0.011213 0)
  (-0.0106731 -0.0109954 0)
  (-0.0115559 -0.0107948 0)
  (-0.0125266 -0.0104844 0)
  (-0.0136013 -0.00993375 0)
  (-0.0148624 -0.00901513 0)
  (-0.0165249 -0.00764537 0)
  (-0.0190538 -0.00590037 0)
  (-0.02334 -0.00423744 0)
  (-0.0309785 -0.00387888 0)
  (-0.0444134 -0.00721983 0)
  (-0.066066 -0.0174171 0)
  (-0.0925591 -0.0362664 0)
  (-0.118601 -0.0642716 0)
  (-0.163034 -0.100244 0)
  (-0.355191 -0.146836 0)
  (-0.0282688 -0.242579 0)
  (-0.497158 -0.176448 0)
  (-0.65681 -0.109489 0)
  (-0.122758 0.10538 0)
  (-0.129292 0.16689 0)
  (-0.0467789 0.193316 0)
  (0.00480398 0.187973 0)
  (0.0386672 0.156753 0)
  (0.0624253 0.117476 0)
  (0.0771669 0.0789499 0)
  (0.0834346 0.0469953 0)
  (0.0833753 0.0231307 0)
  (0.0793371 0.00606302 0)
  (0.0721866 -0.00599692 0)
  (0.0651854 -0.0137581 0)
  (0.0583528 -0.0181885 0)
  (0.0517104 -0.0199637 0)
  (0.0456091 -0.0195127 0)
  (0.0406533 -0.0174406 0)
  (0.0370909 -0.0147152 0)
  (0.0346129 -0.0121924 0)
  (0.0326898 -0.0102608 0)
  (0.0309306 -0.00895215 0)
  (0.0291548 -0.00812608 0)
  (0.0273301 -0.0076112 0)
  (0.0254738 -0.00727525 0)
  (0.0236024 -0.00699574 0)
  (0.0217461 -0.0066511 0)
  (0.0199596 -0.00611145 0)
  (0.0183303 -0.00522799 0)
  (0.0169882 -0.00383684 0)
  (0.0161182 -0.00180062 0)
  (0.0159814 0.000873553 0)
  (0.0168596 0.00379151 0)
  (0.0184822 0.00595462 0)
  (0.0207 0.00642796 0)
  (0.0230825 0.00546634 0)
  (0.028156 0.000342448 0)
  (0.0480365 -0.0434147 0)
  (-0.221115 -0.153141 0)
  (-1.63868 -0.150683 0)
  (-0.108422 -0.0864675 0)
  (-0.156929 0.0342273 0)
  (-0.0705127 0.118109 0)
  (-0.00377221 0.137179 0)
  (0.0437838 0.119281 0)
  (0.0778347 0.0928962 0)
  (0.101882 0.0665535 0)
  (0.11612 0.0447758 0)
  (0.122612 0.0288232 0)
  (0.123885 0.0178765 0)
  (0.121415 0.00979088 0)
  (0.116989 0.00241873 0)
  (0.111059 -0.00293517 0)
  (0.104113 -0.00609748 0)
  (0.0968834 -0.0073196 0)
  (0.0901155 -0.0070978 0)
  (0.0842901 -0.00608504 0)
  (0.079491 -0.00486875 0)
  (0.0755285 -0.00380459 0)
  (0.0721411 -0.00302944 0)
  (0.069109 -0.00253988 0)
  (0.0662841 -0.00226938 0)
  (0.0635774 -0.00213889 0)
  (0.0609443 -0.00206583 0)
  (0.0583874 -0.0019677 0)
  (0.0559649 -0.00176284 0)
  (0.0538032 -0.0013738 0)
  (0.0521151 -0.000749064 0)
  (0.0512166 7.17965e-05 0)
  (0.0515221 0.000815851 0)
  (0.0534595 0.00074983 0)
  (0.0571693 -0.0014366 0)
  (0.0623566 -0.00688516 0)
  (0.0684082 -0.015388 0)
  (0.0732508 -0.0267463 0)
  (0.0829369 -0.0541358 0)
  (-0.0211887 -0.119466 0)
  (-0.540644 -0.00246419 0)
  (0.148016 -0.105199 0)
  (-0.0623086 -0.0889781 0)
  (-0.0521035 -0.000337655 0)
  (0.0122607 0.049973 0)
  (0.0645705 0.0420974 0)
  (0.10498 0.0214854 0)
  (0.135075 -0.00237952 0)
  (0.154689 -0.0252466 0)
  (0.165439 -0.0452578 0)
  (0.169633 -0.0617341 0)
  (0.169128 -0.074314 0)
  (0.164447 -0.0812224 0)
  (0.156984 -0.0834974 0)
  (0.148168 -0.0829855 0)
  (0.139252 -0.080999 0)
  (0.131082 -0.0784761 0)
  (0.124074 -0.0760499 0)
  (0.118269 -0.0740723 0)
  (0.113465 -0.0726613 0)
  (0.109373 -0.0717835 0)
  (0.105722 -0.0713305 0)
  (0.10231 -0.0711725 0)
  (0.0990088 -0.0711889 0)
  (0.0957583 -0.0712799 0)
  (0.0925584 -0.0713718 0)
  (0.0894645 -0.0714182 0)
  (0.0865859 -0.0713994 0)
  (0.084084 -0.071323 0)
  (0.0821607 -0.0712296 0)
  (0.0810139 -0.0712068 0)
  (0.0807288 -0.0714111 0)
  (0.0811008 -0.0720706 0)
  (0.0816109 -0.0733391 0)
  (0.0818665 -0.0749389 0)
  (0.0799659 -0.075259 0)
  (0.10039 -0.0813071 0)
  (-0.000299396 -0.133437 0)
  (0.553261 0.212388 0)
  (0.261634 -0.195592 0)
  (-0.233802 0.198427 0)
  (0.112731 0.147825 0)
  (0.0318945 0.252312 0)
  (-0.0149175 0.230538 0)
  (0.0390793 0.210397 0)
  (0.0856419 0.203295 0)
  (0.126168 0.199802 0)
  (0.158146 0.200574 0)
  (0.179943 0.205258 0)
  (0.1925 0.212691 0)
  (0.198019 0.221351 0)
  (0.198708 0.229544 0)
  (0.196304 0.234026 0)
  (0.192233 0.234273 0)
  (0.187331 0.23196 0)
  (0.182026 0.228524 0)
  (0.176606 0.225015 0)
  (0.171268 0.222092 0)
  (0.166104 0.220067 0)
  (0.16113 0.218996 0)
  (0.156326 0.218769 0)
  (0.151667 0.219197 0)
  (0.147133 0.220061 0)
  (0.142712 0.221164 0)
  (0.138395 0.222341 0)
  (0.134172 0.223478 0)
  (0.130031 0.224502 0)
  (0.125949 0.225373 0)
  (0.121873 0.226071 0)
  (0.117698 0.226561 0)
  (0.113205 0.22676 0)
  (0.107973 0.226481 0)
  (0.101248 0.225402 0)
  (0.0917378 0.223154 0)
  (0.0772444 0.219289 0)
  (0.0529366 0.212378 0)
  (0.110974 0.205522 0)
  (-0.330667 0.351986 0)
)
;

boundaryField
{
  floor
  {
    type noSlip;
  }
  ceiling
  {
    type noSlip;
  }
  sWall
  {
    type noSlip;
  }
  nWall
  {
    type noSlip;
  }
  sideWalls
  {
    type empty;
  }
  glass1
  {
    type noSlip;
  }
  glass2
  {
    type noSlip;
  }
  sun
  {
    type noSlip;
  }
  Table_master
  {
    type noSlip;
  }
  Table_slave
  {
    type noSlip;
  }
  inlet
  {
    type fixedValue;
    value uniform (0.46194 -0.191342 0);
  }
  outlet
  {
    type zeroGradient;
  }
} 	// ************************************************************************* //

