/*--------------------------------*- C++ -*----------------------------------*\
  =========                 |
  \\      /  F ield         | OpenFOAM: The Open Source CFD Toolbox
   \\    /   O peration     | Website:  https://openfoam.org
    \\  /    A nd           | Version:  6
     \\/     M anipulation  |
\*---------------------------------------------------------------------------*/
FoamFile
{
    version     2.0;
    format      ascii;
    class       volScalarField;
    location    "2300";
    object      alphat;
}
// * * * * * * * * * * * * * * * * * * * * * * * * * * * * * * * * * * * * * //

dimensions      [1 -1 -1 0 0 0 0];

internalField   nonuniform List<scalar> 
458
(
0.000849848
0.000892143
0.00087882
0.000909557
0.000936359
0.000959352
0.000979452
0.000997628
0.0010149
0.00103215
0.00104479
0.00105174
0.00105344
0.0010529
0.00105154
0.000659157
0.00062089
0.000600834
0.000590974
0.000582608
0.000567661
0.000550631
0.000534167
0.000518802
0.000504305
0.000490484
0.000477122
0.000463917
0.000450397
0.000435881
0.000418963
0.000400297
0.000363849
0.001293
0.00221033
0.00191157
0.00224251
0.00242395
0.00261063
0.0027931
0.00295714
0.00308173
0.00314535
0.00316
0.00308694
0.00287529
0.00245572
0.00177144
0.00107971
0.000998169
0.000936204
0.0007855
0.00115334
0.00148927
0.00172761
0.00178956
0.00148498
0.00135944
0.00128035
0.001211
0.00114472
0.00107972
0.00101341
0.000940602
0.000856923
0.000779617
0.000718314
0.000776228
0.000427642
0.00169149
0.00328231
0.00213671
0.00318865
0.00348388
0.00369032
0.00385223
0.00397863
0.00407589
0.00413897
0.00418461
0.00419288
0.00413886
0.00400499
0.00376692
0.00331627
0.00241316
0.00110686
0.000894487
0.00175174
0.0021915
0.00237474
0.00220974
0.000683073
0.000618723
0.000565717
0.000523581
0.000490461
0.000464276
0.000443533
0.000427685
0.000417653
0.000487006
0.000589765
0.00086316
0.000473095
0.00210062
0.00488188
0.00211148
0.00353411
0.00401415
0.00418306
0.00426577
0.00430494
0.0043294
0.00435399
0.00438844
0.00441901
0.00442338
0.0043879
0.00429233
0.00406822
0.00357801
0.00258893
0.00105548
0.00234721
0.00264843
0.00264339
0.00257169
0.0022913
0.000667858
0.000647326
0.00064512
0.000647525
0.000647225
0.000639395
0.000622727
0.000604066
0.000579709
0.000559804
0.000584158
0.000917658
0.000520519
0.00252227
0.00702454
0.00265789
0.00330295
0.00418863
0.00439001
0.00442549
0.00439621
0.00435612
0.00434792
0.00437923
0.00443187
0.00446365
0.00444932
0.0043727
0.00422983
0.00405712
0.00389136
0.00357257
0.00326552
0.00296235
0.00269621
0.002542
0.00246143
0.00232319
0.00238455
0.00247159
0.00253619
0.00255891
0.00252435
0.00239524
0.00212166
0.00175163
0.00133912
0.0010234
0.000977429
0.00075443
0.000602395
0.000638295
0.000663158
0.00295966
0.00936807
0.00468185
0.00305251
0.0037558
0.00421835
0.00440286
0.00443412
0.00437257
0.00429093
0.00433465
0.00441656
0.00446701
0.00445505
0.00436315
0.00420544
0.00404834
0.00392703
0.00372777
0.00338517
0.00298057
0.00264216
0.00248682
0.00247963
0.0025719
0.00272044
0.00286297
0.00297351
0.00304152
0.00305874
0.00301414
0.00282709
0.00249831
0.00204076
0.00158447
0.00124556
0.000973169
0.000977704
0.00144274
0.000880219
0.00338822
0.0112905
0.00829537
0.00485883
0.00364877
0.0034519
0.00373538
0.00408965
0.00435663
0.00427239
0.00434787
0.00442834
0.00446882
0.00444313
0.00433232
0.00415497
0.00398738
0.00387084
0.00372382
0.00342608
0.00296677
0.00261261
0.00247874
0.00249005
0.00258258
0.00271608
0.00285482
0.00297914
0.00307456
0.00314163
0.00317991
0.00315554
0.00292577
0.00253174
0.00209413
0.00170305
0.0013795
0.00127169
0.00160348
0.00106018
0.00348812
0.0109778
0.00947831
0.00816262
0.00643358
0.00510274
0.0044632
0.0043285
0.00444547
0.00445954
0.00446578
0.00447956
0.00447388
0.00441173
0.00426656
0.00406147
0.00389346
0.00381372
0.00373325
0.00344423
0.00294967
0.00261077
0.00248645
0.0024827
0.00253799
0.00262189
0.00271473
0.00280735
0.00289746
0.00299223
0.00310224
0.00322839
0.00325784
0.00294382
0.00262601
0.00241044
0.00236127
0.00242924
0.00316011
0.00148117
0.00340967
0.00410164
0.00486127
0.00521547
0.00532086
0.00511736
0.00483573
0.00462748
0.00451917
0.00447179
0.00447259
0.00447668
0.00444076
0.00432785
0.0041205
0.00386938
0.00372007
0.00371327
0.00370939
0.00339999
0.00291222
0.00260419
0.00246966
0.00242514
0.00242461
0.00244429
0.00246937
0.00249139
0.00250548
0.00250714
0.00248933
0.00244206
0.00235559
0.00225776
0.0021931
0.00218366
0.00218937
0.00215427
0.00207714
0.00146238
0.00313995
0.00625885
0.00583164
0.00558066
0.00535514
0.00517136
0.00503449
0.00490897
0.00477193
0.00461085
0.00440718
0.00414071
0.00380612
0.00349696
0.00343388
0.00356759
0.00364374
0.00331602
0.00291348
0.00264707
0.00248076
0.00237025
0.00229469
0.00224139
0.00220016
0.00216383
0.00212935
0.00209779
0.00207349
0.00206257
0.00207079
0.0020782
0.0020874
0.00208864
0.00204557
0.00192223
0.00173743
0.00123798
0.00294046
0.00678712
0.00632944
0.00596148
0.00565938
0.00541104
0.00516111
0.00491163
0.00459128
0.0042232
0.00383732
0.00343845
0.00302935
0.00277787
0.00309142
0.00356681
0.00384547
0.00367088
0.00340133
0.00315191
0.00292908
0.00272897
0.00255471
0.00240966
0.00229416
0.00220675
0.0021456
0.00210856
0.00209191
0.00208802
0.00210487
0.00214575
0.00219654
0.00223209
0.00223812
0.00222383
0.00225011
0.00125815
0.00229958
0.00250703
0.00268069
0.00285522
0.00269711
0.00256227
0.00232791
0.00213434
0.00194688
0.00176304
0.00160622
0.00146873
0.00133706
0.00120164
0.00105223
0.00088929
0.000878115
0.000919643
0.00091688
0.000882037
0.000849561
0.000823417
0.000804263
0.000793614
0.000792448
0.000800415
0.000816295
0.000838741
0.000866753
0.000899934
0.000938705
0.00098471
0.00103621
0.00109175
0.00115223
0.00121596
0.00128564
0.00127243
0.00117916
0.00109809
)
;

boundaryField
{
    floor
    {
        type            compressible::alphatWallFunction;
        Prt             0.85;
        value           nonuniform List<scalar> 
36
(
0.000149567
9.32129e-05
8.75272e-05
8.45304e-05
8.30529e-05
8.1797e-05
7.95474e-05
7.69752e-05
7.44792e-05
7.21412e-05
6.99273e-05
6.78091e-05
6.5754e-05
6.3716e-05
6.16218e-05
5.93643e-05
5.6721e-05
5.37888e-05
4.80117e-05
4.80111e-05
5.80775e-05
6.51313e-05
7.24006e-05
8.47623e-05
9.01152e-05
9.38027e-05
0.000149565
0.000153504
0.000142071
0.000133311
9.32118e-05
0.000133309
0.000111707
0.000157285
0.000127375
0.00015012
)
;
    }
    ceiling
    {
        type            compressible::alphatWallFunction;
        Prt             0.85;
        value           nonuniform List<scalar> 
43
(
0.000315795
0.00034229
0.000364294
0.000386383
0.000366525
0.000349485
0.000319619
0.000294698
0.00027033
0.000246182
0.000225363
0.000206926
0.000189086
0.00017053
0.000149777
0.000126742
0.000125131
0.000131058
0.000130671
0.000125703
0.000121052
0.000117292
0.000114528
0.000112989
0.000112821
0.000113974
0.000116269
0.000119503
0.000123524
0.000128267
0.000133782
0.000140292
0.000147538
0.000155305
0.000163711
0.000172515
0.000182081
0.000180273
0.000167439
0.000156193
0.0004555
0.000539879
0.000396788
)
;
    }
    sWall
    {
        type            compressible::alphatWallFunction;
        Prt             0.85;
        value           uniform 0.000314592;
    }
    nWall
    {
        type            compressible::alphatWallFunction;
        Prt             0.85;
        value           nonuniform List<scalar> 6(9.362e-05 0.000125141 0.000150572 0.000175225 0.000177993 0.000155876);
    }
    sideWalls
    {
        type            empty;
    }
    glass1
    {
        type            compressible::alphatWallFunction;
        Prt             0.85;
        value           nonuniform List<scalar> 9(0.000117802 0.00017884 0.000231841 0.00028495 0.000338614 0.000393348 0.00044621 0.000458554 0.000449156);
    }
    glass2
    {
        type            compressible::alphatWallFunction;
        Prt             0.85;
        value           nonuniform List<scalar> 2(0.000207125 0.000204649);
    }
    sun
    {
        type            compressible::alphatWallFunction;
        Prt             0.85;
        value           nonuniform List<scalar> 
14
(
0.000121007
0.000127045
0.00012514
0.000129526
0.000133336
0.000136594
0.000139435
0.000141998
0.000144429
0.000146851
0.000148623
0.000149597
0.000149834
0.000149759
)
;
    }
    Table_master
    {
        type            compressible::alphatWallFunction;
        Prt             0.85;
        value           nonuniform List<scalar> 9(9.68247e-05 8.72837e-05 7.9333e-05 7.2947e-05 6.78823e-05 6.38477e-05 6.06311e-05 5.81606e-05 5.65908e-05);
    }
    Table_slave
    {
        type            compressible::alphatWallFunction;
        Prt             0.85;
        value           nonuniform List<scalar> 9(9.4579e-05 9.15394e-05 9.12126e-05 9.157e-05 9.15259e-05 9.03636e-05 8.78831e-05 8.50963e-05 8.14429e-05);
    }
    inlet
    {
        type            fixedValue;
        value           uniform 1.94e-05;
    }
    outlet
    {
        type            zeroGradient;
    }
}


// ************************************************************************* //
