/*--------------------------------*- C++ -*----------------------------------*\
  =========                 |
  \\      /  F ield         | OpenFOAM: The Open Source CFD Toolbox
   \\    /   O peration     | Website:  https://openfoam.org
    \\  /    A nd           | Version:  6
     \\/     M anipulation  |
\*---------------------------------------------------------------------------*/
FoamFile
{
    version     2.0;
    format      ascii;
    class       volVectorField;
    location    "2300";
    object      U;
}
// * * * * * * * * * * * * * * * * * * * * * * * * * * * * * * * * * * * * * //

dimensions      [0 1 -1 0 0 0 0];

internalField   nonuniform List<vector> 
458
(
(0.0693465 0.0734755 0)
(-0.144847 0.0121506 0)
(-0.149075 0.0125103 0)
(-0.173863 0.0105379 0)
(-0.195628 0.00753671 0)
(-0.213788 0.00411336 0)
(-0.227659 0.000282518 0)
(-0.236537 -0.00407489 0)
(-0.23954 -0.00912687 0)
(-0.235429 -0.0151141 0)
(-0.222573 -0.0225563 0)
(-0.19816 -0.0318486 0)
(-0.16091 -0.0446813 0)
(-0.122082 -0.064587 0)
(-0.121169 -0.0915711 0)
(0.0604168 -0.0292568 0)
(0.040612 -0.0206993 0)
(0.0567696 -0.0145843 0)
(0.0741508 -0.0111917 0)
(0.086451 -0.00852037 0)
(0.0940574 -0.00503849 0)
(0.0970562 -0.003028 0)
(0.0971121 -0.00231655 0)
(0.0961816 -0.00204634 0)
(0.0951097 -0.00182408 0)
(0.0938654 -0.00156195 0)
(0.0922233 -0.00118255 0)
(0.0898346 -0.000481893 0)
(0.0859151 0.000993824 0)
(0.0788957 0.00390786 0)
(0.0669478 0.0077025 0)
(0.0506565 0.0122027 0)
(0.00562694 0.0250152 0)
(0.260273 0.156595 0)
(-0.155602 0.0399732 0)
(-0.128585 0.0402675 0)
(-0.157488 0.0367198 0)
(-0.180023 0.0319716 0)
(-0.198853 0.02653 0)
(-0.213636 0.0202011 0)
(-0.223861 0.0126597 0)
(-0.228732 0.00356398 0)
(-0.226996 -0.00733045 0)
(-0.218457 -0.0193907 0)
(-0.202525 -0.032145 0)
(-0.181139 -0.0464215 0)
(-0.162744 -0.063412 0)
(-0.155753 -0.0727692 0)
(-0.130823 -0.0408379 0)
(-0.0787019 -0.0347943 0)
(-0.0753272 -0.0374034 0)
(0.0652825 -0.0498927 0)
(0.0321419 -0.031325 0)
(0.0449818 -0.0216036 0)
(0.0604286 -0.0179511 0)
(0.0718996 -0.0145153 0)
(0.0794326 -0.00445728 0)
(0.0807873 0.00153503 0)
(0.0801579 0.00371596 0)
(0.0799072 0.00441479 0)
(0.0800602 0.00475254 0)
(0.0801851 0.00502381 0)
(0.0801327 0.00546725 0)
(0.0798606 0.00656364 0)
(0.0787633 0.00938996 0)
(0.0741013 0.0168631 0)
(0.0626201 0.0246014 0)
(0.0489965 0.0322072 0)
(-0.0232944 0.0522202 0)
(0.429642 0.237964 0)
(-0.193143 0.0719339 0)
(-0.0997906 0.0678528 0)
(-0.132019 0.0584823 0)
(-0.151739 0.0494675 0)
(-0.168541 0.0396935 0)
(-0.182016 0.0285018 0)
(-0.191691 0.0154482 0)
(-0.196687 0.000303256 0)
(-0.19556 -0.0166849 0)
(-0.188047 -0.0349651 0)
(-0.174634 -0.053252 0)
(-0.157693 -0.0707463 0)
(-0.141438 -0.0860406 0)
(-0.125578 -0.0918238 0)
(-0.100591 -0.0791782 0)
(-0.0686347 -0.0788759 0)
(-0.0672132 -0.0859195 0)
(0.0479961 -0.0664733 0)
(0.0193338 -0.0452672 0)
(0.030769 -0.0344426 0)
(0.044159 -0.0308261 0)
(0.0544497 -0.0301303 0)
(0.0653497 -0.0201389 0)
(0.0614301 -0.0126114 0)
(0.0570305 -0.0089126 0)
(0.0563568 -0.00690455 0)
(0.0575268 -0.00552867 0)
(0.05907 -0.00446537 0)
(0.0608709 -0.00344744 0)
(0.0636588 -0.00194617 0)
(0.0691216 0.0023954 0)
(0.0698224 0.0225747 0)
(0.0587608 0.03829 0)
(0.0517826 0.0527558 0)
(-0.0473224 0.0830584 0)
(0.574246 0.305236 0)
(-0.241416 0.105012 0)
(-0.0654133 0.0919514 0)
(-0.102182 0.077548 0)
(-0.116812 0.0661999 0)
(-0.130028 0.0541941 0)
(-0.141249 0.0402742 0)
(-0.149909 0.0236771 0)
(-0.154862 0.00386994 0)
(-0.153993 -0.0190282 0)
(-0.147015 -0.0433997 0)
(-0.135331 -0.0666281 0)
(-0.121281 -0.0865122 0)
(-0.107261 -0.100788 0)
(-0.0926267 -0.105906 0)
(-0.0745562 -0.102243 0)
(-0.0566157 -0.0994682 0)
(-0.047923 -0.0885795 0)
(-0.0262401 -0.0316789 0)
(0.0131552 -0.067409 0)
(0.013141 -0.0548248 0)
(0.0199865 -0.0441343 0)
(0.02704 -0.0388542 0)
(0.029548 -0.0355327 0)
(0.0368489 -0.0227988 0)
(0.0538848 -0.0169395 0)
(0.0689742 -0.013706 0)
(0.0809933 -0.01139 0)
(0.0904095 -0.009131 0)
(0.096799 -0.00650155 0)
(0.0989475 -0.00329559 0)
(0.0948263 0.000971826 0)
(0.0826378 0.00693269 0)
(0.06839 0.03015 0)
(0.0576784 0.0514943 0)
(0.0606302 0.0730247 0)
(-0.0558957 0.116292 0)
(0.691901 0.359721 0)
(-0.288295 0.136563 0)
(-0.0294037 0.106454 0)
(-0.0693419 0.0900979 0)
(-0.0780732 0.0778141 0)
(-0.0865014 0.0646185 0)
(-0.0942068 0.0488612 0)
(-0.100634 0.0295105 0)
(-0.104576 0.00573482 0)
(-0.102752 -0.0224177 0)
(-0.0955051 -0.0521343 0)
(-0.0853669 -0.0789066 0)
(-0.0744047 -0.0999173 0)
(-0.0640116 -0.113686 0)
(-0.0538083 -0.119245 0)
(-0.0429065 -0.118143 0)
(-0.0329332 -0.113623 0)
(-0.0244413 -0.102606 0)
(-0.0101806 -0.0774267 0)
(0.00518447 -0.0736221 0)
(0.00794341 -0.0607162 0)
(0.0114219 -0.0502438 0)
(0.0155396 -0.0436555 0)
(0.0194205 -0.0375092 0)
(0.0276993 -0.0265766 0)
(0.0396388 -0.0207436 0)
(0.0511913 -0.017678 0)
(0.0614422 -0.0149276 0)
(0.0702284 -0.0112505 0)
(0.0770477 -0.0058296 0)
(0.081251 0.00182817 0)
(0.0808715 0.011095 0)
(0.0759768 0.0222802 0)
(0.0691187 0.0403067 0)
(0.062971 0.0609417 0)
(0.0815027 0.0842733 0)
(0.0411486 0.117476 0)
(0.0951289 0.127323 0)
(0.119707 0.133092 0)
(-0.194447 0.158616 0)
(0.769483 0.407469 0)
(-0.326352 0.162073 0)
(-0.00260435 0.10396 0)
(-0.032201 0.0961676 0)
(-0.0356662 0.0852251 0)
(-0.0396985 0.070961 0)
(-0.0433085 0.0540443 0)
(-0.0461784 0.0333093 0)
(-0.0475796 0.00693084 0)
(-0.0414358 -0.0261946 0)
(-0.0332859 -0.0603673 0)
(-0.0255577 -0.0886886 0)
(-0.0191348 -0.109089 0)
(-0.0143824 -0.121573 0)
(-0.0107465 -0.126656 0)
(-0.00758599 -0.125497 0)
(-0.00530571 -0.119117 0)
(-0.00360284 -0.106536 0)
(0.000506401 -0.0880262 0)
(0.00380533 -0.0753392 0)
(0.00290404 -0.0619394 0)
(0.00263894 -0.0525318 0)
(0.003672 -0.0466756 0)
(0.0060923 -0.041693 0)
(0.0114427 -0.03556 0)
(0.0192414 -0.0314712 0)
(0.0276428 -0.0285043 0)
(0.035921 -0.0251981 0)
(0.0437317 -0.0205177 0)
(0.0508822 -0.0134028 0)
(0.0570558 -0.00286787 0)
(0.0614269 0.0103642 0)
(0.0624382 0.0248023 0)
(0.0630495 0.041755 0)
(0.0643228 0.0602192 0)
(0.0816962 0.0803222 0)
(0.0786158 0.0895969 0)
(0.0903788 0.0460761 0)
(0.124019 -0.00234794 0)
(-0.220267 0.0807788 0)
(0.794919 0.450466 0)
(-0.341356 0.153227 0)
(0.0153579 0.0567072 0)
(0.0218119 0.0902524 0)
(0.0197849 0.0949645 0)
(0.0157418 0.0777606 0)
(0.0148099 0.0564666 0)
(0.0157896 0.0333839 0)
(0.018073 0.00310379 0)
(0.0319179 -0.0350696 0)
(0.0391619 -0.0686402 0)
(0.0419925 -0.0942467 0)
(0.0415274 -0.111704 0)
(0.0384861 -0.12189 0)
(0.033822 -0.12574 0)
(0.0283087 -0.123878 0)
(0.022109 -0.116628 0)
(0.0155028 -0.104302 0)
(0.00983111 -0.0879953 0)
(0.0038971 -0.0719095 0)
(-0.00274742 -0.0581965 0)
(-0.00735062 -0.0507225 0)
(-0.0100091 -0.0467431 0)
(-0.0107515 -0.0437962 0)
(-0.0093093 -0.040754 0)
(-0.00597902 -0.0381544 0)
(-0.00159322 -0.0356954 0)
(0.00351478 -0.0325253 0)
(0.00890227 -0.0279545 0)
(0.0148371 -0.0208562 0)
(0.021551 -0.0098399 0)
(0.0319003 0.00579096 0)
(0.0386335 0.0214392 0)
(0.0454378 0.036741 0)
(0.0533031 0.0515358 0)
(0.0699874 0.0670145 0)
(0.0825485 0.0719996 0)
(0.0949176 0.0509032 0)
(0.152354 0.0511153 0)
(-0.149702 0.139879 0)
(0.890895 0.463878 0)
(-0.111867 0.134223 0)
(0.0898195 -0.0247874 0)
(0.142801 0.0213363 0)
(0.126123 0.0580281 0)
(0.108214 0.0542656 0)
(0.103284 0.0353866 0)
(0.104382 0.0114167 0)
(0.112347 -0.0188488 0)
(0.120797 -0.0474849 0)
(0.120889 -0.0723404 0)
(0.114355 -0.0916597 0)
(0.103564 -0.105048 0)
(0.0902129 -0.112851 0)
(0.0756991 -0.115516 0)
(0.0608356 -0.112994 0)
(0.0457477 -0.10521 0)
(0.0304647 -0.0930321 0)
(0.0158656 -0.0774001 0)
(0.0015157 -0.0606965 0)
(-0.0106229 -0.0490142 0)
(-0.0193698 -0.0444026 0)
(-0.0258764 -0.0426979 0)
(-0.0304396 -0.0417351 0)
(-0.0332886 -0.0407116 0)
(-0.0347435 -0.0395619 0)
(-0.0352441 -0.0380736 0)
(-0.035019 -0.0358394 0)
(-0.0340973 -0.0324094 0)
(-0.0322265 -0.0272534 0)
(-0.0286875 -0.0197616 0)
(-0.021047 -0.00924496 0)
(-0.00506388 0.00468785 0)
(0.00712572 0.0178025 0)
(0.0201481 0.0255251 0)
(0.0387868 0.031547 0)
(0.0572112 0.0267677 0)
(0.071974 0.00439605 0)
(0.159261 0.0538202 0)
(-0.423087 0.22797 0)
(1.02077 0.430654 0)
(0.484982 0.284337 0)
(0.499428 0.194804 0)
(0.495391 0.173322 0)
(0.416155 0.155584 0)
(0.343031 0.123666 0)
(0.300098 0.0863668 0)
(0.275556 0.0491269 0)
(0.258193 0.0131821 0)
(0.234929 -0.0208378 0)
(0.209325 -0.0489062 0)
(0.183034 -0.0696477 0)
(0.156721 -0.0836426 0)
(0.130985 -0.0920304 0)
(0.106454 -0.095517 0)
(0.083075 -0.0935488 0)
(0.0601747 -0.0857394 0)
(0.0371464 -0.0738138 0)
(0.0149109 -0.0588084 0)
(-0.0060916 -0.0429657 0)
(-0.0212621 -0.0350858 0)
(-0.0331722 -0.0332693 0)
(-0.0431009 -0.0334766 0)
(-0.051606 -0.0340059 0)
(-0.0590126 -0.0342967 0)
(-0.0655738 -0.0341932 0)
(-0.0715664 -0.0335041 0)
(-0.0772388 -0.0319303 0)
(-0.0828366 -0.0290677 0)
(-0.0886613 -0.0243247 0)
(-0.0950861 -0.0169032 0)
(-0.102346 -0.00605533 0)
(-0.110359 0.00827484 0)
(-0.118363 0.0244552 0)
(-0.135137 0.0431938 0)
(-0.163276 0.0661765 0)
(-0.205825 0.0924655 0)
(-0.257974 0.120086 0)
(-0.329542 0.145666 0)
(-0.625562 0.166582 0)
(-0.539581 -0.0102535 0)
(0.185316 0.127662 0)
(0.255395 0.143183 0)
(0.249113 0.126391 0)
(0.249727 0.0952137 0)
(0.249845 0.0583493 0)
(0.244483 0.0238323 0)
(0.233409 -0.00460118 0)
(0.215232 -0.026847 0)
(0.192185 -0.0438097 0)
(0.165985 -0.0564349 0)
(0.138456 -0.0653968 0)
(0.111362 -0.0707447 0)
(0.0849624 -0.0705631 0)
(0.0585649 -0.0636439 0)
(0.0308915 -0.0527994 0)
(0.00367461 -0.0390782 0)
(-0.0180703 -0.0268037 0)
(-0.0327538 -0.0228009 0)
(-0.0457166 -0.0225954 0)
(-0.0578857 -0.0233523 0)
(-0.0696602 -0.0239589 0)
(-0.0810988 -0.0240221 0)
(-0.092196 -0.023325 0)
(-0.102945 -0.0216236 0)
(-0.113309 -0.0186409 0)
(-0.123193 -0.0141192 0)
(-0.132446 -0.00787229 0)
(-0.140837 0.000168613 0)
(-0.147789 0.00991524 0)
(-0.151567 0.0218463 0)
(-0.153839 0.0377418 0)
(-0.156 0.0574002 0)
(-0.158835 0.0790383 0)
(-0.160208 0.0950867 0)
(-0.150872 0.0849646 0)
(-0.137885 0.00724108 0)
(-0.275898 -0.191442 0)
(-0.234081 0.173567 0)
(0.120117 0.112325 0)
(0.0893569 0.0956143 0)
(0.112957 0.0961531 0)
(0.14456 0.0776496 0)
(0.167584 0.0480039 0)
(0.179819 0.0207012 0)
(0.181116 -0.000328386 0)
(0.173826 -0.0156478 0)
(0.158478 -0.0269628 0)
(0.137357 -0.0355287 0)
(0.112679 -0.0420283 0)
(0.086872 -0.0465603 0)
(0.0602631 -0.0468491 0)
(0.0354946 -0.0440191 0)
(0.00904616 -0.0396608 0)
(-0.0143378 -0.0373829 0)
(-0.0270994 -0.0391575 0)
(-0.0384283 -0.0422782 0)
(-0.0499535 -0.0450554 0)
(-0.0620482 -0.0471209 0)
(-0.0746295 -0.0485101 0)
(-0.0874287 -0.0493081 0)
(-0.100161 -0.0495322 0)
(-0.11251 -0.0490662 0)
(-0.124061 -0.0476269 0)
(-0.134254 -0.044746 0)
(-0.142361 -0.0397392 0)
(-0.147479 -0.0316317 0)
(-0.148569 -0.018999 0)
(-0.14487 -0.0025185 0)
(-0.135284 0.016899 0)
(-0.118834 0.0398786 0)
(-0.0959134 0.0653403 0)
(-0.0684371 0.0859583 0)
(-0.0416769 0.0876053 0)
(0.129596 0.00382216 0)
(-0.217852 -0.103769 0)
(0.0419737 -0.265338 0)
(-0.341667 -0.0944967 0)
(-0.279312 0.0842142 0)
(-0.143659 0.027958 0)
(-0.106203 0.0402339 0)
(-0.0382923 0.0598773 0)
(0.0409783 0.0537767 0)
(0.0816682 0.037001 0)
(0.110783 0.0245172 0)
(0.123511 0.0171975 0)
(0.12282 0.0131075 0)
(0.111727 0.0108877 0)
(0.0931376 0.0102529 0)
(0.0690254 0.0112733 0)
(0.0409205 0.0147734 0)
(0.00398384 0.0354753 0)
(-0.0263739 0.0827697 0)
(-0.0343684 0.09733 0)
(-0.0427512 0.107097 0)
(-0.0479996 0.115019 0)
(-0.0526301 0.119747 0)
(-0.057737 0.121663 0)
(-0.0637387 0.121369 0)
(-0.0707346 0.119384 0)
(-0.0786531 0.116195 0)
(-0.0872847 0.112284 0)
(-0.0962811 0.108035 0)
(-0.105163 0.103647 0)
(-0.113335 0.0991208 0)
(-0.120047 0.0942799 0)
(-0.124234 0.0888113 0)
(-0.124195 0.0824079 0)
(-0.117057 0.0777606 0)
(-0.0997886 0.0774644 0)
(-0.0715399 0.0823028 0)
(-0.0360436 0.0924123 0)
(0.0239912 0.104163 0)
(0.0679894 0.0952366 0)
(0.155746 0.0752532 0)
(-0.232318 0.0190315 0)
)
;

boundaryField
{
    floor
    {
        type            noSlip;
    }
    ceiling
    {
        type            noSlip;
    }
    sWall
    {
        type            noSlip;
    }
    nWall
    {
        type            noSlip;
    }
    sideWalls
    {
        type            empty;
    }
    glass1
    {
        type            noSlip;
    }
    glass2
    {
        type            noSlip;
    }
    sun
    {
        type            noSlip;
    }
    Table_master
    {
        type            noSlip;
    }
    Table_slave
    {
        type            noSlip;
    }
    inlet
    {
        type            fixedValue;
        value           uniform (0.212132 -0.212132 0);
    }
    outlet
    {
        type            zeroGradient;
    }
}


// ************************************************************************* //
