/*--------------------------------*- C++ -*----------------------------------*\
  =========                 |
  \\      /  F ield         | OpenFOAM: The Open Source CFD Toolbox
   \\    /   O peration     | Website:  https://openfoam.org
    \\  /    A nd           | Version:  6
     \\/     M anipulation  |
\*---------------------------------------------------------------------------*/
FoamFile
{
    version     2.0;
    format      ascii;
    class       volScalarField;
    location    "2100";
    object      alphat;
}
// * * * * * * * * * * * * * * * * * * * * * * * * * * * * * * * * * * * * * //

dimensions      [1 -1 -1 0 0 0 0];

internalField   nonuniform List<scalar> 
458
(
0.00134965
0.00147778
0.00150247
0.00157626
0.00164641
0.00171394
0.00178283
0.00184058
0.00187582
0.00188139
0.00185152
0.00178231
0.00166888
0.00150092
0.00124048
0.000616072
0.000739138
0.000836121
0.000850421
0.000828657
0.000775766
0.000719153
0.000668078
0.00062344
0.000584481
0.000550424
0.000520672
0.000494302
0.000470382
0.000447842
0.000425487
0.000414821
0.000383379
0.00184493
0.00463141
0.00446151
0.00519873
0.00591841
0.00661449
0.00716753
0.0076331
0.00803526
0.00833687
0.0084978
0.00848612
0.00827095
0.00777211
0.00642499
0.00152126
0.00124541
0.00100762
0.000636299
0.00153672
0.00228613
0.00284583
0.00295599
0.00216736
0.00183149
0.00160453
0.00143523
0.0013036
0.0011975
0.00110485
0.00102017
0.000937713
0.000863991
0.000802176
0.00098893
0.000506801
0.00225027
0.00631856
0.00551877
0.00686082
0.00750093
0.00797783
0.00835055
0.00870396
0.00907608
0.00943993
0.00973857
0.00991335
0.00990926
0.00963024
0.00887347
0.00708987
0.00549865
0.00123358
0.00109913
0.00194699
0.00282886
0.00361339
0.00366075
0.00106168
0.000923597
0.000813326
0.000725996
0.000656327
0.000600093
0.000554352
0.000517151
0.000488171
0.000544286
0.000645871
0.0011719
0.000599651
0.00263308
0.00802845
0.00557968
0.00721672
0.00771963
0.00791509
0.00809833
0.00835878
0.0087119
0.00913771
0.00955402
0.00987686
0.0100284
0.00993109
0.00959095
0.00890927
0.00759584
0.00442581
0.00152515
0.00228065
0.0033668
0.00444106
0.00517085
0.00486179
0.00118827
0.00107971
0.00100732
0.000954157
0.000908719
0.000863326
0.000819583
0.000773008
0.000718346
0.000674533
0.000700961
0.00142603
0.000679082
0.00301761
0.0101842
0.00618887
0.00705915
0.00767215
0.00772872
0.00776094
0.00797937
0.00831525
0.00878749
0.00927889
0.00967222
0.00985951
0.00980785
0.00957419
0.00921573
0.00862586
0.0074244
0.00673011
0.00673744
0.00703294
0.00729646
0.00735182
0.00698952
0.00564363
0.00503801
0.00470717
0.00446538
0.004224
0.00391675
0.00344139
0.00286605
0.00224688
0.00168396
0.00127534
0.00131678
0.00118193
0.000903055
0.00093456
0.00101265
0.00342073
0.0125122
0.00845795
0.00728757
0.00776876
0.00780065
0.00779741
0.00792391
0.00820275
0.00865377
0.00918626
0.0096298
0.00982908
0.0097342
0.00944346
0.00914629
0.00898369
0.00894025
0.00906546
0.00921265
0.00920393
0.00899093
0.00859804
0.00803388
0.00729405
0.00670854
0.00625762
0.00587278
0.00551266
0.0051512
0.00471559
0.0041477
0.00346255
0.00272857
0.0020942
0.00155342
0.001355
0.00123255
0.00153274
0.00105769
0.00377742
0.0140876
0.0116371
0.00934431
0.00894044
0.00853301
0.0081794
0.00808096
0.0082944
0.00877592
0.00936961
0.00984999
0.0100253
0.00984424
0.0094691
0.00923333
0.00941682
0.00989346
0.010265
0.0103043
0.00999903
0.00943552
0.00871747
0.00792082
0.00714778
0.00652214
0.0060205
0.00560596
0.00525543
0.00496111
0.00471874
0.00444001
0.00398048
0.00337296
0.00277514
0.00224097
0.00193895
0.00185372
0.00179505
0.00129776
0.00383429
0.0122686
0.0110642
0.0102117
0.00936471
0.00854126
0.00807163
0.00806688
0.0084859
0.00917468
0.00988934
0.0103629
0.0104203
0.0100779
0.00964417
0.00961328
0.0101187
0.0105435
0.0105742
0.010222
0.00955103
0.00867056
0.00770676
0.00678388
0.0060171
0.00544752
0.00502955
0.00471753
0.00449292
0.00435386
0.00430279
0.00432003
0.00426109
0.0039324
0.00365194
0.00357235
0.00382261
0.0041764
0.00500563
0.00194477
0.0037201
0.00438755
0.00484125
0.00495597
0.00522199
0.00580799
0.0067206
0.00788364
0.009132
0.0102404
0.0109688
0.0111419
0.010783
0.0101707
0.00998863
0.0100984
0.0102011
0.0100564
0.00962575
0.0089144
0.00797657
0.00695194
0.00599923
0.00523308
0.00468047
0.00429259
0.00400591
0.00378202
0.00360438
0.00346471
0.00335443
0.00326173
0.00318896
0.00313257
0.00309921
0.00307105
0.00297947
0.00278985
0.00257545
0.00177669
0.00185706
0.00461456
0.00813867
0.0103701
0.0117835
0.0126006
0.0128838
0.0127271
0.0122533
0.0114973
0.0106032
0.0099105
0.00959397
0.00930606
0.00886742
0.00829527
0.00760368
0.00681251
0.00597852
0.00521537
0.00462726
0.00421673
0.0039325
0.00371956
0.0035426
0.00338757
0.00325477
0.00315262
0.00309316
0.00308037
0.00309404
0.00311253
0.00311262
0.0030528
0.00288254
0.00259899
0.00223745
0.00143138
0.00275681
0.00830762
0.0111403
0.0117376
0.0118127
0.0115172
0.0109222
0.0101891
0.00946091
0.00879813
0.00822267
0.00774683
0.00729638
0.00681907
0.00634947
0.00589183
0.00543009
0.00496886
0.00452987
0.00415584
0.00387324
0.00366465
0.00350528
0.00337875
0.00327848
0.0032034
0.00315269
0.00312082
0.00312006
0.00316244
0.0032366
0.00332252
0.00339147
0.00342889
0.00337973
0.00330372
0.00283992
0.0014516
0.0024098
0.00259206
0.00265631
0.00281473
0.00265035
0.00251532
0.00241851
0.00229575
0.00213935
0.00195695
0.00176166
0.00157803
0.00142829
0.00131714
0.00123744
0.00117893
0.0011322
0.00109051
0.00105146
0.00101695
0.000991331
0.000974842
0.00096551
0.000962743
0.000966052
0.000975434
0.000991309
0.00101442
0.00104598
0.00108811
0.00114074
0.00120297
0.00127474
0.00135553
0.00144385
0.00156243
0.00159357
0.00155337
0.00144598
0.00133164
)
;

boundaryField
{
    floor
    {
        type            compressible::alphatWallFunction;
        Prt             0.85;
        value           nonuniform List<scalar> 
36
(
0.000175596
8.67166e-05
0.000104869
0.00011892
0.000120978
0.000117851
0.000110206
0.000101954
9.44413e-05
8.78185e-05
8.19911e-05
7.68575e-05
7.23408e-05
6.83105e-05
6.46313e-05
6.11429e-05
5.7661e-05
5.59909e-05
5.10375e-05
5.10368e-05
7.02181e-05
8.42568e-05
9.60548e-05
0.000128502
0.00013299
0.000144022
0.000175595
0.000213772
0.000176335
0.000143299
8.67156e-05
0.000143297
8.97238e-05
0.000174704
0.000156094
0.000214283
)
;
    }
    ceiling
    {
        type            compressible::alphatWallFunction;
        Prt             0.85;
        value           nonuniform List<scalar> 
43
(
0.000329887
0.000352943
0.000361068
0.000381175
0.000360515
0.000343422
0.000331103
0.000315395
0.00029525
0.00027155
0.000245905
0.000221508
0.000201383
0.000186293
0.000175384
0.000167324
0.000160854
0.000155054
0.000149598
0.000144756
0.000141148
0.00013882
0.0001375
0.000137109
0.000137577
0.000138903
0.000141143
0.000144397
0.000148826
0.000154716
0.000162035
0.00017064
0.000180502
0.000191527
0.000203498
0.000219441
0.000223605
0.000218229
0.000203788
0.000188282
0.000493444
0.000574195
0.000373522
)
;
    }
    sWall
    {
        type            compressible::alphatWallFunction;
        Prt             0.85;
        value           uniform 0.000328671;
    }
    nWall
    {
        type            compressible::alphatWallFunction;
        Prt             0.85;
        value           nonuniform List<scalar> 6(0.000143782 0.000150092 0.000183262 0.000201456 0.000204184 0.000187919);
    }
    sideWalls
    {
        type            empty;
    }
    glass1
    {
        type            compressible::alphatWallFunction;
        Prt             0.85;
        value           nonuniform List<scalar> 9(0.000185594 0.000250818 0.000302916 0.000351299 0.000399231 0.000448852 0.00049231 0.000499354 0.000485782);
    }
    glass2
    {
        type            compressible::alphatWallFunction;
        Prt             0.85;
        value           nonuniform List<scalar> 2(0.000267611 0.00024576);
    }
    sun
    {
        type            compressible::alphatWallFunction;
        Prt             0.85;
        value           nonuniform List<scalar> 
14
(
0.000190604
0.000207932
0.000211254
0.000221148
0.000230507
0.000239475
0.000248584
0.000256189
0.000260816
0.000261544
0.00025762
0.000248504
0.000233481
0.00021102
)
;
    }
    Table_master
    {
        type            compressible::alphatWallFunction;
        Prt             0.85;
        value           nonuniform List<scalar> 9(0.000151087 0.000131618 0.000115824 0.000103134 9.28789e-05 8.45042e-05 7.7621e-05 7.19708e-05 6.75339e-05);
    }
    Table_slave
    {
        type            compressible::alphatWallFunction;
        Prt             0.85;
        value           nonuniform List<scalar> 9(0.000168684 0.000153612 0.000143463 0.000135956 0.000129501 0.000123015 0.000116726 0.000109986 0.000102013);
    }
    inlet
    {
        type            fixedValue;
        value           uniform 1.94e-05;
    }
    outlet
    {
        type            zeroGradient;
    }
}


// ************************************************************************* //
