/*--------------------------------*- C++ -*----------------------------------*\
  =========                 |
  \\      /  F ield         | OpenFOAM: The Open Source CFD Toolbox
   \\    /   O peration     | Website:  https://openfoam.org
    \\  /    A nd           | Version:  6
     \\/     M anipulation  |
\*---------------------------------------------------------------------------*/
FoamFile
{
    version     2.0;
    format      ascii;
    class       volScalarField;
    location    "2100";
    object      k;
}
// * * * * * * * * * * * * * * * * * * * * * * * * * * * * * * * * * * * * * //

dimensions      [0 2 -2 0 0 0 0];

internalField   nonuniform List<scalar> 
458
(
0.00265802
0.00318058
0.00328757
0.00361843
0.00394769
0.00427818
0.00462902
0.00493365
0.00512409
0.00515418
0.00499142
0.00462481
0.00405455
0.003279
0.00223875
0.000552917
0.00079579
0.00101839
0.00105366
0.00100047
0.000876843
0.00075353
0.000650297
0.000566297
0.000497733
0.000441418
0.000394991
0.000355997
0.00032238
0.000292229
0.000263789
0.000250731
0.000214197
0.00497326
0.00938455
0.00536179
0.00568765
0.00624841
0.00691026
0.00762973
0.00834696
0.0089267
0.00922731
0.00915608
0.00869419
0.00787715
0.00679459
0.00563938
0.00336928
0.00225811
0.00147821
0.000589801
0.00129269
0.00164281
0.00180007
0.00176507
0.00150166
0.00123388
0.00101642
0.000847158
0.000715184
0.000611159
0.000527286
0.000458341
0.000401312
0.000360036
0.000337182
0.000640791
0.000374238
0.00740874
0.0170604
0.00673736
0.00648994
0.00701639
0.00776998
0.0086581
0.00954712
0.0102446
0.0106213
0.0106003
0.0101669
0.0093311
0.00816885
0.00686647
0.00554952
0.00451007
0.00221548
0.0017594
0.0020423
0.00218869
0.00224771
0.00215474
0.0016428
0.00124316
0.00096395
0.000767994
0.00062762
0.000524642
0.000447683
0.000389592
0.000347137
0.000322063
0.000333176
0.00103199
0.000523919
0.0101578
0.0274782
0.00859121
0.00688218
0.00727309
0.00814774
0.00930415
0.010353
0.0110853
0.0114758
0.0114766
0.0110611
0.010183
0.00899802
0.00772672
0.00654649
0.00548504
0.0044461
0.00338703
0.00325065
0.00312818
0.00303465
0.00289399
0.0026587
0.00205947
0.00170056
0.00148029
0.00132827
0.00120483
0.00108751
0.000980115
0.000871891
0.000752921
0.000558655
0.000469522
0.00157057
0.000671969
0.0133594
0.0409685
0.0126871
0.00769808
0.00774266
0.00887947
0.0105188
0.0115944
0.0122042
0.0125103
0.0124643
0.011978
0.0110087
0.00967218
0.00821617
0.00689444
0.00581287
0.00505661
0.0047858
0.0044212
0.00411023
0.00380442
0.00347202
0.00311372
0.00276314
0.00252376
0.00236538
0.0022307
0.00208403
0.00190308
0.00167685
0.00143095
0.00117954
0.000908891
0.000703187
0.00117426
0.00143587
0.0011896
0.00127484
0.0014968
0.0171881
0.0549898
0.0220711
0.0111274
0.0101249
0.0118247
0.0131686
0.0137068
0.0139126
0.0139821
0.0138223
0.0132154
0.0120407
0.0103923
0.00858077
0.00697568
0.00582472
0.00522234
0.00504272
0.00490143
0.00462422
0.00422093
0.00376582
0.00333032
0.00300033
0.0028149
0.00270371
0.00260332
0.0024811
0.00231471
0.00207518
0.00179605
0.00150641
0.0012181
0.00100079
0.00105251
0.00130752
0.00134213
0.00196785
0.00163239
0.0209836
0.0635654
0.0367601
0.0223124
0.0190321
0.0185214
0.0176091
0.016803
0.016311
0.0160448
0.0156779
0.014832
0.0133088
0.0112077
0.00894068
0.00703616
0.00583268
0.00534393
0.00522235
0.00505875
0.00470458
0.00421397
0.00370096
0.00326033
0.00297575
0.00284263
0.00278596
0.00275461
0.00272438
0.00267526
0.00257124
0.00235281
0.00209041
0.00181714
0.00161936
0.00158251
0.00177887
0.00214109
0.00285922
0.00245721
0.0216557
0.0606799
0.0436651
0.0353517
0.0299229
0.0251822
0.021871
0.0199727
0.0191041
0.0186986
0.0181105
0.0168302
0.0146929
0.0118953
0.00904242
0.00690166
0.0057313
0.00529393
0.00508748
0.00478092
0.00432144
0.00379976
0.00332688
0.0029766
0.00277844
0.00270735
0.00271633
0.00277917
0.00288987
0.00304889
0.00325229
0.00345474
0.00354865
0.00364198
0.00392893
0.00481075
0.00664951
0.00911597
0.0169954
0.00552689
0.0204332
0.0283643
0.0266752
0.0236071
0.0214848
0.0206437
0.0207912
0.0215123
0.0222578
0.0223868
0.0213268
0.0189058
0.0154731
0.0115221
0.00804928
0.00623331
0.005352
0.0049085
0.00456435
0.00415697
0.0036838
0.00322587
0.00286127
0.00262581
0.00251237
0.0024906
0.00253397
0.00263291
0.00279025
0.00301334
0.0033081
0.00367381
0.00411983
0.00466975
0.00536255
0.00612548
0.00676224
0.00708373
0.00720632
0.00461964
0.00844737
0.0176602
0.0264331
0.03048
0.0322007
0.0320715
0.030035
0.026346
0.0212626
0.0159828
0.0117501
0.00864133
0.00661013
0.00548937
0.00487272
0.0044778
0.00413056
0.00376203
0.00338365
0.00305117
0.00280951
0.0026603
0.00258237
0.00255384
0.00256234
0.00260692
0.00269633
0.00284777
0.00308681
0.00343457
0.0038902
0.00443712
0.00502814
0.00552599
0.00571424
0.00544122
0.00466581
0.00299839
0.0105573
0.0265748
0.0300967
0.0277431
0.0255707
0.0229231
0.0197021
0.0161921
0.0127535
0.00982512
0.00768536
0.00627003
0.00540567
0.00490884
0.00461257
0.00439889
0.00419755
0.00397933
0.00373999
0.00350871
0.00331755
0.00316572
0.00304625
0.00295748
0.00290471
0.00289772
0.00294752
0.00306383
0.00326874
0.00358617
0.00402188
0.0045633
0.00516232
0.00576132
0.00611238
0.00631443
0.00487665
0.0030834
0.00836532
0.00955257
0.0100266
0.0114245
0.0101909
0.00920228
0.00852007
0.00768534
0.00667948
0.00559266
0.00453435
0.0036397
0.00298265
0.0025371
0.00223976
0.00203321
0.00187538
0.00173989
0.00161754
0.00151309
0.00143774
0.00139025
0.0013637
0.00135584
0.00136512
0.00139171
0.00143733
0.00150509
0.00160014
0.00173159
0.00190308
0.00211633
0.00237635
0.00268709
0.00304872
0.00357032
0.00371432
0.00352955
0.00305854
0.00259472
)
;

boundaryField
{
    floor
    {
        type            kqRWallFunction;
        value           nonuniform List<scalar> 
36
(
0.00223875
0.000552917
0.00079579
0.00101839
0.00105366
0.00100047
0.000876843
0.00075353
0.000650297
0.000566297
0.000497733
0.000441418
0.000394991
0.000355997
0.00032238
0.000292229
0.000263789
0.000250731
0.000214197
0.000214197
0.000374238
0.000523919
0.000671969
0.0011896
0.00127484
0.0014968
0.00223875
0.00336928
0.00225811
0.00147821
0.000552917
0.00147821
0.000589801
0.00221548
0.0017594
0.00338703
)
;
    }
    ceiling
    {
        type            kqRWallFunction;
        value           nonuniform List<scalar> 
43
(
0.00836532
0.00955257
0.0100266
0.0114245
0.0101909
0.00920228
0.00852007
0.00768534
0.00667948
0.00559266
0.00453435
0.0036397
0.00298265
0.0025371
0.00223976
0.00203321
0.00187538
0.00173989
0.00161754
0.00151309
0.00143774
0.00139025
0.0013637
0.00135584
0.00136512
0.00139171
0.00143733
0.00150509
0.00160014
0.00173159
0.00190308
0.00211633
0.00237635
0.00268709
0.00304872
0.00357032
0.00371432
0.00352955
0.00305854
0.00259472
0.0204332
0.0283643
0.0105573
)
;
    }
    sWall
    {
        type            kqRWallFunction;
        value           uniform 0.00836532;
    }
    nWall
    {
        type            kqRWallFunction;
        value           nonuniform List<scalar> 6(0.0014968 0.00163239 0.00245721 0.00299839 0.0030834 0.00259472);
    }
    sideWalls
    {
        type            empty;
    }
    glass1
    {
        type            kqRWallFunction;
        value           nonuniform List<scalar> 9(0.00265802 0.00497326 0.00740874 0.0101578 0.0133594 0.0171881 0.0209836 0.0216557 0.0204332);
    }
    glass2
    {
        type            kqRWallFunction;
        value           nonuniform List<scalar> 2(0.00552689 0.00461964);
    }
    sun
    {
        type            kqRWallFunction;
        value           nonuniform List<scalar> 
14
(
0.00265802
0.00318058
0.00328757
0.00361843
0.00394769
0.00427818
0.00462902
0.00493365
0.00512409
0.00515418
0.00499142
0.00462481
0.00405455
0.003279
)
;
    }
    Table_master
    {
        type            kqRWallFunction;
        value           nonuniform List<scalar> 9(0.0016428 0.00124316 0.00096395 0.000767994 0.00062762 0.000524642 0.000447683 0.000389592 0.000347137);
    }
    Table_slave
    {
        type            kqRWallFunction;
        value           nonuniform List<scalar> 9(0.00205947 0.00170056 0.00148029 0.00132827 0.00120483 0.00108751 0.000980115 0.000871891 0.000752921);
    }
    inlet
    {
        type            turbulentIntensityKineticEnergyInlet;
        intensity       0.05;
        value           uniform 0.0003375;
    }
    outlet
    {
        type            zeroGradient;
    }
}


// ************************************************************************* //
