/*--------------------------------*- C++ -*----------------------------------*\
  =========                 |
  \\      /  F ield         | OpenFOAM: The Open Source CFD Toolbox
   \\    /   O peration     | Website:  https://openfoam.org
    \\  /    A nd           | Version:  6
     \\/     M anipulation  |
\*---------------------------------------------------------------------------*/
FoamFile
{
    version     2.0;
    format      ascii;
    class       surfaceScalarField;
    location    "2100";
    object      phi;
}
// * * * * * * * * * * * * * * * * * * * * * * * * * * * * * * * * * * * * * //

dimensions      [1 0 -1 0 0 0 0];

internalField   nonuniform List<scalar> 
850
(
-0.00306722
0.0031296
-0.00412762
0.00106049
-0.00490775
0.000780229
-0.00549093
0.000583268
-0.00583755
0.000346713
-0.00591893
8.14675e-05
-0.00571137
-0.000207466
-0.0052107
-0.000500572
-0.00445727
-0.000753334
-0.00353113
-0.000926052
-0.00253457
-0.000996466
-0.00157446
-0.000960018
-0.000758377
-0.000815989
-0.000190195
-0.000568089
-0.000187343
-0.000837408
0.000841901
-0.000468418
-0.000368936
0.000230096
-0.000698457
0.000785795
-0.000555647
0.0011628
-0.000376959
0.00136021
-0.000197362
0.00143936
-7.91005e-05
0.00147486
-3.54625e-05
0.00149297
-1.80696e-05
0.00149996
-6.95696e-06
0.00149917
8.26169e-07
0.00149103
8.17255e-06
0.001469
2.20532e-05
0.00141278
5.62506e-05
0.00128808
0.000124724
0.00108896
0.000199139
0.000844491
0.000244481
0.000850412
-0.0021905
0.00548714
-0.00324366
0.00211374
-0.00406252
0.00159919
-0.00464891
0.00116975
-0.00500007
0.000697969
-0.00509608
0.000177572
-0.00491365
-0.000389805
-0.00445953
-0.000954591
-0.00378795
-0.00142481
-0.00298341
-0.00173049
-0.0021399
-0.00183988
-0.00133967
-0.00176015
-0.000647666
-0.0015079
-9.58493e-05
-0.00111982
0.000411454
-0.000694556
0.000796709
-0.000380493
0.00077975
2.25181e-05
0.000795932
0.000350136
0.000504848
0.000723303
-0.000742041
0.000992743
-0.000967836
0.00124956
-0.000812406
0.00144727
-0.000574613
0.00148623
-0.000236274
0.0014896
-8.24208e-05
0.00149575
-4.15704e-05
0.00150132
-2.35972e-05
0.00150451
-1.01077e-05
0.00150573
-3.59972e-07
0.00150481
9.12565e-06
0.00149908
2.78147e-05
0.00146094
9.44147e-05
0.00129326
0.000292426
0.00101167
0.000480749
0.000678546
0.000577615
0.00154393
-0.00153714
0.00727909
-0.00246037
0.00303706
-0.00319984
0.00233875
-0.00371232
0.00168232
-0.00402303
0.00100877
-0.00410412
0.000258753
-0.00391315
-0.000580673
-0.00347068
-0.00139696
-0.002856
-0.00203938
-0.0021586
-0.00242777
-0.00146123
-0.00253714
-0.000820023
-0.00240125
-0.000273789
-0.00205404
0.000166839
-0.00156035
0.00047757
-0.0010052
0.000548069
-0.000450905
0.000386582
0.000184091
0.00119647
0.0014369
-0.000917183
0.00163162
-0.000936687
0.00158114
-0.000917294
0.00160806
-0.000839267
0.00175792
-0.000724412
0.00152185
0.00143963
0.00139826
0.00137486
0.00136495
0.00136478
0.0013741
0.0014021
0.00149669
0.00120811
0.000581029
0.000879999
0.00080888
0.000509855
0.00094777
0.00207613
-0.00107404
0.00868265
-0.00181508
0.0037782
-0.00231499
0.00283875
-0.00265877
0.00202619
-0.00285868
0.00120877
-0.00285633
0.000256487
-0.0025964
-0.000840501
-0.00214357
-0.00184969
-0.00160121
-0.00258162
-0.00104627
-0.00298257
-0.000535214
-0.00304808
-9.14255e-05
-0.00284493
0.0002753
-0.00242066
0.000568954
-0.00185392
0.000787713
-0.00122387
0.000918729
-0.000581838
0.00105791
4.49945e-05
0.00187841
0.000376059
0.0020661
-0.000173762
0.00175109
-0.00060209
0.00167387
-0.000859386
0.0016053
-0.000848653
0.00153086
-0.000764777
0.00140149
-0.000594998
0.00168535
-0.000283966
0.00185244
-0.000167214
0.00198158
-0.000129261
0.00208393
-0.000102472
0.00214504
-6.12384e-05
0.00213732
7.58265e-06
0.00202872
0.00010847
0.00178087
0.000247705
0.00133239
0.000448345
0.00111745
0.00079598
0.000756359
0.00116999
0.000239721
0.00146442
0.00234451
-0.000749652
0.00982541
-0.00131484
0.00434348
-0.00142735
0.00295135
-0.00148982
0.00208875
-0.00149084
0.00120986
-0.00128391
4.96364e-05
-0.000886288
-0.00123804
-0.000442692
-0.00229317
-3.17673e-05
-0.00299241
0.00030688
-0.00332108
0.00056387
-0.00330493
0.000746977
-0.00302792
0.000882829
-0.00255642
0.000991604
-0.00196261
0.00108877
-0.00132097
0.0012125
-0.000705486
0.00145657
-0.000198997
0.00180882
2.38957e-05
0.00182532
-0.000190177
0.0017104
-0.0004871
0.00151686
-0.000665783
0.00135798
-0.000689719
0.00122663
-0.000633384
0.00114633
-0.000514661
0.00121549
-0.000353098
0.00130699
-0.000258695
0.00139987
-0.000222129
0.00149334
-0.000195926
0.00157642
-0.000144314
0.00162495
-4.09443e-05
0.00161012
0.00012331
0.00151544
0.000342388
0.00135145
0.000612346
0.00118914
0.000958297
0.00101227
0.00134687
0.000629732
0.00184697
0.000854627
0.00211962
-0.00128545
0.00216537
-0.0019577
0.000696211
-0.00187533
-0.000648269
0.0109206
-0.00102726
0.00472257
-0.000579405
0.00250358
-0.000156374
0.00166579
0.000252234
0.000801323
0.000762045
-0.000460116
0.00123686
-0.00171276
0.00157361
-0.00262979
0.00175077
-0.00316943
0.00178791
-0.00335807
0.00172703
-0.00324391
0.00160099
-0.00290176
0.00145087
-0.00240621
0.00131164
-0.0018233
0.0012097
-0.00121896
0.00117687
-0.000672597
0.00124297
-0.000265024
0.00135593
-8.89916e-05
0.00133773
-0.000171912
0.00120102
-0.000350331
0.00101042
-0.000475136
0.000836223
-0.00051549
0.000698132
-0.000495267
0.000617604
-0.000434117
0.000622256
-0.00035774
0.000680782
-0.000317218
0.000767971
-0.000309319
0.00087437
-0.000302328
0.000993075
-0.000263024
0.0011122
-0.000160074
0.00120408
3.14178e-05
0.00125265
0.000293824
0.00127579
0.000589204
0.00131848
0.000915602
0.00143537
0.00123
0.00166295
0.0016194
0.00203977
0.00174281
0.00241381
0.00179133
0.00191075
0.00119927
0.000107063
-0.000675069
0.0120917
-0.000527853
0.00457544
0.000719513
0.0012563
0.00164933
0.000736045
0.00249328
-4.25792e-05
0.00323765
-0.00120441
0.00366063
-0.00213563
0.00376553
-0.00273454
0.00360978
-0.00301352
0.00326427
-0.0030124
0.00280436
-0.00278386
0.00229827
-0.00239555
0.00180764
-0.0019155
0.00137805
-0.00139364
0.00103804
-0.000878904
0.000813559
-0.000448078
0.000709695
-0.000161116
0.000674713
-5.39643e-05
0.000609108
-0.000106264
0.000479654
-0.000220843
0.000318025
-0.000313482
0.000161998
-0.000359448
3.55665e-05
-0.000368829
-4.08819e-05
-0.00035767
-5.31451e-05
-0.000345484
-1.58586e-05
-0.000354516
5.34446e-05
-0.000378636
0.00014814
-0.00039704
0.000270946
-0.000385848
0.000428437
-0.000317581
0.000617472
-0.000157631
0.000809953
0.00010133
0.00100111
0.000398039
0.00122914
0.000687562
0.00152703
0.000932112
0.00195675
0.00118968
0.00251944
0.00118013
0.00338501
0.000925759
0.00362496
0.000959306
0.00380536
0.0028317
0.00981569
0.00362644
0.00378079
0.00423675
0.000646068
0.00523151
-0.000258653
0.00613174
-0.000942717
0.0065259
-0.00159845
0.00645846
-0.00206802
0.00601275
-0.00228864
0.0052907
-0.00229129
0.00440186
-0.00212341
0.00344879
-0.00183066
0.00251985
-0.00146652
0.00168601
-0.0010816
0.000991656
-0.000699257
0.000461661
-0.00034889
0.000119928
-0.000106328
-5.53545e-05
1.41828e-05
-0.000137272
2.79716e-05
-0.000213355
-3.01649e-05
-0.000321224
-0.000112964
-0.000449887
-0.000184816
-0.000576251
-0.00023309
-0.000681444
-0.000263648
-0.000752472
-0.000286659
-0.000785319
-0.000312658
-0.000791259
-0.000348599
-0.000781499
-0.000388421
-0.00075881
-0.000419753
-0.000715752
-0.000428929
-0.000632164
-0.000401192
-0.000471357
-0.000318458
-0.000216471
-0.000153573
8.21138e-05
9.94389e-05
0.000394782
0.000374882
0.000708968
0.000617917
0.00105283
0.000845813
0.00138678
0.000846172
0.00169627
0.000616263
0.000942411
0.00171316
0.00506845
0.0104347
0.0142143
0.0131895
0.00167101
0.0124945
0.000436365
0.0116645
-0.000112454
0.0105222
-0.000455995
0.00910372
-0.000649248
0.00753485
-0.000719554
0.00592642
-0.000682695
0.00437466
-0.000571526
0.00295536
-0.000411289
0.00172377
-0.000234883
0.000706381
-6.41983e-05
-6.52975e-05
7.24023e-05
-0.000553893
0.000139693
-0.000799908
0.000139683
-0.000907294
0.000121569
-0.000962972
8.36481e-05
-0.00102207
2.89247e-05
-0.00110371
-3.13286e-05
-0.00120184
-8.67057e-05
-0.00130191
-0.000133042
-0.00139383
-0.000171758
-0.0014746
-0.000205917
-0.00154884
-0.000238444
-0.00162809
-0.000269385
-0.00172358
-0.00029296
-0.00184452
-0.000298839
-0.00200004
-0.000273433
-0.00220089
-0.000200366
-0.00246135
-5.80222e-05
-0.00277974
0.000164801
-0.00316548
0.000485164
-0.00370891
0.000918292
-0.00454028
0.00144927
-0.00571447
0.00201999
-0.00733251
0.0024642
-0.00916748
0.00245122
-0.00848751
0.00103317
-0.00306374
0.00440487
0.00348875
0.00335005
0.00149163
0.00356763
-0.000329831
0.00344462
-0.000332926
0.00291693
-0.000121573
0.0021527
4.46296e-05
0.00128346
0.000186484
0.000421195
0.000290665
-0.000334173
0.000343995
-0.000911453
0.000342356
-0.00129248
0.000316795
-0.00150313
0.000283029
-0.00160261
0.00023915
-0.00165058
0.000187637
-0.0016717
0.000142675
-0.00168982
0.000101747
-0.00172178
6.08621e-05
-0.00177338
2.02411e-05
-0.00183781
-2.23126e-05
-0.00190559
-6.52949e-05
-0.00197636
-0.00010102
-0.00205475
-0.000127569
-0.00214816
-0.00014507
-0.00226414
-0.000153436
-0.00240637
-0.000150756
-0.0025726
-0.000132644
-0.00275353
-9.25313e-05
-0.00292891
-2.50085e-05
-0.00307808
9.11242e-05
-0.00320262
0.000289316
-0.00331445
0.000596973
-0.00343058
0.0010344
-0.00356181
0.00158049
-0.00365557
0.00211372
-0.00359855
0.00240717
-0.00315806
0.0020107
-0.00175686
-0.000368049
-0.00472982
-0.00100907
0.00457713
-0.000604187
0.00108679
-0.00125614
0.000322078
-0.00175199
0.000162846
-0.00207998
0.000206318
-0.00230625
0.000270802
-0.00245057
0.000330721
-0.00253409
0.000374101
-0.00256585
0.000375697
-0.00256033
0.000336781
-0.00252492
0.000281348
-0.00246799
0.000226065
-0.00240471
0.000175829
-0.00235062
0.000133521
-0.00230785
9.98726e-05
-0.00227626
7.01192e-05
-0.00225623
4.07886e-05
-0.00224826
1.22326e-05
-0.00225165
-1.89644e-05
-0.00226485
-5.21396e-05
-0.00228906
-7.68525e-05
-0.00232471
-9.19593e-05
-0.00237159
-9.82303e-05
-0.00242903
-9.60278e-05
-0.00249508
-8.47484e-05
-0.00256527
-6.24792e-05
-0.00263265
-2.51875e-05
-0.00268645
2.87669e-05
-0.00269709
0.000101733
-0.00262937
0.000221574
-0.00244358
0.000411153
-0.00210871
0.000699511
-0.0016364
0.00110815
-0.00101883
0.00149613
3.62452e-06
0.00138469
0.00133778
0.000676522
0.00162278
-0.000653078
-0.00300725
0.00019393
-0.0117344
-0.00710231
-0.00598544
-0.00564157
-0.00546024
-0.00523739
-0.00495133
-0.00460612
-0.00421786
-0.00382795
-0.00347663
-0.00318031
-0.00293889
-0.00274741
-0.00259798
-0.00248195
-0.00239537
-0.00233774
-0.00230825
-0.00230956
-0.0023437
-0.00240229
-0.00247579
-0.00255546
-0.0026329
-0.00269913
-0.00274326
-0.00275038
-0.00270393
-0.002585
-0.00234681
-0.00191966
-0.00120482
-8.20545e-05
0.00142768
0.00282556
0.00351532
0.00287609
)
;

boundaryField
{
    floor
    {
        type            calculated;
        value           nonuniform List<scalar> 
36
(
0
0
0
0
0
0
0
0
0
0
0
0
0
0
0
0
0
0
0
-5.91078e-06
-1.49659e-05
-2.23354e-05
-2.86481e-05
-2.53077e-05
-2.39681e-05
-2.26048e-05
-2.76229e-06
-4.67342e-06
-5.47208e-06
-6.40727e-06
-4.44233e-06
-9.688e-06
-1.30349e-05
-1.3871e-05
-1.48046e-05
-1.38383e-05
)
;
    }
    ceiling
    {
        type            calculated;
        value           nonuniform List<scalar> 
43
(
-3.65627e-05
-5.52635e-05
-5.50611e-05
-3.02095e-05
-2.19053e-05
-1.85892e-05
-1.662e-05
-1.53342e-05
-1.45646e-05
-1.42241e-05
-1.427e-05
-1.45981e-05
-1.50209e-05
-1.54014e-05
-1.57027e-05
-1.5953e-05
-1.62052e-05
-1.65095e-05
-1.68861e-05
-1.73082e-05
-1.77062e-05
-1.80422e-05
-1.83107e-05
-1.8501e-05
-1.86084e-05
-1.86279e-05
-1.85544e-05
-1.83828e-05
-1.81074e-05
-1.77165e-05
-1.72249e-05
-1.66563e-05
-1.60256e-05
-1.53488e-05
-1.46412e-05
-1.36274e-05
-1.32131e-05
-1.32715e-05
-1.38719e-05
-1.39672e-05
3.31966e-06
1.23834e-06
-7.92139e-05
)
;
    }
    sWall
    {
        type            calculated;
        value           uniform -0.00024294;
    }
    nWall
    {
        type            calculated;
        value           nonuniform List<scalar> 6(-5.97791e-05 -7.16587e-05 -7.33389e-05 -9.08164e-05 -9.98228e-05 -0.000117223);
    }
    sideWalls
    {
        type            empty;
        value           nonuniform 0();
    }
    glass1
    {
        type            calculated;
        value           nonuniform List<scalar> 9(-6.22941e-05 -0.000166938 -0.000254717 -0.00032943 -0.000393007 -0.000446811 -0.000495989 -0.000555579 -0.000622228);
    }
    glass2
    {
        type            calculated;
        value           nonuniform List<scalar> 2(-0.000320682 -0.000355347);
    }
    sun
    {
        type            calculated;
        value           uniform 0;
    }
    Table_master
    {
        type            calculated;
        value           nonuniform List<scalar> 9(-1.54332e-07 -1.54479e-07 -1.54532e-07 -1.54567e-07 -1.54593e-07 -1.54612e-07 -1.54623e-07 -1.54625e-07 -1.54602e-07);
    }
    Table_slave
    {
        type            calculated;
        value           nonuniform List<scalar> 9(1.54164e-07 1.54167e-07 1.5412e-07 1.54081e-07 1.54059e-07 1.54061e-07 1.5407e-07 1.54116e-07 1.54214e-07);
    }
    inlet
    {
        type            calculated;
        value           uniform -0.00622245;
    }
    outlet
    {
        type            calculated;
        value           nonuniform List<scalar> 2(8.54478e-05 0.0119835);
    }
}


// ************************************************************************* //
