// -*- C++ -*-
// File generated by PyFoam - sorry for the ugliness

FoamFile
{
 version 2.0;
 format ascii;
 class volScalarField;
 location "300";
 object T;
}

dimensions [ 0 0 0 1 0 0 0 ];

internalField nonuniform List<scalar> 458
(
  302.498
  302.268
  302.248
  302.228
  302.191
  302.157
  302.139
  302.135
  302.136
  302.141
  302.148
  302.155
  302.164
  302.175
  302.197
  302.607
  302.552
  302.513
  302.493
  302.5
  302.517
  302.537
  302.558
  302.579
  302.6
  302.621
  302.643
  302.664
  302.686
  302.71
  302.735
  302.766
  302.819
  302.676
  302.347
  302.335
  302.275
  302.192
  302.138
  302.109
  302.095
  302.091
  302.094
  302.099
  302.107
  302.119
  302.135
  302.162
  302.171
  302.187
  302.225
  302.623
  302.562
  302.462
  302.445
  302.453
  302.469
  302.489
  302.511
  302.534
  302.557
  302.581
  302.605
  302.63
  302.656
  302.683
  302.715
  302.754
  302.817
  302.865
  302.447
  302.433
  302.291
  302.182
  302.111
  302.07
  302.051
  302.046
  302.049
  302.055
  302.065
  302.079
  302.097
  302.12
  302.139
  302.159
  302.199
  302.628
  302.501
  302.424
  302.407
  302.43
  302.446
  302.468
  302.494
  302.522
  302.553
  302.585
  302.619
  302.652
  302.683
  302.71
  302.736
  302.768
  302.826
  303.116
  302.643
  302.458
  302.262
  302.123
  302.041
  302.001
  301.986
  301.985
  301.99
  302.001
  302.017
  302.036
  302.059
  302.085
  302.109
  302.135
  302.172
  302.185
  302.24
  302.259
  302.298
  302.361
  302.433
  302.497
  302.542
  302.58
  302.613
  302.644
  302.674
  302.702
  302.728
  302.753
  302.764
  302.772
  302.789
  302.837
  303.401
  302.842
  302.402
  302.114
  301.967
  301.913
  301.902
  301.906
  301.917
  301.932
  301.954
  301.979
  302.005
  302.033
  302.062
  302.089
  302.117
  302.147
  302.165
  302.189
  302.237
  302.316
  302.416
  302.516
  302.603
  302.668
  302.719
  302.761
  302.796
  302.822
  302.84
  302.849
  302.85
  302.84
  302.824
  302.818
  302.845
  302.998
  303.145
  303.132
  302.611
  302
  301.699
  301.62
  301.675
  301.767
  301.836
  301.873
  301.903
  301.93
  301.955
  301.979
  302.005
  302.032
  302.06
  302.087
  302.115
  302.145
  302.179
  302.233
  302.324
  302.44
  302.563
  302.673
  302.761
  302.826
  302.873
  302.909
  302.934
  302.949
  302.955
  302.952
  302.939
  302.915
  302.885
  302.859
  302.863
  302.942
  303.006
  303.065
  301.585
  300.893
  300.835
  301.329
  301.752
  301.968
  302.023
  302.009
  301.985
  301.983
  301.994
  302.011
  302.034
  302.059
  302.087
  302.118
  302.154
  302.203
  302.279
  302.388
  302.517
  302.651
  302.771
  302.869
  302.941
  302.99
  303.024
  303.045
  303.057
  303.06
  303.056
  303.043
  303.021
  302.99
  302.953
  302.919
  302.905
  302.935
  302.97
  303.014
  301.15
  300.177
  300.556
  302.032
  302.196
  302.185
  302.143
  302.101
  302.075
  302.065
  302.069
  302.083
  302.106
  302.135
  302.171
  302.217
  302.279
  302.371
  302.498
  302.643
  302.782
  302.901
  302.993
  303.059
  303.103
  303.131
  303.148
  303.157
  303.158
  303.152
  303.141
  303.123
  303.1
  303.068
  303.034
  303.002
  302.99
  303.008
  303.04
  303.189
  300.787
  299.62
  299.555
  302.241
  302.377
  302.333
  302.281
  302.24
  302.214
  302.205
  302.211
  302.23
  302.26
  302.303
  302.36
  302.434
  302.528
  302.649
  302.787
  302.921
  303.034
  303.115
  303.17
  303.206
  303.228
  303.238
  303.242
  303.24
  303.234
  303.224
  303.212
  303.2
  303.19
  303.186
  303.193
  303.214
  303.252
  303.293
  303.323
  303.394
  297.256
  302.339
  302.544
  302.512
  302.473
  302.445
  302.428
  302.427
  302.441
  302.47
  302.513
  302.571
  302.644
  302.733
  302.835
  302.947
  303.057
  303.152
  303.223
  303.27
  303.298
  303.313
  303.318
  303.317
  303.312
  303.304
  303.295
  303.285
  303.276
  303.268
  303.263
  303.264
  303.273
  303.294
  303.328
  303.371
  303.424
  303.493
  302.35
  302.713
  302.746
  302.731
  302.715
  302.706
  302.704
  302.714
  302.738
  302.775
  302.825
  302.886
  302.957
  303.036
  303.117
  303.196
  303.265
  303.319
  303.354
  303.375
  303.383
  303.384
  303.381
  303.374
  303.366
  303.357
  303.347
  303.338
  303.329
  303.321
  303.315
  303.313
  303.317
  303.329
  303.35
  303.385
  303.417
  303.471
  302.901
  302.815
  302.809
  303.009
  303.022
  303.03
  303.039
  303.049
  303.062
  303.08
  303.106
  303.14
  303.18
  303.224
  303.269
  303.314
  303.356
  303.39
  303.417
  303.434
  303.443
  303.445
  303.443
  303.439
  303.432
  303.424
  303.416
  303.406
  303.397
  303.388
  303.378
  303.37
  303.362
  303.356
  303.353
  303.355
  303.369
  303.387
  303.404
  303.464
)
;

boundaryField
{
  floor
  {
    type wallHeatTransfer;
    Tinf uniform 305.2;
    alphaWall uniform 0.24;
    value nonuniform List<scalar> 36
(
  302.552
  303.078
  302.988
  302.915
  302.871
  302.865
  302.896
  302.935
  302.974
  303.011
  303.046
  303.081
  303.114
  303.146
  303.178
  303.211
  303.247
  303.288
  303.36
  303.36
  303.318
  303.295
  303.268
  303.334
  303.439
  303.411
  302.552
  302.492
  302.532
  302.605
  303.078
  302.605
  303.102
  302.551
  303.097
  302.526
)
;
  }
  ceiling
  {
    type wallHeatTransfer;
    Tinf uniform 303.2;
    alphaWall uniform 0.24;
    value nonuniform List<scalar> 43
(
  302.929
  302.85
  302.844
  303.028
  303.04
  303.047
  303.054
  303.064
  303.075
  303.091
  303.115
  303.145
  303.182
  303.221
  303.262
  303.302
  303.339
  303.369
  303.39
  303.404
  303.41
  303.411
  303.408
  303.404
  303.398
  303.391
  303.385
  303.377
  303.37
  303.363
  303.356
  303.349
  303.343
  303.339
  303.337
  303.339
  303.352
  303.368
  303.383
  303.435
  300.915
  299.8
  302.412
)
;
  }
  sWall
  {
    type wallHeatTransfer;
    Tinf uniform 315.2;
    alphaWall uniform 0.36;
    value uniform 304.547;
  }
  nWall
  {
    type wallHeatTransfer;
    Tinf uniform 307.2;
    alphaWall uniform 0.36;
    value nonuniform List<scalar> 6
(
  303.902
  303.828
  303.698
  304.034
  304.009
  304.065
)
;
  }
  sideWalls
  {
    type empty;
  }
  glass1
  {
    type wallHeatTransfer;
    Tinf uniform 315.2;
    alphaWall uniform 4.3;
    value nonuniform List<scalar> 9
(
  310.352
  310.006
  309.793
  309.883
  310.006
  308.991
  308.132
  307.893
  308.084
)
;
  }
  glass2
  {
    type wallHeatTransfer;
    Tinf uniform 307.2;
    alphaWall uniform 4.3;
    value nonuniform List<scalar> 2
(
  305.672
  305.796
)
;
  }
  sun
  {
    type wallHeatTransfer;
    Tinf uniform 305.2;
    alphaWall uniform 0.24;
    value nonuniform List<scalar> 14
(
  302.718
  302.486
  302.457
  302.429
  302.394
  302.369
  302.363
  302.372
  302.386
  302.405
  302.428
  302.45
  302.475
  302.505
)
;
  }
  Table_master
  {
    type zeroGradient;
  }
  Table_slave
  {
    type zeroGradient;
  }
  inlet
  {
    type fixedValue;
    value uniform 295.15;
  }
  outlet
  {
    type zeroGradient;
  }
} 	// ************************************************************************* //

