/*--------------------------------*- C++ -*----------------------------------*\
  =========                 |
  \\      /  F ield         | OpenFOAM: The Open Source CFD Toolbox
   \\    /   O peration     | Website:  https://openfoam.org
    \\  /    A nd           | Version:  6
     \\/     M anipulation  |
\*---------------------------------------------------------------------------*/
FoamFile
{
    version     2.0;
    format      ascii;
    class       surfaceScalarField;
    location    "2500";
    object      phi;
}
// * * * * * * * * * * * * * * * * * * * * * * * * * * * * * * * * * * * * * //

dimensions      [1 0 -1 0 0 0 0];

internalField   nonuniform List<scalar> 
850
(
-0.00278427
0.0028405
-0.00362603
0.000841783
-0.00430579
0.000679783
-0.00487938
0.000573608
-0.00531704
0.000437685
-0.0056024
0.000285391
-0.00571727
0.000114893
-0.00563937
-7.78754e-05
-0.00534644
-0.00029291
-0.00483502
-0.000511398
-0.00413146
-0.000703532
-0.00328568
-0.000845752
-0.00234518
-0.000940478
-0.00129654
-0.00104862
-0.00129529
-0.000453781
0.000456331
-1.6447e-05
-0.000437312
0.000547819
-0.000564244
0.000931082
-0.000383241
0.00117093
-0.000239825
0.00129329
-0.000122341
0.00134223
-4.89213e-05
0.00136261
-2.03571e-05
0.00137035
-7.72006e-06
0.00136941
9.65363e-07
0.00136157
7.86209e-06
0.00134559
1.59971e-05
0.00131399
3.16205e-05
0.0012462
6.78063e-05
0.00110839
0.000137834
0.000890222
0.000218188
0.000638099
0.000252143
0.000641511
-0.00198658
0.00497754
-0.0028691
0.00172433
-0.00359461
0.00140531
-0.00416401
0.00114303
-0.00459393
0.00086763
-0.00488228
0.000573764
-0.00501298
0.000245617
-0.00496216
-0.000128663
-0.00471225
-0.000542804
-0.00426969
-0.00095393
-0.00367386
-0.00129933
-0.00298626
-0.00153333
-0.00228081
-0.0016459
-0.00168606
-0.00164335
-0.00157019
-0.00141114
-0.000801401
-0.000766388
-0.000458493
-0.000340101
-0.000450439
0.000636402
-0.000173698
0.000933662
-0.000734551
0.00109974
-0.000730295
0.00127523
-0.000558716
0.00140786
-0.000372433
0.00142835
-0.000142806
0.00142868
-4.92346e-05
0.00143126
-2.29135e-05
0.00143382
-1.02582e-05
0.00143488
-7.35846e-08
0.0014344
8.35687e-06
0.00143192
1.85006e-05
0.0014244
3.91627e-05
0.00138473
0.0001075
0.00122227
0.000300316
0.00093843
0.000502043
0.000580291
0.000610301
0.00123048
-0.00140534
0.00661174
-0.00220635
0.00252536
-0.00285669
0.00205568
-0.00334295
0.00162931
-0.00371795
0.00124265
-0.00398264
0.00083848
-0.00411414
0.000377146
-0.00407628
-0.000166501
-0.00384319
-0.000775867
-0.00343089
-0.00136621
-0.00289157
-0.00183862
-0.00229272
-0.00213215
-0.00170735
-0.00223125
-0.00121784
-0.00213283
-0.000824879
-0.00180408
-0.000346787
-0.00124446
3.8904e-05
-0.000725769
-0.000405054
0.0011217
-0.00128802
0.0013445
-0.000957329
0.00137738
-0.000763152
0.00143419
-0.000615505
0.00155015
-0.000488366
0.00140752
0.00135845
0.00133572
0.00132563
0.00132573
0.00133426
0.00135294
0.00139227
0.00149995
0.00125697
0.000543311
0.000945992
0.000813042
0.000521139
0.00103517
0.00176479
-0.00100261
0.00790907
-0.00167666
0.00319943
-0.00210468
0.00248372
-0.00242975
0.00195441
-0.00269356
0.00150649
-0.00289241
0.00103735
-0.00299714
0.000481893
-0.00294951
-0.000214101
-0.00271259
-0.00101276
-0.00232458
-0.0017542
-0.00185357
-0.0023096
-0.00136456
-0.00262113
-0.000909622
-0.00268616
-0.000521304
-0.00252112
-0.00016414
-0.00216122
0.000241011
-0.00164958
0.000671225
-0.00115596
0.00110361
-0.000837415
0.00180563
-0.000694961
0.00139692
-0.000879289
0.00133286
-0.000893239
0.00130968
-0.000739959
0.00129058
-0.000596378
0.00124099
-0.00043876
0.00146191
-0.000221055
0.00161395
-0.000152169
0.00174496
-0.000131143
0.00185847
-0.000113643
0.00194067
-8.23339e-05
0.00196708
-2.65409e-05
0.00190799
5.89576e-05
0.00172944
0.000178414
0.00137728
0.000352017
0.00122132
0.000699289
0.000927217
0.00110717
0.000480402
0.00148201
0.00226226
-0.000721826
0.00898104
-0.00126915
0.00374677
-0.00135459
0.00256919
-0.00144235
0.00204219
-0.00154042
0.00160458
-0.0016203
0.00111726
-0.00164892
0.000510539
-0.00154468
-0.000318321
-0.00128414
-0.00127327
-0.000939926
-0.00209839
-0.000581042
-0.00266846
-0.000252785
-0.00294936
2.2018e-05
-0.00296094
0.00024302
-0.0027421
0.000438045
-0.00235622
0.000659905
-0.00187142
0.000905097
-0.00140113
0.00111975
-0.00105205
0.00127612
-0.000851304
0.00121161
-0.00081476
0.00109577
-0.000777381
0.00102639
-0.000670552
0.000986162
-0.000556132
0.000988113
-0.000440691
0.00109413
-0.000327055
0.00121031
-0.000268333
0.00132465
-0.000245465
0.00143458
-0.000223555
0.00153038
-0.000178116
0.00159329
-8.94274e-05
0.00159803
5.42315e-05
0.00152819
0.000248274
0.00138964
0.00049058
0.00126047
0.00082848
0.00112529
0.00124237
0.000866346
0.00174097
0.00104674
0.00208189
-0.000946826
0.00200911
-0.00160806
0.000675197
-0.00154771
-0.000645895
0.0100237
-0.00105391
0.00415481
-0.000654983
0.00217028
-0.000381449
0.00176868
-0.000268977
0.00149213
-0.000195392
0.00104369
-7.10906e-05
0.000386259
0.000156339
-0.000545729
0.000431353
-0.00154826
0.00067963
-0.00234664
0.00086154
-0.00285033
0.000966007
-0.00305379
0.00100037
-0.00299526
0.000990151
-0.00273185
0.000965114
-0.00233115
0.000957054
-0.00186333
0.000968307
-0.00141236
0.000969929
-0.00105365
0.000938848
-0.000820201
0.000837491
-0.000713383
0.00070723
-0.000647099
0.000611936
-0.000575238
0.000561384
-0.000505561
0.000562334
-0.000441623
0.000622212
-0.000386915
0.000712885
-0.00035899
0.000815999
-0.000348562
0.000925448
-0.000332988
0.00103731
-0.000289963
0.00114373
-0.000195834
0.00122308
-2.50973e-05
0.00125905
0.00021232
0.00126704
0.000482606
0.00129657
0.000798965
0.00139761
0.00114135
0.00159682
0.00154177
0.00192703
0.0017517
0.00219171
0.00174444
0.00170744
0.00115948
0.000217043
-0.000737158
0.0111998
-0.000675392
0.00409307
0.000395919
0.00109899
0.00100673
0.00115789
0.00127608
0.0012228
0.00150055
0.000819235
0.0018155
7.13293e-05
0.00214852
-0.000878728
0.0023618
-0.00176151
0.00242967
-0.00241447
0.00235996
-0.00278059
0.00217938
-0.00287318
0.00192392
-0.00273977
0.00163396
-0.00244186
0.00134596
-0.00204313
0.00108732
-0.00160467
0.000867649
-0.00119266
0.000679064
-0.000865039
0.000513568
-0.000654685
0.00035195
-0.000551746
0.000207922
-0.000503052
0.000103183
-0.000470481
4.38097e-05
-0.00044617
3.02035e-05
-0.000428
5.94752e-05
-0.00041617
0.00011617
-0.000415669
0.000187524
-0.000419901
0.000270755
-0.000416203
0.000369745
-0.000388938
0.000490968
-0.000317041
0.000638229
-0.000172343
0.000788072
6.24924e-05
0.000932504
0.00033819
0.00111455
0.000616938
0.00137447
0.000881441
0.00175355
0.00116271
0.0022574
0.00124787
0.00293166
0.00107019
0.00305561
0.00103556
0.00333432
0.00240694
0.00928384
0.00305214
0.00344789
0.00349702
0.000654126
0.00372257
0.000932355
0.00385668
0.0010887
0.00409022
0.000585712
0.00439009
-0.000228534
0.00455318
-0.00104179
0.00448952
-0.00169782
0.00420202
-0.00212693
0.00374467
-0.0023232
0.00318351
-0.00231199
0.00257886
-0.00213508
0.00198164
-0.00184462
0.00142901
-0.00149048
0.000942775
-0.00111841
0.000537458
-0.000787325
0.000214922
-0.000542483
-2.87729e-05
-0.000410972
-0.00021586
-0.000364641
-0.000359148
-0.000359747
-0.000464248
-0.000365365
-0.000535125
-0.000375277
-0.000575944
-0.000387167
-0.000591865
-0.000400233
-0.00059265
-0.000414868
-0.000585238
-0.000427297
-0.000570439
-0.000430987
-0.000542097
-0.000417265
-0.000484189
-0.000374934
-0.000366619
-0.000289898
-0.000166099
-0.000138012
7.93263e-05
9.27799e-05
0.000356886
0.000339395
0.000680689
0.000557654
0.00107825
0.000765168
0.00152474
0.000801396
0.00193024
0.000664705
0.00128173
0.00168409
0.00485919
0.00982056
0.0132589
0.0125231
0.00138994
0.0110922
0.00236333
0.0100912
0.00208969
0.00933283
0.0013441
0.00853825
0.000566075
0.00762416
-0.000127652
0.00660734
-0.000680949
0.00554865
-0.0010682
0.00449778
-0.00127229
0.00349275
-0.00130691
0.0025607
-0.001203
0.00172513
-0.00100902
0.0010011
-0.000766427
0.000389953
-0.000507249
-8.54514e-05
-0.000311903
-0.000418766
-0.000209151
-0.000642572
-0.00018715
-0.000807974
-0.000199222
-0.000943258
-0.000224446
-0.00105675
-0.000251863
-0.001153
-0.000279005
-0.00123664
-0.000303516
-0.00131303
-0.00032383
-0.00138953
-0.000338351
-0.0014735
-0.000343308
-0.0015721
-0.000332373
-0.0016932
-0.000296147
-0.00184664
-0.000221478
-0.00204256
-9.39622e-05
-0.00227757
9.70057e-05
-0.00254905
0.000364279
-0.00292531
0.000715666
-0.00352091
0.00115327
-0.00441494
0.00165922
-0.00573673
0.0021232
-0.00733495
0.00226294
-0.00700095
0.0013501
-0.00187362
0.00320247
0.00272026
0.00394583
0.00162011
0.00515611
0.000879549
0.00537861
0.00112172
0.00512115
0.000823653
0.00470046
0.000293129
0.00416326
-0.000143666
0.00350138
-0.000406256
0.00275662
-0.00052748
0.00198122
-0.000531478
0.00121995
-0.000441711
0.00051377
-0.000302825
-9.96781e-05
-0.000152965
-0.000570218
-3.66945e-05
-0.000881747
-3.5793e-07
-0.00108563
-5.25512e-06
-0.00123661
-3.61509e-05
-0.00136354
-7.2275e-05
-0.00148343
-0.000104543
-0.00160313
-0.000132147
-0.00172462
-0.000157504
-0.00184935
-0.000178774
-0.00197869
-0.000194477
-0.00211418
-0.000202842
-0.00225681
-0.000200669
-0.0024063
-0.000182864
-0.00256002
-0.000142414
-0.00271159
-6.98865e-05
-0.00285235
4.68073e-05
-0.00297055
0.000215225
-0.00306599
0.000459733
-0.00315008
0.000799769
-0.00322552
0.00122873
-0.0032684
0.00170211
-0.00325024
0.00210505
-0.00301752
0.00203023
-0.00171815
5.07493e-05
-0.00352123
-0.000391492
0.00317123
0.000427848
0.000800872
0.000662183
0.0006453
0.00104781
0.000736168
0.00129005
0.000581489
0.00129448
0.000288748
0.00111216
3.86939e-05
0.00078774
-8.18113e-05
0.000357663
-9.73857e-05
-0.000119277
-5.45336e-05
-0.000573317
1.23391e-05
-0.000945367
6.92363e-05
-0.00120196
0.000103643
-0.00135109
0.000112442
-0.00144521
9.3776e-05
-0.00151557
6.51204e-05
-0.0015876
3.5895e-05
-0.00167109
1.12308e-05
-0.00176775
-7.86781e-06
-0.00187761
-2.22768e-05
-0.00200119
-3.39092e-05
-0.00213629
-4.36619e-05
-0.00227901
-5.17361e-05
-0.00242415
-5.76969e-05
-0.00256472
-6.00834e-05
-0.00269145
-5.61209e-05
-0.00279218
-4.16596e-05
-0.00285023
-1.18301e-05
-0.00285076
4.73541e-05
-0.00278552
0.000149999
-0.00262756
0.000301793
-0.00234701
0.000519229
-0.00192268
0.000804421
-0.00132699
0.00110644
-0.000385977
0.00116405
0.00101611
0.000628158
0.00163059
-0.000563718
-0.00181355
-0.00564528
-0.00837407
-0.00516471
-0.00434731
-0.00369125
-0.00294761
-0.00236121
-0.00206992
-0.00203091
-0.00211418
-0.00221453
-0.00227335
-0.00226648
-0.00220379
-0.00210777
-0.00200395
-0.00191959
-0.00186446
-0.00183897
-0.00183844
-0.00185727
-0.0018907
-0.00193597
-0.00199116
-0.00205455
-0.00212399
-0.00219582
-0.00226363
-0.00231684
-0.00234001
-0.0023037
-0.0021644
-0.00187296
-0.00136372
-0.000568944
0.000528171
0.00168297
0.00230166
0.00172799
)
;

boundaryField
{
    floor
    {
        type            calculated;
        value           nonuniform List<scalar> 
36
(
0
0
0
0
0
0
0
0
0
0
0
0
0
0
0
0
0
0
0
-3.39303e-06
-8.6585e-06
-1.31523e-05
-1.7054e-05
-1.55233e-05
-1.39428e-05
-1.3038e-05
-1.2242e-06
-2.37403e-06
-2.78335e-06
-3.18184e-06
-2.52881e-06
-4.84918e-06
-6.35113e-06
-6.45784e-06
-7.35677e-06
-7.04017e-06
)
;
    }
    ceiling
    {
        type            calculated;
        value           nonuniform List<scalar> 
43
(
-4.13551e-05
-3.97783e-05
-3.8124e-05
-1.65133e-05
-1.07378e-05
-7.46172e-06
-4.89745e-06
-2.54188e-06
-3.07016e-07
1.4731e-06
2.97013e-06
4.29487e-06
5.48442e-06
6.55697e-06
7.63441e-06
8.6338e-06
9.43302e-06
1.00051e-05
1.0411e-05
1.07207e-05
1.09673e-05
1.11764e-05
1.13694e-05
1.15391e-05
1.16716e-05
1.1751e-05
1.17641e-05
1.1703e-05
1.15654e-05
1.13512e-05
1.10577e-05
1.07199e-05
1.03649e-05
1.00049e-05
9.65975e-06
9.34205e-06
9.26521e-06
9.48387e-06
9.96793e-06
1.12795e-05
1.28188e-05
9.58292e-06
-5.94217e-05
)
;
    }
    sWall
    {
        type            calculated;
        value           uniform -0.000269948;
    }
    nWall
    {
        type            calculated;
        value           nonuniform List<scalar> 6(-4.73012e-05 -5.72886e-05 -6.16482e-05 -7.05269e-05 -7.70741e-05 -9.68237e-05);
    }
    sideWalls
    {
        type            empty;
        value           nonuniform 0();
    }
    glass1
    {
        type            calculated;
        value           nonuniform List<scalar> 9(-5.62008e-05 -0.000150441 -0.000228828 -0.000294695 -0.000350125 -0.000396772 -0.000438896 -0.00049095 -0.000549515);
    }
    glass2
    {
        type            calculated;
        value           nonuniform List<scalar> 2(-0.000243132 -0.000268121);
    }
    sun
    {
        type            calculated;
        value           uniform 0;
    }
    Table_master
    {
        type            calculated;
        value           nonuniform List<scalar> 9(-1.52784e-07 -1.52868e-07 -1.52897e-07 -1.52916e-07 -1.5293e-07 -1.52937e-07 -1.52939e-07 -1.52934e-07 -1.52905e-07);
    }
    Table_slave
    {
        type            calculated;
        value           nonuniform List<scalar> 9(1.52735e-07 1.52727e-07 1.52689e-07 1.52655e-07 1.52631e-07 1.52627e-07 1.52635e-07 1.52665e-07 1.52737e-07);
    }
    inlet
    {
        type            calculated;
        value           uniform -0.00453271;
    }
    outlet
    {
        type            calculated;
        value           nonuniform List<scalar> 2(0.0059566 0.00276858);
    }
}


// ************************************************************************* //
