// -*- C++ -*-
// File generated by PyFoam - sorry for the ugliness

FoamFile
{
 version 2.0;
 format ascii;
 class volVectorField;
 location "1500";
 object U;
}

dimensions [ 0 1 -1 0 0 0 0 ];

internalField nonuniform List<vector> 458
(
  (0.0758516 0.0294763 0)
  (-0.0814423 -0.00602099 0)
  (-0.065689 -0.0206371 0)
  (-0.0502617 -0.0197425 0)
  (-0.0314441 -0.0103756 0)
  (-0.0208716 -0.00552817 0)
  (-0.0147583 -0.00421311 0)
  (-0.0103564 -0.00386297 0)
  (-0.00678712 -0.00355062 0)
  (-0.00388567 -0.00310249 0)
  (-0.00152422 -0.00265646 0)
  (0.000402886 -0.00229797 0)
  (0.000154481 -0.00175237 0)
  (-0.0119706 0.000816231 0)
  (0.0788435 0.00602625 0)
  (-0.0664777 -0.00388331 0)
  (0.0215317 0.00273922 0)
  (-0.000187471 0.00115592 0)
  (-0.00220808 -0.00156197 0)
  (0.000100002 0.000514276 0)
  (0.00710697 -0.00516329 0)
  (0.0134595 -0.0053367 0)
  (0.019729 -0.00446925 0)
  (0.0240018 -0.00341602 0)
  (0.0272824 -0.00248143 0)
  (0.0299159 -0.00176246 0)
  (0.0320813 -0.00150668 0)
  (0.0339603 -0.00174473 0)
  (0.0357142 -0.00120818 0)
  (0.0324741 0.00335245 0)
  (0.0238648 0.0073718 0)
  (-0.0054863 0.0143485 0)
  (0.042532 -0.00508045 0)
  (0.19538 0.0269252 0)
  (0.0938584 0.0466306 0)
  (0.0134241 0.0207677 0)
  (-0.0205171 -0.0138758 0)
  (-0.015596 -0.0125296 0)
  (-0.0113468 -0.00949586 0)
  (-0.00646735 -0.00782317 0)
  (-0.00204747 -0.00688018 0)
  (0.00153546 -0.00604073 0)
  (0.00416905 -0.00505478 0)
  (0.00601654 -0.00414803 0)
  (0.0072273 -0.00342793 0)
  (0.00727066 -0.002878 0)
  (0.00409982 -0.00537076 0)
  (0.0166318 -0.00560626 0)
  (0.018691 -0.0787634 0)
  (-0.0884776 -0.115252 0)
  (0.240901 -0.173811 0)
  (-0.125284 0.00162811 0)
  (0.0286326 0.00352819 0)
  (0.00017753 0.00450005 0)
  (-0.0129935 0.000175586 0)
  (-0.0227261 -0.00553325 0)
  (-0.0162503 -0.0210012 0)
  (-0.00863188 -0.0142756 0)
  (0.00355072 -0.00965688 0)
  (0.00729455 -0.00719463 0)
  (0.00920294 -0.00548909 0)
  (0.0102173 -0.00394832 0)
  (0.0103908 -0.00223731 0)
  (0.00908374 0.000185879 0)
  (0.00544833 0.00487993 0)
  (0.00398999 0.0143303 0)
  (0.00357329 0.0156965 0)
  (-0.0355232 0.0201485 0)
  (0.137662 0.00342849 0)
  (-0.208083 -0.0379725 0)
  (0.0706812 0.07339 0)
  (-0.0366291 0.0258129 0)
  (-0.0342629 -0.00540567 0)
  (-0.0279217 -0.0147869 0)
  (-0.0216885 -0.0153165 0)
  (-0.0165013 -0.0129207 0)
  (-0.0136251 -0.0103197 0)
  (-0.0128963 -0.00798933 0)
  (-0.0138075 -0.00577235 0)
  (-0.0158216 -0.00388888 0)
  (-0.0187698 -0.00228744 0)
  (-0.0223293 -0.000662589 0)
  (-0.0247769 0.0015265 0)
  (-0.020659 0.00726211 0)
  (-0.0226099 0.0153263 0)
  (-0.0660922 0.0167471 0)
  (0.220857 0.0669442 0)
  (-0.149525 0.0168934 0)
  (-0.00973642 0.00423968 0)
  (-0.0211106 0.00565865 0)
  (-0.018249 0.00554849 0)
  (-0.0153137 0.00398726 0)
  (-0.0148411 -0.0149537 0)
  (-0.0425913 -0.0106638 0)
  (-0.0534871 -0.00723262 0)
  (-0.0610513 -0.00535038 0)
  (-0.066554 -0.00407532 0)
  (-0.0707315 -0.00310975 0)
  (-0.0738072 -0.00249564 0)
  (-0.074489 -0.0023767 0)
  (-0.0693323 -0.0028053 0)
  (-0.058869 0.000518214 0)
  (-0.0458294 0.00496121 0)
  (-0.0560095 0.00295828 0)
  (0.206724 0.0281549 0)
  (-0.452533 -0.0266685 0)
  (0.144399 0.100874 0)
  (-0.0471406 0.0394572 0)
  (-0.0520436 -0.00633235 0)
  (-0.0476847 -0.0228839 0)
  (-0.042416 -0.0220835 0)
  (-0.0408161 -0.0154936 0)
  (-0.0437534 -0.00902325 0)
  (-0.0504241 -0.00357086 0)
  (-0.0598758 0.00096793 0)
  (-0.0704025 0.00420057 0)
  (-0.0813665 0.00601304 0)
  (-0.092302 0.00620996 0)
  (-0.102434 0.00448583 0)
  (-0.110704 0.00032963 0)
  (-0.120654 -0.00837035 0)
  (-0.133054 -0.02178 0)
  (-0.129208 -0.0318806 0)
  (-0.14025 -0.061645 0)
  (-0.134047 0.0124959 0)
  (-0.12551 0.00758266 0)
  (-0.135698 0.00749519 0)
  (-0.143597 0.00541189 0)
  (-0.152299 0.00154329 0)
  (-0.15857 -3.36365e-05 0)
  (-0.158894 -0.00199436 0)
  (-0.157046 -0.00376494 0)
  (-0.153246 -0.00505149 0)
  (-0.148105 -0.00609359 0)
  (-0.141933 -0.00704056 0)
  (-0.134596 -0.00803963 0)
  (-0.125551 -0.00934313 0)
  (-0.11484 -0.0112896 0)
  (-0.104778 -0.0149102 0)
  (-0.0940565 -0.0181034 0)
  (-0.061761 -0.0225051 0)
  (0.0635294 -0.0174813 0)
  (-0.628222 -0.0362629 0)
  (0.218157 0.110564 0)
  (0.0031966 0.0810886 0)
  (-0.047068 0.0108678 0)
  (-0.0613105 -0.0242102 0)
  (-0.0659559 -0.0216385 0)
  (-0.0738701 -0.00952561 0)
  (-0.0862098 0.00110496 0)
  (-0.0992774 0.00847879 0)
  (-0.111332 0.0132286 0)
  (-0.122496 0.0161734 0)
  (-0.132664 0.0176898 0)
  (-0.141759 0.0179581 0)
  (-0.149596 0.0170647 0)
  (-0.156379 0.0149926 0)
  (-0.163608 0.0117488 0)
  (-0.171601 0.00907225 0)
  (-0.177589 0.00985198 0)
  (-0.178261 0.00754749 0)
  (-0.174445 0.0104757 0)
  (-0.171642 0.0106452 0)
  (-0.170136 0.0112483 0)
  (-0.168216 0.00984234 0)
  (-0.166427 0.0066839 0)
  (-0.164255 0.00299968 0)
  (-0.161459 -0.000985029 0)
  (-0.158369 -0.0038596 0)
  (-0.154811 -0.00583769 0)
  (-0.150872 -0.00722423 0)
  (-0.146768 -0.00830772 0)
  (-0.142718 -0.00948626 0)
  (-0.13904 -0.0115352 0)
  (-0.136705 -0.015809 0)
  (-0.137601 -0.0236449 0)
  (-0.142826 -0.0349232 0)
  (-0.150286 -0.055057 0)
  (-0.162267 -0.0921798 0)
  (-0.187134 -0.164508 0)
  (-0.154733 -0.171316 0)
  (0.224544 -0.218511 0)
  (-0.740052 -0.0776967 0)
  (0.260747 0.0867564 0)
  (0.100399 0.121213 0)
  (0.0265335 0.0920254 0)
  (-0.0512291 0.00525997 0)
  (-0.0829356 -0.0043244 0)
  (-0.104929 0.00796945 0)
  (-0.123251 0.0168461 0)
  (-0.137658 0.0217973 0)
  (-0.148544 0.0243085 0)
  (-0.156577 0.0252741 0)
  (-0.162313 0.024987 0)
  (-0.166244 0.0235197 0)
  (-0.168801 0.0208192 0)
  (-0.170542 0.0167145 0)
  (-0.172256 0.0113226 0)
  (-0.174293 0.00614704 0)
  (-0.17602 0.00349608 0)
  (-0.175901 0.00352825 0)
  (-0.172952 0.00510295 0)
  (-0.16822 0.00602285 0)
  (-0.162814 0.0061489 0)
  (-0.157153 0.00466001 0)
  (-0.1518 0.00178337 0)
  (-0.146891 -0.00170701 0)
  (-0.142619 -0.00522042 0)
  (-0.138647 -0.00814891 0)
  (-0.134607 -0.0103855 0)
  (-0.130253 -0.0119931 0)
  (-0.125433 -0.013043 0)
  (-0.120033 -0.0136325 0)
  (-0.114042 -0.013991 0)
  (-0.107752 -0.0144991 0)
  (-0.101717 -0.0152463 0)
  (-0.0960606 -0.0155271 0)
  (-0.0906209 -0.016244 0)
  (-0.0899157 -0.0178309 0)
  (-0.110323 -0.018049 0)
  (-0.175635 -0.0221374 0)
  (0.349258 -0.140341 0)
  (-0.798829 -0.138038 0)
  (0.286421 -0.0257699 0)
  (0.189294 0.118729 0)
  (0.0997547 0.178772 0)
  (-0.0234815 0.0969575 0)
  (-0.0940374 0.0441279 0)
  (-0.127201 0.0359629 0)
  (-0.148952 0.0347489 0)
  (-0.161565 0.0334619 0)
  (-0.167749 0.0315258 0)
  (-0.169582 0.0292348 0)
  (-0.168449 0.0266263 0)
  (-0.165366 0.0236146 0)
  (-0.161166 0.0200925 0)
  (-0.156644 0.015865 0)
  (-0.152488 0.010924 0)
  (-0.148997 0.00591663 0)
  (-0.145867 0.00200921 0)
  (-0.142188 2.46449e-05 0)
  (-0.137509 -0.000341277 0)
  (-0.131688 -0.00037364 0)
  (-0.125277 -0.000747753 0)
  (-0.118786 -0.00203026 0)
  (-0.112859 -0.0042112 0)
  (-0.107872 -0.00693102 0)
  (-0.103685 -0.00983183 0)
  (-0.100063 -0.0125633 0)
  (-0.0966587 -0.0149913 0)
  (-0.0931441 -0.0171208 0)
  (-0.0892218 -0.0190206 0)
  (-0.0846093 -0.0208295 0)
  (-0.0790645 -0.0228052 0)
  (-0.0724427 -0.0253023 0)
  (-0.0646463 -0.0285778 0)
  (-0.0552837 -0.0327664 0)
  (-0.0424937 -0.0385547 0)
  (-0.0238535 -0.0461139 0)
  (-0.0173016 -0.0528969 0)
  (-0.199696 -0.057389 0)
  (0.543741 -0.166127 0)
  (-0.76233 -0.135538 0)
  (0.196817 -0.161961 0)
  (0.170126 0.0473829 0)
  (0.0957008 0.279399 0)
  (-0.0853714 0.175129 0)
  (-0.12852 0.0946167 0)
  (-0.151528 0.0632253 0)
  (-0.163372 0.0482899 0)
  (-0.165629 0.0385048 0)
  (-0.161637 0.031013 0)
  (-0.153771 0.0251942 0)
  (-0.143661 0.0204373 0)
  (-0.132518 0.0162254 0)
  (-0.121134 0.0123081 0)
  (-0.110203 0.00837051 0)
  (-0.100102 0.0042673 0)
  (-0.0911113 0.000286374 0)
  (-0.0836894 -0.00298122 0)
  (-0.0775634 -0.00506539 0)
  (-0.0717807 -0.0060059 0)
  (-0.0659851 -0.00645743 0)
  (-0.0602728 -0.00690661 0)
  (-0.0548995 -0.0077356 0)
  (-0.0501835 -0.00907556 0)
  (-0.0463202 -0.0108719 0)
  (-0.0433111 -0.0129545 0)
  (-0.041008 -0.0151326 0)
  (-0.0391511 -0.0173131 0)
  (-0.0374501 -0.019489 0)
  (-0.035605 -0.0217162 0)
  (-0.0333 -0.0241241 0)
  (-0.0302016 -0.0269517 0)
  (-0.0259519 -0.0305609 0)
  (-0.020116 -0.035411 0)
  (-0.011939 -0.0421317 0)
  (0.00166987 -0.0519227 0)
  (0.0268545 -0.0654052 0)
  (0.0599673 -0.0807063 0)
  (-0.110868 -0.0908408 0)
  (0.909266 -0.119445 0)
  (-0.601922 -0.0348971 0)
  (-0.199149 -0.124358 0)
  (-0.518094 0.0588549 0)
  (-0.00317898 0.397634 0)
  (-0.201869 0.221672 0)
  (-0.184094 0.11679 0)
  (-0.163588 0.0727471 0)
  (-0.145022 0.0508381 0)
  (-0.125997 0.0363112 0)
  (-0.106687 0.0251333 0)
  (-0.0868605 0.0169132 0)
  (-0.0667104 0.0110354 0)
  (-0.0484705 0.00703034 0)
  (-0.0321431 0.00413135 0)
  (-0.017856 0.00178653 0)
  (-0.00596448 -0.000316952 0)
  (0.00344186 -0.00225099 0)
  (0.0106996 -0.0037592 0)
  (0.0164902 -0.00476739 0)
  (0.0213369 -0.00527497 0)
  (0.0255649 -0.00550015 0)
  (0.0292754 -0.00568385 0)
  (0.0324224 -0.00604587 0)
  (0.0348874 -0.00670846 0)
  (0.0365787 -0.00770157 0)
  (0.0374842 -0.00898306 0)
  (0.0376833 -0.0104868 0)
  (0.0373293 -0.0121827 0)
  (0.0366104 -0.0140936 0)
  (0.0357338 -0.0163033 0)
  (0.0349251 -0.0189791 0)
  (0.0344292 -0.0224136 0)
  (0.0345128 -0.0270834 0)
  (0.0354616 -0.0337401 0)
  (0.0376496 -0.0435658 0)
  (0.0426946 -0.0583347 0)
  (0.0544901 -0.0804731 0)
  (0.0726464 -0.110683 0)
  (-0.0983481 -0.126343 0)
  (0.983448 -0.0577816 0)
  (-3.14933 0.142252 0)
  (-0.0995056 0.274477 0)
  (-0.26954 0.159968 0)
  (-0.164019 0.0748562 0)
  (-0.0778115 0.0338994 0)
  (-0.022821 0.0166242 0)
  (0.0191439 0.00545043 0)
  (0.0480356 -0.00132403 0)
  (0.0707237 -0.00522245 0)
  (0.0874561 -0.00685852 0)
  (0.100803 -0.00698281 0)
  (0.111603 -0.00625927 0)
  (0.120305 -0.00508132 0)
  (0.127138 -0.00371138 0)
  (0.132254 -0.00233976 0)
  (0.135862 -0.00101828 0)
  (0.138228 0.000222605 0)
  (0.139607 0.00136747 0)
  (0.140231 0.00234452 0)
  (0.140258 0.00304525 0)
  (0.139759 0.00335383 0)
  (0.138736 0.00318732 0)
  (0.137163 0.00250816 0)
  (0.135021 0.00131652 0)
  (0.132321 -0.000376999 0)
  (0.129102 -0.00258948 0)
  (0.125423 -0.00539291 0)
  (0.121345 -0.0089362 0)
  (0.116925 -0.0134704 0)
  (0.112185 -0.0193798 0)
  (0.107081 -0.0272163 0)
  (0.101408 -0.0377383 0)
  (0.0946538 -0.0519486 0)
  (0.0862707 -0.0711257 0)
  (0.0752529 -0.0969149 0)
  (0.0546911 -0.129307 0)
  (-0.120921 -0.138012 0)
  (0.437597 0.00265475 0)
  (-1.44 0.0620483 0)
  (0.584476 -0.1103 0)
  (0.261665 -0.141556 0)
  (0.230188 -0.168065 0)
  (0.257794 -0.171411 0)
  (0.281814 -0.164789 0)
  (0.295862 -0.156804 0)
  (0.303713 -0.150555 0)
  (0.308002 -0.146658 0)
  (0.309814 -0.144821 0)
  (0.309767 -0.144625 0)
  (0.308262 -0.145637 0)
  (0.305575 -0.147416 0)
  (0.301899 -0.149544 0)
  (0.297376 -0.151646 0)
  (0.292144 -0.153414 0)
  (0.286369 -0.154642 0)
  (0.280236 -0.155236 0)
  (0.273932 -0.155214 0)
  (0.267599 -0.154684 0)
  (0.261309 -0.153808 0)
  (0.25505 -0.152762 0)
  (0.248756 -0.151707 0)
  (0.242323 -0.150774 0)
  (0.23564 -0.150069 0)
  (0.228591 -0.149667 0)
  (0.221057 -0.149626 0)
  (0.212898 -0.149985 0)
  (0.203926 -0.150767 0)
  (0.193867 -0.151969 0)
  (0.182299 -0.15355 0)
  (0.168549 -0.155408 0)
  (0.151547 -0.15735 0)
  (0.130005 -0.15907 0)
  (0.102702 -0.160213 0)
  (0.0717576 -0.162477 0)
  (-0.119674 -0.169104 0)
  (0.522383 -0.276138 0)
  (-0.928782 0.00174815 0)
  (0.964822 0.724188 0)
  (0.607176 0.541182 0)
  (0.903542 0.408456 0)
  (0.92131 0.359338 0)
  (0.864739 0.332578 0)
  (0.818794 0.311634 0)
  (0.783088 0.299282 0)
  (0.74916 0.295127 0)
  (0.715767 0.29702 0)
  (0.684022 0.30338 0)
  (0.654441 0.313132 0)
  (0.626957 0.32535 0)
  (0.601402 0.339131 0)
  (0.577657 0.353602 0)
  (0.555639 0.367939 0)
  (0.535272 0.381395 0)
  (0.516472 0.393337 0)
  (0.499136 0.403306 0)
  (0.483138 0.411064 0)
  (0.468313 0.416615 0)
  (0.454459 0.42018 0)
  (0.441347 0.42213 0)
  (0.428728 0.422913 0)
  (0.416354 0.422977 0)
  (0.403986 0.422717 0)
  (0.391393 0.422448 0)
  (0.378343 0.422397 0)
  (0.364585 0.422704 0)
  (0.349826 0.423439 0)
  (0.333702 0.424609 0)
  (0.315756 0.426164 0)
  (0.295412 0.427986 0)
  (0.271956 0.429856 0)
  (0.244503 0.431396 0)
  (0.212112 0.431957 0)
  (0.174402 0.429848 0)
  (0.138003 0.419428 0)
  (-0.116579 0.467247 0)
  (0.644455 0.750808 0)
)
;

boundaryField
{
  floor
  {
    type noSlip;
  }
  ceiling
  {
    type noSlip;
  }
  sWall
  {
    type noSlip;
  }
  nWall
  {
    type noSlip;
  }
  sideWalls
  {
    type empty;
  }
  glass1
  {
    type noSlip;
  }
  glass2
  {
    type noSlip;
  }
  sun
  {
    type noSlip;
  }
  Table_master
  {
    type noSlip;
  }
  Table_slave
  {
    type noSlip;
  }
  inlet
  {
    type fixedValue;
    value uniform (0.46194 -0.191342 0);
  }
  outlet
  {
    type zeroGradient;
  }
} 	// ************************************************************************* //

