/*--------------------------------*- C++ -*----------------------------------*\
  =========                 |
  \\      /  F ield         | OpenFOAM: The Open Source CFD Toolbox
   \\    /   O peration     | Website:  https://openfoam.org
    \\  /    A nd           | Version:  6
     \\/     M anipulation  |
\*---------------------------------------------------------------------------*/
FoamFile
{
    version     2.0;
    format      ascii;
    class       surfaceScalarField;
    location    "500";
    object      phi;
}
// * * * * * * * * * * * * * * * * * * * * * * * * * * * * * * * * * * * * * //

dimensions      [1 0 -1 0 0 0 0];

internalField   nonuniform List<scalar> 
850
(
-0.00313753
0.00320247
-0.00424065
0.00110313
-0.00513501
0.000894376
-0.00587301
0.000738011
-0.00641938
0.00054638
-0.0067426
0.000323223
-0.00680451
6.19202e-05
-0.00655549
-0.000249005
-0.00594689
-0.00060859
-0.00497084
-0.000976043
-0.00369494
-0.00127589
-0.00226779
-0.00142714
-0.000909394
-0.00135839
6.51748e-05
-0.000974559
6.80837e-05
-0.000965477
0.000970148
-0.000637157
-0.000328311
0.000100138
-0.000737286
0.000735126
-0.000634979
0.00118751
-0.000452373
0.00143288
-0.000245365
0.00153579
-0.000102905
0.00158519
-4.93869e-05
0.00161211
-2.69118e-05
0.00162347
-1.13556e-05
0.00162303
4.55044e-07
0.00161155
1.14884e-05
0.00158213
2.94291e-05
0.00151338
6.87607e-05
0.00136959
0.000143797
0.00114332
0.000226279
0.000876355
0.000266972
0.000882661
-0.00227032
0.00564785
-0.00338846
0.00222127
-0.00433469
0.00184062
-0.00508383
0.00148715
-0.00564088
0.00110344
-0.00598895
0.000671302
-0.00609238
0.000165365
-0.0059054
-0.000435982
-0.0053858
-0.00112817
-0.00453383
-0.00182801
-0.00343276
-0.00237695
-0.00223352
-0.00262637
-0.00110702
-0.00248487
-0.000180438
-0.00190114
0.000807967
-0.000920311
0.00122376
-0.000411128
0.00107059
0.000158614
0.00108648
0.000192464
0.000791556
0.000609293
-0.000745131
0.000956239
-0.00108422
0.00127085
-0.000949584
0.00151691
-0.00069842
0.00157005
-0.000298501
0.00157741
-0.000110258
0.00158704
-5.90099e-05
0.00159517
-3.503e-05
0.00159976
-1.59352e-05
0.00160142
-1.19927e-06
0.00160005
1.28686e-05
0.00159278
3.67102e-05
0.00155051
0.000111037
0.00137323
0.000321085
0.00107121
0.000528306
0.000709937
0.000628256
0.00160844
-0.00160543
0.00752107
-0.00258958
0.00320544
-0.00345067
0.00270173
-0.00412059
0.00215708
-0.00464297
0.00162583
-0.00500091
0.00102925
-0.00515042
0.000314889
-0.00503274
-0.00055365
-0.00459666
-0.00156425
-0.0038489
-0.00257576
-0.00289339
-0.00333244
-0.00187856
-0.0036412
-0.000934053
-0.00342937
-0.000133048
-0.00270213
0.000546587
-0.00159994
0.000810479
-0.000675011
0.000669979
0.000299124
0.00177067
0.00156661
-0.000758545
0.00177654
-0.000955049
0.00171194
-0.00101962
0.00174027
-0.000977897
0.00192807
-0.00088622
0.00162973
0.00151964
0.00146079
0.00142592
0.00141015
0.00140912
0.00142215
0.00145902
0.00157022
0.00129099
0.00060032
0.000954601
0.000864707
0.000550557
0.00103231
0.00218262
-0.00112134
0.00898908
-0.00190934
0.00399345
-0.00250017
0.00329257
-0.00298256
0.00263948
-0.0034005
0.00204379
-0.00372737
0.00135614
-0.00390435
0.000491876
-0.00384779
-0.000610197
-0.00348591
-0.00192612
-0.00284496
-0.0032167
-0.00205752
-0.00411987
-0.00125656
-0.00444215
-0.00052655
-0.00415937
8.43266e-05
-0.003313
0.000618253
-0.00213385
0.000950167
-0.00100692
0.00121312
3.61823e-05
0.00230209
0.00068171
0.00232156
-4.55884e-06
0.00205904
-0.000496018
0.0019583
-0.000854302
0.00184649
-0.000907801
0.00172431
-0.000855708
0.00152604
-0.000687946
0.00184993
-0.000324041
0.00203358
-0.000183799
0.00217268
-0.000139251
0.00227987
-0.000107342
0.00233969
-5.99701e-05
0.00232567
1.38686e-05
0.0022084
0.000117122
0.00195083
0.000257412
0.00149035
0.000460324
0.00125701
0.000833668
0.000870443
0.00125128
0.000312418
0.00159034
0.00252526
-0.000769671
0.0101723
-0.00135567
0.00457946
-0.00150065
0.00343756
-0.00169249
0.00283133
-0.00193411
0.00228542
-0.00216935
0.00159138
-0.00232831
0.000650847
-0.00229481
-0.000643685
-0.00198561
-0.00223531
-0.00148102
-0.00372128
-0.000924276
-0.0046766
-0.000405988
-0.00496043
3.7285e-05
-0.00460263
0.000410082
-0.00368579
0.000758794
-0.00248256
0.00106597
-0.00131408
0.00146818
-0.000366025
0.00200107
0.000148837
0.00205941
-6.28921e-05
0.00197784
-0.000414438
0.00177408
-0.000650543
0.0015836
-0.000717307
0.00141511
-0.000687212
0.00130414
-0.000576975
0.00137928
-0.000399175
0.00148307
-0.000287588
0.00158488
-0.000241055
0.00168242
-0.000204881
0.00176307
-0.000140623
0.00180127
-2.43303e-05
0.00177055
0.000147846
0.00165894
0.000369016
0.00147559
0.000643679
0.00129686
0.0010124
0.00109867
0.00144947
0.000680519
0.0020085
0.000874162
0.00233163
-0.00140059
0.00230165
-0.00207218
0.000697029
-0.00198602
-0.000650777
0.0112926
-0.00100863
0.00493732
-0.000519745
0.00294868
-0.000287537
0.00259913
-0.000320838
0.00231873
-0.000437721
0.00170828
-0.00050966
0.000722797
-0.000405615
-0.000747719
-0.000124985
-0.00251593
0.000186123
-0.00403238
0.000441547
-0.00493202
0.000610326
-0.0051292
0.00070099
-0.00469328
0.000766898
-0.00375169
0.000835981
-0.00255163
0.000928175
-0.00140626
0.00111067
-0.000548515
0.00136974
-0.000110216
0.00143325
-0.000126394
0.00133375
-0.000314931
0.00115177
-0.000468557
0.000971994
-0.000537527
0.000823633
-0.000538846
0.000736148
-0.000489485
0.000747001
-0.000410025
0.000818919
-0.000359504
0.000917873
-0.000340007
0.00103031
-0.000317319
0.00114689
-0.000257201
0.00125282
-0.000130262
0.0013227
7.79691e-05
0.00134974
0.000341968
0.00135117
0.000642254
0.00137519
0.000988375
0.00148053
0.00134414
0.00169939
0.00178964
0.00208479
0.00194624
0.00245026
0.00193619
0.0019189
0.0012284
7.55636e-06
-0.00074213
0.0125538
-0.000537923
0.00473313
0.000840545
0.00157022
0.00137872
0.00206097
0.0014398
0.00225766
0.00142726
0.00172084
0.00154479
0.000605273
0.00179316
-0.000996076
0.00200351
-0.00272626
0.0020544
-0.00408326
0.00194409
-0.0048217
0.001701
-0.0048861
0.00137954
-0.00437182
0.00104937
-0.0034215
0.000759631
-0.00226189
0.000559358
-0.00120598
0.00049946
-0.000488607
0.000554943
-0.000165691
0.000566039
-0.000137482
0.000485941
-0.000234826
0.000353023
-0.000335632
0.000212332
-0.000396831
9.38969e-05
-0.000420407
2.29944e-05
-0.00041858
1.96556e-05
-0.000406684
6.87837e-05
-0.00040863
0.000148157
-0.00041938
0.000248956
-0.000418118
0.000373275
-0.000381521
0.00052584
-0.000282828
0.000693503
-8.96948e-05
0.000858014
0.000177454
0.00102647
0.0004738
0.00123764
0.000777198
0.00153101
0.00105077
0.00196989
0.00135076
0.00256068
0.00135546
0.00345876
0.00103811
0.00373665
0.000950522
0.00382211
0.00299151
0.0101418
0.00373264
0.00399201
0.00437837
0.0009245
0.00435935
0.00207999
0.00414597
0.00247105
0.00402033
0.00184649
0.0041546
0.000471013
0.00436762
-0.00120908
0.00434478
-0.00270341
0.00401539
-0.00375386
0.00343074
-0.00423704
0.00267406
-0.00412941
0.0018545
-0.00355224
0.00107079
-0.00263779
0.000403388
-0.00159448
-5.10348e-05
-0.000751551
-0.000251936
-0.000287697
-0.000297968
-0.000119651
-0.000324706
-0.000110737
-0.000389169
-0.000170357
-0.000486412
-0.000238384
-0.000592424
-0.000290814
-0.000685577
-0.000327251
-0.000750184
-0.000353969
-0.000778607
-0.00037826
-0.000780658
-0.000406578
-0.000766899
-0.000433138
-0.000739149
-0.000445867
-0.000688835
-0.000431834
-0.000594321
-0.000377342
-0.000418851
-0.000265166
-0.000176592
-6.48046e-05
9.69448e-05
0.000200262
0.000404516
0.000469627
0.000734048
0.000721239
0.00112201
0.000962806
0.00152046
0.000957012
0.00186832
0.000690246
0.00104631
0.00177254
0.0052018
0.0107872
0.0147798
0.0140208
0.00168351
0.0125534
0.0035474
0.0111761
0.00384836
0.0100794
0.00294319
0.00911786
0.00143258
0.00809495
-0.000186171
0.0069562
-0.00156465
0.0057279
-0.00252556
0.00443268
-0.00294182
0.00306748
-0.00276421
0.00173946
-0.00222421
0.000540525
-0.00143884
-0.000353597
-0.000700348
-0.000845914
-0.000259226
-0.00104362
-8.9981e-05
-0.00111609
-4.71761e-05
-0.00115901
-6.7818e-05
-0.00121503
-0.000114324
-0.00128987
-0.000163538
-0.00137444
-0.000206248
-0.0014599
-0.000241781
-0.00154213
-0.000271742
-0.00162255
-0.000297837
-0.00170912
-0.000320005
-0.0018098
-0.000332454
-0.00193125
-0.000324419
-0.00208106
-0.000282019
-0.00226961
-0.000188795
-0.00251252
-2.22499e-05
-0.00279822
0.000220901
-0.00315543
0.000557474
-0.00369304
0.00100724
-0.00453027
0.00155847
-0.00572507
0.00215761
-0.00738737
0.00261932
-0.0092859
0.00258878
-0.00864021
0.00112685
-0.00306827
0.0139329
0.00450024
0.0118591
0.00562121
0.0102903
0.00541716
0.0091645
0.00406903
0.00823807
0.00235902
0.00730018
0.000751721
0.00616388
-0.000428338
0.0048491
-0.00121077
0.00346127
-0.00155398
0.00192666
-0.0012296
0.000433201
-0.000730741
-0.000722672
-0.000282962
-0.00137955
-4.34653e-05
-0.00167176
3.29903e-05
-0.00179472
3.29871e-05
-0.00184838
6.48574e-06
-0.00188038
-3.58046e-05
-0.00191641
-7.82934e-05
-0.00196482
-0.000115127
-0.0020262
-0.000144862
-0.00210142
-0.000166556
-0.00219353
-0.000179624
-0.00230701
-0.000184352
-0.00244612
-0.000180895
-0.00261112
-0.000167449
-0.00279606
-0.000139475
-0.0029878
-9.02772e-05
-0.00316127
-1.5317e-05
-0.00329607
0.000112552
-0.00340135
0.000326191
-0.00349437
0.000650498
-0.00359361
0.00110648
-0.00371358
0.00167845
-0.00380675
0.00225078
-0.00376939
0.00258196
-0.00338061
0.00220001
-0.00195286
-0.000300884
-0.00492613
-0.00294381
0.0074976
-0.00118225
0.00385965
0.000635391
0.00359952
0.00171688
0.00298754
0.00214511
0.0019308
0.00213142
0.000765416
0.00179592
-9.28334e-05
0.00110928
-0.000524123
0.000107492
-0.000552183
-0.000971477
-0.000150619
-0.00177108
6.88668e-05
-0.00218995
0.000135916
-0.00235422
0.00012081
-0.00239377
7.25452e-05
-0.00239315
3.23764e-05
-0.00238857
1.90786e-06
-0.00239063
-3.37327e-05
-0.00240351
-6.54159e-05
-0.0024292
-8.94286e-05
-0.00246683
-0.000107227
-0.0025147
-0.000118676
-0.00257131
-0.000123012
-0.00263564
-0.000120018
-0.0027069
-0.000109631
-0.0027833
-9.10455e-05
-0.00286057
-6.22008e-05
-0.00293194
-1.88983e-05
-0.00298575
3.84984e-05
-0.00298817
0.000114982
-0.00290536
0.000243385
-0.00269803
0.000443169
-0.00233401
0.000742473
-0.0018225
0.00116694
-0.00116036
0.00158865
-9.40272e-05
0.00151564
0.00133496
0.000771029
0.00165438
-0.000620288
-0.00316734
-0.0178221
-0.022644
-0.0151038
-0.0112097
-0.00757847
-0.00456168
-0.00260307
-0.00181127
-0.00187949
-0.00238064
-0.00291068
-0.00303976
-0.00294983
-0.002793
-0.00265111
-0.00255719
-0.00250311
-0.0024792
-0.00249067
-0.00253356
-0.00260023
-0.0026845
-0.00278006
-0.00287984
-0.00297659
-0.00306298
-0.0031309
-0.00317021
-0.00316657
-0.00310601
-0.00296957
-0.0027054
-0.0022422
-0.00148051
-0.000295213
0.00131067
0.00284297
0.00363072
0.00302799
)
;

boundaryField
{
    floor
    {
        type            calculated;
        value           nonuniform List<scalar> 
36
(
0
0
0
0
0
0
0
0
0
0
0
0
0
0
0
0
0
0
0
-6.29546e-06
-1.58333e-05
-2.3613e-05
-3.0212e-05
-2.68875e-05
-2.5428e-05
-2.40443e-05
-2.89878e-06
-4.65857e-06
-5.42875e-06
-6.32297e-06
-4.66115e-06
-9.56163e-06
-1.38628e-05
-1.41976e-05
-1.64977e-05
-1.49035e-05
)
;
    }
    ceiling
    {
        type            calculated;
        value           nonuniform List<scalar> 
43
(
-4.38493e-05
-4.31634e-05
-4.25927e-05
-3.43943e-05
-3.17111e-05
-2.92379e-05
-2.78034e-05
-2.63734e-05
-2.46098e-05
-2.29622e-05
-2.21388e-05
-2.15232e-05
-2.10582e-05
-2.09122e-05
-2.10735e-05
-2.13725e-05
-2.16907e-05
-2.19989e-05
-2.22623e-05
-2.25168e-05
-2.27501e-05
-2.29511e-05
-2.31113e-05
-2.32209e-05
-2.32678e-05
-2.32369e-05
-2.31132e-05
-2.28833e-05
-2.25347e-05
-2.20496e-05
-2.14574e-05
-2.07759e-05
-2.00223e-05
-1.92107e-05
-1.83528e-05
-1.72261e-05
-1.66496e-05
-1.67214e-05
-1.75511e-05
-1.79055e-05
1.39307e-06
-5.80955e-07
-5.35449e-05
)
;
    }
    sWall
    {
        type            calculated;
        value           uniform -0.000210219;
    }
    nWall
    {
        type            calculated;
        value           nonuniform List<scalar> 6(-6.20962e-05 -7.46693e-05 -7.7896e-05 -9.49932e-05 -0.000104408 -0.000121434);
    }
    sideWalls
    {
        type            empty;
        value           nonuniform 0();
    }
    glass1
    {
        type            calculated;
        value           nonuniform List<scalar> 9(-6.49237e-05 -0.000175054 -0.000267783 -0.000346665 -0.000413514 -0.000469516 -0.000519067 -0.000579519 -0.000646778);
    }
    glass2
    {
        type            calculated;
        value           nonuniform List<scalar> 2(-0.000333377 -0.000370125);
    }
    sun
    {
        type            calculated;
        value           uniform 0;
    }
    Table_master
    {
        type            calculated;
        value           nonuniform List<scalar> 9(-1.54513e-07 -1.54663e-07 -1.54715e-07 -1.54746e-07 -1.54768e-07 -1.54782e-07 -1.54785e-07 -1.54779e-07 -1.54746e-07);
    }
    Table_slave
    {
        type            calculated;
        value           nonuniform List<scalar> 9(1.54379e-07 1.54364e-07 1.54311e-07 1.5427e-07 1.54247e-07 1.54248e-07 1.54257e-07 1.54304e-07 1.54401e-07);
    }
    inlet
    {
        type            calculated;
        value           uniform -0.0167497;
    }
    outlet
    {
        type            calculated;
        value           nonuniform List<scalar> 2(0.0180762 0.00486504);
    }
}


// ************************************************************************* //
