/*--------------------------------*- C++ -*----------------------------------*\
  =========                 |
  \\      /  F ield         | OpenFOAM: The Open Source CFD Toolbox
   \\    /   O peration     | Website:  https://openfoam.org
    \\  /    A nd           | Version:  6
     \\/     M anipulation  |
\*---------------------------------------------------------------------------*/
FoamFile
{
    version     2.0;
    format      ascii;
    class       volScalarField;
    location    "900";
    object      k;
}
// * * * * * * * * * * * * * * * * * * * * * * * * * * * * * * * * * * * * * //

dimensions      [0 2 -2 0 0 0 0];

internalField   nonuniform List<scalar> 
458
(
0.00257687
0.00307336
0.0032791
0.00360257
0.00391216
0.00422401
0.00456436
0.00490338
0.00520208
0.00540256
0.00543765
0.00506989
0.00411891
0.00312905
0.00233951
0.000514064
0.000709891
0.000933596
0.00103045
0.00101847
0.000919094
0.000809546
0.000714735
0.000635425
0.000568856
0.000512748
0.000465207
0.000424011
0.000387179
0.000352772
0.000318354
0.000289745
0.000238707
0.00436994
0.00771321
0.00451773
0.00472976
0.00505471
0.00550862
0.00607911
0.00676928
0.00746998
0.00796674
0.00812491
0.00801729
0.0070603
0.00544424
0.00371752
0.00297215
0.00228987
0.00163979
0.000489265
0.00103625
0.00143268
0.00164383
0.00168212
0.00147089
0.00122888
0.00103132
0.000877107
0.000755289
0.000657449
0.000575988
0.000506044
0.000445245
0.000402587
0.000378977
0.00057987
0.000359922
0.00617929
0.0130369
0.00502021
0.00487518
0.00499162
0.00529573
0.00578058
0.00641703
0.00706034
0.00752102
0.00778025
0.00797361
0.00764811
0.00637163
0.00486438
0.00373605
0.00293517
0.00185355
0.00100583
0.00142227
0.00170665
0.00188971
0.00190556
0.00152901
0.00119994
0.000952331
0.000770917
0.000637628
0.000538514
0.000464587
0.000409533
0.000370885
0.000350078
0.000357148
0.000815122
0.00046542
0.00814275
0.0201584
0.00555351
0.0047395
0.00466802
0.00486644
0.00532725
0.00601727
0.00668342
0.00714039
0.00746173
0.00774793
0.00749541
0.00624925
0.00496889
0.00390234
0.00309839
0.00232282
0.00200967
0.00218182
0.00226729
0.00237314
0.00240373
0.00229489
0.00184456
0.00157472
0.00140923
0.00129585
0.00120249
0.00110824
0.00102039
0.000928684
0.000823541
0.000625615
0.000499684
0.00105162
0.000588629
0.0103567
0.0300778
0.00698004
0.00459464
0.00432611
0.00451011
0.00509398
0.00605163
0.00683408
0.00729282
0.00759225
0.00782738
0.00736432
0.00591448
0.00462564
0.00378474
0.00318692
0.00282208
0.00311273
0.00312192
0.00312557
0.00310122
0.00296299
0.00270889
0.00242493
0.00226639
0.00219955
0.00214902
0.00207211
0.00194764
0.00175918
0.0015329
0.00128445
0.00100088
0.00075922
0.000905922
0.000935245
0.000879431
0.00100977
0.00100336
0.0129994
0.0416306
0.011326
0.00500143
0.00415698
0.00420343
0.00505528
0.00653555
0.00743498
0.007855
0.00804881
0.00813624
0.00736604
0.00556178
0.00407621
0.0034049
0.00319462
0.00326415
0.00358711
0.00381146
0.003843
0.00366264
0.00332713
0.00293903
0.00265632
0.0025696
0.00257555
0.00257759
0.00253388
0.00242168
0.00221301
0.00194235
0.00164329
0.00133353
0.00107064
0.000962344
0.000941075
0.00122981
0.00292534
0.00164735
0.0161768
0.0495504
0.0212984
0.00929879
0.00571582
0.00474691
0.0059823
0.00765604
0.00847613
0.00873141
0.00870449
0.00855772
0.00748721
0.00525433
0.00357351
0.00306846
0.00322565
0.0036126
0.00404417
0.00421856
0.00408237
0.00371993
0.00327008
0.00287227
0.00265848
0.00265004
0.00272593
0.00280187
0.00284685
0.00284083
0.00275311
0.0025322
0.00225249
0.00195332
0.00171048
0.0015794
0.00158647
0.00194436
0.00434271
0.00257386
0.0172116
0.0528347
0.0351259
0.0227135
0.014135
0.0100662
0.00957799
0.00988607
0.0100592
0.00984828
0.00943883
0.0090239
0.00758095
0.00482347
0.00327533
0.00304609
0.00331656
0.00371945
0.0040151
0.00398398
0.00367345
0.00323954
0.00284557
0.00259529
0.00252271
0.00258716
0.00271678
0.00287116
0.00303933
0.00322083
0.00341482
0.00358339
0.00363746
0.00366289
0.00384135
0.00446134
0.00583385
0.00757062
0.0154253
0.00462099
0.0168801
0.0253473
0.0260547
0.0233961
0.0193927
0.016201
0.0141106
0.0128375
0.0119751
0.0109453
0.00997662
0.00929948
0.00729726
0.00417814
0.00313888
0.00304284
0.00320715
0.003374
0.00338483
0.0031869
0.00285625
0.00252685
0.00230295
0.00221662
0.00224588
0.00234993
0.00249678
0.00267295
0.00287711
0.0031126
0.00338238
0.00368477
0.0040308
0.00447007
0.00506591
0.00579537
0.00650372
0.00698386
0.0072777
0.00424776
0.00892229
0.0128041
0.0143864
0.0144946
0.0143907
0.0143368
0.013146
0.0111866
0.00965253
0.0088652
0.00595305
0.00364875
0.00300381
0.00284074
0.00280111
0.00274068
0.00259423
0.00237425
0.00213628
0.00195919
0.00187457
0.00187089
0.00192325
0.00201159
0.00212447
0.0022582
0.00241492
0.00260211
0.0028334
0.0031323
0.00351068
0.00396022
0.00446312
0.00492789
0.00516543
0.00498191
0.00438992
0.00266144
0.00955932
0.03171
0.0259107
0.0234369
0.0223447
0.0174671
0.0121793
0.00836979
0.00563852
0.00400335
0.00306369
0.00272673
0.00257327
0.00247527
0.00237044
0.00222477
0.00203782
0.00184326
0.0016793
0.00157693
0.0015357
0.00154385
0.00159142
0.00167336
0.00178881
0.00193964
0.00212932
0.00236214
0.002642
0.00298729
0.00340444
0.00389583
0.00443761
0.00494533
0.00529641
0.00551044
0.00409441
0.0027112
0.015893
0.0158662
0.016075
0.021882
0.0179701
0.015006
0.010507
0.00645985
0.00260805
0.00170897
0.00143596
0.00132223
0.00123366
0.00113584
0.00106319
0.00100599
0.000953268
0.000903174
0.00086276
0.000842595
0.000848088
0.00087288
0.000913613
0.000967599
0.00103346
0.00111093
0.00120061
0.001304
0.00142388
0.00156523
0.00173718
0.00193729
0.00216912
0.00243645
0.00274275
0.00309533
0.00339159
0.00326575
0.00275576
0.00232211
)
;

boundaryField
{
    floor
    {
        type            kqRWallFunction;
        value           nonuniform List<scalar> 
36
(
0.00233951
0.000514064
0.000709891
0.000933596
0.00103045
0.00101847
0.000919094
0.000809546
0.000714735
0.000635425
0.000568856
0.000512748
0.000465207
0.000424011
0.000387179
0.000352772
0.000318354
0.000289745
0.000238707
0.000238707
0.000359922
0.00046542
0.000588629
0.000879431
0.00100977
0.00100336
0.00233951
0.00297215
0.00228987
0.00163979
0.000514064
0.00163979
0.000489265
0.00185355
0.00100583
0.00200967
)
;
    }
    ceiling
    {
        type            kqRWallFunction;
        value           nonuniform List<scalar> 
43
(
0.015893
0.0158662
0.016075
0.021882
0.0179701
0.015006
0.010507
0.00645985
0.00260805
0.00170897
0.00143596
0.00132223
0.00123366
0.00113584
0.00106319
0.00100599
0.000953268
0.000903174
0.00086276
0.000842595
0.000848088
0.00087288
0.000913613
0.000967599
0.00103346
0.00111093
0.00120061
0.001304
0.00142388
0.00156523
0.00173718
0.00193729
0.00216912
0.00243645
0.00274275
0.00309533
0.00339159
0.00326575
0.00275576
0.00232211
0.0168801
0.0253473
0.00955932
)
;
    }
    sWall
    {
        type            kqRWallFunction;
        value           uniform 0.015893;
    }
    nWall
    {
        type            kqRWallFunction;
        value           nonuniform List<scalar> 6(0.00100336 0.00164735 0.00257386 0.00266144 0.0027112 0.00232211);
    }
    sideWalls
    {
        type            empty;
    }
    glass1
    {
        type            kqRWallFunction;
        value           nonuniform List<scalar> 9(0.00257687 0.00436994 0.00617929 0.00814275 0.0103567 0.0129994 0.0161768 0.0172116 0.0168801);
    }
    glass2
    {
        type            kqRWallFunction;
        value           nonuniform List<scalar> 2(0.00462099 0.00424776);
    }
    sun
    {
        type            kqRWallFunction;
        value           nonuniform List<scalar> 
14
(
0.00257687
0.00307336
0.0032791
0.00360257
0.00391216
0.00422401
0.00456436
0.00490338
0.00520208
0.00540256
0.00543765
0.00506989
0.00411891
0.00312905
)
;
    }
    Table_master
    {
        type            kqRWallFunction;
        value           nonuniform List<scalar> 9(0.00152901 0.00119994 0.000952331 0.000770917 0.000637628 0.000538514 0.000464587 0.000409533 0.000370885);
    }
    Table_slave
    {
        type            kqRWallFunction;
        value           nonuniform List<scalar> 9(0.00184456 0.00157472 0.00140923 0.00129585 0.00120249 0.00110824 0.00102039 0.000928684 0.000823541);
    }
    inlet
    {
        type            turbulentIntensityKineticEnergyInlet;
        intensity       0.05;
        value           uniform 0.00375;
    }
    outlet
    {
        type            zeroGradient;
    }
}


// ************************************************************************* //
