/*--------------------------------*- C++ -*----------------------------------*\
  =========                 |
  \\      /  F ield         | OpenFOAM: The Open Source CFD Toolbox
   \\    /   O peration     | Website:  https://openfoam.org
    \\  /    A nd           | Version:  6
     \\/     M anipulation  |
\*---------------------------------------------------------------------------*/
FoamFile
{
    version     2.0;
    format      ascii;
    class       surfaceScalarField;
    location    "800";
    object      phi;
}
// * * * * * * * * * * * * * * * * * * * * * * * * * * * * * * * * * * * * * //

dimensions      [1 0 -1 0 0 0 0];

internalField   nonuniform List<scalar> 
850
(
-0.00344155
0.00350953
-0.00479369
0.00135204
-0.00569196
0.000898183
-0.00624165
0.000549592
-0.00640605
0.000164309
-0.00615424
-0.000251899
-0.00548466
-0.000669676
-0.00446618
-0.00101857
-0.00321213
-0.00125413
-0.00185326
-0.00135895
-0.000543658
-0.00130969
0.000482913
-0.00102666
0.00106297
-0.000580148
0.00105992
2.95455e-06
0.00106369
-0.00119866
0.00120355
-0.000882551
-0.000316246
2.15883e-05
-0.000904269
0.00089609
-0.000874628
0.00155932
-0.000663353
0.00193475
-0.000375561
0.00210406
-0.000169441
0.00219699
-9.30587e-05
0.00225842
-6.15674e-05
0.00229799
-3.97046e-05
0.00232071
-2.28495e-05
0.00232608
-5.51545e-06
0.00230251
2.34307e-05
0.00221883
8.35334e-05
0.00202189
0.000196802
0.00167763
0.000344113
0.00116117
0.000516307
0.00116738
-0.0024369
0.00612988
-0.00367782
0.00259286
-0.0045734
0.00179367
-0.00511553
0.00109163
-0.00528237
0.000331055
-0.00504624
-0.000488113
-0.00442761
-0.00128839
-0.00352541
-0.00192085
-0.00246227
-0.00231735
-0.00136458
-0.00245672
-0.000354014
-0.00232034
0.000478673
-0.00185943
0.00109226
-0.00119382
0.00153149
-0.000436364
0.00233702
0.000258063
0.00200103
0.000342123
0.0013504
0.000657473
0.00137023
6.26864e-05
0.00115606
0.000642789
-0.000896478
0.00115311
-0.00141471
0.00159672
-0.00131837
0.00195152
-0.00101827
0.0020381
-0.00046226
0.00205245
-0.00018391
0.00206838
-0.000109122
0.00208177
-7.50849e-05
0.00209026
-4.83225e-05
0.00209524
-2.79685e-05
0.00209612
-6.53291e-06
0.00208722
3.21958e-05
0.00203173
0.00013888
0.00180753
0.000420854
0.00141876
0.000732739
0.000906258
0.00102866
0.00209065
-0.00167927
0.00809011
-0.00270487
0.00361835
-0.00347547
0.00256418
-0.00391948
0.00153554
-0.00402409
0.000435573
-0.00374431
-0.000767981
-0.00312671
-0.00190608
-0.00231917
-0.00272846
-0.00143819
-0.00319841
-0.000580773
-0.00331421
0.00017001
-0.0030712
0.000795501
-0.002485
0.0013018
-0.00170021
0.00171904
-0.000853684
0.00205127
-7.42546e-05
0.00189582
0.000497474
0.00134626
0.00120693
0.00273392
0.001817
-0.000640948
0.00214092
-0.00122052
0.00215885
-0.00143275
0.00224474
-0.00140437
0.00251764
-0.00129128
0.00205542
0.00187155
0.00176246
0.0016874
0.00163911
0.00161116
0.00160465
0.00163686
0.00177575
0.00147731
0.000719146
0.00111411
0.00109579
0.000659319
0.0014833
0.00277635
-0.00114403
0.00959823
-0.00191681
0.00439103
-0.002391
0.00303826
-0.00260912
0.00175356
-0.00251368
0.000340044
-0.00209145
-0.0011903
-0.00146152
-0.00253609
-0.000789857
-0.0034002
-0.000142562
-0.00384577
0.000427156
-0.003884
0.00089307
-0.00353719
0.00128489
-0.0028769
0.00161012
-0.00202551
0.00187766
-0.00112131
0.00208334
-0.000280027
0.00214636
0.000434368
0.00226057
0.00109263
0.00353312
0.00146127
0.00319502
0.000356579
0.00300288
-0.00044891
0.00280728
-0.00102502
0.0025879
-0.00121347
0.00236752
-0.0011841
0.00202626
-0.000950128
0.00243066
-0.000404664
0.0025956
-0.0001652
0.00267086
-7.55205e-05
0.0026877
-1.71081e-05
0.0026438
4.36349e-05
0.00252982
0.000113708
0.00232724
0.000202312
0.00199926
0.00032771
0.00147313
0.000525852
0.00125087
0.000941278
0.000895359
0.00145117
0.000434407
0.0019441
0.00324523
-0.00077999
0.0108127
-0.00134035
0.00495129
-0.0013609
0.00305871
-0.00116377
0.00155633
-0.000639203
-0.000184627
6.54677e-06
-0.00183613
0.00056605
-0.00309567
0.00100486
-0.00383907
0.00132427
-0.00416523
0.00154149
-0.00410129
0.00168838
-0.00368415
0.00179131
-0.0029799
0.00186888
-0.00210317
0.0019419
-0.0011944
0.00203483
-0.000373042
0.00217466
0.000294459
0.00248547
0.000781728
0.00302189
0.00092476
0.00303657
0.0003418
0.0029072
-0.000319638
0.00262151
-0.000739421
0.00231248
-0.000904535
0.00201515
-0.000886874
0.00177837
-0.000713448
0.00178422
-0.000410614
0.00181252
-0.00019361
0.00181868
-8.17829e-05
0.00180925
-7.7877e-06
0.0017843
6.84732e-05
0.00173461
0.000163279
0.00164529
0.00029152
0.00150156
0.000471323
0.00130695
0.000720344
0.00114847
0.00109963
0.0009999
0.0015996
0.000677069
0.00226679
0.001103
0.00281914
-0.0014502
0.00258443
-0.00218311
0.000761711
-0.0020885
-0.000625145
0.0119316
-0.000949919
0.00527596
-0.00024864
0.00235732
0.000788183
0.000519406
0.00178534
-0.00118188
0.00244585
-0.00249672
0.00279075
-0.00344062
0.00291239
-0.00396077
0.00284755
-0.00410045
0.00265566
-0.00390945
0.00240175
-0.00343032
0.00213665
-0.00271488
0.00189793
-0.00186452
0.0017183
-0.00101486
0.00162959
-0.000284416
0.00166258
0.000261384
0.00185094
0.000593271
0.00214957
0.000626045
0.00223068
0.000260596
0.00208397
-0.000173025
0.00181724
-0.000472788
0.00152114
-0.000608529
0.00124159
-0.000607424
0.00102544
-0.000497404
0.000932085
-0.000317362
0.000913942
-0.000175575
0.000927168
-9.51181e-05
0.000958295
-3.9025e-05
0.000998708
2.7948e-05
0.00103748
0.000124396
0.00106852
0.000260361
0.00109013
0.000449594
0.0011064
0.000703951
0.00116308
0.00104283
0.00132867
0.00143388
0.00162871
0.00196661
0.00216415
0.00228355
0.00255213
0.0021963
0.00198861
0.00132509
-1.8872e-05
-0.000523544
0.0130049
-5.17428e-05
0.00480405
0.00199696
0.000308524
0.00366535
-0.00114908
0.00465895
-0.00217556
0.00512255
-0.00296036
0.00513709
-0.00345521
0.00480442
-0.00362814
0.00422822
-0.00352431
0.00351865
-0.00319994
0.00277854
-0.00269028
0.00208351
-0.00201993
0.00149219
-0.00127329
0.00104977
-0.000572526
0.000785017
-1.97492e-05
0.000722748
0.000323563
0.000833535
0.000482394
0.00100987
0.000449622
0.00105673
0.000213641
0.000942204
-5.85978e-05
0.000729604
-0.000260287
0.000482096
-0.000361122
0.000246905
-0.000372336
6.71581e-05
-0.000317763
-1.96338e-05
-0.000230678
-2.94638e-05
-0.000165855
8.15394e-06
-0.000132847
8.01566e-05
-0.00011114
0.000183988
-7.59967e-05
0.000309162
-8.9352e-07
0.000447747
0.000121659
0.000607362
0.00028986
0.000794742
0.00051645
0.00103344
0.000804011
0.00136534
0.00110185
0.00185645
0.00147537
0.00256372
0.00157614
0.00355999
0.00119989
0.0038971
0.00098784
0.00396329
0.00358702
0.0100358
0.00495627
0.00343471
0.00681306
-0.00154836
0.00800147
-0.00233755
0.00839575
-0.00256987
0.0081565
-0.00272114
0.00741913
-0.00271787
0.00632488
-0.00253393
0.00503322
-0.00223269
0.00369083
-0.00185761
0.0024249
-0.00142443
0.0013166
-0.00091174
0.000440268
-0.000397058
-0.000141811
9.45058e-06
-0.000412096
0.000250439
-0.000444697
0.000356071
-0.000353933
0.000391535
-0.000242178
0.000337771
-0.000220114
0.000191479
-0.000307032
2.82194e-05
-0.00046795
-9.94711e-05
-0.000655624
-0.000173553
-0.000828009
-0.000200059
-0.00095264
-0.000193242
-0.00101014
-0.000173291
-0.00101277
-0.000163331
-0.000980053
-0.000165683
-0.000921224
-0.000170085
-0.000832926
-0.000164412
-0.000698206
-0.000135731
-0.000516589
-6.00779e-05
-0.000301632
7.47823e-05
-4.27551e-05
0.000257451
0.000268153
0.000492978
0.000608548
0.000761332
0.00103709
0.00104669
0.00153718
0.00107592
0.0019567
0.000780237
0.00106594
0.00187847
0.0053954
0.0107331
0.0141739
0.0140104
-0.00138486
0.0131654
-0.00149251
0.0120066
-0.00141111
0.0104171
-0.00113165
0.00846789
-0.000768679
0.00633862
-0.000404703
0.00424421
-0.000138363
0.00232157
6.4942e-05
0.000683606
0.000213418
-0.000534312
0.000306053
-0.00125832
0.00032684
-0.00157705
0.000328079
-0.00165779
0.000331084
-0.00163049
0.000328668
-0.00155221
0.000313151
-0.00148092
0.000266386
-0.00147212
0.000182578
-0.0015328
8.87956e-05
-0.00164275
1.03674e-05
-0.00177272
-4.36951e-05
-0.00189367
-7.92216e-05
-0.00198694
-0.000100086
-0.00204809
-0.000112251
-0.00209014
-0.000121394
-0.00213136
-0.000124592
-0.00218861
-0.000112947
-0.00227948
-7.36691e-05
-0.00242182
6.48693e-06
-0.00261807
0.000136051
-0.00287697
0.000333564
-0.00325106
0.000631408
-0.00381923
0.00106103
-0.0046848
0.00162677
-0.00591468
0.00227645
-0.00763553
0.00279664
-0.00963968
0.00278427
-0.00902521
0.00126387
-0.00322789
0.0064046
-0.000545141
0.00493525
-2.32843e-05
0.00346678
5.72032e-05
0.00192778
0.000407188
0.000446
0.000712934
-0.000767522
0.000808662
-0.001629
0.000722989
-0.00219976
0.000635586
-0.0025605
0.000574048
-0.00276223
0.000507663
-0.00285478
0.000419286
-0.00286702
0.000340213
-0.00282307
0.000287029
-0.00274877
0.000254271
-0.00266549
0.00022976
-0.00259881
0.000199606
-0.00257398
0.000157642
-0.00259647
0.000111173
-0.00265478
6.85703e-05
-0.00273338
3.47893e-05
-0.00281876
6.0428e-06
-0.00290047
-1.84931e-05
-0.00298019
-3.265e-05
-0.00306554
-3.61696e-05
-0.00316143
-2.88196e-05
-0.00326566
-8.83838e-06
-0.00336567
2.62188e-05
-0.0034518
9.24885e-05
-0.00352859
0.000212717
-0.00360349
0.000408339
-0.00368395
0.00071174
-0.00378194
0.0011589
-0.00390682
0.00175152
-0.00401048
0.00237999
-0.00398705
0.00277308
-0.00361651
0.0024136
-0.00210961
-0.000243153
-0.00523672
-0.0044424
0.00392624
-0.00490947
0.000443615
-0.00506441
0.000211961
-0.00504563
0.000388241
-0.00492902
0.000596172
-0.00479162
0.000671132
-0.00467817
0.000609413
-0.00455514
0.000512436
-0.00440616
0.00042496
-0.00424283
0.000344213
-0.00409192
0.000268272
-0.00396149
0.000209677
-0.00384672
0.000172154
-0.00374224
0.000149675
-0.00364603
0.000133444
-0.00356176
0.000115225
-0.00349557
9.13468e-05
-0.00344861
6.40978e-05
-0.00341762
3.74605e-05
-0.00339699
1.4043e-05
-0.00338462
-6.44693e-06
-0.00337597
-2.72598e-05
-0.00336979
-3.89504e-05
-0.00336693
-3.91532e-05
-0.00336701
-2.88647e-05
-0.00336896
-7.01117e-06
-0.00336484
2.19739e-05
-0.003342
6.95285e-05
-0.00327917
0.00014976
-0.00314707
0.000276112
-0.00290567
0.000470217
-0.00251557
0.000768669
-0.00197384
0.00120966
-0.00127598
0.00168201
-0.000160374
0.00165735
0.0013687
0.000884405
0.00171703
-0.00059161
-0.00340894
-0.0099112
-0.0135197
-0.00956409
-0.00909473
-0.00885808
-0.0084463
-0.00782765
-0.0071346
-0.00650313
-0.00596813
-0.00552005
-0.0051523
-0.0048602
-0.00462655
-0.00443037
-0.00425659
-0.00409887
-0.00395903
-0.00384257
-0.00375272
-0.00368879
-0.00364761
-0.00362634
-0.00362542
-0.00363582
-0.00364616
-0.00364605
-0.00362407
-0.00357327
-0.00347522
-0.0032974
-0.00299382
-0.00249687
-0.00170231
-0.00046773
0.00123791
0.00291799
0.00382504
0.00325708
)
;

boundaryField
{
    floor
    {
        type            calculated;
        value           nonuniform List<scalar> 
36
(
0
0
0
0
0
0
0
0
0
0
0
0
0
0
0
0
0
0
0
-6.358e-06
-1.71587e-05
-2.65322e-05
-3.46245e-05
-3.13729e-05
-2.8946e-05
-2.75052e-05
-3.87016e-06
-6.23181e-06
-6.94729e-06
-7.94228e-06
-5.02524e-06
-1.19911e-05
-1.53327e-05
-1.75299e-05
-2.01387e-05
-1.85828e-05
)
;
    }
    ceiling
    {
        type            calculated;
        value           nonuniform List<scalar> 
43
(
-3.23503e-05
-3.08109e-05
-2.95278e-05
-2.58923e-05
-2.48298e-05
-2.36776e-05
-2.26038e-05
-2.2043e-05
-2.2179e-05
-2.2684e-05
-2.32262e-05
-2.36578e-05
-2.39365e-05
-2.40768e-05
-2.4142e-05
-2.42184e-05
-2.43896e-05
-2.4719e-05
-2.52271e-05
-2.58748e-05
-2.65796e-05
-2.72547e-05
-2.78352e-05
-2.82993e-05
-2.86704e-05
-2.89407e-05
-2.90949e-05
-2.91098e-05
-2.89553e-05
-2.86429e-05
-2.81851e-05
-2.75908e-05
-2.68659e-05
-2.6015e-05
-2.50461e-05
-2.37603e-05
-2.28574e-05
-2.27682e-05
-2.37751e-05
-2.429e-05
-4.98661e-06
-6.19516e-06
-2.91303e-05
)
;
    }
    sWall
    {
        type            calculated;
        value           uniform -0.000195558;
    }
    nWall
    {
        type            calculated;
        value           nonuniform List<scalar> 6(-6.72501e-05 -8.11617e-05 -8.52099e-05 -0.000100902 -0.000110883 -0.000127697);
    }
    sideWalls
    {
        type            empty;
        value           nonuniform 0();
    }
    glass1
    {
        type            calculated;
        value           nonuniform List<scalar> 9(-6.80848e-05 -0.000183543 -0.000281053 -0.000364183 -0.00043454 -0.000493842 -0.000549908 -0.000618012 -0.000692375);
    }
    glass2
    {
        type            calculated;
        value           nonuniform List<scalar> 2(-0.000366303 -0.000402044);
    }
    sun
    {
        type            calculated;
        value           uniform 0;
    }
    Table_master
    {
        type            calculated;
        value           nonuniform List<scalar> 9(-1.55309e-07 -1.55528e-07 -1.55588e-07 -1.55617e-07 -1.55631e-07 -1.55631e-07 -1.55622e-07 -1.55594e-07 -1.55525e-07);
    }
    Table_slave
    {
        type            calculated;
        value           nonuniform List<scalar> 9(1.5507e-07 1.5507e-07 1.5502e-07 1.54992e-07 1.54972e-07 1.54971e-07 1.54997e-07 1.55056e-07 1.55161e-07);
    }
    inlet
    {
        type            calculated;
        value           uniform -0.00724436;
    }
    outlet
    {
        type            calculated;
        value           nonuniform List<scalar> 2(0.0101389 0.00363916);
    }
}


// ************************************************************************* //
