/*--------------------------------*- C++ -*----------------------------------*\
  =========                 |
  \\      /  F ield         | OpenFOAM: The Open Source CFD Toolbox
   \\    /   O peration     | Website:  https://openfoam.org
    \\  /    A nd           | Version:  6
     \\/     M anipulation  |
\*---------------------------------------------------------------------------*/
FoamFile
{
    version     2.0;
    format      ascii;
    class       volScalarField;
    location    "2300";
    object      k;
}
// * * * * * * * * * * * * * * * * * * * * * * * * * * * * * * * * * * * * * //

dimensions      [0 2 -2 0 0 0 0];

internalField   nonuniform List<scalar> 
458
(
0.00103364
0.00107481
0.000872222
0.000933041
0.00100382
0.00107312
0.00114039
0.00120692
0.0012752
0.0013494
0.00141563
0.00147024
0.00151381
0.00155215
0.00158364
0.000270645
0.000316434
0.000324977
0.000228591
0.000164053
0.000143965
0.000124627
0.000104883
9.03658e-05
9.08533e-05
0.000102734
0.000131238
0.000183787
0.000254419
0.000354455
0.000451822
0.000436828
0.000343356
0.00315408
0.00634469
0.00156711
0.00142272
0.00149965
0.00160074
0.00170929
0.00182511
0.00194785
0.00207409
0.00219554
0.00229114
0.00233101
0.00226622
0.00206491
0.00188761
0.00173329
0.00100475
0.000528961
0.000965047
0.000918241
0.000771509
0.000585608
0.00035353
0.000192006
0.00013354
0.000128016
0.000155903
0.000225015
0.000359182
0.000591397
0.000873236
0.00113948
0.0012617
0.00141547
0.000589423
0.00596768
0.0152108
0.00262048
0.00184802
0.00187925
0.00198829
0.00211498
0.00225404
0.00240322
0.00255704
0.00270637
0.00282804
0.00290118
0.00290475
0.00283072
0.00270374
0.00247117
0.00212683
0.00157306
0.00247606
0.00175958
0.00143826
0.00111639
0.000488841
0.000291029
0.000170956
0.000188789
0.000262168
0.000358384
0.000490327
0.000682546
0.000991389
0.0015165
0.00157447
0.00147761
0.000913944
0.00942298
0.027747
0.00448942
0.00221826
0.00215196
0.00227014
0.00242237
0.00259261
0.00277632
0.00296726
0.00315368
0.00331081
0.00342697
0.0034926
0.00348585
0.00338187
0.00316549
0.00285177
0.00261286
0.00276185
0.00204719
0.00170699
0.0014654
0.00128938
0.00120701
0.00122986
0.00126938
0.00131989
0.0013837
0.00146588
0.00157584
0.0017361
0.00193574
0.00257815
0.00310241
0.00363401
0.00248145
0.0132988
0.0422956
0.00782404
0.00263716
0.00235148
0.00247155
0.00266076
0.00288117
0.00312467
0.00338329
0.00362579
0.00382677
0.00399497
0.00414246
0.00425495
0.0043018
0.00425317
0.00405773
0.00362487
0.00297869
0.00253928
0.00228427
0.00217597
0.00216393
0.00221302
0.00229955
0.0024226
0.00258551
0.00279473
0.00306074
0.00339613
0.00381447
0.00431066
0.00483528
0.00540877
0.00573455
0.00556964
0.00478317
0.00393963
0.00315052
0.0175053
0.0549554
0.0136518
0.00364197
0.00267472
0.00272643
0.00295309
0.00323605
0.0035521
0.00389234
0.00414967
0.00432019
0.00445501
0.00460131
0.00476578
0.00491296
0.00496286
0.00478804
0.00433687
0.00376008
0.00327043
0.00294801
0.00278954
0.00274665
0.00277956
0.00287156
0.0030233
0.00323633
0.0035169
0.00387759
0.00433403
0.00489789
0.00556801
0.00632555
0.0071692
0.00804957
0.00833566
0.00769552
0.00539165
0.00347923
0.0218962
0.0618618
0.0244487
0.00827857
0.00435707
0.00367693
0.00380419
0.00411395
0.00447485
0.00481824
0.00491915
0.00489649
0.00484616
0.0048415
0.00491814
0.00506085
0.00517926
0.00511645
0.00479947
0.00433112
0.00387324
0.00353205
0.00333528
0.0032618
0.00328597
0.00339747
0.00359421
0.00387078
0.00422024
0.0046377
0.00512186
0.00566763
0.00626112
0.00686296
0.00738548
0.00764052
0.0073278
0.00633107
0.00465836
0.00322214
0.0228807
0.0689342
0.0414981
0.026034
0.014834
0.00909324
0.00720669
0.00676708
0.00670623
0.00641598
0.006021
0.00562428
0.00527314
0.0049999
0.00483586
0.00480369
0.00487382
0.00490996
0.00476901
0.00448288
0.00415592
0.00388203
0.00370994
0.00364911
0.0036976
0.00386102
0.0041491
0.00455942
0.00507333
0.00564519
0.00620487
0.0066396
0.00685265
0.00682715
0.00663669
0.00643785
0.00617619
0.00592829
0.00560107
0.00405755
0.0214627
0.0303528
0.0331031
0.0286475
0.0225259
0.0170543
0.0131719
0.0106626
0.00900129
0.00777841
0.00686093
0.00613629
0.00554264
0.00505323
0.00466625
0.00439601
0.00425192
0.00419997
0.00415529
0.00406416
0.0039335
0.00380685
0.00372808
0.00372414
0.00381137
0.00401025
0.00435395
0.0048491
0.00550848
0.00630884
0.00719227
0.00815622
0.00918152
0.0102277
0.0110744
0.0111038
0.0105914
0.0103586
0.0109782
0.00548904
0.0351858
0.0474815
0.0286464
0.020471
0.0155741
0.0123483
0.0101257
0.00851053
0.00727868
0.00631067
0.00552941
0.00488724
0.00435822
0.00393294
0.00361264
0.00339832
0.0032767
0.00322281
0.00321393
0.00324021
0.00330345
0.0034099
0.0035677
0.00379102
0.00410378
0.0045306
0.00509194
0.00576829
0.00653519
0.00735958
0.00820985
0.00906245
0.00988817
0.0106778
0.0110494
0.00994111
0.0110631
0.00548952
0.0262905
0.0430642
0.0267849
0.0195259
0.0151315
0.0121024
0.00990424
0.00825058
0.00695604
0.00590624
0.00504757
0.00434025
0.00375606
0.00327644
0.00289086
0.00259464
0.00238589
0.00226286
0.00222235
0.00225915
0.00236546
0.00253105
0.00274628
0.00300892
0.00333154
0.00374157
0.00426321
0.0048843
0.00555528
0.00622875
0.00685409
0.00738803
0.00778036
0.00795234
0.00769747
0.00705293
0.00808894
0.00433616
0.0111407
0.0144358
0.0186294
0.018165
0.0130862
0.0107271
0.00887267
0.00741343
0.00625476
0.00531967
0.00456809
0.00396334
0.00345912
0.00302978
0.00266039
0.00234195
0.00206892
0.00183762
0.00164536
0.00148988
0.00136918
0.00128158
0.00122569
0.00120011
0.00120326
0.00123392
0.00129271
0.00138385
0.00151464
0.001707
0.00198202
0.0023225
0.00268533
0.00301524
0.00325665
0.00335202
0.00327076
0.00313335
0.0030705
0.00267146
)
;

boundaryField
{
    floor
    {
        type            kqRWallFunction;
        value           nonuniform List<scalar> 
36
(
0.00158364
0.000270645
0.000316434
0.000324977
0.000228591
0.000164053
0.000143965
0.000124627
0.000104883
9.03658e-05
9.08533e-05
0.000102734
0.000131238
0.000183787
0.000254419
0.000354455
0.000451822
0.000436828
0.000343356
0.000343356
0.000589423
0.000913944
0.00248145
0.00478317
0.00393963
0.00315052
0.00158364
0.00188761
0.00173329
0.00100475
0.000270645
0.00100475
0.000528961
0.00212683
0.00157306
0.00261286
)
;
    }
    ceiling
    {
        type            kqRWallFunction;
        value           nonuniform List<scalar> 
43
(
0.0111407
0.0144358
0.0186294
0.018165
0.0130862
0.0107271
0.00887267
0.00741343
0.00625476
0.00531967
0.00456809
0.00396334
0.00345912
0.00302978
0.00266039
0.00234195
0.00206892
0.00183762
0.00164536
0.00148988
0.00136918
0.00128158
0.00122569
0.00120011
0.00120326
0.00123392
0.00129271
0.00138385
0.00151464
0.001707
0.00198202
0.0023225
0.00268533
0.00301524
0.00325665
0.00335202
0.00327076
0.00313335
0.0030705
0.00267146
0.0214627
0.0303528
0.0262905
)
;
    }
    sWall
    {
        type            kqRWallFunction;
        value           uniform 0.0111407;
    }
    nWall
    {
        type            kqRWallFunction;
        value           nonuniform List<scalar> 6(0.00315052 0.00347923 0.00322214 0.00548952 0.00433616 0.00267146);
    }
    sideWalls
    {
        type            empty;
    }
    glass1
    {
        type            kqRWallFunction;
        value           nonuniform List<scalar> 9(0.00103364 0.00315408 0.00596768 0.00942298 0.0132988 0.0175053 0.0218962 0.0228807 0.0214627);
    }
    glass2
    {
        type            kqRWallFunction;
        value           nonuniform List<scalar> 2(0.00405755 0.00548904);
    }
    sun
    {
        type            kqRWallFunction;
        value           nonuniform List<scalar> 
14
(
0.00103364
0.00107481
0.000872222
0.000933041
0.00100382
0.00107312
0.00114039
0.00120692
0.0012752
0.0013494
0.00141563
0.00147024
0.00151381
0.00155215
)
;
    }
    Table_master
    {
        type            kqRWallFunction;
        value           nonuniform List<scalar> 9(0.000488841 0.000291029 0.000170956 0.000188789 0.000262168 0.000358384 0.000490327 0.000682546 0.000991389);
    }
    Table_slave
    {
        type            kqRWallFunction;
        value           nonuniform List<scalar> 9(0.00120701 0.00122986 0.00126938 0.00131989 0.0013837 0.00146588 0.00157584 0.0017361 0.00193574);
    }
    inlet
    {
        type            turbulentIntensityKineticEnergyInlet;
        intensity       0.05;
        value           uniform 3.75e-05;
    }
    outlet
    {
        type            zeroGradient;
    }
}


// ************************************************************************* //
