/*--------------------------------*- C++ -*----------------------------------*\
  =========                 |
  \\      /  F ield         | OpenFOAM: The Open Source CFD Toolbox
   \\    /   O peration     | Website:  https://openfoam.org
    \\  /    A nd           | Version:  6
     \\/     M anipulation  |
\*---------------------------------------------------------------------------*/
FoamFile
{
    version     2.0;
    format      ascii;
    class       volVectorField;
    location    "2000";
    object      U;
}
// * * * * * * * * * * * * * * * * * * * * * * * * * * * * * * * * * * * * * //

dimensions      [0 1 -1 0 0 0 0];

internalField   nonuniform List<vector> 
458
(
(0.0348807 0.0825446 0)
(-0.160452 0.0240272 0)
(-0.18235 0.0171036 0)
(-0.211544 0.0123979 0)
(-0.233753 0.00724732 0)
(-0.248557 0.00192618 0)
(-0.25515 -0.00367205 0)
(-0.252284 -0.0096326 0)
(-0.239798 -0.0159735 0)
(-0.218073 -0.0221644 0)
(-0.188361 -0.0276124 0)
(-0.152406 -0.0320648 0)
(-0.112243 -0.036089 0)
(-0.0731858 -0.0413183 0)
(-0.0527409 -0.0483874 0)
(-0.00198039 0.00563436 0)
(-0.0152896 -0.0172063 0)
(0.00899552 -0.0245662 0)
(0.0272263 -0.0179444 0)
(0.0425242 -0.0117791 0)
(0.0526612 -0.00672996 0)
(0.0580006 -0.00412185 0)
(0.0603017 -0.00310935 0)
(0.0613358 -0.00267721 0)
(0.0619346 -0.00239956 0)
(0.0622326 -0.00217106 0)
(0.0621532 -0.0018958 0)
(0.0614845 -0.00139354 0)
(0.0596646 -0.000279536 0)
(0.055505 0.00199174 0)
(0.0476592 0.00466593 0)
(0.0381181 0.00728879 0)
(-0.00487014 0.0186047 0)
(0.205421 0.16874 0)
(-0.14973 0.0626487 0)
(-0.144832 0.0490407 0)
(-0.174144 0.0393101 0)
(-0.195241 0.0286607 0)
(-0.209454 0.0172469 0)
(-0.216115 0.00468322 0)
(-0.213845 -0.00920031 0)
(-0.202645 -0.0235235 0)
(-0.183368 -0.0366018 0)
(-0.15771 -0.0468684 0)
(-0.12807 -0.0533693 0)
(-0.0973043 -0.0562833 0)
(-0.0699487 -0.0563317 0)
(-0.0520945 -0.0506584 0)
(-0.0340991 -0.0199661 0)
(-0.00347328 0.0182453 0)
(-0.0682474 0.0447551 0)
(0.0483431 0.025933 0)
(0.0331581 -0.0219915 0)
(0.0404805 -0.0298531 0)
(0.0510212 -0.0242484 0)
(0.059414 -0.0159934 0)
(0.0632574 -0.00668788 0)
(0.063944 -0.00133641 0)
(0.0637836 0.000796137 0)
(0.063839 0.00168881 0)
(0.0640483 0.00223524 0)
(0.0642051 0.00269085 0)
(0.0642378 0.00321643 0)
(0.0641075 0.00416089 0)
(0.0633127 0.00640699 0)
(0.0595507 0.0124854 0)
(0.0501239 0.0180412 0)
(0.0413796 0.0225707 0)
(-0.0309498 0.0405597 0)
(0.361255 0.251937 0)
(-0.166839 0.0993388 0)
(-0.107366 0.078402 0)
(-0.134726 0.0607456 0)
(-0.152153 0.0432671 0)
(-0.164095 0.0249778 0)
(-0.169648 0.00483327 0)
(-0.166504 -0.017261 0)
(-0.155073 -0.0395559 0)
(-0.136826 -0.0591159 0)
(-0.113885 -0.0735734 0)
(-0.0888346 -0.0815724 0)
(-0.0640775 -0.0832918 0)
(-0.0423634 -0.0791548 0)
(-0.025457 -0.0673752 0)
(-0.00966276 -0.0433876 0)
(0.00608746 -0.0184446 0)
(-0.0249393 -0.00114344 0)
(0.093145 -0.0448344 0)
(0.0675909 -0.0453129 0)
(0.0657561 -0.0396732 0)
(0.0690149 -0.0310577 0)
(0.0719025 -0.0232286 0)
(0.0714831 -0.0178063 0)
(0.0657711 -0.0122395 0)
(0.0615345 -0.00923924 0)
(0.0597637 -0.007539 0)
(0.0591339 -0.00644063 0)
(0.0588801 -0.00567212 0)
(0.0589829 -0.00498212 0)
(0.0599234 -0.003962 0)
(0.0628981 -0.000614679 0)
(0.0616621 0.0164648 0)
(0.0502286 0.0290554 0)
(0.0459166 0.0391211 0)
(-0.0532643 0.0649789 0)
(0.499943 0.318526 0)
(-0.200949 0.131883 0)
(-0.0690993 0.102212 0)
(-0.0938262 0.0775724 0)
(-0.104736 0.0552725 0)
(-0.111761 0.0319789 0)
(-0.113823 0.00525631 0)
(-0.106906 -0.0249174 0)
(-0.0938314 -0.054616 0)
(-0.0765375 -0.0793776 0)
(-0.0572529 -0.0965513 0)
(-0.0382412 -0.104795 0)
(-0.0206637 -0.104803 0)
(-0.00568543 -0.0971828 0)
(0.00702241 -0.0809309 0)
(0.0198399 -0.057107 0)
(0.0368028 -0.0320833 0)
(0.0562269 -0.0149515 0)
(0.086652 -0.0101342 0)
(0.0943357 -0.0376649 0)
(0.0815051 -0.0404552 0)
(0.0737248 -0.0351858 0)
(0.0701393 -0.0281743 0)
(0.0673906 -0.0197874 0)
(0.0684349 -0.0119051 0)
(0.0743457 -0.00836167 0)
(0.0790726 -0.00641956 0)
(0.0818001 -0.00517077 0)
(0.083258 -0.00402463 0)
(0.0833204 -0.00263939 0)
(0.0810686 -0.000728308 0)
(0.0753339 0.00203968 0)
(0.0637625 0.0061957 0)
(0.0529575 0.0254372 0)
(0.0437927 0.0422692 0)
(0.049967 0.0574676 0)
(-0.0683739 0.0893525 0)
(0.616545 0.370236 0)
(-0.240761 0.158938 0)
(-0.0332313 0.114316 0)
(-0.0520665 0.0856406 0)
(-0.0540704 0.0606385 0)
(-0.0532113 0.0342068 0)
(-0.0473748 0.00207787 0)
(-0.0328146 -0.0353715 0)
(-0.0176855 -0.0697114 0)
(-0.00286343 -0.0964329 0)
(0.0103436 -0.113421 0)
(0.0206077 -0.119675 0)
(0.0285883 -0.117209 0)
(0.0343344 -0.107256 0)
(0.0388962 -0.0907352 0)
(0.0445203 -0.0694042 0)
(0.053508 -0.0477634 0)
(0.0651096 -0.0330036 0)
(0.0750222 -0.0302828 0)
(0.0760774 -0.0364275 0)
(0.0694471 -0.0352592 0)
(0.0620034 -0.0301037 0)
(0.0566405 -0.023978 0)
(0.0532538 -0.0170885 0)
(0.0529851 -0.00912715 0)
(0.0555328 -0.00488893 0)
(0.0582497 -0.00318975 0)
(0.0605501 -0.00217091 0)
(0.0625412 -0.000677786 0)
(0.0640829 0.00193073 0)
(0.0641414 0.00585723 0)
(0.0621611 0.0113546 0)
(0.0575934 0.019104 0)
(0.0520291 0.0335603 0)
(0.0457655 0.0510005 0)
(0.061323 0.0709247 0)
(0.0129267 0.098694 0)
(0.0533122 0.117662 0)
(-0.0680107 0.0402706 0)
(-0.25367 -0.0146487 0)
(0.697531 0.413669 0)
(-0.277088 0.177448 0)
(-0.00810268 0.106948 0)
(-0.00881274 0.0818448 0)
(0.00196249 0.0574148 0)
(0.014146 0.0275786 0)
(0.0369367 -0.0109066 0)
(0.0560269 -0.0501338 0)
(0.0702695 -0.0828339 0)
(0.0791306 -0.106329 0)
(0.0828045 -0.119752 0)
(0.0821709 -0.123419 0)
(0.0785177 -0.118762 0)
(0.0729774 -0.107399 0)
(0.0669957 -0.0910003 0)
(0.0623732 -0.0716904 0)
(0.0604905 -0.0526631 0)
(0.0608445 -0.0382821 0)
(0.0604391 -0.0313197 0)
(0.0562621 -0.0298273 0)
(0.0487964 -0.0276571 0)
(0.0410688 -0.0237238 0)
(0.0351798 -0.0191825 0)
(0.0316264 -0.0143931 0)
(0.030742 -0.009744 0)
(0.032104 -0.00731089 0)
(0.0344256 -0.00640341 0)
(0.037127 -0.00569228 0)
(0.0400648 -0.00415982 0)
(0.0430878 -0.000941753 0)
(0.0459902 0.00442398 0)
(0.0476939 0.0117798 0)
(0.0483933 0.0213224 0)
(0.0493867 0.0345887 0)
(0.0504575 0.051003 0)
(0.0671399 0.0711759 0)
(0.0619856 0.0870842 0)
(0.0896155 0.0882871 0)
(0.106511 0.0538918 0)
(-0.125079 -0.0191657 0)
(0.746341 0.453443 0)
(-0.292207 0.163616 0)
(0.0184366 0.0526357 0)
(0.0532679 0.0495797 0)
(0.0778807 0.0387432 0)
(0.107153 0.00731024 0)
(0.137705 -0.0318465 0)
(0.156652 -0.0656356 0)
(0.164922 -0.091223 0)
(0.163661 -0.107832 0)
(0.154608 -0.115465 0)
(0.13996 -0.114892 0)
(0.122059 -0.107607 0)
(0.103007 -0.0952627 0)
(0.0846715 -0.0796004 0)
(0.0686692 -0.0625011 0)
(0.0559558 -0.0461155 0)
(0.0463433 -0.0331674 0)
(0.0382624 -0.0254139 0)
(0.0299887 -0.0218435 0)
(0.0215034 -0.0195447 0)
(0.0140331 -0.0170781 0)
(0.00858941 -0.0145659 0)
(0.00546052 -0.0121617 0)
(0.0046556 -0.0101279 0)
(0.0056681 -0.0092137 0)
(0.00763158 -0.00903494 0)
(0.010111 -0.00879996 0)
(0.0130865 -0.00773171 0)
(0.0166918 -0.00491873 0)
(0.0217537 0.000653124 0)
(0.0272242 0.00860061 0)
(0.0324401 0.0181261 0)
(0.0389835 0.029685 0)
(0.0468169 0.0429694 0)
(0.0639453 0.0588477 0)
(0.077907 0.0675089 0)
(0.105153 0.0620166 0)
(0.144639 0.0501221 0)
(-0.0330876 0.087001 0)
(0.84898 0.454894 0)
(-0.0629893 0.14134 0)
(0.110045 -0.0404075 0)
(0.197069 -0.0625197 0)
(0.230512 -0.0596382 0)
(0.25518 -0.0665389 0)
(0.270631 -0.0773933 0)
(0.273377 -0.0874121 0)
(0.263001 -0.0945579 0)
(0.241763 -0.0977155 0)
(0.21286 -0.0963633 0)
(0.179618 -0.0907015 0)
(0.145159 -0.0814955 0)
(0.111968 -0.0696147 0)
(0.0818995 -0.0562146 0)
(0.0561905 -0.0425951 0)
(0.0353294 -0.0300092 0)
(0.0194458 -0.0203494 0)
(0.00746307 -0.0147761 0)
(-0.00230562 -0.0124748 0)
(-0.0101975 -0.0117117 0)
(-0.0163446 -0.0113127 0)
(-0.0206492 -0.0110338 0)
(-0.0231816 -0.0108393 0)
(-0.0241709 -0.0107897 0)
(-0.0241001 -0.0110514 0)
(-0.0235298 -0.0114851 0)
(-0.0227391 -0.011797 0)
(-0.0216812 -0.0116168 0)
(-0.0200277 -0.0104275 0)
(-0.0169311 -0.00748142 0)
(-0.00966587 -0.00199451 0)
(-0.00158341 0.00530587 0)
(0.00812536 0.0129139 0)
(0.0192657 0.0194109 0)
(0.0359872 0.0257128 0)
(0.0534882 0.0226219 0)
(0.0768325 0.00754636 0)
(0.139138 0.041518 0)
(-0.367796 0.184712 0)
(0.993862 0.413446 0)
(0.465007 0.272414 0)
(0.489843 0.170687 0)
(0.529378 0.103272 0)
(0.516812 0.0593755 0)
(0.480228 0.0237605 0)
(0.437541 -0.00528472 0)
(0.389688 -0.0268933 0)
(0.336408 -0.0408025 0)
(0.280139 -0.0476276 0)
(0.224076 -0.0486717 0)
(0.170966 -0.0455532 0)
(0.122902 -0.039757 0)
(0.0808854 -0.0321125 0)
(0.045707 -0.0236773 0)
(0.0172867 -0.0155841 0)
(-0.00505213 -0.00872235 0)
(-0.0197057 -0.00494213 0)
(-0.0294928 -0.00376212 0)
(-0.0367663 -0.00414141 0)
(-0.0425986 -0.00523783 0)
(-0.0473385 -0.00650305 0)
(-0.0510026 -0.00769552 0)
(-0.0537379 -0.00874025 0)
(-0.0558016 -0.00964681 0)
(-0.057588 -0.0104696 0)
(-0.0595605 -0.0111605 0)
(-0.0621488 -0.0115379 0)
(-0.0657394 -0.0112117 0)
(-0.0706851 -0.00950332 0)
(-0.0773202 -0.00550047 0)
(-0.0859304 0.00155686 0)
(-0.0946374 0.0109296 0)
(-0.106674 0.0228373 0)
(-0.125824 0.0378422 0)
(-0.154719 0.0558815 0)
(-0.195556 0.0745308 0)
(-0.243166 0.0911263 0)
(-0.31204 0.103759 0)
(-0.570698 0.110316 0)
(-0.254668 -0.0978593 0)
(0.0992961 -0.0684698 0)
(0.174518 -0.056863 0)
(0.168859 -0.0410927 0)
(0.159997 -0.0264874 0)
(0.144544 -0.0161853 0)
(0.122327 -0.00953868 0)
(0.0957379 -0.00510016 0)
(0.0672953 -0.00205609 0)
(0.038977 7.98938e-05 0)
(0.0123587 0.00186511 0)
(-0.0129598 0.00416262 0)
(-0.0318724 0.00634996 0)
(-0.0461111 0.0082359 0)
(-0.0559057 0.00936343 0)
(-0.0621854 0.00957706 0)
(-0.0665489 0.00939252 0)
(-0.0700382 0.00903065 0)
(-0.0732628 0.0084949 0)
(-0.0765744 0.00766501 0)
(-0.0799573 0.00705547 0)
(-0.0834209 0.00688303 0)
(-0.0869729 0.00721225 0)
(-0.0906669 0.00802319 0)
(-0.0945988 0.00925704 0)
(-0.0988812 0.0107997 0)
(-0.103628 0.0124807 0)
(-0.10889 0.0140908 0)
(-0.114241 0.0161253 0)
(-0.118566 0.0199891 0)
(-0.122223 0.0272911 0)
(-0.125184 0.0387229 0)
(-0.127836 0.0541381 0)
(-0.130375 0.0715867 0)
(-0.130075 0.0839101 0)
(-0.115172 0.0723024 0)
(-0.0878443 -0.00266208 0)
(-0.249264 -0.177758 0)
(0.0718079 0.134366 0)
(0.0324232 0.0318853 0)
(-0.0137508 -0.00555343 0)
(-0.0362975 -7.84517e-05 0)
(-0.0477754 0.00540002 0)
(-0.0536274 0.00619282 0)
(-0.0597087 0.0056595 0)
(-0.0657499 0.00479499 0)
(-0.0714069 0.00331683 0)
(-0.0763964 0.000876096 0)
(-0.0804204 -0.00266362 0)
(-0.0835896 -0.00741688 0)
(-0.0855846 -0.0134241 0)
(-0.086714 -0.0201052 0)
(-0.0871807 -0.0272543 0)
(-0.0874226 -0.0344315 0)
(-0.087793 -0.0409383 0)
(-0.0884621 -0.0465249 0)
(-0.0895977 -0.0512531 0)
(-0.091424 -0.0551519 0)
(-0.0941921 -0.0587038 0)
(-0.0978483 -0.0619565 0)
(-0.10223 -0.06475 0)
(-0.107072 -0.0667462 0)
(-0.111995 -0.0674308 0)
(-0.116505 -0.0661713 0)
(-0.120072 -0.0623025 0)
(-0.122245 -0.055162 0)
(-0.122706 -0.044632 0)
(-0.120884 -0.0312605 0)
(-0.115626 -0.0150374 0)
(-0.105606 0.00400045 0)
(-0.0898896 0.0253716 0)
(-0.068538 0.0464973 0)
(-0.0432955 0.0608395 0)
(-0.00811175 0.0513153 0)
(0.136663 -0.0204703 0)
(-0.187638 -0.0939191 0)
(0.140747 -0.234379 0)
(-0.340792 -0.126213 0)
(-0.259543 0.014031 0)
(-0.248216 -0.0123855 0)
(-0.227125 -0.00211731 0)
(-0.220679 0.0104317 0)
(-0.213904 0.0202363 0)
(-0.205854 0.0285563 0)
(-0.196523 0.0367616 0)
(-0.185987 0.0453061 0)
(-0.174606 0.0544092 0)
(-0.162805 0.0642761 0)
(-0.151015 0.0750187 0)
(-0.139778 0.0865439 0)
(-0.129634 0.0985688 0)
(-0.12094 0.110631 0)
(-0.113878 0.122017 0)
(-0.10854 0.132042 0)
(-0.104828 0.140356 0)
(-0.102493 0.147101 0)
(-0.101247 0.15267 0)
(-0.100769 0.157435 0)
(-0.10081 0.161979 0)
(-0.101186 0.166381 0)
(-0.101746 0.170402 0)
(-0.102365 0.17352 0)
(-0.102936 0.175016 0)
(-0.103343 0.174136 0)
(-0.103395 0.170331 0)
(-0.102666 0.163495 0)
(-0.100309 0.154431 0)
(-0.0949164 0.144814 0)
(-0.0845054 0.136165 0)
(-0.0670944 0.130145 0)
(-0.0422162 0.128123 0)
(-0.00946179 0.129904 0)
(0.0326576 0.13114 0)
(0.0670255 0.125555 0)
(0.15342 0.113289 0)
(-0.284088 0.082959 0)
)
;

boundaryField
{
    floor
    {
        type            noSlip;
    }
    ceiling
    {
        type            noSlip;
    }
    sWall
    {
        type            noSlip;
    }
    nWall
    {
        type            noSlip;
    }
    sideWalls
    {
        type            empty;
    }
    glass1
    {
        type            noSlip;
    }
    glass2
    {
        type            noSlip;
    }
    sun
    {
        type            noSlip;
    }
    Table_master
    {
        type            noSlip;
    }
    Table_slave
    {
        type            noSlip;
    }
    inlet
    {
        type            fixedValue;
        value           uniform (0.212132 -0.212132 0);
    }
    outlet
    {
        type            zeroGradient;
    }
}


// ************************************************************************* //
