/*--------------------------------*- C++ -*----------------------------------*\
  =========                 |
  \\      /  F ield         | OpenFOAM: The Open Source CFD Toolbox
   \\    /   O peration     | Website:  https://openfoam.org
    \\  /    A nd           | Version:  6
     \\/     M anipulation  |
\*---------------------------------------------------------------------------*/
FoamFile
{
    version     2.0;
    format      ascii;
    class       volScalarField;
    location    "400";
    object      alphat;
}
// * * * * * * * * * * * * * * * * * * * * * * * * * * * * * * * * * * * * * //

dimensions      [1 -1 -1 0 0 0 0];

internalField   nonuniform List<scalar> 
458
(
0.00139551
0.00153133
0.00157353
0.00165599
0.00173339
0.0018077
0.00188265
0.00196305
0.00203548
0.00209345
0.00212562
0.00211708
0.00204634
0.00183558
0.00141725
0.000673465
0.000792283
0.000897343
0.00092852
0.000902767
0.000833403
0.000761351
0.000698765
0.000646091
0.000601687
0.000564139
0.000532421
0.000505323
0.000481707
0.000460423
0.000440834
0.000439604
0.000411573
0.00185927
0.00444973
0.00415067
0.00475355
0.00538106
0.00603407
0.00664855
0.0071195
0.00762277
0.00813047
0.00858348
0.00891599
0.00904875
0.0087771
0.00688072
0.0018393
0.00151921
0.00122408
0.000674271
0.00170376
0.00248386
0.00306371
0.00317558
0.0022723
0.00189472
0.00164309
0.00146072
0.00132398
0.00121788
0.00113065
0.00105455
0.000983621
0.000922793
0.000883479
0.00114646
0.000553128
0.00224459
0.00606665
0.00520499
0.00631616
0.00688753
0.00730227
0.00760824
0.00785148
0.0081773
0.00859837
0.00910028
0.0096498
0.0101663
0.0104168
0.00978597
0.00784403
0.00574562
0.00146669
0.00103537
0.00186733
0.00278286
0.00366649
0.00381921
0.00115855
0.00099901
0.000872682
0.000773829
0.000696127
0.000634507
0.000585209
0.000545703
0.000515199
0.000585357
0.000726908
0.00141765
0.00066167
0.00261057
0.00768667
0.00525884
0.00676815
0.00722002
0.00728476
0.0072297
0.00724568
0.00741843
0.00776371
0.0082912
0.00897542
0.00971642
0.0102709
0.0102811
0.00964775
0.00806868
0.00434584
0.00168324
0.00219273
0.00311053
0.00422559
0.00516518
0.00510259
0.00134227
0.00122053
0.00113557
0.00107119
0.0010159
0.000962965
0.000911253
0.000856143
0.000792384
0.000757904
0.000831287
0.00175952
0.000750933
0.00298204
0.00979493
0.00570379
0.00660087
0.00725645
0.00718042
0.00687966
0.00671692
0.00681061
0.00712197
0.00767064
0.00841671
0.00920384
0.00972526
0.00990299
0.00974705
0.00906345
0.00741789
0.00656021
0.00665377
0.00708583
0.00758408
0.00790633
0.00776601
0.00649533
0.00586413
0.00549347
0.00521161
0.00492412
0.00453497
0.00398403
0.00332503
0.0026181
0.00200214
0.00157758
0.00160731
0.00144473
0.000992677
0.00097265
0.00106087
0.00337935
0.0121537
0.00787077
0.00645021
0.00690065
0.00709815
0.00698226
0.00657231
0.00660983
0.00688359
0.00744334
0.00820704
0.00892673
0.00935209
0.00945088
0.00941343
0.00935283
0.0091299
0.00924893
0.00961499
0.00989583
0.00998998
0.00986964
0.00950474
0.00884844
0.00825168
0.00774065
0.00726169
0.00677745
0.00626049
0.00566319
0.00496318
0.0041707
0.00335827
0.00266415
0.00201472
0.00171026
0.00149075
0.0017388
0.00112299
0.00374478
0.0138089
0.0111785
0.00837266
0.0073135
0.00699354
0.00707865
0.00686124
0.00675955
0.00693441
0.00747683
0.00824827
0.00893952
0.00926932
0.00926007
0.00931685
0.00979044
0.0104312
0.0110004
0.011348
0.0113745
0.0111303
0.0106806
0.0100684
0.00934169
0.00863138
0.00796211
0.00731001
0.00669585
0.00613924
0.00567289
0.0053059
0.00481299
0.00418563
0.00355046
0.0029652
0.00258944
0.00239729
0.00222279
0.00141482
0.00381321
0.0120924
0.011142
0.0104561
0.00947245
0.00856075
0.00807545
0.00739134
0.006983
0.00710468
0.00770203
0.00850937
0.00916161
0.00938136
0.0093202
0.00968681
0.01069
0.011409
0.0117698
0.0118153
0.0115228
0.0109615
0.0102077
0.00933094
0.00841871
0.00756033
0.00678947
0.00612009
0.00557961
0.0051941
0.00497752
0.00492436
0.00496954
0.0047979
0.00458807
0.00454677
0.00477224
0.00491183
0.005491
0.00200847
0.00371315
0.00440529
0.00501005
0.00550104
0.00589123
0.0060302
0.00600578
0.00607279
0.00643086
0.00715385
0.00808467
0.00895476
0.00947459
0.00949911
0.00957877
0.0102798
0.0110046
0.0113028
0.0112724
0.0109477
0.0103411
0.00951468
0.00854255
0.00752406
0.00657402
0.00576478
0.00511381
0.00461538
0.00425653
0.00401552
0.00386241
0.00376161
0.00369008
0.00363538
0.00356937
0.00347013
0.00327881
0.00299903
0.00273565
0.00182592
0.000815639
0.00176998
0.00290074
0.00398177
0.0049898
0.00607441
0.00726862
0.00834503
0.00912195
0.00950664
0.00946882
0.00941101
0.00953587
0.00990078
0.0099911
0.00982095
0.00944361
0.00885389
0.00808201
0.00721381
0.00635377
0.00557974
0.00493686
0.00445792
0.0041155
0.00387008
0.00369251
0.00356911
0.00349982
0.00348535
0.00350284
0.00351518
0.00348388
0.00336359
0.00311043
0.00274007
0.00230519
0.00145626
0.00334992
0.0055284
0.00604008
0.00748347
0.00870145
0.00974916
0.0100733
0.00959809
0.00903043
0.00818544
0.00754996
0.00745816
0.0074951
0.00740152
0.00720257
0.00693145
0.00657257
0.00613176
0.00565364
0.00519106
0.00477396
0.00440534
0.00410391
0.00388089
0.00372426
0.00361611
0.0035422
0.0034909
0.00347071
0.0035036
0.00357793
0.00366542
0.00372365
0.00373169
0.0036344
0.00347059
0.0029153
0.00147899
0.00339165
0.00345116
0.00351826
0.00372825
0.00352586
0.00338004
0.00309991
0.00268651
0.00224495
0.00195017
0.00172768
0.00156404
0.00143143
0.00133471
0.00126968
0.00122685
0.00119464
0.00116483
0.00113344
0.00110054
0.00106838
0.0010396
0.00101707
0.00100452
0.00100119
0.00100569
0.00101815
0.00103891
0.00106911
0.00111127
0.00116638
0.0012332
0.00131152
0.00140035
0.00149676
0.00162281
0.00165051
0.00160309
0.00148679
0.00136447
)
;

boundaryField
{
    floor
    {
        type            compressible::alphatWallFunction;
        Prt             0.85;
        value           nonuniform List<scalar> 
36
(
0.000199731
9.52207e-05
0.000112581
0.000127676
0.000132118
0.000128456
0.000118524
0.000108102
9.89538e-05
9.11778e-05
8.45628e-05
7.89226e-05
7.41216e-05
6.99921e-05
6.63705e-05
6.30875e-05
6.00487e-05
5.98548e-05
5.54741e-05
5.54734e-05
7.72459e-05
9.3466e-05
0.000106564
0.00014118
0.000138364
0.000150764
0.000199728
0.000255992
0.00021348
0.000173383
9.52196e-05
0.000173382
9.53364e-05
0.000206419
0.000147177
0.000235391
)
;
    }
    ceiling
    {
        type            compressible::alphatWallFunction;
        Prt             0.85;
        value           nonuniform List<scalar> 
43
(
0.00045283
0.000460158
0.000468405
0.000494156
0.000469422
0.000451522
0.000416878
0.000365129
0.0003089
0.000270689
0.00024144
0.000219662
0.000201821
0.000188693
0.000179807
0.000173926
0.000169488
0.000165365
0.000161012
0.000156435
0.000151945
0.000147915
0.000144751
0.000142983
0.000142513
0.000143146
0.000144899
0.000147814
0.000152041
0.000157921
0.000165566
0.00017478
0.000185509
0.000197589
0.000210604
0.000227482
0.000231172
0.000224856
0.000209268
0.000192729
0.000492568
0.000576294
0.000447593
)
;
    }
    sWall
    {
        type            compressible::alphatWallFunction;
        Prt             0.85;
        value           uniform 0.000451512;
    }
    nWall
    {
        type            compressible::alphatWallFunction;
        Prt             0.85;
        value           nonuniform List<scalar> 6(0.000150516 0.000159165 0.000199146 0.000204794 0.000207853 0.000192362);
    }
    sideWalls
    {
        type            empty;
    }
    glass1
    {
        type            compressible::alphatWallFunction;
        Prt             0.85;
        value           nonuniform List<scalar> 9(0.000191479 0.000252394 0.000301884 0.000348151 0.000394491 0.000443442 0.000487995 0.000496449 0.000484602);
    }
    glass2
    {
        type            compressible::alphatWallFunction;
        Prt             0.85;
        value           nonuniform List<scalar> 2(0.000275756 0.00025212);
    }
    sun
    {
        type            compressible::alphatWallFunction;
        Prt             0.85;
        value           nonuniform List<scalar> 
14
(
0.000196797
0.000215095
0.000220747
0.000231745
0.000242014
0.000251825
0.000261677
0.000272197
0.000281634
0.00028916
0.000293328
0.000292222
0.000283046
0.000255488
)
;
    }
    Table_master
    {
        type            compressible::alphatWallFunction;
        Prt             0.85;
        value           nonuniform List<scalar> 9(0.00016458 0.000142301 0.000124365 0.000110116 9.87627e-05 8.96501e-05 8.22819e-05 7.63217e-05 7.1683e-05);
    }
    Table_slave
    {
        type            compressible::alphatWallFunction;
        Prt             0.85;
        value           nonuniform List<scalar> 9(0.000189812 0.000173144 0.000161399 0.00015243 0.000144676 0.000137209 0.000129868 0.00012199 0.0001128);
    }
    inlet
    {
        type            fixedValue;
        value           uniform 1.94e-05;
    }
    outlet
    {
        type            zeroGradient;
    }
}


// ************************************************************************* //
