/*--------------------------------*- C++ -*----------------------------------*\
  =========                 |
  \\      /  F ield         | OpenFOAM: The Open Source CFD Toolbox
   \\    /   O peration     | Website:  https://openfoam.org
    \\  /    A nd           | Version:  6
     \\/     M anipulation  |
\*---------------------------------------------------------------------------*/
FoamFile
{
    version     2.0;
    format      ascii;
    class       volScalarField;
    location    "1600";
    object      T;
}
// * * * * * * * * * * * * * * * * * * * * * * * * * * * * * * * * * * * * * //

dimensions      [0 0 0 1 0 0 0];

internalField   nonuniform List<scalar> 
458
(
303.988
303.702
303.693
303.692
303.691
303.691
303.689
303.688
303.687
303.685
303.682
303.678
303.671
303.664
303.655
303.561
303.551
303.546
303.542
303.539
303.537
303.535
303.533
303.531
303.529
303.526
303.524
303.521
303.518
303.515
303.511
303.506
303.509
304.193
303.734
303.712
303.716
303.72
303.723
303.726
303.727
303.727
303.726
303.721
303.711
303.696
303.675
303.649
303.629
303.614
303.605
303.551
303.539
303.533
303.53
303.528
303.524
303.52
303.515
303.51
303.506
303.501
303.497
303.492
303.489
303.486
303.484
303.482
303.495
304.394
303.779
303.737
303.746
303.758
303.77
303.78
303.788
303.793
303.795
303.79
303.777
303.754
303.722
303.685
303.65
303.619
303.595
303.55
303.538
303.535
303.535
303.535
303.528
303.521
303.513
303.505
303.498
303.491
303.485
303.478
303.473
303.472
303.47
303.47
303.487
304.585
303.837
303.762
303.774
303.794
303.814
303.834
303.851
303.864
303.871
303.868
303.852
303.822
303.78
303.73
303.68
303.632
303.591
303.569
303.549
303.542
303.542
303.544
303.545
303.545
303.544
303.543
303.542
303.54
303.538
303.535
303.531
303.526
303.506
303.486
303.472
303.483
304.761
303.912
303.792
303.795
303.819
303.847
303.875
303.902
303.925
303.939
303.941
303.925
303.889
303.838
303.777
303.715
303.656
303.607
303.573
303.552
303.545
303.548
303.553
303.557
303.559
303.559
303.559
303.558
303.556
303.552
303.548
303.542
303.534
303.519
303.499
303.48
303.479
303.526
303.572
303.578
304.911
304.01
303.852
303.821
303.838
303.865
303.897
303.929
303.96
303.986
303.995
303.981
303.941
303.882
303.814
303.743
303.676
303.619
303.577
303.552
303.547
303.553
303.561
303.567
303.57
303.571
303.571
303.57
303.568
303.563
303.557
303.549
303.539
303.526
303.508
303.489
303.48
303.501
303.515
303.546
305.032
304.173
304.018
303.927
303.896
303.897
303.917
303.945
303.976
304.013
304.028
304.011
303.967
303.903
303.83
303.755
303.685
303.624
303.578
303.551
303.548
303.558
303.569
303.576
303.58
303.582
303.582
303.581
303.578
303.572
303.564
303.553
303.542
303.53
303.515
303.498
303.487
303.492
303.498
303.521
305.236
304.598
304.432
304.272
304.143
304.066
304.032
304.025
304.035
304.054
304.051
304.019
303.962
303.892
303.816
303.742
303.674
303.616
303.572
303.548
303.549
303.563
303.576
303.584
303.589
303.591
303.592
303.59
303.587
303.582
303.575
303.565
303.551
303.539
303.528
303.517
303.511
303.516
303.531
303.658
305.521
305.245
304.949
304.711
304.52
304.376
304.276
304.211
304.171
304.126
304.062
303.987
303.909
303.833
303.761
303.695
303.637
303.589
303.555
303.54
303.55
303.567
303.581
303.59
303.596
303.6
303.602
303.602
303.601
303.599
303.597
303.596
303.599
303.604
303.618
303.64
303.669
303.699
303.723
303.776
297.12
301.527
302.974
303.482
303.696
303.787
303.816
303.815
303.799
303.77
303.734
303.693
303.652
303.611
303.575
303.547
303.53
303.531
303.55
303.569
303.584
303.595
303.602
303.608
303.612
303.616
303.619
303.622
303.624
303.628
303.632
303.64
303.652
303.669
303.69
303.71
303.723
303.733
298.044
301.371
302.453
303.021
303.311
303.452
303.515
303.539
303.55
303.553
303.551
303.543
303.533
303.52
303.507
303.503
303.507
303.526
303.548
303.568
303.583
303.594
303.603
303.611
303.617
303.623
303.628
303.632
303.636
303.64
303.645
303.651
303.66
303.672
303.686
303.7
303.692
303.716
300.322
300.248
300.243
302.123
302.674
303.007
303.252
303.333
303.374
303.394
303.406
303.417
303.427
303.436
303.443
303.45
303.455
303.475
303.5
303.522
303.54
303.555
303.568
303.578
303.588
303.596
303.604
303.611
303.617
303.623
303.629
303.634
303.64
303.645
303.652
303.662
303.671
303.674
303.672
303.709
)
;

boundaryField
{
    floor
    {
        type            wallHeatTransfer;
        Tinf            uniform 305.2;
        alphaWall       uniform 0.24;
        value           nonuniform List<scalar> 
36
(
303.847
303.843
303.847
303.849
303.85
303.85
303.855
303.862
303.869
303.875
303.882
303.888
303.895
303.901
303.908
303.916
303.925
303.933
303.959
303.959
303.893
303.854
303.824
303.798
303.817
303.808
303.847
303.822
303.818
303.819
303.843
303.819
303.801
303.787
303.776
303.767
)
;
    }
    ceiling
    {
        type            wallHeatTransfer;
        Tinf            uniform 303.2;
        alphaWall       uniform 0.24;
        value           nonuniform List<scalar> 
43
(
300.51
300.427
300.413
302.182
302.704
303.018
303.248
303.324
303.361
303.378
303.388
303.397
303.405
303.411
303.416
303.419
303.42
303.433
303.456
303.475
303.491
303.503
303.512
303.521
303.528
303.536
303.543
303.55
303.557
303.563
303.57
303.578
303.585
303.593
303.601
303.612
303.621
303.624
303.62
303.649
305.411
305.163
298.319
)
;
    }
    sWall
    {
        type            wallHeatTransfer;
        Tinf            uniform 315.2;
        alphaWall       uniform 0.36;
        value           uniform 301.736;
    }
    nWall
    {
        type            wallHeatTransfer;
        Tinf            uniform 307.2;
        alphaWall       uniform 0.36;
        value           nonuniform List<scalar> 6(304.297 304.26 304.187 304.245 304.223 304.287);
    }
    sideWalls
    {
        type            empty;
    }
    glass1
    {
        type            wallHeatTransfer;
        Tinf            uniform 315.2;
        alphaWall       uniform 4.3;
        value           nonuniform List<scalar> 9(312.456 311.684 311.164 310.745 310.402 310.109 309.866 309.909 310.108);
    }
    glass2
    {
        type            wallHeatTransfer;
        Tinf            uniform 307.2;
        alphaWall       uniform 4.3;
        value           nonuniform List<scalar> 2(305.917 305.987);
    }
    sun
    {
        type            wallHeatTransfer;
        Tinf            uniform 305.2;
        alphaWall       uniform 0.24;
        value           nonuniform List<scalar> 
14
(
304.163
303.912
303.907
303.901
303.896
303.892
303.888
303.884
303.881
303.877
303.873
303.868
303.862
303.855
)
;
    }
    Table_master
    {
        type            zeroGradient;
    }
    Table_slave
    {
        type            zeroGradient;
    }
    inlet
    {
        type            fixedValue;
        value           uniform 292.15;
    }
    outlet
    {
        type            zeroGradient;
    }
}


// ************************************************************************* //
