/*--------------------------------*- C++ -*----------------------------------*\
  =========                 |
  \\      /  F ield         | OpenFOAM: The Open Source CFD Toolbox
   \\    /   O peration     | Website:  https://openfoam.org
    \\  /    A nd           | Version:  6
     \\/     M anipulation  |
\*---------------------------------------------------------------------------*/
FoamFile
{
    version     2.0;
    format      ascii;
    class       volScalarField;
    location    "1300";
    object      nut;
}
// * * * * * * * * * * * * * * * * * * * * * * * * * * * * * * * * * * * * * //

dimensions      [0 2 -1 0 0 0 0];

internalField   nonuniform List<scalar> 
458
(
0.000842305
0.000901547
0.000901345
0.000938474
0.000971931
0.00100181
0.00102922
0.00105536
0.00108167
0.00110483
0.00112058
0.00112661
0.00112254
0.00111232
0.00110034
0.000271124
0.000276646
0.00026824
0.000245452
0.00023745
0.00022895
0.00022477
0.000220675
0.000208242
0.000189838
0.000174454
0.000165092
0.00015939
0.000158158
0.000165939
0.000190407
0.000210789
0.000199844
0.00121481
0.00251334
0.00227334
0.00263758
0.00292507
0.00322011
0.0035089
0.00376983
0.0039667
0.00411363
0.00420551
0.00418953
0.0039806
0.00343989
0.00237967
0.00114387
0.00100192
0.000841235
0.000490686
0.000679918
0.000767816
0.000852118
0.000913051
0.000863506
0.000846619
0.00081305
0.000738198
0.000603232
0.00044513
0.000322701
0.000252641
0.000228217
0.000315768
0.000496619
0.000765732
0.000317988
0.00154003
0.00353617
0.00269249
0.0036973
0.00408938
0.00436942
0.00458149
0.00474316
0.00486963
0.00498851
0.00511496
0.00522786
0.00529872
0.00530158
0.00518139
0.00474262
0.00362543
0.00111275
0.00076401
0.00111813
0.00126312
0.0013013
0.00125685
0.000481877
0.000430478
0.000392636
0.000361878
0.000334659
0.000309117
0.000283417
0.000254861
0.000227432
0.000462456
0.000910317
0.000988462
0.000364385
0.00186563
0.00487109
0.00267284
0.00403203
0.00456553
0.00475548
0.00482092
0.00483045
0.00484238
0.00489335
0.00500039
0.00514845
0.00532225
0.005515
0.00568934
0.0057098
0.00536298
0.00426442
0.00104034
0.00165052
0.00208633
0.00222248
0.00219358
0.00195548
0.000596397
0.000539107
0.000498114
0.000469423
0.000450208
0.000437127
0.000428535
0.000423596
0.000420466
0.000634074
0.001067
0.00145471
0.000599196
0.00220155
0.0066372
0.00315972
0.00379277
0.00464916
0.00485996
0.00484782
0.00473902
0.00464373
0.00463699
0.00473158
0.00488571
0.00508282
0.00531791
0.0055547
0.0057003
0.00563621
0.0052798
0.00436282
0.0039584
0.00366423
0.00341072
0.00321406
0.00302515
0.00261302
0.00242827
0.00235909
0.00236278
0.00239425
0.00240288
0.00233261
0.00216853
0.00196566
0.00189623
0.00195539
0.00204713
0.00186029
0.000880727
0.000860952
0.000789174
0.00255471
0.00857461
0.00498454
0.00366455
0.0041637
0.00456013
0.00472929
0.00470595
0.00451748
0.00448435
0.0045778
0.00472485
0.00491739
0.0051519
0.00539059
0.00555713
0.00557245
0.00540302
0.00501479
0.00460059
0.0042315
0.00394466
0.00377024
0.0036803
0.00358139
0.00349533
0.00341328
0.00334011
0.00329011
0.00325951
0.00323749
0.00321667
0.0032001
0.00322937
0.00330757
0.00339689
0.00343914
0.00336596
0.00301492
0.00101554
0.00288801
0.0100808
0.00788884
0.00539511
0.00445739
0.00420072
0.00431078
0.00453232
0.00452085
0.00453005
0.00458013
0.0046874
0.00486092
0.00508964
0.00533135
0.00551193
0.00555198
0.00541319
0.00510761
0.00473471
0.00439291
0.00415305
0.00403009
0.00396231
0.0038794
0.00375842
0.00363518
0.0035691
0.00357471
0.0036237
0.0036912
0.00378235
0.00391795
0.00410519
0.00432391
0.00449775
0.00441296
0.00396961
0.00350959
0.00112597
0.00295982
0.0094367
0.00836129
0.00765069
0.0066288
0.00572075
0.00521647
0.00505483
0.00485424
0.00469798
0.00465365
0.00472647
0.00489807
0.00513713
0.00539063
0.00557896
0.00561349
0.00545355
0.00513305
0.00474895
0.00439375
0.00411519
0.00388987
0.00374702
0.00366511
0.00361565
0.00359259
0.00359723
0.00361405
0.00361155
0.00356189
0.00345176
0.00327829
0.00304542
0.00276372
0.00245102
0.00214011
0.00189677
0.00175291
0.00113866
0.00288717
0.00343938
0.00383415
0.00412089
0.00437553
0.0044474
0.00441198
0.00436208
0.0043572
0.0044318
0.00457318
0.00477056
0.00501601
0.00529037
0.0055499
0.00572078
0.00570675
0.00547345
0.00508043
0.00461573
0.00415109
0.00374386
0.00349409
0.00339314
0.00340995
0.00350828
0.00364523
0.00377673
0.00386928
0.0039038
0.0038706
0.00376387
0.00358012
0.00332185
0.00300384
0.00265748
0.00233344
0.00209296
0.00193196
0.00130008
0.00155857
0.00358765
0.00409928
0.00437594
0.00455775
0.00471293
0.00485581
0.00497379
0.0050774
0.00520599
0.00537634
0.00557636
0.00576376
0.0058594
0.00573296
0.00533532
0.00486285
0.00445029
0.00411909
0.00389033
0.0037441
0.00366676
0.00365287
0.00370146
0.0038072
0.00395407
0.00411659
0.00426617
0.00437617
0.00442627
0.00441319
0.00435712
0.00428918
0.00421201
0.00401919
0.003711
0.00346828
0.0013418
0.00176379
0.00411073
0.00465564
0.00484102
0.00500312
0.00515704
0.00531398
0.00535906
0.00528941
0.00536279
0.00553396
0.00576998
0.00601272
0.00616839
0.00606399
0.00569712
0.00529337
0.00498222
0.00476831
0.00462397
0.00451932
0.00443916
0.00438095
0.00434911
0.00434881
0.00438107
0.00444018
0.00451237
0.00457645
0.00461496
0.0046121
0.00457679
0.00452484
0.00444699
0.00418892
0.00359535
0.00315522
0.00137125
0.0018054
0.00173532
0.00177943
0.00194266
0.00196814
0.00194316
0.00186361
0.0017147
0.00151183
0.00136051
0.00130191
0.00130631
0.00133297
0.00135852
0.00136912
0.00135485
0.00131688
0.00127481
0.00123957
0.00121413
0.00119802
0.0011875
0.00118036
0.0011753
0.00117191
0.00117027
0.00117068
0.00117333
0.00117782
0.00118288
0.00118656
0.00118836
0.00118921
0.00118773
0.00117867
0.00115245
0.00110401
0.00104794
0.00103978
0.001206
)
;

boundaryField
{
    floor
    {
        type            nutkWallFunction;
        Cmu             0.09;
        kappa           0.41;
        E               9.8;
        value           nonuniform List<scalar> 
36
(
0.000132486
2.939e-05
3.0155e-05
2.89905e-05
2.5814e-05
2.46894e-05
2.34889e-05
2.28957e-05
2.23134e-05
2.05367e-05
1.78824e-05
1.56386e-05
1.42595e-05
1.34139e-05
1.32321e-05
1.43862e-05
1.79646e-05
2.09045e-05
1.93376e-05
1.93375e-05
3.58013e-05
4.20319e-05
7.2243e-05
0.000106618
0.000104247
9.55997e-05
0.000132486
0.000137543
0.000120964
0.000101864
2.939e-05
0.000101864
5.85088e-05
0.000133931
9.25355e-05
0.000125475
)
;
    }
    ceiling
    {
        type            nutkWallFunction;
        Cmu             0.09;
        kappa           0.41;
        E               9.8;
        value           nonuniform List<scalar> 
43
(
0.000212163
0.000204372
0.000209218
0.000227186
0.000229987
0.00022727
0.00021856
0.000202134
0.0001795
0.000162398
0.000155719
0.000156223
0.000159268
0.000162179
0.000163386
0.000161765
0.000157439
0.00015263
0.000148587
0.000145661
0.000143805
0.000142591
0.000141766
0.000141183
0.000140792
0.000140602
0.000140649
0.000140955
0.000141474
0.000142058
0.000142482
0.00014269
0.000142789
0.000142618
0.000141571
0.000138537
0.000132916
0.000126371
0.000125417
0.00014473
0.000328418
0.000385832
0.000207399
)
;
    }
    sWall
    {
        type            nutkWallFunction;
        Cmu             0.09;
        kappa           0.41;
        E               9.8;
        value           uniform 0.000212215;
    }
    nWall
    {
        type            nutkWallFunction;
        Cmu             0.09;
        kappa           0.41;
        E               9.8;
        value           nonuniform List<scalar> 6(9.55998e-05 0.000122577 0.000135464 0.000160305 0.000163657 0.000144739);
    }
    sideWalls
    {
        type            empty;
    }
    glass1
    {
        type            nutkWallFunction;
        Cmu             0.09;
        kappa           0.41;
        E               9.8;
        value           nonuniform List<scalar> 9(0.000102008 0.000145872 0.000182895 0.000219096 0.00025573 0.000293604 0.000328844 0.000336387 0.000328776);
    }
    glass2
    {
        type            nutkWallFunction;
        Cmu             0.09;
        kappa           0.41;
        E               9.8;
        value           nonuniform List<scalar> 2(0.000136971 0.000155571);
    }
    sun
    {
        type            nutkWallFunction;
        Cmu             0.09;
        kappa           0.41;
        E               9.8;
        value           nonuniform List<scalar> 
14
(
0.000101992
0.000109078
0.000109054
0.000113468
0.000117427
0.000120951
0.000124172
0.000127235
0.000130309
0.000133009
0.00013484
0.00013554
0.000135068
0.000133879
)
;
    }
    Table_master
    {
        type            nutkWallFunction;
        Cmu             0.09;
        kappa           0.41;
        E               9.8;
        value           nonuniform List<scalar> 9(5.73733e-05 5.07253e-05 4.57667e-05 4.16912e-05 3.80472e-05 3.45924e-05 3.10775e-05 2.71207e-05 2.32672e-05);
    }
    Table_slave
    {
        type            nutkWallFunction;
        Cmu             0.09;
        kappa           0.41;
        E               9.8;
        value           nonuniform List<scalar> 9(7.18815e-05 6.46663e-05 5.94445e-05 5.57566e-05 5.32696e-05 5.15691e-05 5.04543e-05 4.98145e-05 4.94112e-05);
    }
    inlet
    {
        type            calculated;
        value           uniform 0.000167705;
    }
    outlet
    {
        type            calculated;
        value           nonuniform List<scalar> 2(0.0018054 0.00173532);
    }
}


// ************************************************************************* //
