/*--------------------------------*- C++ -*----------------------------------*=========                 |
  \      /  F ield         | OpenFOAM: The Open Source CFD Toolbox
   \    /   O peration     | Website:  https://openfoam.org
    \  /    A nd           | Version:  6
     \/     M anipulation  |
\*---------------------------------------------------------------------------*/
FoamFile
{
    version     2.0;
    format      ascii;
    class       volScalarField;
    location    "1300";
    object      PMV;
}
// * * * * * * * * * * * * * * * * * * * * * * * * * * * * * * * * * * * * * //

dimensions      [0 0 0 0 0 0 0];

internalField   nonuniform List<scalar> 
458
(
2.4465521012796465
2.302409939963414
2.2931188199186057
2.2826648523273385
2.2746492142328463
2.2686471099714836
2.263954815135448
2.261098392758895
2.260303357899027
2.260806646459598
2.263672974967334
2.2688271136363816
2.2779383994228763
2.2888258294163144
2.2849205163694113
2.123017153421804
2.1282766108353472
2.1163224699012084
2.0857066985584054
2.068477313312284
2.0584242703925826
2.0541152556386804
2.051721212904343
2.0474116756360994
2.0431018059612747
2.039749457026059
2.036875857298038
2.032565186433451
2.025380018142044
2.0172357575411923
2.0095695476890936
2.0019023600828576
1.9985476616656954
2.476912051352176
2.318950912057675
2.317167889606724
2.3084574712986172
2.303577614342018
2.300169950067738
2.297471077103382
2.295438644491486
2.294796379288611
2.294149625670843
2.2926064527703853
2.290456328392729
2.288395194631936
2.2841171359160777
2.276834341900519
2.2868871288721437
2.3172164012678946
2.3285984031526477
2.208340123690034
2.2366743251642056
2.2319050574334476
2.2180708904557647
2.19898144614178
2.1794056552959744
2.1617320644973494
2.142139661099461
2.1215826561762676
2.1048437423792827
2.093840820142297
2.0857066985584054
2.0756569070692894
2.061775491785667
2.0478905295752394
2.0349600436472306
2.0186730618765534
1.9926750855349538
2.547293437084991
2.32758579205198
2.338104925666703
2.3338354347782664
2.334911179554132
2.336575438335325
2.3379076822909606
2.3395268265549567
2.3401702639320945
2.339522620708396
2.3348239137714333
2.3260187885429087
2.3136665722718774
2.3005031805186693
2.291357772537898
2.29659764093732
2.3098471286829576
2.320355562842331
2.3012435453470146
2.309566982352122
2.3005231967521804
2.2857623619090974
2.2700423365222853
2.2538387561316124
2.2385818671218667
2.2235893950005847
2.2086835278382377
2.195379317848614
2.1813158849514513
2.1617320644973494
2.135925695065515
2.1043654044435316
2.0924054804850707
2.061775491785667
2.0287332076143527
1.9424307578423103
2.630152149632763
2.340887687832771
2.354432922460428
2.3565061209043865
2.365080316588935
2.3738234045613154
2.382204090863024
2.388979865876141
2.39358667066235
2.393608463196236
2.3846859644005614
2.366779453432387
2.3423421790653656
2.3178161115383347
2.301002980323333
2.29698155956325
2.3022563934628644
2.3118376978451667
2.3252687136367
2.3173728131926765
2.3214629304325096
2.3176566986072973
2.311470624073293
2.3010428568255685
2.298459330142068
2.298860745814058
2.3002549097319656
2.3018202220010284
2.30469352675423
2.309885616561011
2.317160147022951
2.3261939922343404
2.3326250469013203
2.2690893845030002
2.19516249309987
2.139749771948849
2.1081919795232187
2.7154622311220167
2.365213411063838
2.3708791022429594
2.3750822745717546
2.3909907675181477
2.4081419306575857
2.4251393514443875
2.440539958720992
2.4515918767219564
2.451314896407353
2.434101779725533
2.402930783866389
2.3655111366794817
2.329873817468726
2.303608508287529
2.291688152586474
2.292696369050606
2.301979397979802
2.31750302503663
2.3231306753701197
2.3247930153906378
2.32336587833237
2.3214629304325096
2.319084087891604
2.3195598703779794
2.3219386779391615
2.326220088927194
2.331927744096326
2.3390608611109522
2.3461923423691866
2.3509457423601736
2.3528468940945895
2.3449789639202323
2.3134809840764423
2.2656238065194936
2.2096586290664217
2.171364123474918
2.155480847860432
2.1516635398692805
2.164320979300149
2.7933458545057026
2.4054521101012245
2.4050948882632954
2.398033422892392
2.4125950750367964
2.4352660444404215
2.4637466111998814
2.488908371012596
2.505921580310624
2.4962034638836785
2.462768151506587
2.42017625977294
2.373470454348443
2.3311505577866223
2.3002662391646953
2.284703369762595
2.28422547417262
2.294710202061602
2.3116625138677667
2.3266957659577283
2.3281227545069867
2.3281227545069867
2.3281227545069867
2.3290740446846305
2.3314521453938197
2.3362078092379606
2.3428645228920613
2.3499951217467836
2.357124047036615
2.361875721679378
2.363776178427289
2.3623508473249846
2.356648837921126
2.344766178148712
2.3211518778823432
2.2857595354769558
2.2573986126302095
2.2423817504371737
2.214577050050494
2.18032235984841
2.8627948265984093
2.483574519684399
2.5041052443706824
2.4596249803061605
2.4454784627510393
2.452571360187387
2.472064932272663
2.494108056230478
2.4986650210391597
2.485468047680988
2.4557687556089465
2.4121049903133587
2.363650633585916
2.319447729359916
2.288781765772208
2.2751187983214547
2.2775608638503226
2.2922462383805993
2.3147033647078463
2.3290740446846305
2.3324033356358784
2.334305630023616
2.3362078092379606
2.339536344353896
2.344766178148712
2.3514210414914714
2.3590248079210188
2.3652014406162913
2.3690018012905547
2.3694768116160554
2.3666266336836905
2.3623508473249846
2.3556983970697147
2.3476184401797373
2.338109872822735
2.3295496790959547
2.3219386779391615
2.3105188169204616
2.255102835332166
2.1693442706850843
2.9730270119758875
2.7062870050632166
2.6556440426261436
2.5847598040122333
2.539298500571772
2.513561976426575
2.501306622768009
2.497590825963727
2.491246817671041
2.4693260738233374
2.4298654072577213
2.3792766868278523
2.3294530213517364
2.289587126203144
2.266994040774539
2.2625377523203354
2.274847986660197
2.29896942459887
2.3266957659577283
2.3338300672064496
2.3390608611109522
2.3428645228920613
2.3471430816339973
2.351896333162622
2.3580744426094924
2.3647263608898617
2.3704268090087037
2.3732766145545954
2.3732766145545954
2.360663294398486
2.3438100546808425
2.3255086222247456
2.3075360828986704
2.2891951081850634
2.2712246444835813
2.254195862245916
2.239181922604588
2.225912100936138
2.2064237688415997
2.1644349378251095
3.0
2.9864917956190116
2.859250136487753
2.746600541230744
2.6583437551761957
2.5948895467784148
2.550840704667034
2.519259508606003
2.4827327690113705
2.424818864371052
2.3610681156709488
2.3048946727204913
2.2631402033296872
2.2416874990320035
2.2398241805298653
2.2557856147171
2.285705592987738
2.3205114143971146
2.3324033356358784
2.341913651268162
2.348093791324504
2.353322163340494
2.3580744426094924
2.3633010757066226
2.368526783222714
2.3732766145545954
2.376601032073277
2.378500526289566
2.374117986712624
2.3658559268979626
2.356485534131396
2.3471879908463524
2.340248030474486
2.3359931331253625
2.335619698428299
2.3382583254605285
2.344178818160207
2.349308042408785
2.341907843139
2.3138514565911827
-0.9352673291447321
0.8836077411387526
1.5531757933195531
1.8764369744819034
2.0301530859565244
2.097070984636804
2.120674070983797
2.1341494455192542
2.1417606439047985
2.1509290635268616
2.1674406206131827
2.192991349778135
2.2289941941500753
2.274724799465349
2.308615120421633
2.3295496790959547
2.3423890907403546
2.3509457423601736
2.357124047036615
2.361875721679378
2.3666266336836905
2.3709017960601515
2.3747014119570014
2.378500526289566
2.3808747162323094
2.381824336678692
2.3813495304300534
2.3803998940935203
2.378975380111751
2.378975380111751
2.379268515719238
2.3816113311426728
2.386579339394046
2.3952018992588227
2.404652107902672
2.4102978521885383
2.3727029038872494
2.342838672242933
-0.1880561338172616
1.0168431605630508
1.5200815306581286
1.7802285344554092
1.9220043941454934
1.9941942226732319
2.02834823476865
2.0514664649747503
2.0801082265075204
2.119349815968076
2.165335553901419
2.214551207127315
2.2595308441930557
2.2935380577674924
2.3099599924246137
2.318886441723068
2.324355054772147
2.328663211869119
2.3329183500306656
2.337211820531936
2.3419977736023934
2.3477913162849693
2.3541558841217114
2.3606577902725747
2.3682959589796497
2.375766459210453
2.3832487076488715
2.3827739252961946
2.382299134970086
2.382299134970086
2.3832487076488715
2.385622499525676
2.3879134605663994
2.372571313077891
2.356696755684994
2.3444314027242026
2.326763454195333
2.34664922296428
1.8351113567849147
1.1494813910284454
0.8341753279269367
1.4585251769739196
1.682377858632561
1.8422537871331341
1.9540588779271304
2.019122808984035
2.0389398425504184
2.0480226161861776
2.080135584730793
2.1323664330699086
2.171029850609784
2.1984092504912547
2.2188034748346768
2.234001669841741
2.243227973153446
2.249386087162538
2.2537768092190054
2.257244865793987
2.26041127652939
2.2634728579496057
2.2669128909752434
2.270675299072261
2.2741780555418116
2.277365160006566
2.2801697078511163
2.283028982262353
2.284767936296215
2.285932188800631
2.287473328310046
2.289305857828365
2.291010348145886
2.292569676169521
2.293403188851375
2.2926664766565388
2.2913939522174562
2.2976035205952385
2.299131251616684
2.272695062794445
)
;

boundaryField
{
    ".*"
    {
        type            zeroGradient;
    }
}


// ************************************************************************* //
