/*--------------------------------*- C++ -*----------------------------------*=========                 |
  \      /  F ield         | OpenFOAM: The Open Source CFD Toolbox
   \    /   O peration     | Website:  https://openfoam.org
    \  /    A nd           | Version:  6
     \/     M anipulation  |
\*---------------------------------------------------------------------------*/
FoamFile
{
    version     2.0;
    format      ascii;
    class       volScalarField;
    location    "1300";
    object      PPD;
}
// * * * * * * * * * * * * * * * * * * * * * * * * * * * * * * * * * * * * * //

dimensions      [0 0 0 0 0 0 0];

internalField   nonuniform List<scalar> 
458
(
92.23686793740754
88.32597364854658
88.03753078350928
87.7076921045203
87.4509916515174
87.2566201238694
87.1033816617039
87.00954702852641
86.98335565378702
86.99993958149702
87.09414163804159
87.26247616023637
87.55672591769108
87.90275864934821
87.77933594648643
81.98491393421384
82.193412717003
81.71762752065092
80.46866083536162
79.74694271037087
79.31970127436679
79.13520835523542
79.03235460468983
78.84657708922506
78.65997973301073
78.51428469673306
78.38901250920361
78.20043128163665
77.8843469423805
77.52345050880294
77.1812240918825
76.8365463140646
76.68498667622822
92.92815670295296
88.8285221504902
88.77502559063186
88.51133868866908
88.361910698885
88.25683846677246
88.17319821463032
88.10996472836818
88.0899383547682
88.06975063853285
88.02149545883506
87.95405712549366
87.88918732773942
87.75384908462233
87.52129663127364
87.84158612534857
88.77648325970873
89.11514977782161
85.2018205514078
86.1902182983534
86.02668918717777
85.54583032036926
84.86648364101357
84.15093450170744
83.4886559937176
82.73666651653576
81.92781935346343
81.25444334463492
80.80471156247893
80.46866083536162
80.04931163011997
79.46262101567505
78.86725960770102
78.3052981013513
77.58734263710161
76.4185857217607
94.36200492983582
89.08528928291291
89.3929208119853
89.26874353829461
89.30011937194678
89.34854333766748
89.38720460305964
89.43406923418416
89.45265565565717
89.43394767377463
89.29757633462486
89.03897687463927
88.66949973145655
88.26713961804752
87.98235966217453
88.14604965393109
88.55366830969452
88.87055142556473
88.29000611331402
88.54514289762774
88.26775819831514
87.8060075863682
87.30196747864082
86.76918993608376
86.25530124698157
85.73880601889104
85.21404183607977
84.73624658486125
84.22159547332687
83.4886559937176
82.49429508478212
81.23500831715486
80.74563235987668
79.46262101567505
78.03212912507087
74.08472826327298
95.76500718562116
89.47335426663652
89.85920991539618
89.91744051266741
90.15593778079253
90.39527666540184
90.62104864388178
90.8009822854266
90.92199206895503
90.92256195994345
90.6872256274344
90.20275559859267
89.51523736155502
88.79449326354433
88.28257924183531
88.15798761878176
88.32124280224463
88.61412929395115
89.01676402327949
88.78118227271082
88.90361417013249
88.78970770701363
88.60299519416446
88.28381053914079
88.20386835676216
88.21631185894844
88.25946536577399
88.30779753469645
88.39618928862161
88.55483925789761
88.77479293178544
89.04416123039492
89.23336971607137
87.27100561787177
84.72838651075975
82.64366975168706
81.39018539079183
96.91769091035782
90.15961035838791
90.3151117391858
90.42941763151825
90.85393573123203
91.29729520591265
91.72212343346641
92.09462845327921
92.35473368952609
92.34828826844861
91.94033269600166
91.16415210749132
90.16782246206347
89.15268515613947
88.36286055921708
87.99272212665352
88.02431050278668
88.31270536882948
88.7850932108093
88.95328940698585
89.00266165658103
88.96028365100734
88.90361417013249
88.83251131730147
88.84675553597674
88.91779927178003
89.0449333085138
89.21295681490065
89.42059605569663
89.62558287007364
89.76076917747622
89.81451442983666
89.59088935222097
88.6638887474658
87.15801569850865
85.24871209794244
83.85149805284404
83.25074613549447
83.10453211651672
83.58662731627368
97.74295314961059
91.22874146823624
91.21960985990782
91.0377816951449
91.40999206533124
91.9683869299599
92.63388700250174
93.18902916630718
93.54724926628167
93.34430928340325
92.61168154017844
91.59956862328673
90.38569008726407
89.19017602653305
88.25981563666113
87.77245033740454
87.75728799454778
88.08724966509254
88.60881646764778
89.05900022861806
89.1011301085493
89.1011301085493
89.1011301085493
89.12915763648468
89.19901980132333
89.337858859824
89.53025218964768
89.73382601574123
89.93475395608208
90.06723844014219
90.1199039539639
90.0804223957576
89.92144097882523
89.58479751312015
88.89433340894547
87.80591809917388
86.88738825513934
86.38439782145059
85.422861254445
84.18486666208541
98.32143913731544
93.07389010018234
93.50965780794445
92.54003435799522
92.21159750732065
92.37749644762219
92.82079000166394
93.29996624150398
93.3961349782224
93.11492036979192
92.45147575762229
91.39763801739909
90.11643053011134
88.84339924728076
87.90137043413027
87.46612082580472
87.54461779937103
88.0102139272445
88.70081308922096
89.12915763648468
89.22688202417098
89.28246483736902
89.337858859824
89.43434432112662
89.58479751312015
89.77422312230257
89.98788850755778
90.15928008560658
90.26376804945878
90.27677640175207
90.1985508382731
90.0804223957576
89.8947798059825
89.66626229216874
89.39306415735554
89.14315368540312
88.91779927178003
88.57409271451668
86.81123532689358
83.77578642495035
98.98928008620662
96.80683643162367
96.13886923071702
95.033078908884
94.21068404627323
93.70368206931994
93.45143254108055
93.37355412467765
93.23907992203912
92.75962107172725
91.83768603110116
90.5425907005768
89.14031036748621
87.9267274089629
87.20276353134257
87.0568826844799
87.45739712820485
88.21967937478495
89.05900022861806
89.26858683570528
89.42059605569663
89.53025218964768
89.65271425315629
89.78766531167409
89.96134470014098
90.1461664195378
90.30275803135795
90.38042245791571
90.38042245791571
90.03354341680472
89.55739608235348
89.02387185767165
88.4832181096443
87.91438877936181
87.34031663067704
86.78107614297019
86.27573619568767
85.81956865482077
85.13351149696081
83.59093227931088
100.0
99.0530970385143
98.29514497317567
97.27185036076914
96.17695070501853
95.20396866426067
94.42821832693332
93.81856089954647
93.05559535804866
91.71424661254369
90.04480229272984
88.40236128958917
87.07666383013277
86.36086622209511
86.29758809261412
86.83391180955708
87.80421015654895
88.87520849988402
89.22688202417098
89.50290885648369
89.67979856460474
89.82792136155113
89.96134470014098
90.10675515094704
90.25074800299633
90.38042245791571
90.47049969114859
90.52171577158933
90.40327304589745
90.17732709697898
89.91686336400856
89.65399469030935
89.45490059486349
89.3316164829037
89.32075207934247
89.3973650350776
89.56796997351925
89.7143235684907
89.50274169528915
88.6750876769737
23.47312377685735
21.482036167470397
53.78645567189899
70.88278486636793
78.09456327179832
80.93732026888915
81.89160637523659
82.42467382586233
82.72193628754457
83.07631848519986
83.70424726801969
84.64955164563433
85.92631483468182
87.45342763743331
88.51614574048982
89.14315368540312
89.51658641337245
89.76076917747622
89.93475395608208
90.06723844014219
90.1985508382731
90.31573131246269
90.41909700748757
90.52171577158933
90.58547366454614
90.61089530062326
90.59819030336529
90.57274538199823
90.53449065048896
90.53449065048896
90.54237109683324
90.60519705279444
90.73750106285524
90.96416656373452
91.20828223526931
91.35197975453102
90.36482058235251
89.52950943849072
5.733211658921164
26.831852916908957
51.984345670151185
65.98389510234827
73.10935300655942
76.48763136492762
78.01518662747122
79.0213952976308
80.23561616167784
81.83875651898097
83.6249321264204
85.4219493986372
86.957875285048
88.05064146244747
88.55710184019969
88.82659067049019
88.98966778219547
89.11705910652992
89.24194845040702
89.3670222742859
89.50532975051956
89.67118651216752
89.85141202567766
90.0333902786487
90.24441706124075
90.44793917607569
90.64894046486766
90.63627037917855
90.62358865849718
90.62358865849718
90.64894046486766
90.71211644625727
90.77281748845549
90.3612396541432
89.92278391691998
89.57520854530881
89.06100099032525
89.63862670779008
68.80844262304628
32.81312577031849
19.67903764985465
48.64621224389932
60.79671029648476
69.17041277263996
74.63330521444873
77.6073175033059
78.47902601058956
78.87296290305768
80.23675844142028
82.35463593450878
83.83898209152323
84.84583882981593
85.57153635507282
86.09872008538053
86.41304734265394
86.62043783703525
86.76712738333974
86.88229674184646
86.98691278444352
87.08757841234491
87.20011609158757
87.32250704800205
87.43580039753142
87.53833841706374
87.62813811689507
87.71927516476293
87.77449796209696
87.81138369533106
87.86010302129455
87.91787538447483
87.97145655636925
88.02034395995929
88.0464247378459
88.0233746960111
87.9834947211878
88.17731146802966
88.22469261595008
87.38791106444843
)
;

boundaryField
{
    ".*"
    {
        type            zeroGradient;
    }
}


// ************************************************************************* //
