/*--------------------------------*- C++ -*----------------------------------*\
  =========                 |
  \\      /  F ield         | OpenFOAM: The Open Source CFD Toolbox
   \\    /   O peration     | Website:  https://openfoam.org
    \\  /    A nd           | Version:  6
     \\/     M anipulation  |
\*---------------------------------------------------------------------------*/
FoamFile
{
    version     2.0;
    format      ascii;
    class       volScalarField;
    location    "1300";
    object      T;
}
// * * * * * * * * * * * * * * * * * * * * * * * * * * * * * * * * * * * * * //

dimensions      [0 0 0 1 0 0 0];

internalField   nonuniform List<scalar> 
458
(
305.089
304.855
304.847
304.846
304.845
304.844
304.842
304.84
304.838
304.834
304.829
304.821
304.811
304.801
304.792
304.331
304.342
304.317
304.253
304.217
304.196
304.187
304.182
304.173
304.164
304.157
304.151
304.142
304.127
304.11
304.094
304.078
304.071
305.255
304.893
304.876
304.88
304.885
304.889
304.891
304.891
304.89
304.885
304.874
304.857
304.836
304.812
304.789
304.774
304.766
304.762
304.536
304.569
304.559
304.53
304.49
304.449
304.412
304.371
304.328
304.293
304.27
304.253
304.232
304.203
304.174
304.147
304.113
304.082
305.424
304.936
304.903
304.912
304.925
304.937
304.946
304.953
304.955
304.951
304.936
304.91
304.875
304.838
304.805
304.781
304.767
304.76
304.735
304.722
304.703
304.672
304.639
304.605
304.573
304.542
304.513
304.485
304.453
304.412
304.358
304.292
304.267
304.203
304.134
304.093
305.588
304.989
304.928
304.94
304.96
304.981
305.001
305.017
305.027
305.026
305.007
304.97
304.919
304.865
304.819
304.786
304.767
304.758
304.755
304.752
304.747
304.739
304.726
304.71
304.711
304.713
304.718
304.725
304.735
304.749
304.765
304.78
304.782
304.637
304.482
304.366
304.3
305.743
305.056
304.958
304.961
304.985
305.013
305.042
305.07
305.092
305.097
305.075
305.025
304.958
304.888
304.828
304.787
304.765
304.756
304.755
304.755
304.754
304.751
304.747
304.742
304.743
304.748
304.757
304.769
304.784
304.799
304.809
304.813
304.805
304.753
304.671
304.584
304.505
304.517
304.525
304.542
305.878
305.144
305.018
304.993
305.008
305.034
305.065
305.1
305.136
305.15
305.124
305.061
304.979
304.897
304.829
304.783
304.76
304.753
304.754
304.758
304.761
304.761
304.761
304.763
304.768
304.778
304.792
304.807
304.822
304.832
304.836
304.833
304.821
304.796
304.76
304.72
304.686
304.67
304.636
304.593
305.995
305.288
305.165
305.108
305.087
305.087
305.105
305.133
305.17
305.177
305.14
305.066
304.975
304.885
304.814
304.769
304.749
304.747
304.755
304.763
304.77
304.774
304.778
304.785
304.796
304.81
304.826
304.839
304.847
304.848
304.842
304.833
304.819
304.802
304.782
304.764
304.748
304.724
304.676
304.625
306.178
305.649
305.522
305.412
305.322
305.266
305.24
305.237
305.236
305.201
305.128
305.029
304.926
304.836
304.773
304.739
304.732
304.742
304.758
304.773
304.784
304.792
304.801
304.811
304.824
304.838
304.85
304.856
304.856
304.85
304.84
304.828
304.817
304.805
304.793
304.781
304.769
304.757
304.745
304.747
306.435
306.197
305.977
305.782
305.622
305.5
305.412
305.348
305.273
305.156
305.025
304.904
304.805
304.739
304.705
304.7
304.717
304.745
304.77
304.79
304.803
304.814
304.824
304.835
304.846
304.856
304.863
304.867
304.865
304.861
304.857
304.855
304.859
304.869
304.887
304.91
304.936
304.96
304.98
305.007
298.906
302.096
303.533
304.139
304.419
304.536
304.571
304.585
304.584
304.581
304.586
304.602
304.632
304.674
304.72
304.764
304.791
304.809
304.822
304.832
304.842
304.851
304.859
304.867
304.872
304.874
304.873
304.871
304.868
304.868
304.871
304.88
304.892
304.908
304.925
304.934
304.929
304.935
299.888
302.153
303.169
303.753
304.061
304.214
304.285
304.331
304.378
304.437
304.501
304.568
304.634
304.701
304.751
304.785
304.807
304.822
304.833
304.842
304.85
304.858
304.865
304.87
304.875
304.877
304.877
304.876
304.875
304.875
304.877
304.882
304.889
304.897
304.903
304.904
304.906
304.921
304.282
302.937
302.255
303.264
303.645
303.906
304.084
304.196
304.253
304.291
304.369
304.499
304.592
304.659
304.71
304.749
304.775
304.793
304.806
304.816
304.824
304.831
304.838
304.845
304.851
304.856
304.86
304.864
304.866
304.867
304.868
304.869
304.87
304.872
304.875
304.878
304.879
304.881
304.895
304.954
)
;

boundaryField
{
    floor
    {
        type            wallHeatTransfer;
        Tinf            uniform 305.2;
        alphaWall       uniform 0.24;
        value           nonuniform List<scalar> 
36
(
304.834
304.564
304.569
304.554
304.521
304.5
304.491
304.488
304.487
304.49
304.499
304.509
304.515
304.516
304.508
304.487
304.452
304.423
304.427
304.427
304.355
304.342
304.446
304.601
304.61
304.63
304.834
304.818
304.814
304.818
304.564
304.818
304.659
304.806
304.798
304.804
)
;
    }
    ceiling
    {
        type            wallHeatTransfer;
        Tinf            uniform 303.2;
        alphaWall       uniform 0.24;
        value           nonuniform List<scalar> 
43
(
304.205
302.956
302.322
303.259
303.616
303.859
304.023
304.123
304.167
304.194
304.262
304.38
304.466
304.529
304.577
304.611
304.632
304.645
304.653
304.659
304.665
304.671
304.676
304.681
304.686
304.691
304.695
304.698
304.701
304.702
304.704
304.704
304.706
304.708
304.709
304.709
304.704
304.699
304.711
304.783
306.278
306.072
300.125
)
;
    }
    sWall
    {
        type            wallHeatTransfer;
        Tinf            uniform 315.2;
        alphaWall       uniform 0.36;
        value           uniform 305.406;
    }
    nWall
    {
        type            wallHeatTransfer;
        Tinf            uniform 307.2;
        alphaWall       uniform 0.36;
        value           nonuniform List<scalar> 6(305.041 305.005 305.002 305.227 305.21 305.267);
    }
    sideWalls
    {
        type            empty;
    }
    glass1
    {
        type            wallHeatTransfer;
        Tinf            uniform 315.2;
        alphaWall       uniform 4.3;
        value           nonuniform List<scalar> 9(312.446 311.839 311.438 311.117 310.848 310.609 310.42 310.467 310.65);
    }
    glass2
    {
        type            wallHeatTransfer;
        Tinf            uniform 307.2;
        alphaWall       uniform 4.3;
        value           nonuniform List<scalar> 2(306.393 306.423);
    }
    sun
    {
        type            wallHeatTransfer;
        Tinf            uniform 305.2;
        alphaWall       uniform 0.24;
        value           nonuniform List<scalar> 
14
(
305.103
304.897
304.89
304.888
304.886
304.884
304.881
304.879
304.876
304.872
304.867
304.86
304.851
304.842
)
;
    }
    Table_master
    {
        type            zeroGradient;
    }
    Table_slave
    {
        type            zeroGradient;
    }
    inlet
    {
        type            fixedValue;
        value           uniform 296.15;
    }
    outlet
    {
        type            zeroGradient;
    }
}


// ************************************************************************* //
