/*--------------------------------*- C++ -*----------------------------------*\
  =========                 |
  \\      /  F ield         | OpenFOAM: The Open Source CFD Toolbox
   \\    /   O peration     | Website:  https://openfoam.org
    \\  /    A nd           | Version:  6
     \\/     M anipulation  |
\*---------------------------------------------------------------------------*/
FoamFile
{
    version     2.0;
    format      ascii;
    class       volScalarField;
    location    "500";
    object      alphat;
}
// * * * * * * * * * * * * * * * * * * * * * * * * * * * * * * * * * * * * * //

dimensions      [1 -1 -1 0 0 0 0];

internalField   nonuniform List<scalar> 
458
(
0.00130448
0.00142361
0.00145758
0.00153101
0.00159908
0.00166352
0.00172739
0.00179468
0.0018578
0.00190961
0.00194078
0.00193916
0.00189048
0.00176351
0.00130848
0.000617358
0.000730736
0.000824503
0.000841675
0.000820568
0.00076795
0.000711376
0.00066056
0.000616224
0.000577463
0.00054343
0.000513573
0.000486887
0.000462397
0.000438996
0.000415308
0.000402397
0.000370582
0.00176022
0.00399157
0.00364939
0.00416117
0.00467829
0.00522548
0.00575462
0.0061796
0.00659719
0.00702686
0.00741971
0.00772117
0.00787678
0.00776651
0.00662006
0.00171498
0.00140522
0.00114122
0.000623485
0.00144516
0.00208812
0.00256854
0.00270009
0.00200713
0.00170422
0.00149752
0.001344
0.00122559
0.0011308
0.0010458
0.000965805
0.000886434
0.00081605
0.000753688
0.000920585
0.000496509
0.00214102
0.00540819
0.00447114
0.00547608
0.00593023
0.0062545
0.00649275
0.00668824
0.00693709
0.00726818
0.00766109
0.00809501
0.00853192
0.00885817
0.00859282
0.00693172
0.00522287
0.0013264
0.0010296
0.00173877
0.0024461
0.00310322
0.00324496
0.00103908
0.000909287
0.000802551
0.000716557
0.000647318
0.000591248
0.000545746
0.00050891
0.00048017
0.000529411
0.000609701
0.00107236
0.000589116
0.00250617
0.00694097
0.00443549
0.0058324
0.00617334
0.00618723
0.00611016
0.00610087
0.00623453
0.00650327
0.00689169
0.00739614
0.00798269
0.00854251
0.00875447
0.00832316
0.00710505
0.00384648
0.0015392
0.00207538
0.00284886
0.00368209
0.00433363
0.00426601
0.0011564
0.00105519
0.000987081
0.000936954
0.000894085
0.00085173
0.000811198
0.00076829
0.000718029
0.000670509
0.00066768
0.00129124
0.000670888
0.00287842
0.00899738
0.00478879
0.00563885
0.00616341
0.00603203
0.00574332
0.00560089
0.00570304
0.00596752
0.00636041
0.00688872
0.00750763
0.00806095
0.00828646
0.00819797
0.00773519
0.00639284
0.00596514
0.00586261
0.00603256
0.00625065
0.00633801
0.00612666
0.00514916
0.00467923
0.00442523
0.00423582
0.004035
0.00376126
0.00333433
0.00280474
0.00222009
0.00166618
0.00123728
0.00122006
0.0011165
0.000896933
0.000937625
0.00101158
0.00327774
0.0113316
0.00681452
0.00537865
0.0058105
0.00591214
0.00570054
0.00542177
0.00552005
0.00578345
0.00617213
0.00669805
0.00729524
0.00775159
0.00785469
0.00771647
0.00759327
0.00747053
0.00764926
0.00786
0.00793073
0.00780493
0.00750766
0.00707339
0.00653276
0.00611515
0.00579461
0.00551002
0.00522943
0.00493426
0.0045458
0.00402242
0.0033711
0.00265064
0.00200472
0.00143878
0.00125984
0.00116427
0.00147478
0.00105071
0.00365928
0.0130592
0.0101853
0.00718014
0.00601253
0.00561529
0.00564589
0.00562649
0.00569276
0.00587106
0.00620518
0.00669841
0.00727663
0.00769262
0.00768311
0.00745315
0.007563
0.0080764
0.00856
0.00873324
0.00857013
0.0081502
0.00758012
0.00695367
0.00637096
0.00592677
0.00559051
0.00530611
0.00505167
0.00482895
0.00463616
0.00434072
0.00386436
0.00324556
0.00263187
0.00206062
0.00174767
0.00167266
0.00163123
0.00125885
0.00373778
0.0117198
0.0106329
0.00972609
0.00847026
0.00734779
0.00679462
0.00637665
0.00608321
0.00610069
0.00637439
0.00683586
0.0074063
0.00780498
0.00771394
0.00750798
0.00792372
0.00840635
0.00859438
0.00843863
0.00798217
0.00733337
0.00662315
0.00597026
0.0054577
0.00509161
0.00481744
0.00459764
0.00442861
0.00432246
0.00429087
0.00430161
0.00410816
0.00371155
0.00336004
0.00320788
0.0034015
0.00378234
0.00473228
0.00194006
0.00364984
0.00435494
0.00494691
0.00543635
0.00577662
0.0058352
0.00576068
0.00572097
0.00584845
0.00617534
0.00656102
0.00703262
0.00761054
0.00798848
0.00781902
0.0077377
0.00782349
0.00777393
0.00752605
0.00707817
0.0064824
0.00584907
0.00528301
0.00483475
0.00449606
0.00422617
0.0039887
0.0037707
0.00357493
0.00340573
0.00326098
0.00313088
0.00302587
0.00294598
0.00291244
0.00291096
0.00286572
0.00272173
0.00253122
0.0017809
0.000890237
0.00190903
0.00306827
0.00405069
0.0048148
0.00550667
0.006224
0.00673869
0.00692135
0.00721738
0.00771249
0.00804447
0.00789934
0.00748931
0.00696158
0.00647376
0.00601916
0.00557815
0.00516473
0.00480696
0.00451582
0.00427719
0.00406528
0.00385782
0.00364524
0.00343274
0.00323639
0.00307716
0.00297504
0.00293209
0.00292277
0.00293011
0.00293397
0.00289267
0.0027492
0.00248607
0.00214497
0.00143876
0.00306989
0.00481235
0.0054144
0.00636468
0.00710648
0.0077736
0.00792389
0.00709681
0.00618665
0.00626583
0.00645257
0.00643189
0.00624616
0.00590194
0.00556447
0.00526413
0.00496294
0.00469015
0.00445364
0.00425089
0.00407459
0.00391512
0.00376446
0.00361957
0.00348314
0.00336084
0.0032568
0.00316902
0.00311895
0.00311573
0.00315067
0.00320764
0.00326218
0.00329396
0.00325972
0.00320988
0.00275192
0.00145862
0.00321205
0.00325542
0.00330817
0.0035312
0.00334356
0.00319254
0.00292526
0.00249287
0.00195859
0.00169491
0.0015013
0.00140319
0.00135609
0.00130695
0.00125314
0.00120666
0.00117005
0.00114073
0.00111869
0.0010996
0.00108358
0.00107083
0.00106145
0.00105573
0.00105422
0.00105777
0.0010674
0.00108423
0.00110964
0.00114572
0.00119128
0.0012461
0.00131002
0.0013829
0.00146418
0.00156674
0.00160739
0.00157475
0.00146743
0.0013558
)
;

boundaryField
{
    floor
    {
        type            compressible::alphatWallFunction;
        Prt             0.85;
        value           nonuniform List<scalar> 
36
(
0.000184945
8.68934e-05
0.000103626
0.000117228
0.000119699
0.000116662
0.000109049
0.000100794
9.33105e-05
8.67245e-05
8.09191e-05
7.57821e-05
7.12426e-05
6.71571e-05
6.33832e-05
5.97533e-05
5.60537e-05
5.40262e-05
4.89943e-05
4.89937e-05
6.86343e-05
8.26708e-05
9.48392e-05
0.000127623
0.000133415
0.000143861
0.000184943
0.000239577
0.0001981
0.000161935
8.68924e-05
0.000161933
8.78063e-05
0.000187389
0.000146373
0.000216158
)
;
    }
    ceiling
    {
        type            compressible::alphatWallFunction;
        Prt             0.85;
        value           nonuniform List<scalar> 
43
(
0.00043061
0.000435979
0.000442499
0.00047001
0.000446956
0.000428305
0.000395042
0.00034053
0.000271733
0.000237055
0.000211212
0.000197977
0.000191588
0.000184893
0.000177529
0.000171139
0.000166085
0.000162024
0.000158964
0.000156306
0.000154074
0.000152293
0.000150982
0.000150181
0.00014997
0.000150467
0.000151814
0.000154164
0.000157704
0.000162715
0.000169017
0.000176564
0.000185316
0.000195237
0.000206231
0.000220009
0.000225442
0.000221081
0.000206672
0.000191559
0.000484838
0.000570257
0.000412853
)
;
    }
    sWall
    {
        type            compressible::alphatWallFunction;
        Prt             0.85;
        value           uniform 0.000429297;
    }
    nWall
    {
        type            compressible::alphatWallFunction;
        Prt             0.85;
        value           nonuniform List<scalar> 6(0.000143617 0.000149101 0.000177924 0.000202435 0.000205114 0.00019119);
    }
    sideWalls
    {
        type            empty;
    }
    glass1
    {
        type            compressible::alphatWallFunction;
        Prt             0.85;
        value           nonuniform List<scalar> 9(0.00017937 0.000239614 0.00028878 0.000335148 0.00038176 0.000431118 0.000477748 0.000487438 0.000477031);
    }
    glass2
    {
        type            compressible::alphatWallFunction;
        Prt             0.85;
        value           nonuniform List<scalar> 2(0.000266908 0.000246221);
    }
    sun
    {
        type            compressible::alphatWallFunction;
        Prt             0.85;
        value           nonuniform List<scalar> 
14
(
0.000184413
0.000200584
0.000205172
0.000215049
0.00022416
0.000232744
0.000241216
0.000250104
0.00025841
0.000265203
0.00026928
0.000269069
0.000262697
0.000245994
)
;
    }
    Table_master
    {
        type            compressible::alphatWallFunction;
        Prt             0.85;
        value           nonuniform List<scalar> 9(0.000147909 0.00012957 0.000114258 0.000101744 9.15367e-05 8.31729e-05 7.63134e-05 7.07082e-05 6.62994e-05);
    }
    Table_slave
    {
        type            compressible::alphatWallFunction;
        Prt             0.85;
        value           nonuniform List<scalar> 9(0.000164259 0.000150168 0.000140599 0.000133506 0.000127406 0.000121344 0.00011551 0.000109295 0.000101962);
    }
    inlet
    {
        type            fixedValue;
        value           uniform 1.94e-05;
    }
    outlet
    {
        type            zeroGradient;
    }
}


// ************************************************************************* //
