/*--------------------------------*- C++ -*----------------------------------*\
  =========                 |
  \\      /  F ield         | OpenFOAM: The Open Source CFD Toolbox
   \\    /   O peration     | Website:  https://openfoam.org
    \\  /    A nd           | Version:  6
     \\/     M anipulation  |
\*---------------------------------------------------------------------------*/
FoamFile
{
    version     2.0;
    format      ascii;
    class       volScalarField;
    location    "3000";
    object      alphat;
}
// * * * * * * * * * * * * * * * * * * * * * * * * * * * * * * * * * * * * * //

dimensions      [1 -1 -1 0 0 0 0];

internalField   nonuniform List<scalar> 
458
(
0.00123949
0.00135339
0.00136984
0.00143412
0.00149392
0.00154933
0.00160265
0.00165723
0.00169731
0.00171771
0.00171369
0.00168215
0.00162371
0.00154492
0.00145661
0.000537213
0.00067301
0.000756431
0.000753637
0.000733979
0.00069513
0.000652627
0.000613254
0.000577974
0.000546437
0.000518477
0.000493394
0.000470517
0.000449099
0.000428136
0.000406007
0.000387474
0.00035017
0.00171394
0.00427071
0.00411009
0.00480128
0.00545799
0.00611149
0.00669806
0.00712217
0.00749504
0.00779088
0.00796664
0.00796542
0.00769481
0.00692555
0.00495496
0.00154537
0.00121066
0.000861767
0.00059808
0.00126476
0.00177558
0.00215054
0.00227299
0.00179743
0.00157015
0.00140943
0.00128547
0.00118639
0.00109931
0.00102008
0.000944782
0.000870277
0.000805011
0.000751044
0.000863544
0.000444819
0.0021083
0.00588346
0.00513785
0.00659992
0.00733208
0.00786862
0.00827898
0.0085755
0.00886499
0.0091485
0.00939386
0.00954838
0.00955202
0.00933527
0.00875614
0.00748802
0.00595464
0.00123996
0.00120332
0.00177319
0.00232709
0.00280545
0.00288544
0.000957298
0.000845291
0.000754268
0.000681073
0.000621963
0.000573903
0.000534555
0.000502423
0.000477177
0.000526143
0.000614292
0.000962077
0.000508402
0.0024857
0.00758096
0.00523305
0.00709016
0.00786913
0.00817635
0.00834916
0.00847768
0.0086833
0.00895654
0.00926711
0.00955175
0.00974656
0.00980742
0.00969584
0.00928921
0.00839269
0.0061599
0.00161973
0.0021347
0.0028821
0.00356194
0.00402724
0.00386698
0.00103883
0.0009475
0.000890482
0.000852544
0.000823144
0.000794093
0.000762219
0.00072898
0.000689502
0.000655673
0.00065653
0.00104266
0.000569479
0.00286801
0.00971904
0.00592615
0.00687183
0.00788556
0.00811545
0.00810804
0.00811919
0.00828998
0.00856053
0.00891983
0.00928633
0.00957128
0.00970667
0.00965676
0.00940785
0.00891815
0.0080395
0.00651413
0.00606076
0.00593025
0.00587513
0.00578604
0.00550627
0.00457121
0.00418392
0.00400776
0.00389681
0.00378207
0.003622
0.00333647
0.00289793
0.00235468
0.00179181
0.00134603
0.00119182
0.000910963
0.000681149
0.000712319
0.000723275
0.00326863
0.0120103
0.00825929
0.00705726
0.00765174
0.00802518
0.0079612
0.00798576
0.00811428
0.00835694
0.00871579
0.00912372
0.00946159
0.00961623
0.00952816
0.0092169
0.0087761
0.0083221
0.00787197
0.00758168
0.00731599
0.00700654
0.0066487
0.00623355
0.0057541
0.00542046
0.00519484
0.00501378
0.00483998
0.00465219
0.00442679
0.00406506
0.0035473
0.00289892
0.00225976
0.00171854
0.00131103
0.001294
0.00180788
0.000958369
0.00362026
0.0135606
0.0114013
0.00921064
0.00871863
0.00859238
0.00835017
0.00816284
0.00814858
0.00835246
0.00874183
0.00920302
0.00957514
0.00971352
0.00955216
0.00913884
0.0086453
0.00829242
0.00812274
0.0079669
0.00765104
0.00717045
0.00659953
0.00602113
0.00553231
0.00520921
0.0050006
0.0048426
0.00470401
0.00457381
0.00445217
0.00433088
0.00403112
0.00354176
0.0029794
0.00243324
0.00198602
0.00182684
0.00216752
0.00119205
0.00367526
0.011871
0.0107965
0.010273
0.00970023
0.00899381
0.00838321
0.00807532
0.00812745
0.00849423
0.00904678
0.00960051
0.00996161
0.00999108
0.00966785
0.00910123
0.00853543
0.00821725
0.00807386
0.00777012
0.00718517
0.00645027
0.00571713
0.00511522
0.00470995
0.00447424
0.00433355
0.0042382
0.00417077
0.00413147
0.00413016
0.0041804
0.00424593
0.00396254
0.00364866
0.00342683
0.00339673
0.00341508
0.0040714
0.00162088
0.00356206
0.00419194
0.00466398
0.00480513
0.00504811
0.00545646
0.0061134
0.00701123
0.00806133
0.00910688
0.00997423
0.01051
0.0106063
0.0102429
0.00955663
0.00878422
0.00826875
0.00788073
0.00741467
0.00673465
0.00590426
0.00509768
0.00445916
0.00403457
0.00378377
0.0036378
0.00354264
0.00347002
0.00340701
0.00334549
0.00327643
0.00318781
0.00306836
0.00295432
0.00285391
0.00278255
0.00269881
0.00256337
0.00241419
0.00157831
0.00182098
0.00528908
0.00787153
0.00974543
0.0110594
0.0119215
0.0123423
0.0123686
0.0120758
0.0115211
0.0107299
0.0097383
0.00868078
0.00780283
0.00716096
0.00650779
0.00574384
0.00493564
0.00421191
0.00367239
0.0033177
0.00309839
0.00296074
0.00286725
0.0027971
0.00274039
0.00269286
0.00265343
0.00262349
0.00260671
0.00261387
0.00261461
0.00260111
0.00255385
0.00243331
0.00221353
0.00193036
0.00128671
0.00246779
0.00808298
0.0105366
0.0112782
0.0116554
0.0117082
0.0114115
0.0108275
0.010048
0.00915217
0.00821488
0.00731441
0.00649989
0.00578949
0.00512009
0.00447753
0.00393106
0.00351595
0.00320925
0.00296953
0.00278194
0.00264168
0.00253615
0.00245858
0.00240615
0.0023775
0.00237128
0.00238511
0.00241412
0.00245402
0.00251421
0.00258428
0.00264595
0.00266751
0.00263376
0.00255322
0.00244557
0.00130615
0.00208798
0.00225712
0.00237755
0.00256615
0.0025409
0.002505
0.00245324
0.00235909
0.0022215
0.00204984
0.00185473
0.00164715
0.00144087
0.00125355
0.00110215
0.00099008
0.000910282
0.000853444
0.000812623
0.000784022
0.000765924
0.000758107
0.000759057
0.000766117
0.000778975
0.000797454
0.000821412
0.000850759
0.000885588
0.000926366
0.000974284
0.0010307
0.00109206
0.00115862
0.00123031
0.00130441
0.0013755
0.0013508
0.00124356
0.00114686
)
;

boundaryField
{
    floor
    {
        type            compressible::alphatWallFunction;
        Prt             0.85;
        value           nonuniform List<scalar> 
36
(
0.00020516
7.49289e-05
9.52434e-05
0.000107471
0.000107066
0.000104199
9.85053e-05
9.22313e-05
8.63747e-05
8.10876e-05
7.63277e-05
7.20791e-05
6.82432e-05
6.47233e-05
6.14082e-05
5.8144e-05
5.46761e-05
5.1753e-05
4.58138e-05
4.58132e-05
6.07418e-05
7.05387e-05
7.98058e-05
9.6445e-05
0.000101027
0.000102634
0.000205158
0.000217098
0.00017164
0.000122683
7.4928e-05
0.000122681
8.41014e-05
0.000175667
0.000170626
0.000227035
)
;
    }
    ceiling
    {
        type            compressible::alphatWallFunction;
        Prt             0.85;
        value           nonuniform List<scalar> 
43
(
0.000288478
0.000310313
0.000325756
0.000349895
0.00034673
0.000342189
0.000335614
0.000323599
0.00030594
0.000283737
0.000258251
0.000230811
0.000203159
0.000177663
0.00015674
0.00014104
0.000129734
0.000121611
0.000115736
0.000111599
0.000108971
0.000107834
0.000107972
0.000108998
0.000110865
0.000113542
0.000117002
0.000121224
0.000126211
0.000132022
0.000138812
0.000146756
0.000155339
0.000164588
0.000174481
0.000184637
0.00019432
0.000190962
0.000176303
0.000162961
0.000474198
0.000550752
0.000337041
)
;
    }
    sWall
    {
        type            compressible::alphatWallFunction;
        Prt             0.85;
        value           uniform 0.000287278;
    }
    nWall
    {
        type            compressible::alphatWallFunction;
        Prt             0.85;
        value           nonuniform List<scalar> 6(0.000102443 0.000136236 0.000168872 0.000181893 0.00018455 0.000162639);
    }
    sideWalls
    {
        type            empty;
    }
    glass1
    {
        type            compressible::alphatWallFunction;
        Prt             0.85;
        value           nonuniform List<scalar> 9(0.000171389 0.000234494 0.000285604 0.000333646 0.000381595 0.000431174 0.000474223 0.00048105 0.000467491);
    }
    glass2
    {
        type            compressible::alphatWallFunction;
        Prt             0.85;
        value           nonuniform List<scalar> 2(0.000225683 0.000220077);
    }
    sun
    {
        type            compressible::alphatWallFunction;
        Prt             0.85;
        value           nonuniform List<scalar> 
14
(
0.000175632
0.000191187
0.000193423
0.000202133
0.000210197
0.000217635
0.000224767
0.000232039
0.000237362
0.000240065
0.00023953
0.000235345
0.00022757
0.000217036
)
;
    }
    Table_master
    {
        type            compressible::alphatWallFunction;
        Prt             0.85;
        value           nonuniform List<scalar> 9(0.000136392 0.000120421 0.000107256 9.65318e-05 8.77687e-05 8.05684e-05 7.46175e-05 6.97175e-05 6.584e-05);
    }
    Table_slave
    {
        type            compressible::alphatWallFunction;
        Prt             0.85;
        value           nonuniform List<scalar> 9(0.000147884 0.000135008 0.000126897 0.000121465 0.000117237 0.000113041 0.000108416 0.000103568 9.77755e-05);
    }
    inlet
    {
        type            fixedValue;
        value           uniform 1.94e-05;
    }
    outlet
    {
        type            zeroGradient;
    }
}


// ************************************************************************* //
