/*--------------------------------*- C++ -*----------------------------------*\
  =========                 |
  \\      /  F ield         | OpenFOAM: The Open Source CFD Toolbox
   \\    /   O peration     | Website:  https://openfoam.org
    \\  /    A nd           | Version:  6
     \\/     M anipulation  |
\*---------------------------------------------------------------------------*/
FoamFile
{
    version     2.0;
    format      ascii;
    class       volScalarField;
    location    "800";
    object      nut;
}
// * * * * * * * * * * * * * * * * * * * * * * * * * * * * * * * * * * * * * //

dimensions      [0 2 -1 0 0 0 0];

internalField   nonuniform List<scalar> 
458
(
0.00114852
0.00125621
0.00129689
0.00136104
0.00142092
0.00148004
0.0015436
0.00160141
0.00164768
0.00167316
0.00166985
0.00156559
0.0014017
0.00122293
0.00105806
0.000492904
0.000572591
0.000659218
0.000705374
0.000702419
0.000661797
0.000615438
0.000573703
0.000537392
0.000505735
0.000478005
0.000453486
0.000431681
0.000411678
0.000392478
0.000372742
0.000355958
0.000324072
0.00149876
0.00334
0.00307886
0.00349119
0.00391603
0.00432429
0.00460587
0.00491493
0.00522081
0.00547665
0.00566817
0.00578019
0.00547334
0.0044483
0.00284671
0.00121609
0.00106902
0.000904141
0.000483939
0.00114705
0.00177926
0.00226237
0.00240735
0.00171415
0.00144203
0.00126194
0.00113114
0.00103189
0.000953725
0.000890616
0.000828408
0.000760987
0.000696415
0.000641504
0.000740791
0.000394438
0.00178572
0.00441696
0.0036593
0.00418221
0.00437014
0.00450002
0.00461828
0.00481008
0.00506066
0.00535812
0.00570598
0.00609664
0.00626395
0.00587444
0.00477331
0.00336266
0.0024911
0.000979377
0.000629593
0.00122245
0.00192511
0.00262902
0.00281762
0.000863363
0.000758644
0.000669717
0.000596812
0.000537491
0.000489123
0.000449488
0.00041782
0.000394281
0.000444029
0.000525123
0.000866515
0.000450168
0.00205583
0.00545785
0.00356321
0.00420384
0.00414948
0.00406411
0.00409468
0.00424672
0.00449195
0.00483452
0.00526479
0.00573236
0.00600647
0.00588996
0.00539836
0.00447623
0.0034512
0.00187802
0.00102514
0.00134089
0.00196319
0.00279816
0.00354151
0.00362306
0.000975573
0.000898666
0.00084327
0.00079946
0.000759973
0.000723934
0.000688044
0.000649246
0.000603634
0.000557197
0.000554658
0.00101997
0.00050719
0.00232732
0.00687072
0.00355199
0.00402731
0.00389729
0.00370412
0.00373156
0.00390534
0.00417616
0.00455567
0.0050114
0.00543415
0.00560034
0.00551843
0.00530212
0.00485261
0.00415421
0.0031689
0.00298686
0.00339007
0.0040147
0.00466091
0.00510311
0.00517456
0.00448578
0.00410341
0.00388227
0.00371144
0.00352121
0.00321876
0.00281977
0.0023464
0.00183275
0.0013558
0.0010088
0.00101738
0.000824717
0.000678912
0.000734404
0.000797345
0.00261784
0.00853854
0.00446225
0.00377618
0.00379171
0.00357913
0.00358965
0.003793
0.00408639
0.00448239
0.00492451
0.00525685
0.00529704
0.0051409
0.00504053
0.00498769
0.00480501
0.00453887
0.00480669
0.00545039
0.00599287
0.00630525
0.00635764
0.00618318
0.00584118
0.00554868
0.00530796
0.00507132
0.00480758
0.00446866
0.00402846
0.00348613
0.00285728
0.00220528
0.00166104
0.00124708
0.00102309
0.000905002
0.00116183
0.000826048
0.00291878
0.0098332
0.00652143
0.00411368
0.00359049
0.00372144
0.00371721
0.00388371
0.00414925
0.00451975
0.0049247
0.00518323
0.00510706
0.00492108
0.00509929
0.0054987
0.00572282
0.00596181
0.00649212
0.00699532
0.00719466
0.00711698
0.00682912
0.00641881
0.00598226
0.00561167
0.00530788
0.00503385
0.00476773
0.00450677
0.00424115
0.00385525
0.00335551
0.00277802
0.00224483
0.00178111
0.00148386
0.00137525
0.00132136
0.00098092
0.00300573
0.00922383
0.00756823
0.0058589
0.00470641
0.00440338
0.00414428
0.00411817
0.00431656
0.00464227
0.00498943
0.00515357
0.00495803
0.00496165
0.00565636
0.00623218
0.00656389
0.00690465
0.00728306
0.00745405
0.00729626
0.00688623
0.00632432
0.00571852
0.00517979
0.00477352
0.00447421
0.00423577
0.00404018
0.00389156
0.00379866
0.00372961
0.0034822
0.0031274
0.00282882
0.00267581
0.00275338
0.00297013
0.00360437
0.00153253
0.00296555
0.00361965
0.00415324
0.00431821
0.00420431
0.0041036
0.00406957
0.00421685
0.00448913
0.00479034
0.00505122
0.00506123
0.00475117
0.00521893
0.00605588
0.00645959
0.00668334
0.00685355
0.00690286
0.00671748
0.00626757
0.0056333
0.00494118
0.00432456
0.00386529
0.00355261
0.00332876
0.00314977
0.00299429
0.00285133
0.00271308
0.00258229
0.00247651
0.00239336
0.00234729
0.00232881
0.0022846
0.0021761
0.00203351
0.00142659
0.00139878
0.0024117
0.00310366
0.00357963
0.00405977
0.00452242
0.00479127
0.0049204
0.00494473
0.0046275
0.00461688
0.00528404
0.00570647
0.00580596
0.00579883
0.00569174
0.00542575
0.0049743
0.00439217
0.00377891
0.00324867
0.00287548
0.00264362
0.00250163
0.00240853
0.00234288
0.00229565
0.00226421
0.00225271
0.00226059
0.00227595
0.00229474
0.00230654
0.00228428
0.00218853
0.00200956
0.0017757
0.00115177
0.00206128
0.00416838
0.0047274
0.00537315
0.00579814
0.00531036
0.004748
0.0043101
0.00389122
0.00356847
0.00384169
0.00405362
0.00405137
0.00395035
0.00377604
0.00350442
0.00313216
0.00270943
0.00232342
0.00204113
0.00187344
0.00178584
0.00175792
0.00176737
0.00180135
0.00185274
0.00191616
0.00198568
0.00206792
0.00215906
0.00225656
0.00235421
0.00243692
0.0024863
0.00246005
0.0024465
0.0022855
0.00116707
0.00247233
0.00249441
0.00252742
0.00296412
0.00267642
0.00223893
0.00161369
0.00134638
0.00112891
0.000953935
0.000827998
0.000760382
0.000713535
0.000685009
0.000664427
0.000645989
0.000626799
0.000606583
0.000588095
0.000575852
0.000572893
0.000579152
0.000592815
0.000611992
0.00063476
0.000660727
0.000689883
0.000722528
0.000759334
0.000801508
0.000848421
0.000900503
0.000958288
0.00102237
0.00109304
0.00118058
0.00121298
0.00118649
0.0011058
0.00102319
)
;

boundaryField
{
    floor
    {
        type            nutkWallFunction;
        Cmu             0.09;
        kappa           0.41;
        E               9.8;
        value           nonuniform List<scalar> 
36
(
0.000127524
5.88094e-05
6.89148e-05
7.97072e-05
8.53866e-05
8.50246e-05
8.00261e-05
7.42763e-05
6.90549e-05
6.44742e-05
6.04494e-05
5.68981e-05
5.37367e-05
5.0907e-05
4.82952e-05
4.57732e-05
4.3164e-05
4.0931e-05
3.66506e-05
3.66505e-05
4.60293e-05
5.33044e-05
6.06317e-05
8.21333e-05
8.89337e-05
9.65735e-05
0.000127524
0.000145845
0.000128805
0.000109377
5.88093e-05
0.000109377
5.766e-05
0.000118289
7.60356e-05
0.000123671
)
;
    }
    ceiling
    {
        type            nutkWallFunction;
        Cmu             0.09;
        kappa           0.41;
        E               9.8;
        value           nonuniform List<scalar> 
43
(
0.000284065
0.000286411
0.000289919
0.000335969
0.000305794
0.000259213
0.000190837
0.000160755
0.000135784
0.000115289
0.00010027
9.20969e-05
8.63843e-05
8.28842e-05
8.03481e-05
7.80681e-05
7.56868e-05
7.31685e-05
7.08566e-05
6.93207e-05
6.89488e-05
6.97349e-05
7.14474e-05
7.38429e-05
7.66752e-05
7.98906e-05
8.34828e-05
8.74835e-05
9.19684e-05
9.70759e-05
0.00010272
0.000108944
0.000115801
0.00012335
0.000131612
0.000141762
0.000145498
0.000142446
0.000133098
0.000123447
0.000336433
0.000404101
0.000239856
)
;
    }
    sWall
    {
        type            nutkWallFunction;
        Cmu             0.09;
        kappa           0.41;
        E               9.8;
        value           uniform 0.000284138;
    }
    nWall
    {
        type            nutkWallFunction;
        Cmu             0.09;
        kappa           0.41;
        E               9.8;
        value           nonuniform List<scalar> 6(9.65739e-05 0.000100034 0.000118477 0.000138443 0.000140214 0.000123454);
    }
    sideWalls
    {
        type            empty;
    }
    glass1
    {
        type            nutkWallFunction;
        Cmu             0.09;
        kappa           0.41;
        E               9.8;
        value           nonuniform List<scalar> 9(0.000138182 0.000178217 0.000210231 0.000239853 0.000269206 0.000300217 0.000331961 0.000341079 0.00033689);
    }
    glass2
    {
        type            nutkWallFunction;
        Cmu             0.09;
        kappa           0.41;
        E               9.8;
        value           nonuniform List<scalar> 2(0.000181866 0.000169932);
    }
    sun
    {
        type            nutkWallFunction;
        Cmu             0.09;
        kappa           0.41;
        E               9.8;
        value           nonuniform List<scalar> 
14
(
0.000138048
0.000150447
0.000155102
0.000162409
0.000169195
0.000175863
0.000183
0.000189463
0.000194618
0.00019745
0.000197084
0.000185465
0.000167023
0.000146631
)
;
    }
    Table_master
    {
        type            nutkWallFunction;
        Cmu             0.09;
        kappa           0.41;
        E               9.8;
        value           nonuniform List<scalar> 9(0.00010451 9.18868e-05 8.10054e-05 7.19552e-05 6.44921e-05 5.8332e-05 5.32277e-05 4.91087e-05 4.60215e-05);
    }
    Table_slave
    {
        type            nutkWallFunction;
        Cmu             0.09;
        kappa           0.41;
        E               9.8;
        value           nonuniform List<scalar> 9(0.00011784 0.000108725 0.000102103 9.683e-05 9.20483e-05 8.76583e-05 8.32607e-05 7.84757e-05 7.2806e-05);
    }
    inlet
    {
        type            calculated;
        value           uniform 0.000234787;
    }
    outlet
    {
        type            calculated;
        value           nonuniform List<scalar> 2(0.00247233 0.00249441);
    }
}


// ************************************************************************* //
