/*--------------------------------*- C++ -*----------------------------------*\
  =========                 |
  \\      /  F ield         | OpenFOAM: The Open Source CFD Toolbox
   \\    /   O peration     | Website:  https://openfoam.org
    \\  /    A nd           | Version:  6
     \\/     M anipulation  |
\*---------------------------------------------------------------------------*/
FoamFile
{
    version     2.0;
    format      ascii;
    class       volScalarField;
    location    "800";
    object      T;
}
// * * * * * * * * * * * * * * * * * * * * * * * * * * * * * * * * * * * * * //

dimensions      [0 0 0 1 0 0 0];

internalField   nonuniform List<scalar> 
458
(
302.264
301.985
301.972
301.969
301.966
301.964
301.961
301.959
301.959
301.966
301.987
302.062
302.095
302.111
302.131
302.506
302.472
302.455
302.465
302.479
302.491
302.502
302.513
302.524
302.536
302.547
302.558
302.57
302.582
302.595
302.609
302.627
302.663
302.439
301.997
301.967
301.962
301.958
301.955
301.951
301.943
301.933
301.935
301.971
302.055
302.124
302.141
302.143
302.153
302.165
302.19
302.515
302.435
302.423
302.438
302.46
302.471
302.48
302.488
302.497
302.506
302.515
302.525
302.535
302.546
302.559
302.576
302.6
302.651
302.628
302.027
301.979
301.978
301.981
301.981
301.978
301.958
301.923
301.904
301.945
302.054
302.162
302.196
302.191
302.189
302.188
302.197
302.461
302.406
302.403
302.433
302.471
302.476
302.483
302.491
302.499
302.508
302.517
302.526
302.536
302.547
302.56
302.576
302.598
302.651
302.827
302.072
302.001
302.01
302.028
302.043
302.045
302.009
301.93
301.875
301.913
302.05
302.194
302.254
302.254
302.24
302.223
302.212
302.225
302.257
302.312
302.382
302.455
302.517
302.566
302.598
302.624
302.645
302.663
302.678
302.692
302.704
302.713
302.675
302.64
302.625
302.658
303.029
302.137
302.029
302.043
302.084
302.127
302.145
302.089
301.95
301.853
301.883
302.044
302.221
302.317
302.332
302.308
302.279
302.261
302.273
302.315
302.383
302.464
302.545
302.615
302.671
302.71
302.739
302.762
302.777
302.785
302.787
302.784
302.774
302.743
302.697
302.66
302.666
302.8
302.892
302.889
303.22
302.226
302.07
302.068
302.118
302.19
302.248
302.165
301.966
301.835
301.863
302.038
302.253
302.388
302.421
302.394
302.361
302.346
302.371
302.432
302.511
302.595
302.672
302.736
302.784
302.818
302.842
302.857
302.866
302.865
302.858
302.846
302.827
302.795
302.749
302.703
302.686
302.749
302.788
302.837
303.387
302.381
302.187
302.14
302.162
302.23
302.308
302.185
301.96
301.814
301.846
302.047
302.305
302.478
302.525
302.503
302.475
302.475
302.52
302.59
302.668
302.742
302.806
302.855
302.89
302.912
302.926
302.932
302.933
302.927
302.913
302.894
302.871
302.839
302.798
302.754
302.727
302.744
302.764
302.798
303.629
302.876
302.627
302.454
302.384
302.417
302.383
302.151
301.88
301.753
301.834
302.092
302.4
302.6
302.642
302.632
302.622
302.64
302.693
302.76
302.824
302.879
302.921
302.95
302.968
302.978
302.981
302.979
302.974
302.964
302.95
302.931
302.909
302.881
302.85
302.817
302.799
302.809
302.834
302.984
303.976
303.624
303.346
303.063
302.862
302.735
302.377
301.935
301.655
301.644
301.853
302.213
302.576
302.736
302.769
302.775
302.785
302.813
302.858
302.906
302.946
302.978
303
303.012
303.017
303.016
303.012
303.005
302.997
302.988
302.979
302.972
302.968
302.969
302.979
303.001
303.036
303.074
303.102
303.168
298.176
299.599
300.367
300.599
300.701
300.874
301.166
301.584
302.027
302.526
302.798
302.875
302.897
302.91
302.927
302.953
302.983
303.01
303.029
303.042
303.048
303.049
303.046
303.042
303.037
303.032
303.027
303.022
303.019
303.017
303.017
303.022
303.035
303.055
303.084
303.116
303.149
303.184
298.255
299.59
300.144
300.426
300.709
301.187
301.695
302.299
302.716
302.898
302.967
302.991
303.005
303.018
303.033
303.048
303.062
303.072
303.077
303.079
303.077
303.074
303.071
303.067
303.063
303.059
303.055
303.051
303.048
303.047
303.047
303.05
303.058
303.071
303.09
303.117
303.125
303.164
299.312
299.287
299.285
300.172
300.699
301.346
302.201
302.615
302.853
302.982
303.041
303.065
303.079
303.088
303.096
303.102
303.107
303.11
303.113
303.113
303.112
303.109
303.105
303.101
303.097
303.093
303.089
303.085
303.081
303.077
303.074
303.071
303.069
303.069
303.071
303.079
303.09
303.101
303.108
303.154
)
;

boundaryField
{
    floor
    {
        type            wallHeatTransfer;
        Tinf            uniform 305.2;
        alphaWall       uniform 0.24;
        value           nonuniform List<scalar> 
36
(
302.459
303.003
302.927
302.87
302.859
302.872
302.899
302.93
302.961
302.99
303.019
303.046
303.073
303.099
303.125
303.151
303.181
303.211
303.273
303.273
303.194
303.15
303.118
303.156
303.216
303.194
302.459
302.447
302.487
302.552
303.003
302.552
303.016
302.537
302.888
302.551
)
;
    }
    ceiling
    {
        type            wallHeatTransfer;
        Tinf            uniform 303.2;
        alphaWall       uniform 0.24;
        value           nonuniform List<scalar> 
43
(
299.523
299.497
299.493
300.314
300.826
301.456
302.278
302.667
302.888
303.007
303.062
303.083
303.096
303.105
303.111
303.117
303.121
303.125
303.127
303.127
303.126
303.124
303.121
303.117
303.113
303.109
303.105
303.101
303.097
303.093
303.09
303.087
303.085
303.084
303.085
303.091
303.101
303.111
303.118
303.159
303.939
303.607
298.565
)
;
    }
    sWall
    {
        type            wallHeatTransfer;
        Tinf            uniform 315.2;
        alphaWall       uniform 0.36;
        value           uniform 300.574;
    }
    nWall
    {
        type            wallHeatTransfer;
        Tinf            uniform 307.2;
        alphaWall       uniform 0.36;
        value           nonuniform List<scalar> 6(303.691 303.629 303.507 303.761 303.739 303.787);
    }
    sideWalls
    {
        type            empty;
    }
    glass1
    {
        type            wallHeatTransfer;
        Tinf            uniform 315.2;
        alphaWall       uniform 4.3;
        value           nonuniform List<scalar> 9(310.958 310.35 309.966 309.678 309.442 309.224 309.026 309.079 309.297);
    }
    glass2
    {
        type            wallHeatTransfer;
        Tinf            uniform 307.2;
        alphaWall       uniform 4.3;
        value           nonuniform List<scalar> 2(305.565 305.695);
    }
    sun
    {
        type            wallHeatTransfer;
        Tinf            uniform 305.2;
        alphaWall       uniform 0.24;
        value           nonuniform List<scalar> 
14
(
302.559
302.287
302.268
302.254
302.242
302.231
302.22
302.21
302.205
302.208
302.228
302.31
302.362
302.407
)
;
    }
    Table_master
    {
        type            zeroGradient;
    }
    Table_slave
    {
        type            zeroGradient;
    }
    inlet
    {
        type            fixedValue;
        value           uniform 296.15;
    }
    outlet
    {
        type            zeroGradient;
    }
}


// ************************************************************************* //
