/*--------------------------------*- C++ -*----------------------------------*\
  =========                 |
  \\      /  F ield         | OpenFOAM: The Open Source CFD Toolbox
   \\    /   O peration     | Website:  https://openfoam.org
    \\  /    A nd           | Version:  6
     \\/     M anipulation  |
\*---------------------------------------------------------------------------*/
FoamFile
{
    version     2.0;
    format      ascii;
    class       surfaceScalarField;
    location    "1600";
    object      phi;
}
// * * * * * * * * * * * * * * * * * * * * * * * * * * * * * * * * * * * * * //

dimensions      [1 0 -1 0 0 0 0];

internalField   nonuniform List<scalar> 
850
(
-0.00335412
0.00341371
-0.00485282
0.00149862
-0.00600005
0.00114714
-0.00684689
0.000846762
-0.00735231
0.000505332
-0.00746007
0.000107681
-0.00709407
-0.000366075
-0.00617501
-0.000919139
-0.00468424
-0.00149085
-0.00272154
-0.00196277
-0.000538897
-0.00218272
0.00127021
-0.00180918
0.00200782
-0.000737687
0.00176372
0.000244032
0.00176561
-0.00100502
0.00100772
-0.00102623
2.11117e-05
-0.000380268
-0.000646073
0.000419803
-0.000800175
0.00110799
-0.000688287
0.00151389
-0.000406006
0.0016943
-0.000180503
0.00179048
-9.62767e-05
0.00185372
-6.33358e-05
0.00189504
-4.14066e-05
0.00192131
-2.63508e-05
0.00193485
-1.36243e-05
0.00192628
8.48482e-06
0.00186789
5.83047e-05
0.00171216
0.000155637
0.00142074
0.000291318
0.000951001
0.000469636
0.000954145
-0.00248586
0.00606347
-0.00389559
0.00290826
-0.00506818
0.00231965
-0.00593927
0.00171776
-0.00648274
0.00104872
-0.00664882
0.000273678
-0.006371
-0.000643983
-0.0055864
-0.00170382
-0.00430742
-0.00276991
-0.00270647
-0.00356379
-0.0010783
-0.00381096
0.00037444
-0.00326199
0.00137904
-0.00174236
0.00204785
-0.000424855
0.00313567
0.00067771
0.00240131
0.000737636
0.00144966
0.000955277
0.00146024
-0.000190493
0.00120667
0.000250621
-0.000420122
0.000791404
-0.00118696
0.00123581
-0.00124468
0.00159616
-0.00104874
0.00168482
-0.000494769
0.0016998
-0.000195589
0.00171738
-0.000113951
0.00173214
-7.81887e-05
0.00174143
-5.07892e-05
0.00174749
-3.24971e-05
0.00175152
-1.77424e-05
0.00174908
1.08349e-05
0.00170727
0.000100021
0.00153266
0.000330158
0.00121197
0.000611905
0.000756902
0.000924587
0.00172006
-0.00178065
0.00809867
-0.00296506
0.00409257
-0.00404334
0.00339784
-0.00485775
0.00253209
-0.00540618
0.00159706
-0.00563488
0.000502287
-0.0054605
-0.000818444
-0.0048108
-0.00235361
-0.00372284
-0.00385796
-0.00240401
-0.00488269
-0.00110994
-0.0051051
2.10415e-05
-0.00439304
0.000970274
-0.00269166
0.0017132
-0.00116785
0.00227673
0.000114101
0.00215032
0.000863963
0.0015332
0.00157232
0.00300311
0.00128354
-6.37753e-05
0.0017522
-0.000888899
0.00183879
-0.00127365
0.00196565
-0.00137164
0.00228126
-0.00136444
0.00178654
0.00159101
0.00147711
0.00139898
0.00134825
0.00131582
0.00129814
0.00130904
0.00140911
0.00122166
0.000517505
0.000968234
0.000865214
0.000585619
0.00130708
0.00231995
-0.00122715
0.0096599
-0.00210955
0.00497489
-0.00291792
0.00420611
-0.00355975
0.00317382
-0.00404769
0.00208491
-0.00431164
0.000766147
-0.0042326
-0.000897584
-0.00370631
-0.00287999
-0.00281228
-0.00475207
-0.00178046
-0.00591459
-0.000806194
-0.00607944
1.4e-05
-0.0052133
0.000785679
-0.00346341
0.00137904
-0.00176129
0.00183806
-0.000345003
0.00205218
0.000649763
0.00224484
0.00137957
0.0034586
0.00178927
0.00278348
0.00068591
0.00284046
-0.000120843
0.00269557
-0.000744095
0.00248907
-0.00106723
0.00225362
-0.00113628
0.0018518
-0.000962717
0.00227168
-0.000420119
0.00244686
-0.000175422
0.00253434
-8.77266e-05
0.00257014
-3.60437e-05
0.00255542
1.44719e-05
0.00248351
7.16756e-05
0.0023381
0.00014517
0.00208424
0.000253627
0.00165485
0.000429165
0.001405
0.000767272
0.00107895
0.00119116
0.000671791
0.00171412
0.00301029
-0.0007908
0.0108542
-0.00136502
0.00554901
-0.00170936
0.00455037
-0.00205666
0.00352101
-0.0023913
0.00241945
-0.00263049
0.00100524
-0.00259523
-0.000932957
-0.00216212
-0.00331319
-0.00150115
-0.00541314
-0.000816753
-0.00659906
-0.000218042
-0.00667822
0.000274943
-0.00570635
0.000768865
-0.0039574
0.00115322
-0.00214572
0.00148655
-0.000678419
0.00180322
0.000333011
0.00221176
0.000970939
0.00278851
0.00121243
0.00284836
0.00062597
0.00281985
-9.24143e-05
0.00263279
-0.000557114
0.00235759
-0.000792115
0.00205671
-0.000835482
0.00179798
-0.000704074
0.00179509
-0.000417314
0.00181855
-0.000198969
0.00181962
-8.88913e-05
0.00180911
-2.56228e-05
0.00179179
3.17139e-05
0.00176261
0.000100764
0.00170988
0.00019783
0.00162177
0.000341657
0.00149891
0.000551949
0.00140125
0.000864859
0.00133074
0.00126157
0.00128869
0.00175607
0.00225384
0.00204502
0.00151251
0.000759494
0.00141298
0.000116893
0.0014849
-0.000585389
0.0119025
-0.000830713
0.00579424
-0.000478398
0.00419795
-0.000431174
0.00347369
-0.000562675
0.00255085
-0.000694632
0.00113709
-0.000573421
-0.00105427
-0.000208201
-0.00367851
0.000159889
-0.00578132
0.000434895
-0.00687415
0.000601035
-0.00684443
0.000707727
-0.00581311
0.000819542
-0.00406929
0.000889784
-0.00221604
0.000991867
-0.000780593
0.00119745
0.00012734
0.00152161
0.000646678
0.0019478
0.000786161
0.00215475
0.000418927
0.00209998
-3.77261e-05
0.00190608
-0.000363305
0.00164692
-0.00053304
0.00137585
-0.000564496
0.00114991
-0.000478225
0.00104124
-0.000308743
0.00100707
-0.00016489
0.00100293
-8.48434e-05
0.00101838
-4.11594e-05
0.00105038
-3.69259e-07
0.00109262
5.84389e-05
0.00113987
0.000150507
0.00119087
0.000290577
0.00125146
0.000491288
0.00135381
0.000762432
0.00154137
0.00107392
0.00184818
0.00144916
0.00222581
0.00166728
0.00183971
0.00114548
0.00103645
0.000920021
0.002577
-0.000675604
0.0130923
-0.000281746
0.00540029
0.00102696
0.00288916
0.00128668
0.00321387
0.00127284
0.00256459
0.00142721
0.000982606
0.00178
-0.00140716
0.00204845
-0.00394706
0.00208156
-0.00581451
0.00190009
-0.00669276
0.00157211
-0.00651652
0.00118694
-0.00542802
0.000816347
-0.00369877
0.000487948
-0.00188773
0.000325231
-0.000617974
0.000392886
5.95846e-05
0.000634941
0.000404526
0.000944592
0.000476418
0.00109541
0.000268021
0.00105638
1.21259e-06
0.000900785
-0.000207805
0.000688213
-0.000320563
0.000465541
-0.000341922
0.000279784
-0.000292567
0.000175044
-0.000204101
0.000142417
-0.000132359
0.000153903
-9.64224e-05
0.000196061
-8.34061e-05
0.000269807
-7.41995e-05
0.000376123
-4.79587e-05
0.000508548
1.80007e-05
0.000665591
0.000133455
0.000855382
0.000301418
0.00109261
0.000525127
0.0013885
0.000777946
0.00175957
0.001078
0.00219719
0.00122956
0.00238577
0.000956792
0.00188331
0.00142237
0.00451659
0.00323143
0.0104335
0.0040791
0.00455254
0.00407329
0.00289487
0.00377027
0.00351679
0.00369613
0.00263863
0.00406632
0.000612315
0.00451877
-0.00185971
0.00456145
-0.00398982
0.00416316
-0.00541631
0.00341947
-0.00594914
0.00247607
-0.00557319
0.00148798
-0.00444001
0.000558238
-0.00276911
-0.000154778
-0.00117481
-0.000467526
-0.000305332
-0.0004827
7.46521e-05
-0.000329598
0.000251321
-0.000134985
0.000281707
-4.31276e-05
0.000176066
-7.38109e-05
3.1797e-05
-0.000192099
-8.96176e-05
-0.000353854
-0.000158912
-0.000517028
-0.000178852
-0.000646304
-0.000163394
-0.000718014
-0.000132494
-0.000739227
-0.000111245
-0.000727807
-0.000107939
-0.000694187
-0.00011712
-0.000638923
-0.000129556
-0.000551828
-0.000135144
-0.000415159
-0.000118756
-0.000225412
-5.638e-05
1.22107e-05
6.37061e-05
0.000297111
0.000240137
0.000617393
0.000457574
0.000985679
0.000709617
0.00136999
0.000845148
0.00154686
0.00077981
0.000880354
0.00208876
0.00564932
0.0110645
0.0156146
0.0130236
0.00548573
0.0111339
0.00540645
0.0100612
0.00371117
0.00930223
0.00137124
0.00847813
-0.0010357
0.00743835
-0.00295012
0.00610943
-0.00408745
0.00453159
-0.00437136
0.00283169
-0.00387336
0.00119772
-0.00280611
-0.000232073
-0.00133941
-0.00104094
-0.000366051
-0.00132679
-1.95901e-05
-0.0013715
0.000119251
-0.00130022
0.000179937
-0.00120438
0.000185757
-0.00116215
0.000133736
-0.00118797
5.75029e-05
-0.00126773
-9.95775e-06
-0.00137438
-5.23681e-05
-0.00148111
-7.22352e-05
-0.00156831
-7.62974e-05
-0.00162761
-7.32972e-05
-0.00166662
-7.23407e-05
-0.00169939
-7.52741e-05
-0.00173945
-7.71667e-05
-0.00180097
-6.81401e-05
-0.00190081
-3.54119e-05
-0.00205394
3.42686e-05
-0.00226387
0.000153451
-0.00254335
0.000343076
-0.00293832
0.000634994
-0.00353402
0.00105316
-0.00442012
0.0015956
-0.00574434
0.00216925
-0.00747641
0.00251176
-0.00732488
0.00193711
-0.00140062
0.0173764
0.0111753
0.0143267
0.00845618
0.0124999
0.00553785
0.011304
0.00256716
0.0100137
0.000254605
0.00826641
-0.00120292
0.00618282
-0.00200391
0.0039461
-0.0021347
0.00166551
-0.00159284
-0.000330639
-0.00081006
-0.0016019
-6.8254e-05
-0.00208013
0.00011207
-0.00223526
0.000135422
-0.00225663
0.000140513
-0.00222733
0.000150529
-0.00219176
0.000150074
-0.00218498
0.000126843
-0.00221583
8.82497e-05
-0.00227472
4.88136e-05
-0.00234624
1.90497e-05
-0.00242102
2.42877e-06
-0.00249255
-4.87144e-06
-0.00255989
-6.07025e-06
-0.00262858
-3.76614e-06
-0.00270568
1.71051e-06
-0.00279536
1.23974e-05
-0.00289716
3.35441e-05
-0.00300613
7.34408e-05
-0.0031156
0.000143625
-0.00322394
0.000261664
-0.00333366
0.000452683
-0.00344476
0.000745973
-0.00355609
0.00116437
-0.00365
0.00168939
-0.00370341
0.00222254
-0.00358779
0.002396
-0.00209445
0.000443645
-0.00342477
-8.99289e-05
0.0113105
0.00200989
0.00635633
0.00312844
0.00441928
0.00344109
0.00225448
0.00318594
0.000509711
0.00243298
-0.000450012
0.0011364
-0.000707402
-0.0004797
-0.00051869
-0.00191439
-0.000158242
-0.00277159
4.70412e-05
-0.00300383
0.000163889
-0.00304553
0.000153656
-0.00303599
0.000125773
-0.00300802
0.000112438
-0.00297158
0.000113976
-0.00293982
0.000118201
-0.00292821
0.000115126
-0.00294384
0.000103773
-0.00298349
8.83568e-05
-0.00303791
7.33589e-05
-0.00309671
6.11134e-05
-0.00315386
5.21612e-05
-0.00320519
4.51471e-05
-0.00324858
3.94998e-05
-0.00328265
3.56652e-05
-0.00330616
3.57903e-05
-0.00331601
4.32628e-05
-0.00330666
6.39724e-05
-0.003269
0.000105832
-0.00318654
0.00017908
-0.00303145
0.000297471
-0.00276795
0.000482343
-0.00236789
0.00076418
-0.00179991
0.00112128
-0.000909706
0.00133221
0.000603489
0.00088268
0.00147109
-0.000424088
-0.00187645
-0.0219187
-0.0273294
-0.0159879
-0.0096096
-0.00517044
-0.00289954
-0.00237992
-0.00282714
-0.00353606
-0.00405933
-0.00422447
-0.00418595
-0.00403161
-0.00388822
-0.00377315
-0.00367173
-0.00356909
-0.00346258
-0.00335953
-0.00326825
-0.00319277
-0.00313259
-0.00308487
-0.00304618
-0.0030145
-0.00298833
-0.00296577
-0.00294276
-0.00291188
-0.00285982
-0.00276538
-0.00259715
-0.00230995
-0.00183733
-0.00108234
3.01942e-05
0.00135389
0.00222768
0.0017937
)
;

boundaryField
{
    floor
    {
        type            calculated;
        value           nonuniform List<scalar> 
36
(
0
0
0
0
0
0
0
0
0
0
0
0
0
0
0
0
0
0
0
-3.26457e-06
-9.13548e-06
-1.44091e-05
-1.86788e-05
-1.82997e-05
-1.75083e-05
-1.66648e-05
-1.97745e-06
-3.35318e-06
-3.71375e-06
-4.23319e-06
-2.8162e-06
-6.4265e-06
-8.56211e-06
-9.76563e-06
-1.32222e-05
-1.08756e-05
)
;
    }
    ceiling
    {
        type            calculated;
        value           nonuniform List<scalar> 
43
(
-3.14102e-05
-3.1171e-05
-3.09566e-05
-2.2036e-05
-1.99532e-05
-1.65093e-05
-1.00082e-05
-2.88472e-06
1.43344e-06
4.49087e-06
6.80265e-06
8.4199e-06
9.45795e-06
1.01605e-05
1.06e-05
1.0927e-05
1.12371e-05
1.15836e-05
1.19774e-05
1.23892e-05
1.27704e-05
1.3076e-05
1.32784e-05
1.33677e-05
1.33458e-05
1.32165e-05
1.29857e-05
1.26621e-05
1.22578e-05
1.17871e-05
1.12666e-05
1.07142e-05
1.01482e-05
9.58792e-06
9.05949e-06
8.61558e-06
8.37892e-06
8.7656e-06
9.75441e-06
1.16013e-05
5.13816e-06
2.38414e-06
-4.53685e-05
)
;
    }
    sWall
    {
        type            calculated;
        value           uniform -0.000186517;
    }
    nWall
    {
        type            calculated;
        value           nonuniform List<scalar> 6(-5.54075e-05 -5.57981e-05 -5.64251e-05 -7.04293e-05 -7.73734e-05 -9.44854e-05);
    }
    sideWalls
    {
        type            empty;
        value           nonuniform 0();
    }
    glass1
    {
        type            calculated;
        value           nonuniform List<scalar> 9(-5.96744e-05 -0.000163984 -0.000254624 -0.000334163 -0.000403559 -0.000462975 -0.000514336 -0.000572733 -0.000636198);
    }
    glass2
    {
        type            calculated;
        value           nonuniform List<scalar> 2(-0.000252508 -0.000275071);
    }
    sun
    {
        type            calculated;
        value           uniform 0;
    }
    Table_master
    {
        type            calculated;
        value           nonuniform List<scalar> 9(-1.53108e-07 -1.53309e-07 -1.53368e-07 -1.53397e-07 -1.53412e-07 -1.53417e-07 -1.53413e-07 -1.53399e-07 -1.53346e-07);
    }
    Table_slave
    {
        type            calculated;
        value           nonuniform List<scalar> 9(1.52921e-07 1.52891e-07 1.52838e-07 1.52804e-07 1.52786e-07 1.52776e-07 1.5279e-07 1.52832e-07 1.52915e-07);
    }
    inlet
    {
        type            calculated;
        value           uniform -0.0230659;
    }
    outlet
    {
        type            calculated;
        value           nonuniform List<scalar> 2(0.0221366 0.00544184);
    }
}


// ************************************************************************* //
