/*--------------------------------*- C++ -*----------------------------------*\
  =========                 |
  \\      /  F ield         | OpenFOAM: The Open Source CFD Toolbox
   \\    /   O peration     | Website:  https://openfoam.org
    \\  /    A nd           | Version:  6
     \\/     M anipulation  |
\*---------------------------------------------------------------------------*/
FoamFile
{
    version     2.0;
    format      ascii;
    class       volScalarField;
    location    "600";
    object      alphat;
}
// * * * * * * * * * * * * * * * * * * * * * * * * * * * * * * * * * * * * * //

dimensions      [1 -1 -1 0 0 0 0];

internalField   nonuniform List<scalar> 
458
(
0.00130907
0.00142947
0.0014648
0.00153885
0.0016075
0.00167253
0.00173706
0.00180515
0.00186911
0.00192187
0.00195407
0.00195352
0.00190552
0.00177546
0.00132183
0.000636159
0.000759021
0.000864485
0.000889474
0.000876454
0.000828614
0.000774394
0.000724718
0.000680774
0.000641892
0.000607497
0.000576975
0.000549381
0.000523735
0.000498867
0.000473064
0.000453217
0.00041243
0.0017619
0.00400563
0.00366752
0.004182
0.004704
0.00525598
0.00578934
0.00621693
0.00663954
0.00707532
0.00747455
0.00778205
0.0079429
0.00783471
0.0065909
0.00172993
0.00142075
0.00115322
0.000642226
0.00149675
0.00220186
0.00273454
0.00289554
0.00216149
0.00185192
0.00164203
0.00148586
0.00136494
0.00126557
0.00117459
0.00108698
0.000997828
0.000918347
0.000852337
0.00100145
0.000525384
0.00214039
0.00542646
0.00450104
0.00550172
0.00596058
0.00628871
0.00652944
0.00672688
0.00697993
0.00731696
0.00771718
0.00815897
0.00860284
0.00893477
0.00865267
0.00699339
0.00525123
0.00134653
0.00108374
0.00184612
0.00262509
0.00333543
0.00348683
0.00110125
0.000971333
0.000863155
0.000775331
0.000704249
0.000646523
0.000599685
0.000561918
0.00053299
0.000594921
0.000697481
0.00113956
0.000606378
0.00250342
0.00695486
0.00446919
0.00586047
0.00620438
0.00622015
0.00614269
0.00613368
0.00627021
0.00654468
0.00694187
0.00745669
0.00804945
0.00860555
0.00880584
0.00837974
0.00716332
0.00388436
0.00156555
0.00213925
0.00299033
0.00389519
0.0045894
0.00450883
0.00120316
0.00110278
0.00103878
0.000994529
0.000958359
0.000921525
0.00088379
0.000844003
0.000796932
0.000753314
0.000750413
0.0012694
0.000687292
0.00287396
0.00900679
0.00482182
0.00566872
0.0061959
0.00606695
0.00577594
0.0056311
0.00573437
0.00600471
0.00640844
0.00695122
0.00757642
0.00811087
0.00831361
0.0082212
0.0077832
0.0064827
0.00610194
0.0060501
0.00624848
0.00647223
0.00654153
0.006296
0.00528433
0.00483357
0.0046223
0.00448361
0.00433657
0.00413308
0.00376103
0.00323533
0.00260807
0.00197958
0.00148934
0.00134889
0.00109736
0.000841932
0.000892452
0.000884833
0.00327207
0.0113389
0.00685092
0.00541261
0.00584103
0.0059474
0.00574106
0.00545463
0.00555158
0.00582041
0.00622179
0.00676629
0.00736937
0.00780356
0.00786629
0.00770619
0.00761166
0.00755898
0.0077881
0.00802021
0.00807745
0.00791122
0.0075578
0.00707098
0.00652195
0.00615332
0.00591385
0.00572
0.00552679
0.00530966
0.00502201
0.00456526
0.00393604
0.00317816
0.00245705
0.00183754
0.00143391
0.00152196
0.00218645
0.00111735
0.00365231
0.0130615
0.0102138
0.00722251
0.00605826
0.00566044
0.00569206
0.00566808
0.00572854
0.00590871
0.00625847
0.0067753
0.00736238
0.00775182
0.00768683
0.00741908
0.00754926
0.00810204
0.00859322
0.0087471
0.00854137
0.00806357
0.00743634
0.00678179
0.00623862
0.00590048
0.00569498
0.0055369
0.00539072
0.00524818
0.00510822
0.0049154
0.00450567
0.00389943
0.00323801
0.00261035
0.002134
0.00201986
0.002506
0.00139464
0.00373063
0.0117057
0.010633
0.00974335
0.00850598
0.00739566
0.0068474
0.00641709
0.00611679
0.00613989
0.0064352
0.00692642
0.00750589
0.00786824
0.0077028
0.00744658
0.00783612
0.00828423
0.00844243
0.00825514
0.0077609
0.00708235
0.00637558
0.0057795
0.00537473
0.0051408
0.00499674
0.0048906
0.00481031
0.00476296
0.00476172
0.00480682
0.00476838
0.00438857
0.00400041
0.003755
0.0037944
0.00396598
0.00491739
0.00185061
0.00364296
0.0043465
0.00493886
0.00542755
0.0057708
0.00583511
0.00576437
0.00572884
0.00586669
0.00621611
0.00663684
0.00714508
0.00772276
0.00804111
0.00776991
0.00760242
0.00761161
0.00750496
0.00723583
0.0067835
0.00619703
0.00559607
0.00509064
0.00472567
0.00448302
0.00431422
0.00417701
0.00405173
0.00393331
0.00381934
0.00370299
0.00357212
0.00342768
0.0032925
0.00319294
0.00313616
0.003057
0.00289661
0.00270543
0.00177141
0.000881683
0.00189195
0.00304672
0.00403312
0.00480847
0.00551834
0.0062622
0.00681486
0.00703772
0.00736331
0.00781845
0.00805354
0.00778076
0.00729117
0.0067034
0.00617425
0.00572616
0.0053056
0.00491124
0.00457227
0.00430249
0.00409077
0.0039151
0.00375599
0.00360242
0.00345239
0.00331025
0.0031847
0.00308763
0.00303273
0.00301177
0.00299376
0.00296404
0.00288875
0.00271248
0.00240628
0.00202164
0.00140706
0.00307947
0.00483441
0.00542701
0.00640458
0.00717318
0.00786701
0.00804826
0.00723808
0.00633524
0.00641459
0.0064458
0.00634111
0.00608496
0.00567981
0.00529111
0.0049301
0.00461139
0.00432532
0.00406756
0.00383953
0.00364083
0.00346883
0.0033217
0.00320023
0.00310715
0.00304433
0.00301009
0.00299762
0.00299371
0.0030219
0.00307241
0.00313142
0.00317695
0.00317238
0.00309717
0.00297838
0.00241616
0.00142064
0.00321582
0.00325985
0.00331314
0.00353446
0.0033458
0.00319502
0.00292558
0.00249145
0.00196514
0.0017019
0.0015019
0.00139345
0.00133493
0.00127624
0.00121443
0.00116198
0.00112191
0.00109416
0.00107121
0.00105219
0.0010378
0.00102869
0.00102523
0.00102757
0.00103575
0.00104977
0.00106966
0.00109551
0.00112773
0.00116734
0.00121651
0.00127272
0.00133618
0.00140629
0.00148218
0.0015616
0.00163664
0.00160761
0.00147768
0.00135898
)
;

boundaryField
{
    floor
    {
        type            compressible::alphatWallFunction;
        Prt             0.85;
        value           nonuniform List<scalar> 
36
(
0.00018677
8.96961e-05
0.000107754
0.000122975
0.000126549
0.000124689
0.000117825
0.000109989
0.000102752
9.62996e-05
9.05486e-05
8.54259e-05
8.08502e-05
7.66877e-05
7.27959e-05
6.89992e-05
6.50347e-05
6.1967e-05
5.56084e-05
5.56077e-05
7.30473e-05
8.52596e-05
9.72614e-05
0.000119746
0.000126981
0.000125897
0.000186767
0.00024156
0.000200204
0.0001636
8.96951e-05
0.000163598
9.05965e-05
0.000190133
0.00015395
0.000219689
)
;
    }
    ceiling
    {
        type            compressible::alphatWallFunction;
        Prt             0.85;
        value           nonuniform List<scalar> 
43
(
0.000431078
0.000436528
0.000443115
0.000470412
0.000447233
0.000428614
0.000395085
0.000340352
0.000272591
0.000237983
0.000211294
0.000196659
0.000188709
0.000180696
0.000172209
0.000164969
0.000159411
0.00015555
0.000152347
0.000149687
0.000147671
0.000146393
0.000145907
0.000146235
0.000147382
0.000149348
0.000152129
0.000155737
0.000160219
0.000165709
0.000172495
0.000180215
0.000188884
0.000198406
0.000208656
0.000219318
0.000229339
0.00022547
0.000208051
0.000191991
0.000483999
0.000569246
0.000414046
)
;
    }
    sWall
    {
        type            compressible::alphatWallFunction;
        Prt             0.85;
        value           uniform 0.000429765;
    }
    nWall
    {
        type            compressible::alphatWallFunction;
        Prt             0.85;
        value           nonuniform List<scalar> 6(0.000125659 0.000158394 0.000196432 0.000198147 0.000199984 0.000191622);
    }
    sideWalls
    {
        type            empty;
    }
    glass1
    {
        type            compressible::alphatWallFunction;
        Prt             0.85;
        value           nonuniform List<scalar> 9(0.000180004 0.000239854 0.000288723 0.000334827 0.000381232 0.00043045 0.000476932 0.0004866 0.000476224);
    }
    glass2
    {
        type            compressible::alphatWallFunction;
        Prt             0.85;
        value           nonuniform List<scalar> 2(0.000255252 0.000244968);
    }
    sun
    {
        type            compressible::alphatWallFunction;
        Prt             0.85;
        value           nonuniform List<scalar> 
14
(
0.000185042
0.00020138
0.000206148
0.000216104
0.000225285
0.000233943
0.000242498
0.000251487
0.000259896
0.000266809
0.000271019
0.000270947
0.000264671
0.000247574
)
;
    }
    Table_master
    {
        type            compressible::alphatWallFunction;
        Prt             0.85;
        value           nonuniform List<scalar> 9(0.000156595 0.000138372 0.00012298 0.000110315 9.99389e-05 9.1419e-05 8.44377e-05 7.87595e-05 7.43782e-05);
    }
    Table_slave
    {
        type            compressible::alphatWallFunction;
        Prt             0.85;
        value           nonuniform List<scalar> 9(0.00017072 0.000156813 0.000147869 0.000141649 0.00013654 0.000131315 0.000125936 0.000120234 0.000113448);
    }
    inlet
    {
        type            fixedValue;
        value           uniform 1.94e-05;
    }
    outlet
    {
        type            zeroGradient;
    }
}


// ************************************************************************* //
