/*--------------------------------*- C++ -*----------------------------------*\
  =========                 |
  \\      /  F ield         | OpenFOAM: The Open Source CFD Toolbox
   \\    /   O peration     | Website:  https://openfoam.org
    \\  /    A nd           | Version:  6
     \\/     M anipulation  |
\*---------------------------------------------------------------------------*/
FoamFile
{
    version     2.0;
    format      ascii;
    class       volScalarField;
    location    "600";
    object      epsilon;
}
// * * * * * * * * * * * * * * * * * * * * * * * * * * * * * * * * * * * * * //

dimensions      [0 2 -3 0 0 0 0];

internalField   nonuniform List<scalar> 
458
(
0.000499222
0.000648059
0.000697201
0.00080835
0.0009214
0.00103778
0.00116257
0.00130468
0.00144827
0.00157435
0.0016548
0.00165344
0.00153475
0.00124179
0.000512782
5.73014e-05
9.72985e-05
0.000143744
0.000156592
0.000149831
0.00012662
0.000103361
8.47235e-05
7.02309e-05
5.88745e-05
4.99109e-05
4.27619e-05
3.69171e-05
3.19862e-05
2.76442e-05
2.3574e-05
2.07311e-05
1.56269e-05
0.00121965
0.00181404
0.000607833
0.000595405
0.000615579
0.00064947
0.00070388
0.000789933
0.000901733
0.0010211
0.0011132
0.00114014
0.00108548
0.000964906
0.00079516
0.00114937
0.000636776
0.000340637
5.89638e-05
0.000123566
0.000141534
0.000138962
0.000130735
0.000131303
0.000105755
8.28199e-05
6.51616e-05
5.17787e-05
4.16532e-05
3.39728e-05
2.80488e-05
2.35766e-05
2.09275e-05
1.99502e-05
4.63586e-05
3.23003e-05
0.0021913
0.00438554
0.000709183
0.000539877
0.000542092
0.00057586
0.000637077
0.000733105
0.000862258
0.00100067
0.00110542
0.00114407
0.00110674
0.0009982
0.000793215
0.000625596
0.000508447
0.000542283
0.000283141
0.000238643
0.000198585
0.000166911
0.000150181
0.000297302
0.000204007
0.000143154
0.000103751
7.77511e-05
6.01558e-05
4.80055e-05
3.94948e-05
3.37035e-05
2.65618e-05
2.32035e-05
8.42401e-05
4.96605e-05
0.00351386
0.00906626
0.00107058
0.000520452
0.000495508
0.000529808
0.000596413
0.00070964
0.00087355
0.00104016
0.00115344
0.00119405
0.00115759
0.00103036
0.000817726
0.000637726
0.000533639
0.000549922
0.000852598
0.000550487
0.000356383
0.00025467
0.000196278
0.000168749
0.000388058
0.000298875
0.000249839
0.000219282
0.000196238
0.000174482
0.000153921
0.00013406
0.000112859
7.07968e-05
4.58836e-05
0.000125516
7.23186e-05
0.00532799
0.0162786
0.00211626
0.00058794
0.000472443
0.000492574
0.000565701
0.000725757
0.000973838
0.00118398
0.00130056
0.0013302
0.00127171
0.00109324
0.000835502
0.000610103
0.000472953
0.000436212
0.000435892
0.000361952
0.000292801
0.000238603
0.000194718
0.000160216
0.00014956
0.000140776
0.000136553
0.000133016
0.000127535
0.000118662
0.000107438
9.63413e-05
8.59548e-05
7.11369e-05
5.57166e-05
8.67924e-05
0.000116799
0.000132971
0.000158396
0.000154468
0.00787853
0.02443
0.00511336
0.00115243
0.000654552
0.00056159
0.00059101
0.00085475
0.00123513
0.00146527
0.00156161
0.00155937
0.00145567
0.0012149
0.000871368
0.000565549
0.000384615
0.000320761
0.000306222
0.000292023
0.000264701
0.000228153
0.000190633
0.000159135
0.000143034
0.000141886
0.000146993
0.000151519
0.00015204
0.000146005
0.000131237
0.000112624
9.49151e-05
7.87781e-05
6.63137e-05
7.12588e-05
8.74715e-05
0.000136777
0.000494379
0.000311078
0.010976
0.0293233
0.0113946
0.00451548
0.00239514
0.00151556
0.00122708
0.00152163
0.00181187
0.00193594
0.00195424
0.00188405
0.00171255
0.00138346
0.00092864
0.000533096
0.00031765
0.000254887
0.000255562
0.000256232
0.000238913
0.000209901
0.000180695
0.000159807
0.000153886
0.000161966
0.000175742
0.000189689
0.000201117
0.000206925
0.0002026
0.000179817
0.000155426
0.000134687
0.000123004
0.000128228
0.000156598
0.000244929
0.000979894
0.000604988
0.0117275
0.031577
0.0187128
0.0134474
0.00910576
0.00588668
0.00414979
0.00335206
0.00292807
0.00269526
0.00251172
0.0023012
0.00202023
0.0015661
0.000966484
0.000483762
0.000266105
0.000224683
0.000227613
0.000225362
0.000209583
0.000189138
0.000173493
0.00016767
0.000173157
0.000187942
0.000208499
0.000233127
0.000261705
0.000294276
0.0003298
0.00036271
0.000375113
0.000405641
0.000479942
0.000679211
0.00114758
0.00186762
0.00644232
0.00141637
0.0109605
0.0185539
0.0156522
0.0123094
0.00964331
0.00744597
0.00583888
0.00469436
0.00397784
0.0035356
0.00313747
0.00273516
0.002313
0.00168101
0.000885009
0.000400108
0.000255032
0.000222946
0.000216122
0.000208001
0.000196163
0.000185695
0.000180824
0.000183075
0.000192333
0.000207872
0.000229379
0.000257822
0.000295505
0.000345863
0.000413246
0.00050266
0.000620283
0.000784952
0.00103409
0.00137907
0.0017857
0.00216749
0.00250092
0.00124458
0.00421003
0.00496584
0.00549946
0.0056057
0.00544643
0.00521262
0.00492371
0.00442071
0.00364594
0.00295282
0.00239195
0.00148537
0.000727879
0.000416978
0.000315182
0.000281788
0.000267519
0.000257162
0.000247673
0.000239931
0.000235108
0.000233744
0.000235998
0.000241966
0.000251967
0.000266958
0.000288901
0.00032118
0.000369242
0.000441395
0.000545555
0.00068824
0.000874362
0.00108472
0.00125456
0.0012888
0.00114966
0.000623701
0.00618987
0.0187865
0.012662
0.0109926
0.00961113
0.00831066
0.00668825
0.00454006
0.0026885
0.00141174
0.000925246
0.000655322
0.000533914
0.000494737
0.000477831
0.000458475
0.000435909
0.000411589
0.000386927
0.000363325
0.000342017
0.000324096
0.000310636
0.000302819
0.00030202
0.000309793
0.000327967
0.000358926
0.000406056
0.000474969
0.000572055
0.00070391
0.000872201
0.00105994
0.00123117
0.00137411
0.000794294
0.000641853
0.00716239
0.00745885
0.00783038
0.00958138
0.00816939
0.0071449
0.00550696
0.0034176
0.00168578
0.00109815
0.000756055
0.000604426
0.000531732
0.000464818
0.000400592
0.000350947
0.000315894
0.000293041
0.000274983
0.000260593
0.000250048
0.000243519
0.000241065
0.000242712
0.000248549
0.00025878
0.000273761
0.000294087
0.0003208
0.000355795
0.000402671
0.000461111
0.000533581
0.000622054
0.000728321
0.000851833
0.000980774
0.000929605
0.000721958
0.000561809
)
;

boundaryField
{
    floor
    {
        Cmu             0.09;
        kappa           0.41;
        E               9.8;
        type            epsilonWallFunction;
        value           nonuniform List<scalar> 
36
(
0.000512782
5.73014e-05
9.72985e-05
0.000143744
0.000156592
0.000149831
0.00012662
0.000103361
8.47235e-05
7.02309e-05
5.88745e-05
4.99109e-05
4.27619e-05
3.69171e-05
3.19862e-05
2.76442e-05
2.3574e-05
2.07311e-05
1.56269e-05
1.56269e-05
3.23003e-05
4.96605e-05
7.23186e-05
0.000132971
0.000158396
0.000154468
0.000512782
0.00114937
0.000636776
0.000340637
5.73014e-05
0.000340637
5.89638e-05
0.000542283
0.000283141
0.000852598
)
;
    }
    ceiling
    {
        Cmu             0.09;
        kappa           0.41;
        E               9.8;
        type            epsilonWallFunction;
        value           nonuniform List<scalar> 
43
(
0.00716239
0.00745885
0.00783038
0.00958138
0.00816939
0.0071449
0.00550696
0.0034176
0.00168578
0.00109815
0.000756055
0.000604426
0.000531732
0.000464818
0.000400592
0.000350947
0.000315894
0.000293041
0.000274983
0.000260593
0.000250048
0.000243519
0.000241065
0.000242712
0.000248549
0.00025878
0.000273761
0.000294087
0.0003208
0.000355795
0.000402671
0.000461111
0.000533581
0.000622054
0.000728321
0.000851833
0.000980774
0.000929605
0.000721958
0.000561809
0.0109605
0.0185539
0.00618987
)
;
    }
    sWall
    {
        Cmu             0.09;
        kappa           0.41;
        E               9.8;
        type            epsilonWallFunction;
        value           uniform 0.00716239;
    }
    nWall
    {
        Cmu             0.09;
        kappa           0.41;
        E               9.8;
        type            epsilonWallFunction;
        value           nonuniform List<scalar> 6(0.000154468 0.000311078 0.000604988 0.000623701 0.000641853 0.000561809);
    }
    sideWalls
    {
        type            empty;
    }
    glass1
    {
        Cmu             0.09;
        kappa           0.41;
        E               9.8;
        type            epsilonWallFunction;
        value           nonuniform List<scalar> 9(0.000499222 0.00121965 0.0021913 0.00351386 0.00532799 0.00787853 0.010976 0.0117275 0.0109605);
    }
    glass2
    {
        Cmu             0.09;
        kappa           0.41;
        E               9.8;
        type            epsilonWallFunction;
        value           nonuniform List<scalar> 2(0.00141637 0.00124458);
    }
    sun
    {
        Cmu             0.09;
        kappa           0.41;
        E               9.8;
        type            epsilonWallFunction;
        value           nonuniform List<scalar> 
14
(
0.000499222
0.000648059
0.000697201
0.00080835
0.0009214
0.00103778
0.00116257
0.00130468
0.00144827
0.00157435
0.0016548
0.00165344
0.00153475
0.00124179
)
;
    }
    Table_master
    {
        Cmu             0.09;
        kappa           0.41;
        E               9.8;
        type            epsilonWallFunction;
        value           nonuniform List<scalar> 9(0.000297302 0.000204007 0.000143154 0.000103751 7.77511e-05 6.01558e-05 4.80055e-05 3.94948e-05 3.37035e-05);
    }
    Table_slave
    {
        Cmu             0.09;
        kappa           0.41;
        E               9.8;
        type            epsilonWallFunction;
        value           nonuniform List<scalar> 9(0.000388058 0.000298875 0.000249839 0.000219282 0.000196238 0.000174482 0.000153921 0.00013406 0.000112859);
    }
    inlet
    {
        type            turbulentMixingLengthDissipationRateInlet;
        mixingLength    0.01;
        phi             phi;
        k               k;
        value           uniform 0.00377337;
    }
    outlet
    {
        type            zeroGradient;
    }
}


// ************************************************************************* //
