/*--------------------------------*- C++ -*----------------------------------*\
  =========                 |
  \\      /  F ield         | OpenFOAM: The Open Source CFD Toolbox
   \\    /   O peration     | Website:  https://openfoam.org
    \\  /    A nd           | Version:  6
     \\/     M anipulation  |
\*---------------------------------------------------------------------------*/
FoamFile
{
    version     2.0;
    format      ascii;
    class       volScalarField;
    location    "1300";
    object      alphat;
}
// * * * * * * * * * * * * * * * * * * * * * * * * * * * * * * * * * * * * * //

dimensions      [1 -1 -1 0 0 0 0];

internalField   nonuniform List<scalar> 
458
(
0.000814359
0.000840518
0.000799041
0.000827612
0.000855066
0.000879721
0.000902025
0.000922725
0.000942725
0.000963227
0.000980584
0.000993247
0.00100125
0.0010064
0.00100887
0.000475235
0.000573482
0.000580511
0.000519117
0.000435564
0.000322633
0.000256182
0.000258089
0.000270309
0.000278597
0.000273284
0.000260396
0.000244686
0.000255926
0.000333657
0.000397166
0.000404873
0.000372338
0.00133976
0.00218777
0.001726
0.00215656
0.00231963
0.00248632
0.00265307
0.0028068
0.00292901
0.00299464
0.00301313
0.00294796
0.0027495
0.00234552
0.00169199
0.00106563
0.00101782
0.000740166
0.000637275
0.00135813
0.00156663
0.00156884
0.00126906
0.000919688
0.000773375
0.000747755
0.000785185
0.000802683
0.000736927
0.000603033
0.000450138
0.000384867
0.000697588
0.00102065
0.00129455
0.000541014
0.00181363
0.00354242
0.00184679
0.00314475
0.00348508
0.00368259
0.00384547
0.00397842
0.00408057
0.0041458
0.00417855
0.00415291
0.00403067
0.00376148
0.00330376
0.00267497
0.0018888
0.0010865
0.000904254
0.00248258
0.00223134
0.00180978
0.00140763
0.000556303
0.00047428
0.000429942
0.000399827
0.000375734
0.000354397
0.000332727
0.000310213
0.000335608
0.00112613
0.00159098
0.00133315
0.000584218
0.0022825
0.00543968
0.00198122
0.00346859
0.00416942
0.0043785
0.00450566
0.00459656
0.00466418
0.00471312
0.00475074
0.00477454
0.00476425
0.00467937
0.00444481
0.00395028
0.00310065
0.00197886
0.00110266
0.00240727
0.0025713
0.00216643
0.00161309
0.0010894
0.000709757
0.000717774
0.000741071
0.000782646
0.000844576
0.000888831
0.000925395
0.000943503
0.000930043
0.00109497
0.00141565
0.00183206
0.00095108
0.00273959
0.00773456
0.0027225
0.00320756
0.00442143
0.00472349
0.00484218
0.00490441
0.00493844
0.00496182
0.00498598
0.00504212
0.00512555
0.00521746
0.0052853
0.00528957
0.00519903
0.00496882
0.00453358
0.00411695
0.00367954
0.00326455
0.00296259
0.0027698
0.00266535
0.00266515
0.00273851
0.00290207
0.00317252
0.00340723
0.00358341
0.00366506
0.00362429
0.00330695
0.00288107
0.0025293
0.00198352
0.00106498
0.000986452
0.00103364
0.00318918
0.0100428
0.00474317
0.00303892
0.00397225
0.00458328
0.00487251
0.00501564
0.0050592
0.00503737
0.00499964
0.00504283
0.00513724
0.00526125
0.0053954
0.00551454
0.00557186
0.00547142
0.0051346
0.00463594
0.00413407
0.00373675
0.00345082
0.0032228
0.0030291
0.00289437
0.00285981
0.00298707
0.00335745
0.00372623
0.00399982
0.00417651
0.00427881
0.0042768
0.00399266
0.00355489
0.00299944
0.00221656
0.00181007
0.00105335
0.00361414
0.0118788
0.00829631
0.00487332
0.00356341
0.00361615
0.00415726
0.00466886
0.00499275
0.00501178
0.0049226
0.00493834
0.00499651
0.00507767
0.00517152
0.00526737
0.00533084
0.00527908
0.00504208
0.00464983
0.00421963
0.00386233
0.00359172
0.00334435
0.00307494
0.00281623
0.00265455
0.0027515
0.00321811
0.00367752
0.00400567
0.00423227
0.00443436
0.00466381
0.00478998
0.00453169
0.00408331
0.00347784
0.00275817
0.00127855
0.00370442
0.0116553
0.0098111
0.00830103
0.00634874
0.00494392
0.00439411
0.00443525
0.00471284
0.00483672
0.00481059
0.00478223
0.004778
0.00479018
0.00480669
0.00482
0.00481882
0.0047652
0.00460949
0.00434658
0.00403591
0.00375862
0.00356003
0.0033924
0.00316095
0.00282787
0.00249999
0.00253342
0.00313828
0.00365191
0.00395062
0.00415914
0.00439232
0.00475425
0.00530563
0.00569321
0.00555011
0.0049688
0.00461936
0.00167856
0.00360232
0.00430313
0.00504058
0.00539768
0.00544602
0.00515548
0.00480387
0.00455505
0.00443759
0.00438876
0.00438803
0.00440669
0.00442026
0.00441257
0.00437604
0.00431118
0.00422235
0.00410804
0.00395879
0.00377367
0.00357621
0.00341031
0.00332126
0.00330426
0.00324255
0.00292872
0.00238001
0.00225276
0.00302179
0.00359299
0.00379773
0.00385197
0.00384284
0.00378621
0.00368375
0.0035384
0.00328912
0.00292764
0.00263032
0.00162987
0.00333693
0.00630319
0.00587211
0.00556475
0.00526423
0.00500228
0.00479772
0.00463886
0.00450326
0.00437745
0.00424814
0.00410542
0.00394538
0.00377034
0.0035873
0.00340474
0.00323008
0.00307156
0.00294377
0.00287226
0.00289031
0.0030096
0.00314523
0.00300763
0.00222419
0.00178501
0.00268098
0.00340255
0.00360396
0.0036595
0.00366901
0.00362149
0.00350643
0.00328656
0.00293947
0.00250666
0.00208891
0.00135786
0.00310652
0.00684277
0.0063168
0.00588908
0.00554078
0.00522598
0.00492499
0.00464355
0.00437975
0.00408238
0.00376952
0.00345998
0.00316472
0.00289048
0.00264213
0.00242449
0.00224334
0.00210627
0.00202399
0.00201144
0.00208464
0.00224312
0.00241962
0.00239487
0.00185196
0.00119667
0.00189636
0.00264294
0.00289641
0.00311261
0.00335342
0.00354177
0.00366033
0.00364731
0.00345412
0.00316666
0.00270254
0.00138014
0.00244754
0.0026518
0.002828
0.00298427
0.00277109
0.00258937
0.00236516
0.00218232
0.00201582
0.00186284
0.00172107
0.00159891
0.00148954
0.00138764
0.00129043
0.00119667
0.00110622
0.00101979
0.000938837
0.000865265
0.000801133
0.000748369
0.000708671
0.000683219
0.000670709
0.000662364
0.000643358
0.00063064
0.000722271
0.000794061
0.000859482
0.00093884
0.00104065
0.0011716
0.00130855
0.00146408
0.0015195
0.00148442
0.00136549
0.00125259
)
;

boundaryField
{
    floor
    {
        type            compressible::alphatWallFunction;
        Prt             0.85;
        value           nonuniform List<scalar> 
36
(
0.00014354
6.54182e-05
8.03764e-05
8.14337e-05
7.21403e-05
5.92657e-05
4.13284e-05
3.04027e-05
3.07207e-05
3.27534e-05
3.41244e-05
3.32451e-05
3.11037e-05
2.84747e-05
3.03592e-05
4.31083e-05
5.32319e-05
5.44457e-05
4.9302e-05
4.93013e-05
7.54494e-05
8.19699e-05
0.000135365
0.000151399
0.000140374
0.000147018
0.000143539
0.0001515
0.000144798
0.000105077
6.54174e-05
0.000105076
8.99187e-05
0.000154411
0.000128721
0.000156664
)
;
    }
    ceiling
    {
        type            compressible::alphatWallFunction;
        Prt             0.85;
        value           nonuniform List<scalar> 
43
(
0.000334709
0.000360633
0.000382831
0.000402509
0.000375825
0.000352897
0.000324358
0.000300867
0.000279289
0.000259292
0.000240599
0.000224355
0.000209696
0.000195928
0.000182687
0.00016981
0.000157277
0.00014519
0.000133761
0.000123273
0.000114045
0.000106387
0.000100582
9.68405e-05
9.49958e-05
9.37638e-05
9.09484e-05
8.90478e-05
0.000102568
0.00011302
0.000122443
0.00013376
0.000148118
0.000166349
0.000185166
0.000206272
0.000213728
0.000209011
0.000192925
0.000177509
0.000479118
0.00056413
0.000417509
)
;
    }
    sWall
    {
        type            compressible::alphatWallFunction;
        Prt             0.85;
        value           uniform 0.000333491;
    }
    nWall
    {
        type            compressible::alphatWallFunction;
        Prt             0.85;
        value           nonuniform List<scalar> 6(0.000146795 0.00014955 0.000180706 0.000191543 0.000194567 0.000177165);
    }
    sideWalls
    {
        type            empty;
    }
    glass1
    {
        type            compressible::alphatWallFunction;
        Prt             0.85;
        value           nonuniform List<scalar> 9(0.000112577 0.000184846 0.000247459 0.000307803 0.000365466 0.00042127 0.000473318 0.000484429 0.000472232);
    }
    glass2
    {
        type            compressible::alphatWallFunction;
        Prt             0.85;
        value           nonuniform List<scalar> 2(0.000233054 0.000226671);
    }
    sun
    {
        type            compressible::alphatWallFunction;
        Prt             0.85;
        value           nonuniform List<scalar> 
14
(
0.000115861
0.00011961
0.00011363
0.000117752
0.000121698
0.000125229
0.000128413
0.000131359
0.000134199
0.000137103
0.000139555
0.000141341
0.000142468
0.000143194
)
;
    }
    Table_master
    {
        type            compressible::alphatWallFunction;
        Prt             0.85;
        value           nonuniform List<scalar> 9(7.79148e-05 6.53946e-05 5.85146e-05 5.379e-05 4.9977e-05 4.65737e-05 4.30895e-05 3.94377e-05 4.35567e-05);
    }
    Table_slave
    {
        type            compressible::alphatWallFunction;
        Prt             0.85;
        value           nonuniform List<scalar> 9(0.000100756 0.000101931 0.000105338 0.000111384 0.000120325 0.000126664 0.000131874 0.000134445 0.000132535);
    }
    inlet
    {
        type            fixedValue;
        value           uniform 1.94e-05;
    }
    outlet
    {
        type            zeroGradient;
    }
}


// ************************************************************************* //
