/*--------------------------------*- C++ -*----------------------------------*\
  =========                 |
  \\      /  F ield         | OpenFOAM: The Open Source CFD Toolbox
   \\    /   O peration     | Website:  https://openfoam.org
    \\  /    A nd           | Version:  6
     \\/     M anipulation  |
\*---------------------------------------------------------------------------*/
FoamFile
{
    version     2.0;
    format      ascii;
    class       volScalarField;
    location    "800";
    object      alphat;
}
// * * * * * * * * * * * * * * * * * * * * * * * * * * * * * * * * * * * * * //

dimensions      [1 -1 -1 0 0 0 0];

internalField   nonuniform List<scalar> 
458
(
0.00155448
0.00171777
0.00177099
0.00186584
0.0019587
0.00205427
0.00213996
0.00219872
0.00222446
0.00221302
0.00215732
0.00201927
0.00182426
0.00156778
0.00134797
0.000795669
0.000942941
0.00109777
0.00116858
0.00115406
0.00107947
0.000997819
0.000925079
0.000862288
0.000807999
0.000760834
0.000719436
0.000682814
0.000649528
0.000617859
0.000585523
0.000555328
0.000503023
0.00204591
0.00533174
0.00528485
0.00617761
0.00705376
0.00776748
0.00831923
0.0087863
0.00915818
0.00942017
0.0095309
0.00940863
0.00897086
0.00811183
0.00551191
0.0017667
0.00153056
0.00127164
0.000770646
0.00213544
0.00334437
0.00420467
0.00434272
0.00296932
0.00245089
0.00211734
0.00187868
0.00169959
0.00156028
0.0014497
0.00134606
0.00123336
0.001123
0.00102624
0.00113147
0.000591755
0.0024489
0.00730332
0.00662848
0.00782107
0.0084402
0.00888588
0.0092506
0.00961723
0.010015
0.0104502
0.0108347
0.0110455
0.0109531
0.0104713
0.00918727
0.00691556
0.00512512
0.00150795
0.00112362
0.00238788
0.00387635
0.00517693
0.00527054
0.0014501
0.0012528
0.00109106
0.000961472
0.00085775
0.000774257
0.000706574
0.000653081
0.000614499
0.000697807
0.000834969
0.00131827
0.000658723
0.00283437
0.00920438
0.00696216
0.00823334
0.00856229
0.00873214
0.00891787
0.00916577
0.00955786
0.0101198
0.0106714
0.0110629
0.0112041
0.0110455
0.0105005
0.00936964
0.00761001
0.00404143
0.00173223
0.00248104
0.00397682
0.00574727
0.0070871
0.00685078
0.00164085
0.00148108
0.00136231
0.00126601
0.00118411
0.00111001
0.00103791
0.000963296
0.000880028
0.00080421
0.000833316
0.00152274
0.000724444
0.00323122
0.0116435
0.00812728
0.00861165
0.00884787
0.00876823
0.00873472
0.0088602
0.00924577
0.00985375
0.0104972
0.0109648
0.011155
0.0110938
0.0108332
0.0103279
0.00939186
0.00770802
0.00726756
0.00805682
0.0090618
0.00990584
0.0103018
0.00995846
0.00806001
0.00703568
0.00639042
0.00588489
0.00534565
0.00472404
0.00402864
0.00327409
0.00249574
0.00179371
0.00134316
0.00147354
0.00112866
0.000912062
0.000964713
0.00103987
0.00364839
0.014343
0.0113482
0.0100892
0.00971168
0.0091912
0.00882044
0.00880844
0.00921569
0.00992693
0.0106696
0.0111691
0.0113303
0.0112708
0.0111802
0.0111815
0.0111754
0.0110747
0.0115793
0.0123384
0.0127817
0.0128205
0.012467
0.0117512
0.0106808
0.00973997
0.00896606
0.0082668
0.00752849
0.00672742
0.00584526
0.00487882
0.00385558
0.0028682
0.00212064
0.00167708
0.001369
0.00121788
0.00152443
0.00108063
0.00398123
0.0158418
0.0146641
0.0121003
0.010487
0.00933092
0.00875704
0.00881562
0.00943353
0.0103718
0.0112522
0.0117587
0.0118667
0.0118709
0.012123
0.0127118
0.0132995
0.0138046
0.0143868
0.0147199
0.014568
0.0140054
0.0131502
0.0121265
0.0110474
0.0100794
0.00924655
0.00849025
0.007776
0.00708174
0.00632645
0.00550426
0.00461168
0.00368777
0.00290787
0.00230007
0.00190707
0.00177226
0.00167437
0.00129373
0.00400315
0.0124267
0.0108014
0.00935363
0.00838951
0.00792276
0.00807055
0.00883938
0.0100535
0.0113587
0.0123153
0.0126852
0.0126913
0.0129932
0.0138498
0.0144537
0.0148759
0.0151872
0.0153529
0.0151603
0.014499
0.0134812
0.0122597
0.0109815
0.00977883
0.00874757
0.00788409
0.0071445
0.00651269
0.005996
0.0055917
0.0051756
0.00465844
0.00404941
0.00355778
0.00332246
0.00340966
0.00374246
0.00478516
0.00199563
0.00387251
0.00440494
0.00436708
0.00437417
0.00487519
0.00613643
0.00800063
0.0101142
0.0120088
0.0132678
0.0136577
0.0135254
0.0137404
0.0141917
0.0146075
0.0148033
0.0148453
0.0147563
0.0144254
0.0137314
0.0126734
0.0113398
0.00990731
0.00854984
0.00739052
0.0064526
0.00568346
0.00503197
0.00447646
0.00400952
0.00362529
0.00333764
0.00312714
0.00298812
0.00292776
0.0029245
0.00289443
0.00277279
0.00258803
0.00182849
0.00099612
0.00343699
0.00772761
0.012036
0.0148248
0.016039
0.0159144
0.0150538
0.0140452
0.0134748
0.0134796
0.0135227
0.0133916
0.0131496
0.0128374
0.0123869
0.01169
0.0107054
0.00951058
0.00826222
0.00709577
0.00610867
0.00533623
0.00473141
0.004236
0.00382185
0.0034879
0.00324464
0.00308917
0.00299589
0.00295072
0.00293901
0.00293591
0.00289412
0.00275079
0.00247861
0.00212023
0.00147084
0.00476822
0.0135647
0.0141988
0.0139889
0.0136438
0.0131437
0.0124558
0.0117163
0.0111229
0.0107336
0.0103963
0.0100174
0.00965827
0.00932786
0.00896445
0.00849349
0.00788254
0.00717394
0.00645896
0.00581784
0.00528231
0.00485387
0.00451936
0.00424537
0.00400761
0.00379442
0.00359992
0.00344254
0.00333362
0.00327462
0.00326203
0.0032842
0.00331733
0.00333281
0.0032946
0.00323844
0.00272772
0.00149273
0.00320563
0.00341983
0.00360722
0.00335001
0.00311772
0.00298264
0.00282856
0.00261156
0.00235607
0.00212057
0.00193275
0.00179304
0.00169351
0.00162369
0.00157154
0.00152611
0.0014795
0.00142774
0.0013716
0.0013159
0.00126636
0.00122674
0.00119845
0.00118032
0.00116925
0.0011648
0.00116733
0.00117794
0.00119841
0.00122824
0.00126719
0.00131541
0.0013734
0.00144181
0.00152055
0.00161612
0.00166495
0.00163675
0.00152319
0.00140839
)
;

boundaryField
{
    floor
    {
        type            compressible::alphatWallFunction;
        Prt             0.85;
        value           nonuniform List<scalar> 
36
(
0.000190248
0.000113013
0.000134092
0.000155844
0.000165674
0.000163667
0.000153298
0.000141852
0.000131563
0.000122606
0.000114799
0.000107966
0.000101927
9.65503e-05
9.16329e-05
8.69259e-05
8.20894e-05
7.75436e-05
6.95956e-05
6.95947e-05
8.30265e-05
9.29989e-05
0.000102667
0.000129739
0.000137218
0.000147797
0.000190246
0.000246335
0.000214915
0.000179831
0.000113011
0.00017983
0.000109386
0.00021188
0.00015943
0.000241784
)
;
    }
    ceiling
    {
        type            compressible::alphatWallFunction;
        Prt             0.85;
        value           nonuniform List<scalar> 
43
(
0.000429897
0.000456351
0.000479357
0.000447789
0.000419044
0.00040223
0.000382951
0.000355604
0.00032309
0.000292785
0.000268357
0.000250018
0.00023686
0.000227579
0.000220617
0.000214531
0.000208266
0.000201281
0.000193672
0.000186089
0.000179313
0.000173872
0.000169975
0.000167472
0.000165941
0.000165325
0.000165675
0.000167142
0.000169968
0.000174077
0.000179423
0.000186017
0.000193911
0.000203176
0.000213779
0.000226566
0.000233069
0.000229319
0.000214138
0.000198664
0.00051191
0.000576179
0.000619334
)
;
    }
    sWall
    {
        type            compressible::alphatWallFunction;
        Prt             0.85;
        value           uniform 0.00042863;
    }
    nWall
    {
        type            compressible::alphatWallFunction;
        Prt             0.85;
        value           nonuniform List<scalar> 6(0.000147538 0.000153229 0.000182636 0.00020672 0.000209664 0.000198282);
    }
    sideWalls
    {
        type            empty;
    }
    glass1
    {
        type            compressible::alphatWallFunction;
        Prt             0.85;
        value           nonuniform List<scalar> 9(0.000212009 0.000275825 0.000327077 0.000375372 0.000424458 0.000475448 0.000515776 0.000518618 0.000503194);
    }
    glass2
    {
        type            compressible::alphatWallFunction;
        Prt             0.85;
        value           nonuniform List<scalar> 2(0.000273831 0.000252225);
    }
    sun
    {
        type            compressible::alphatWallFunction;
        Prt             0.85;
        value           nonuniform List<scalar> 
14
(
0.000218135
0.000239861
0.000246898
0.000259382
0.000271538
0.000283984
0.000295089
0.000302676
0.000305992
0.000304518
0.000297331
0.00027943
0.000253917
0.000219897
)
;
    }
    Table_master
    {
        type            compressible::alphatWallFunction;
        Prt             0.85;
        value           nonuniform List<scalar> 9(0.000204396 0.000177547 0.000155178 0.000136979 0.000122206 0.00011016 0.000100281 9.23918e-05 8.6653e-05);
    }
    Table_slave
    {
        type            compressible::alphatWallFunction;
        Prt             0.85;
        value           nonuniform List<scalar> 9(0.00022997 0.000208579 0.000192509 0.000179364 0.000168095 0.000157822 0.00014775 0.000137241 0.0001254);
    }
    inlet
    {
        type            fixedValue;
        value           uniform 1.94e-05;
    }
    outlet
    {
        type            zeroGradient;
    }
}


// ************************************************************************* //
