/*--------------------------------*- C++ -*----------------------------------*\
  =========                 |
  \\      /  F ield         | OpenFOAM: The Open Source CFD Toolbox
   \\    /   O peration     | Website:  https://openfoam.org
    \\  /    A nd           | Version:  6
     \\/     M anipulation  |
\*---------------------------------------------------------------------------*/
FoamFile
{
    version     2.0;
    format      ascii;
    class       volScalarField;
    location    "1800";
    object      epsilon;
}
// * * * * * * * * * * * * * * * * * * * * * * * * * * * * * * * * * * * * * //

dimensions      [0 2 -3 0 0 0 0];

internalField   nonuniform List<scalar> 
458
(
0.000116763
0.000128412
0.000102089
0.000113624
0.000126859
0.000140191
0.000153548
0.000167181
0.0001816
0.000197742
0.00021264
0.000225472
0.000236243
0.000246118
0.000254243
8.79424e-06
1.22365e-05
1.29129e-05
8.32468e-06
4.9313e-06
3.26984e-06
3.73321e-06
4.71743e-06
5.91701e-06
6.95341e-06
7.25347e-06
6.88032e-06
6.85383e-06
7.37492e-06
8.87946e-06
1.18776e-05
1.0476e-05
7.44509e-06
0.000555158
0.00122897
0.00012954
8.70545e-05
8.92757e-05
9.42735e-05
9.99713e-05
0.000106866
0.00011576
0.000127649
0.00014148
0.0001571
0.00017488
0.000196664
0.000232667
0.000323837
0.000279441
8.40846e-05
2.56425e-05
3.7244e-05
2.59845e-05
1.3897e-05
7.50049e-06
5.3872e-06
7.12412e-06
1.01255e-05
1.32356e-05
1.56301e-05
1.72374e-05
1.87736e-05
2.07659e-05
2.39713e-05
2.55309e-05
2.46276e-05
2.674e-05
1.70893e-05
0.00140693
0.00413136
0.000314897
9.97404e-05
9.06946e-05
9.59169e-05
0.000103613
0.000113158
0.000124722
0.000138368
0.000153162
0.000167526
0.000180705
0.000192839
0.000205621
0.00022437
0.000255498
0.00034057
0.000102406
8.04603e-05
4.52007e-05
3.32932e-05
2.5439e-05
8.43113e-06
9.85313e-06
1.24872e-05
1.56636e-05
1.97004e-05
2.54388e-05
3.45982e-05
5.1673e-05
9.04275e-05
7.33872e-05
7.3539e-05
7.97866e-05
7.02145e-05
0.00279235
0.00920777
0.00077988
0.000135174
9.9221e-05
0.000104641
0.000115848
0.000129818
0.000146262
0.000164935
0.000184095
0.000200736
0.000214339
0.000225726
0.000234942
0.000242494
0.000253386
0.00027778
0.000339724
0.000106913
7.03883e-05
6.14808e-05
6.52759e-05
7.76734e-05
0.00010486
0.000102489
0.000102203
0.00010391
0.000108405
0.000116941
0.000131613
0.000156773
0.00020633
0.000127133
0.000142442
0.000147678
0.000181013
0.00473635
0.0159284
0.00176102
0.000218811
0.000116178
0.000117708
0.000133032
0.000153904
0.000179491
0.00020926
0.000236885
0.000256997
0.000271143
0.000282881
0.000292565
0.000297163
0.000292273
0.000268922
0.000214496
0.00013903
0.000100374
8.34685e-05
7.71033e-05
7.52461e-05
7.48769e-05
7.40764e-05
7.50517e-05
7.84383e-05
8.50439e-05
9.6035e-05
0.000112948
0.000137408
0.00016969
0.00020261
0.000249632
0.000310177
0.00036985
0.000537366
0.000361617
0.000239194
0.00726513
0.0220502
0.00365825
0.000502236
0.000187392
0.000159846
0.000174473
0.000202743
0.000241948
0.000292026
0.000326559
0.000341768
0.000346559
0.000350532
0.000357809
0.000365679
0.000365172
0.000341017
0.00028586
0.000219541
0.000168565
0.000137069
0.000119699
0.000110178
0.000104434
0.000100967
0.000100139
0.000102537
0.000109282
0.000122232
0.000143972
0.000177442
0.000224837
0.00028629
0.000362019
0.000449768
0.000530814
0.000541286
0.000317405
0.000269858
0.0102577
0.0248414
0.00751817
0.00197144
0.000712457
0.000422053
0.000367647
0.000375032
0.000418816
0.000481265
0.00049414
0.000477459
0.000451043
0.000428471
0.000417884
0.000418656
0.00042081
0.000405858
0.000363057
0.00030404
0.000248974
0.000208161
0.000181592
0.000164988
0.000154371
0.000147721
0.000144618
0.000145478
0.000151716
0.000166084
0.000192646
0.000235713
0.000297453
0.000376711
0.000468988
0.00056425
0.000636585
0.000646168
0.000569326
0.000269714
0.0109358
0.0304023
0.015123
0.00891173
0.0044809
0.00230314
0.00145573
0.00111874
0.000992591
0.000890746
0.000785854
0.000685896
0.000599563
0.0005322
0.000486368
0.000461764
0.000452508
0.000443529
0.000418709
0.000376738
0.000329777
0.000288858
0.00025884
0.000238315
0.0002246
0.000215761
0.000210957
0.000210314
0.000215367
0.000229993
0.000261246
0.000317915
0.00040427
0.00051661
0.000641267
0.000766733
0.000897157
0.00104734
0.00122952
0.000909796
0.00989655
0.0163326
0.0189334
0.0142219
0.00945753
0.00609969
0.00402685
0.00279167
0.00202112
0.00151252
0.00117101
0.000934488
0.000768058
0.000651532
0.0005726
0.000522993
0.000495387
0.000480001
0.000465067
0.000443098
0.000415219
0.000386845
0.00036254
0.000344036
0.000331006
0.000322368
0.000317081
0.000314569
0.000315322
0.000322132
0.000341689
0.000377998
0.000439999
0.000537159
0.000679662
0.000872512
0.00106101
0.00121783
0.00245055
0.00132008
0.0286019
0.0412679
0.0165666
0.00899944
0.00551404
0.00363587
0.00253653
0.0018455
0.00139548
0.00109981
0.0009061
0.000781675
0.000705176
0.000661721
0.000640138
0.000631402
0.000627334
0.00061981
0.000607296
0.000592301
0.000578138
0.000567003
0.000559486
0.000554937
0.000552049
0.000549392
0.000546031
0.000543268
0.000542494
0.000545485
0.000558519
0.000587188
0.000630092
0.000676385
0.000714742
0.000735778
0.000950196
0.0013296
0.0237344
0.0286162
0.0132782
0.00766081
0.00493675
0.00341895
0.00252094
0.0019766
0.00164028
0.00143648
0.00132354
0.00127582
0.00127465
0.00130294
0.00134346
0.00138052
0.00140147
0.00139498
0.00136827
0.00133375
0.00130136
0.00127613
0.00125877
0.00124715
0.00123743
0.0012249
0.00120475
0.00117167
0.00112099
0.00105614
0.000989803
0.000942381
0.000925996
0.000923455
0.000915358
0.000859252
0.00107654
0.00135784
0.00192826
0.00418749
0.0115222
0.00878671
0.00680892
0.00507843
0.00372461
0.00277345
0.00210797
0.00163429
0.00131343
0.00109382
0.0009427
0.000842392
0.000782208
0.000754286
0.00075129
0.00076546
0.000789628
0.000820089
0.00084494
0.000859968
0.000865873
0.000865387
0.000861359
0.000855908
0.000850271
0.000844947
0.000839973
0.000835453
0.00083106
0.00082466
0.000812809
0.000789944
0.000757097
0.000724256
0.000676785
0.000597523
0.000555041
0.000602603
)
;

boundaryField
{
    floor
    {
        Cmu             0.09;
        kappa           0.41;
        E               9.8;
        type            epsilonWallFunction;
        value           nonuniform List<scalar> 
36
(
0.000254243
8.79424e-06
1.22365e-05
1.29129e-05
8.32468e-06
4.9313e-06
3.26984e-06
3.73321e-06
4.71743e-06
5.91701e-06
6.95341e-06
7.25347e-06
6.88032e-06
6.85383e-06
7.37492e-06
8.87946e-06
1.18776e-05
1.0476e-05
7.44509e-06
7.44509e-06
1.70893e-05
7.02145e-05
0.000181013
0.000537366
0.000361617
0.000239194
0.000254243
0.000323837
0.000279441
8.40846e-05
8.79424e-06
8.40846e-05
2.56425e-05
0.00034057
0.000102406
0.000339724
)
;
    }
    ceiling
    {
        Cmu             0.09;
        kappa           0.41;
        E               9.8;
        type            epsilonWallFunction;
        value           nonuniform List<scalar> 
43
(
0.00192826
0.00418749
0.0115222
0.00878671
0.00680892
0.00507843
0.00372461
0.00277345
0.00210797
0.00163429
0.00131343
0.00109382
0.0009427
0.000842392
0.000782208
0.000754286
0.00075129
0.00076546
0.000789628
0.000820089
0.00084494
0.000859968
0.000865873
0.000865387
0.000861359
0.000855908
0.000850271
0.000844947
0.000839973
0.000835453
0.00083106
0.00082466
0.000812809
0.000789944
0.000757097
0.000724256
0.000676785
0.000597523
0.000555041
0.000602603
0.00989655
0.0163326
0.0237344
)
;
    }
    sWall
    {
        Cmu             0.09;
        kappa           0.41;
        E               9.8;
        type            epsilonWallFunction;
        value           uniform 0.00192826;
    }
    nWall
    {
        Cmu             0.09;
        kappa           0.41;
        E               9.8;
        type            epsilonWallFunction;
        value           nonuniform List<scalar> 6(0.000239194 0.000269858 0.000269714 0.0013296 0.00135784 0.000602603);
    }
    sideWalls
    {
        type            empty;
    }
    glass1
    {
        Cmu             0.09;
        kappa           0.41;
        E               9.8;
        type            epsilonWallFunction;
        value           nonuniform List<scalar> 9(0.000116763 0.000555158 0.00140693 0.00279235 0.00473635 0.00726513 0.0102577 0.0109358 0.00989655);
    }
    glass2
    {
        Cmu             0.09;
        kappa           0.41;
        E               9.8;
        type            epsilonWallFunction;
        value           nonuniform List<scalar> 2(0.000909796 0.00132008);
    }
    sun
    {
        Cmu             0.09;
        kappa           0.41;
        E               9.8;
        type            epsilonWallFunction;
        value           nonuniform List<scalar> 
14
(
0.000116763
0.000128412
0.000102089
0.000113624
0.000126859
0.000140191
0.000153548
0.000167181
0.0001816
0.000197742
0.00021264
0.000225472
0.000236243
0.000246118
)
;
    }
    Table_master
    {
        Cmu             0.09;
        kappa           0.41;
        E               9.8;
        type            epsilonWallFunction;
        value           nonuniform List<scalar> 9(8.43113e-06 9.85313e-06 1.24872e-05 1.56636e-05 1.97004e-05 2.54388e-05 3.45982e-05 5.1673e-05 9.04275e-05);
    }
    Table_slave
    {
        Cmu             0.09;
        kappa           0.41;
        E               9.8;
        type            epsilonWallFunction;
        value           nonuniform List<scalar> 9(0.00010486 0.000102489 0.000102203 0.00010391 0.000108405 0.000116941 0.000131613 0.000156773 0.00020633);
    }
    inlet
    {
        type            turbulentMixingLengthDissipationRateInlet;
        mixingLength    0.01;
        phi             phi;
        k               k;
        value           uniform 3.77337e-06;
    }
    outlet
    {
        type            zeroGradient;
    }
}


// ************************************************************************* //
