/*--------------------------------*- C++ -*----------------------------------*=========                 |
  \      /  F ield         | OpenFOAM: The Open Source CFD Toolbox
   \    /   O peration     | Website:  https://openfoam.org
    \  /    A nd           | Version:  6
     \/     M anipulation  |
\*---------------------------------------------------------------------------*/
FoamFile
{
    version     2.0;
    format      ascii;
    class       volScalarField;
    location    "1800";
    object      PMV;
}
// * * * * * * * * * * * * * * * * * * * * * * * * * * * * * * * * * * * * * //

dimensions      [0 0 0 0 0 0 0];

internalField   nonuniform List<scalar> 
458
(
2.3732844681744583
2.232014543380478
2.2404730123214462
2.2372035717168055
2.2342622325933297
2.231463885805762
2.2300125883508217
2.2289778527628963
2.2295037031931715
2.231835086760886
2.2349847716571203
2.23971142754351
2.2483715909690587
2.2559654641658096
2.2428473368713404
1.7162165537077532
1.7258437731344771
1.7354701244248674
1.7287317704671066
1.721992988568844
1.7171793142231153
1.7133282211780583
1.7104398125315228
1.709476992813952
1.7109212192389538
1.711402623842714
1.7104398125315228
1.7128468250104463
1.7215116307870468
1.7388391390494367
1.7686741262466559
1.7681929875885176
1.7624191396877376
2.4195957176446288
2.2568627394449248
2.2733132663692905
2.270217242777615
2.2710656339348847
2.2723487861907654
2.2739575448734946
2.275318051998352
2.276972422778335
2.2780280327522555
2.2780998770740353
2.276461395905659
2.271272052341583
2.2592518802225294
2.237770352355675
2.230727347347797
2.2290817080105017
2.21759660802111
1.7354033600895837
1.7888797811939525
1.7936900161769485
1.7879177044989885
1.7763720209080742
1.778296398665691
1.7768531189638652
1.7768531189638652
1.7802207377607897
1.789360815839859
1.8061954546349737
1.8278353750640757
1.8509119960256337
1.8802292144806085
1.9104960969640843
1.8980064693857026
1.8720599211951523
1.790973435664396
2.5008419995964024
2.2755218270960422
2.306051637079856
2.3037922046905033
2.309753677923139
2.316649216813261
2.3232240461425433
2.3298477446513775
2.334951439911468
2.338063975316111
2.339147154692484
2.3343622493886005
2.3229999354823647
2.3023717479333703
2.272139620524203
2.240973081345662
2.204768601963184
2.1658999786127433
1.9565928851937369
1.9455516351540183
1.9498723375962304
1.96043289732971
1.9527526539099833
1.8595640860621752
1.8710987723282404
1.8879171809349187
1.9066533579483387
1.927305701782225
1.9498723375962304
1.9786699123339824
2.017526105275873
2.0716903011981054
2.1396770901399482
2.12819290131336
2.1133551179587213
2.1009924646802647
2.588412985300373
2.301040602263726
2.335492040208656
2.3330855862041435
2.345295094458495
2.3589058804451675
2.372407469832331
2.3851691754214674
2.3961103313835164
2.404225005685297
2.4078268685325104
2.4043198349712935
2.3915316752566413
2.367518167675523
2.332560164369645
2.2879387961082718
2.2296845191024572
2.159714589894102
2.1060394432152307
2.086630783402248
2.127233400852131
2.1705146184249995
2.203938380296494
2.221493223571572
2.236231879013234
2.243070121968516
2.2501688381543863
2.258749274027353
2.2679313990809207
2.2784177970733066
2.289646104063576
2.2920294220282234
2.290122780712629
2.273912156677454
2.2715276201834818
2.266758076783224
2.257694234906972
2.6745673420196567
2.3358461982673955
2.3606842810638278
2.358787591442157
2.3757736470049515
2.3953489936826915
2.4154872479051663
2.435531438491088
2.4533721570675535
2.468539529311789
2.477053571160035
2.4778601178804553
2.4682424963518286
2.4482847422330276
2.4190172420630813
2.3810875988405567
2.3371370217098444
2.294407770127423
2.263489590520958
2.2471897901225573
2.2493275859599335
2.2598801746164665
2.26743796201222
2.2713561363002643
2.27373091592269
2.2762139510302988
2.2798756499191137
2.285134214747122
2.2919984770663495
2.3000425351587657
2.3094319218539923
2.3203042917585335
2.330120733618815
2.33442433560645
2.3396603269571967
2.3448954448235875
2.3448954448235875
2.3316351911678947
2.304837181300406
2.3262694716428416
2.7524519645785177
2.3807814214430345
2.3944029822248827
2.3841321158141797
2.401090325223382
2.4252396554120184
2.451402182105455
2.4777062934826874
2.5032383148863966
2.525891789145757
2.5392246806511047
2.5438273652244043
2.5386227319875077
2.5246546860357895
2.5016412465881297
2.4704581802582015
2.4337251026649014
2.396934606246998
2.367352185398413
2.346289158767413
2.3351879388105257
2.3296447375993488
2.3250838140398673
2.3212302872311166
2.3174080052482897
2.3144536194630456
2.3132731904420067
2.313307890622907
2.3153727218722406
2.318829510504556
2.3244640189077845
2.330231665548838
2.3363678122400424
2.341319210259606
2.346789921537486
2.3533662396553967
2.3581838119116894
2.3599122820145366
2.3463288332202215
2.2977391377342817
2.818335619955496
2.4581235097391474
2.485640717281086
2.4381807649170804
2.4362555647482003
2.4611575665416114
2.4921091791130876
2.5170922727821696
2.541183902723388
2.5661888865344493
2.5845671277425013
2.5885709992809858
2.587942108252279
2.582023376293433
2.5693132177278013
2.5490568037012418
2.522602885764796
2.4937319713958295
2.46631599882643
2.4436932306696044
2.425615842189234
2.4100192423578153
2.395771275387555
2.3838923698735632
2.3734348313199196
2.3648758694885443
2.3577415156971457
2.352508582723167
2.3496380275914523
2.3464333436195943
2.3446880334035174
2.344165992738341
2.3432598054398026
2.3424608427040177
2.340444559095054
2.338527433173852
2.3362437632122433
2.3368151601219735
2.3422762859015256
2.2638800840480737
2.927243309462789
2.6673119890945682
2.635705962406471
2.5636418219181927
2.528775504215867
2.526504664133562
2.5325866773967114
2.541974980522146
2.5548959691343227
2.570079783580521
2.5826943175166788
2.5918801958116577
2.597660883327404
2.5993643108459787
2.5979537207236403
2.5916347334461087
2.580226586460258
2.5655747924519887
2.5416559973277506
2.5152015314208467
2.490606625129423
2.4688268399321234
2.4503454640329654
2.4342220885580286
2.419988342016009
2.4066953832703257
2.395296215870044
2.384842866276727
2.375811877027262
2.3696311555888623
2.3672536081524824
2.369155661446058
2.3688469058414996
2.357909122390847
2.346055135110302
2.335249254404004
2.32680894916421
2.3210086450349525
2.3139156201023887
2.2886026845620986
3.0
2.947764579684053
2.863097941653661
2.779456220004921
2.702268956079435
2.6534266489337264
2.6253563252254013
2.6107375084800477
2.6042265898359247
2.6015502741491163
2.6017294240029276
2.60335798335171
2.6046006497338037
2.605114526266086
2.6045316612246183
2.60150269488852
2.5956929280553465
2.586153535938761
2.573096214523526
2.5574993419824485
2.541014817150027
2.5242178123624504
2.506691092190461
2.488713561037293
2.4716688519588104
2.4560335549079424
2.4408623853519336
2.4266323133876377
2.4133426905176325
2.4014713530310283
2.3919705722969895
2.385793330914973
2.3824665658508186
2.3824665658508186
2.384367622041746
2.3862685513019724
2.3895948705185286
2.3933958966630926
2.366113182781509
2.299628509284496
2.2051963801584717
2.6546535879779456
2.678131662695209
2.667656509107814
2.652797205773011
2.640706958424739
2.633083064806172
2.6270929479723018
2.622625521380565
2.618582959882715
2.6149781873952342
2.6122996712712196
2.6089474103515014
2.605358700872958
2.6009288988194434
2.5940377373162957
2.5850350791207326
2.5733457276490515
2.5599827468673313
2.5450367277646593
2.529586653000125
2.5146746377680484
2.5003376880391914
2.4865909109393214
2.4729454417627865
2.459795999497358
2.4464919153553772
2.4335910422895153
2.420237263599781
2.4069485302089917
2.3948476899878153
2.3850107448613125
2.377683198373186
2.372000228218243
2.366344215690652
2.3585644844979834
2.3387827403441603
2.3349705252484396
2.3025884477166625
2.5924166658331353
2.6458973946869166
2.6513722909718243
2.6449429545385206
2.6373734590486473
2.630963612463017
2.62548849186508
2.620312610427697
2.6159127607942616
2.6116066700036265
2.6077536473656466
2.603671169668268
2.5992293017138697
2.594317980305483
2.588851901922793
2.5817633429197935
2.5731016852326656
2.562710814204099
2.551550286575497
2.5386720855754468
2.5251750613455277
2.5111545957721115
2.4971764487429917
2.48277882300884
2.468459986097191
2.4536856430164393
2.4394252158869776
2.4241891516415874
2.4095937272235415
2.395517670310394
2.381908288360041
2.370949973942159
2.362256420351335
2.3559282079530126
2.352594518168844
2.3330790217620243
2.346305897476464
3.0
2.781892845476155
2.362579531404481
2.5235259406794097
2.6087989892872017
2.6199816556197613
2.617174267863243
2.612011719409329
2.606655398528165
2.600743442364942
2.59557473822329
2.5902620917101924
2.585068569654744
2.5788135070255818
2.5731097397507936
2.5664422463147383
2.559981357832499
2.553250546444074
2.5457453143103534
2.5386536724195388
2.531189021522101
2.522657261532746
2.5129981750223416
2.5032736753220455
2.491896949619956
2.480500350666089
2.468044199559176
2.4550892786205836
2.441664653260536
2.4278278069674823
2.4131153863653685
2.3985529011993103
2.3845333719803308
2.3708277732685197
2.3588117504047994
2.348819874176063
2.342059764120115
2.3390206206077124
2.316355332965041
2.2430528947955435
)
;

boundaryField
{
    ".*"
    {
        type            zeroGradient;
    }
}


// ************************************************************************* //
