/*--------------------------------*- C++ -*----------------------------------*\
  =========                 |
  \\      /  F ield         | OpenFOAM: The Open Source CFD Toolbox
   \\    /   O peration     | Website:  https://openfoam.org
    \\  /    A nd           | Version:  6
     \\/     M anipulation  |
\*---------------------------------------------------------------------------*/
FoamFile
{
    version     2.0;
    format      ascii;
    class       surfaceScalarField;
    location    "2800";
    object      phi;
}
// * * * * * * * * * * * * * * * * * * * * * * * * * * * * * * * * * * * * * //

dimensions      [1 0 -1 0 0 0 0];

internalField   nonuniform List<scalar> 
850
(
-0.0030157
0.00307092
-0.00416587
0.00115013
-0.00497431
0.000808396
-0.0055307
0.000556351
-0.00580081
0.000270067
-0.00575883
-4.20209e-05
-0.00538734
-0.00037153
-0.00471155
-0.000675823
-0.00380858
-0.00090301
-0.00278221
-0.00102641
-0.00173975
-0.0010425
-0.000786781
-0.000953012
-3.94694e-05
-0.000747352
0.000283493
-0.000323004
0.000285069
-0.000820957
0.000823151
-0.00058738
-0.000233625
7.62652e-05
-0.000663692
0.000727919
-0.000651701
0.00123695
-0.000509078
0.00152705
-0.00029015
0.00165404
-0.000127029
0.00172023
-6.62417e-05
0.0017617
-4.15143e-05
0.00178585
-2.42017e-05
0.00179636
-1.05557e-05
0.00179289
3.42134e-06
0.00176642
2.64162e-05
0.00169142
7.49536e-05
0.00152426
0.000167112
0.00123545
0.000288756
0.000814143
0.000421255
0.000816855
-0.00215509
0.00537531
-0.00323022
0.00222522
-0.00404432
0.00162246
-0.00459319
0.00110518
-0.00486299
0.000539828
-0.00482917
-7.58828e-05
-0.00448208
-0.000718659
-0.00386472
-0.00129322
-0.00306859
-0.00169918
-0.00219497
-0.00190007
-0.00133605
-0.00190145
-0.00056944
-0.00171966
4.00983e-05
-0.00135693
0.000531333
-0.000814278
0.00110727
-0.000290907
0.00115145
-4.16351e-05
0.000830699
0.000323658
0.000839381
9.97947e-05
0.000730066
0.000564969
-0.000698846
0.000947281
-0.00104605
0.0012892
-0.000993666
0.00157034
-0.000790257
0.00163808
-0.000357943
0.00164814
-0.000137131
0.00165998
-7.81289e-05
0.00166994
-5.15234e-05
0.00167596
-3.02671e-05
0.00167902
-1.36618e-05
0.00167867
3.72529e-06
0.00167101
3.40245e-05
0.00162581
0.0001201
0.00144648
0.000346393
0.00112585
0.000609338
0.000688694
0.000858358
0.00151309
-0.00150468
0.0071091
-0.00240624
0.00312673
-0.00311797
0.00233416
-0.00358416
0.00157132
-0.00380546
0.000761087
-0.00373889
-0.000142487
-0.00337159
-0.001086
-0.00277805
-0.0018868
-0.00207197
-0.00240529
-0.00134443
-0.00262765
-0.000662831
-0.00258308
-7.33697e-05
-0.00230915
0.000404845
-0.00183518
0.000817598
-0.00122707
0.00114079
-0.000614135
0.00117064
-7.15233e-05
0.000907427
0.000586827
0.00175409
0.00136364
-0.000625224
0.00163395
-0.000969197
0.00168778
-0.00109992
0.00177618
-0.00108211
0.00201877
-0.00103289
0.00166093
0.00152391
0.00144589
0.00139447
0.00136431
0.00135076
0.00135459
0.00138872
0.00150892
0.0012948
0.000560466
0.00100877
0.000895311
0.000588271
0.00127881
0.00211322
-0.00104202
0.00844872
-0.00173037
0.00381505
-0.002188
0.00279174
-0.00247255
0.00185583
-0.00255772
0.000846224
-0.00236962
-0.000330634
-0.00193585
-0.00151981
-0.001372
-0.00245068
-0.00079224
-0.00298508
-0.000252343
-0.00316758
0.000214313
-0.00304977
0.000591414
-0.00268629
0.000902889
-0.00214669
0.001177
-0.00150121
0.00140078
-0.000837951
0.00153748
-0.000208261
0.00172761
0.000396661
0.00271031
0.000771344
0.00261624
0.000101627
0.00241782
-0.000426849
0.00223963
-0.000791045
0.00205128
-0.000911609
0.00186688
-0.000897757
0.00157357
-0.000739613
0.00190189
-0.000328512
0.00205598
-0.000154287
0.00215302
-9.72353e-05
0.00221794
-6.51128e-05
0.00224664
-2.88915e-05
0.00222455
2.18987e-05
0.00212816
9.61916e-05
0.00191945
0.000208517
0.00153327
0.000385992
0.00135172
0.000741973
0.00107111
0.00117587
0.000680375
0.0016695
0.00280906
-0.000724156
0.00952897
-0.00122276
0.0043136
-0.00128756
0.0028565
-0.00127873
0.00184695
-0.0010776
0.000645056
-0.000646065
-0.000762211
-0.000133281
-0.00203263
0.000332928
-0.00291693
0.000707799
-0.00335999
0.000985655
-0.00344547
0.00117803
-0.00324218
0.00130988
-0.00281817
0.00140806
-0.0022449
0.00149802
-0.00159121
0.00159543
-0.000935388
0.00172842
-0.000341289
0.00198338
0.000141661
0.00238536
0.000369321
0.00240867
7.82838e-05
0.0022877
-0.000305923
0.00206481
-0.00056819
0.00183069
-0.000677529
0.00160618
-0.000673285
0.0014288
-0.000562269
0.00145124
-0.000350995
0.00150086
-0.00020394
0.00154199
-0.000138404
0.00158138
-0.000104545
0.00161847
-6.60151e-05
0.00163945
8.74903e-07
0.00162505
0.000110549
0.00156128
0.000272246
0.00145012
0.00049712
0.00136633
0.000825721
0.00131287
0.00122928
0.00128551
0.00169681
0.00216904
0.00192549
0.00144427
0.000740114
0.00128483
0.000174153
0.0013508
-0.000617792
0.0105524
-0.000925529
0.0046213
-0.000423755
0.00235468
8.91261e-05
0.00133402
0.000761795
-2.76551e-05
0.00145729
-0.00145774
0.00193994
-0.00251532
0.00219874
-0.00317576
0.00229146
-0.00345275
0.00225466
-0.0034087
0.00212804
-0.00311559
0.00195702
-0.00264717
0.00178295
-0.00207086
0.00163717
-0.00144547
0.00154525
-0.000843501
0.00153305
-0.000329124
0.00162533
4.9346e-05
0.0017869
0.000207709
0.00179978
6.53649e-05
0.00166961
-0.000175786
0.00146505
-0.000363668
0.00124677
-0.000459286
0.00104422
-0.000470779
0.000891127
-0.000409212
0.000835844
-0.00029575
0.000841685
-0.000209819
0.000874614
-0.000171371
0.000924992
-0.000154961
0.000990282
-0.000131343
0.00106599
-7.48756e-05
0.00113794
3.85619e-05
0.00119532
0.000214832
0.00124813
0.000444269
0.00133846
0.000735355
0.00151426
0.00105343
0.00180396
0.00140707
0.00214612
0.00158327
0.00178018
0.00110601
0.00100015
0.000954132
0.00240305
-0.000596331
0.0115999
-0.000365931
0.00439086
0.00101485
0.000973854
0.00224229
0.000106547
0.00327322
-0.00105863
0.00390353
-0.00208809
0.00416621
-0.00277803
0.00411127
-0.00312085
0.00382167
-0.00316318
0.00337881
-0.00296586
0.00285809
-0.00259491
0.00232852
-0.00211763
0.00184459
-0.00158696
0.00143782
-0.00103872
0.00113702
-0.000542737
0.000957824
-0.000149962
0.000906193
0.000100941
0.000935003
0.000178862
0.00091555
8.47808e-05
0.000812328
-7.26025e-05
0.000654225
-0.000205603
0.000477473
-0.000282573
0.000310996
-0.000304339
0.000183965
-0.00028222
0.000124516
-0.000236339
0.00012115
-0.000206491
0.000151708
-0.000201967
0.000205568
-0.000208858
0.000282884
-0.000208697
0.000389528
-0.000181558
0.000528445
-0.000100393
0.000686158
5.70798e-05
0.00086059
0.000269798
0.00107659
0.000519314
0.00135524
0.000774736
0.00170989
0.00105239
0.00211964
0.00117347
0.00230166
0.000923949
0.00185533
0.00140042
0.0043111
0.00281426
0.00929155
0.00369161
0.00351347
0.00470034
-3.49174e-05
0.00597069
-0.00116385
0.00666488
-0.00175285
0.00678856
-0.0022118
0.00646551
-0.00245501
0.00581259
-0.00246796
0.00494986
-0.00230047
0.00398735
-0.00200338
0.00301966
-0.00162724
0.00212492
-0.00122292
0.00135878
-0.000820848
0.000740216
-0.000420191
0.00030228
-0.000104836
5.6035e-05
9.62479e-05
-2.83104e-05
0.00018525
-3.19517e-05
0.000182467
-5.1474e-05
0.000104266
-0.000123793
-3.21448e-07
-0.0002392
-9.02329e-05
-0.000372529
-0.000149282
-0.000498733
-0.000178172
-0.000595242
-0.000185748
-0.00064695
-0.000184669
-0.000661867
-0.000191612
-0.000654657
-0.000209215
-0.000633364
-0.00023019
-0.000597208
-0.000244891
-0.000535776
-0.000243029
-0.000424766
-0.000211442
-0.000242994
-0.000124732
-9.09625e-06
3.58598e-05
0.00026526
0.000244918
0.00057851
0.000461444
0.000937417
0.000693438
0.00130339
0.000807457
0.00148249
0.000744799
0.000870614
0.00201225
0.00541491
0.00984716
0.0133526
0.0126608
0.000656869
0.01186
-0.000363053
0.0108252
-0.000718072
0.00952579
-0.000912447
0.00800246
-0.000931694
0.00638917
-0.000854694
0.00480436
-0.000715682
0.00333233
-0.000531376
0.00203367
-0.000328609
0.000939705
-0.00012899
6.98411e-05
4.89829e-05
-0.000521792
0.000171407
-0.000835654
0.000208991
-0.000961403
0.00022196
-0.000991483
0.000215293
-0.000990885
0.000181832
-0.00100697
0.000120318
-0.00105653
4.91915e-05
-0.00113602
-1.0779e-05
-0.00123252
-5.28141e-05
-0.00132887
-8.18592e-05
-0.00141105
-0.000103612
-0.00147383
-0.000121923
-0.00152479
-0.000140696
-0.00157627
-0.000157775
-0.00163957
-0.000166923
-0.00172507
-0.000159437
-0.0018444
-0.000123735
-0.00201028
-4.56077e-05
-0.00222726
9.22058e-05
-0.0024927
0.000301258
-0.00285128
0.000603465
-0.00340467
0.00101479
-0.00424257
0.00153129
-0.0055078
0.00207265
-0.00716455
0.00240151
-0.00701452
0.00186217
-0.00134401
0.00352423
0.0019046
0.00297108
0.000190106
0.00313042
-0.000877419
0.00283937
-0.000621415
0.00219666
-0.000288997
0.00137043
-2.84921e-05
0.00048392
0.000170804
-0.000335362
0.000287876
-0.000986601
0.000322598
-0.00143535
0.000319722
-0.00169923
0.000312828
-0.00182312
0.000295262
-0.00187803
0.000263869
-0.00188973
0.000233623
-0.00188122
0.000206746
-0.00187548
0.00017605
-0.00189161
0.000136409
-0.00193505
9.25959e-05
-0.00199868
5.28189e-05
-0.00207246
2.09244e-05
-0.00215133
-3.02731e-06
-0.00223116
-2.38267e-05
-0.00231109
-4.20317e-05
-0.00239531
-5.65071e-05
-0.00248927
-6.38593e-05
-0.00259685
-5.93796e-05
-0.00271896
-3.73716e-05
-0.00285174
9.00784e-06
-0.00298435
8.69625e-05
-0.00310494
0.000212754
-0.00321459
0.000410859
-0.00331763
0.00070647
-0.00341527
0.00111238
-0.00349176
0.00160774
-0.0035279
0.00210875
-0.00339903
0.0022726
-0.0019574
0.000420505
-0.00323523
-0.000326322
0.00230167
-0.00046985
0.000333626
-0.00131801
-2.9272e-05
-0.00197469
3.52418e-05
-0.00242465
0.000160939
-0.00270473
0.00025156
-0.00284899
0.000315032
-0.00290961
0.00034846
-0.00292273
0.000335685
-0.00289975
0.000296707
-0.00284284
0.000255879
-0.00276689
0.000219276
-0.00269099
0.000187934
-0.00262247
0.000165059
-0.00256517
0.000149414
-0.00252521
0.000136053
-0.00250931
0.000120469
-0.00251909
0.000102337
-0.00255037
8.4063e-05
-0.00259714
6.76561e-05
-0.0026542
5.39917e-05
-0.00272183
4.37668e-05
-0.00279847
3.4566e-05
-0.00288111
2.61005e-05
-0.00296397
1.89572e-05
-0.00303858
1.5186e-05
-0.00309461
1.86152e-05
-0.00312115
3.55102e-05
-0.00311243
7.82063e-05
-0.00305248
0.000152757
-0.00291434
0.000272681
-0.00266443
0.000456513
-0.00227816
0.000726072
-0.0017219
0.00105144
-0.000842075
0.00122888
0.000610707
0.000819775
0.00144667
-0.000415504
-0.00171622
-0.00563964
-0.00843754
-0.00610565
-0.00576235
-0.00578789
-0.00575179
-0.00559205
-0.00534348
-0.0050331
-0.00469091
-0.00436308
-0.00407565
-0.00383025
-0.00362241
-0.00344666
-0.00329439
-0.00315829
-0.00303604
-0.00292984
-0.00284222
-0.00277328
-0.0027211
-0.00268288
-0.00265514
-0.00263681
-0.0026271
-0.0026246
-0.00262582
-0.00262344
-0.00260387
-0.0025412
-0.00240351
-0.00214537
-0.00170284
-0.000990188
4.83225e-05
0.00126461
0.00207148
0.00164214
)
;

boundaryField
{
    floor
    {
        type            calculated;
        value           nonuniform List<scalar> 
36
(
0
0
0
0
0
0
0
0
0
0
0
0
0
0
0
0
0
0
0
-2.76345e-06
-7.5911e-06
-1.19081e-05
-1.55234e-05
-1.53979e-05
-1.47623e-05
-1.4001e-05
-1.61984e-06
-2.58492e-06
-2.95209e-06
-3.46011e-06
-2.24377e-06
-5.26663e-06
-6.75897e-06
-7.32634e-06
-8.40006e-06
-7.59611e-06
)
;
    }
    ceiling
    {
        type            calculated;
        value           nonuniform List<scalar> 
43
(
-3.26479e-05
-3.15344e-05
-3.02533e-05
-9.69834e-06
-3.75976e-06
-8.92577e-07
1.16606e-06
2.96071e-06
4.61771e-06
6.23728e-06
7.81311e-06
9.24305e-06
1.04423e-05
1.13965e-05
1.21471e-05
1.27544e-05
1.32786e-05
1.37656e-05
1.42355e-05
1.46814e-05
1.50851e-05
1.54359e-05
1.5735e-05
1.59879e-05
1.61971e-05
1.63476e-05
1.64131e-05
1.63671e-05
1.6195e-05
1.59001e-05
1.55002e-05
1.50247e-05
1.4497e-05
1.39399e-05
1.33835e-05
1.28853e-05
1.25471e-05
1.28596e-05
1.37954e-05
1.55133e-05
1.08449e-05
7.98268e-06
-7.07278e-05
)
;
    }
    sWall
    {
        type            calculated;
        value           uniform -0.000256662;
    }
    nWall
    {
        type            calculated;
        value           nonuniform List<scalar> 6(-5.20179e-05 -5.21501e-05 -5.27669e-05 -6.62259e-05 -7.23745e-05 -8.96348e-05);
    }
    sideWalls
    {
        type            empty;
        value           nonuniform 0();
    }
    glass1
    {
        type            calculated;
        value           nonuniform List<scalar> 9(-5.52705e-05 -0.000149338 -0.000229151 -0.000297647 -0.000356133 -0.000405632 -0.000451252 -0.000505944 -0.000566495);
    }
    glass2
    {
        type            calculated;
        value           nonuniform List<scalar> 2(-0.000233236 -0.00025564);
    }
    sun
    {
        type            calculated;
        value           uniform 0;
    }
    Table_master
    {
        type            calculated;
        value           nonuniform List<scalar> 9(-1.52644e-07 -1.52817e-07 -1.52868e-07 -1.52896e-07 -1.52912e-07 -1.52919e-07 -1.52917e-07 -1.529e-07 -1.52853e-07);
    }
    Table_slave
    {
        type            calculated;
        value           nonuniform List<scalar> 9(1.5252e-07 1.52528e-07 1.52488e-07 1.52458e-07 1.5244e-07 1.52436e-07 1.52441e-07 1.52475e-07 1.52549e-07);
    }
    inlet
    {
        type            calculated;
        value           uniform -0.00477194;
    }
    outlet
    {
        type            calculated;
        value           nonuniform List<scalar> 2(0.00592892 0.0028294);
    }
}


// ************************************************************************* //
