/*--------------------------------*- C++ -*----------------------------------*=========                 |
  \      /  F ield         | OpenFOAM: The Open Source CFD Toolbox
   \    /   O peration     | Website:  https://openfoam.org
    \  /    A nd           | Version:  6
     \/     M anipulation  |
\*---------------------------------------------------------------------------*/
FoamFile
{
    version     2.0;
    format      ascii;
    class       volScalarField;
    location    "1000";
    object      PPD;
}
// * * * * * * * * * * * * * * * * * * * * * * * * * * * * * * * * * * * * * //

dimensions      [0 0 0 0 0 0 0];

internalField   nonuniform List<scalar> 
458
(
79.91701870788471
72.50946421092448
72.95071698446274
72.5960386937986
72.28354087031657
72.02145521496415
71.81614931573233
71.67118982074538
71.64396743884015
71.67699543767188
71.83917750598084
72.19743586566491
72.83204869801273
73.40458079700701
72.61842494927312
68.91326739808137
69.13164248913964
69.42199740862085
69.39783697234614
68.76739813365427
67.76468696207792
65.88048666410634
64.42262904148299
63.40838473177123
62.69456203896903
62.182900977190755
61.84957040427071
61.567080734399426
61.33566326749584
61.25846772688326
61.232729710903754
61.07823761420496
61.20698862881906
81.02779783566268
73.140756592085
74.25728172414823
73.77843363092464
73.50504884610739
73.29416548964589
73.11500302970786
72.98806841800224
72.86753597845208
72.8094408004019
72.75178611490344
72.70097904150627
72.6401786263821
72.34415414366713
71.82199091007672
72.58484546152053
74.01037081931793
74.24896338200551
66.42375792894026
69.42199740862085
69.87978911867411
70.07181924619701
69.66323966754831
68.37731379699771
67.02471347672864
66.00539654301096
65.17869041157081
64.44789706342439
63.764134434852664
63.10283091733053
62.56678190323691
62.157280704579826
62.28534720812098
62.13165696806842
61.567080734399426
59.095973315998194
84.05541669471386
73.80623357881515
76.00563807598624
75.41041452911422
75.35263052006756
75.32912361701565
75.31964684433957
75.2698759204478
75.20004508638641
75.09694010056756
74.8740956929209
74.49669387403247
73.86742851858287
72.89004432266277
71.73832597902754
70.84284689726718
69.89039966808826
68.58103011304999
70.4545647485871
70.4545647485871
70.66907662106075
70.71666845429228
70.5022831500539
68.91326739808137
67.91205758844895
67.32131795625254
66.80173475506894
66.27974623068425
65.73042787002592
65.17869041157081
64.57417022037993
63.94170574359377
64.54892455215091
63.33204957058465
62.46449220575283
56.88436368264605
87.17312435551368
75.25264129600006
77.93279807400239
77.20210725922686
77.37079857478022
77.62232116297915
77.88090963895996
78.07633756515875
78.18115975354935
78.12647953510898
77.90386346220521
77.38653077990361
76.45930894993226
75.08691893859903
73.36552833920473
71.45549791186242
69.32829367104104
67.23675489326438
66.35614387896487
67.64262437954217
68.27561550871015
68.97794796277358
68.81658512678021
68.40370502164787
68.84294892980212
70.17962148308371
70.69287607526796
70.62145652580246
70.57380824600475
70.54997356114801
69.5220321116096
68.09017681851097
67.05907732786076
66.52871685637547
66.14390342968952
65.86788300106302
67.5186014352312
89.89408175198409
77.55813509390534
80.1056125194695
79.36831803817213
79.59597868414924
80.06121916703738
80.56095737068794
81.01296772952622
81.37032761982378
81.54233880438801
81.46174429306849
81.03090898394166
80.1605389008982
78.79136050242718
76.9697035422374
74.83316605030184
72.48475983495652
70.37329288464339
69.11424779935537
68.79902114852489
69.15543215827822
69.42642375328082
69.2780958702922
69.11023514308087
69.37571057342849
70.03878779505543
70.78800304359315
70.71666845429228
70.69287607526796
70.69287607526796
70.41324314524238
69.29988323920621
68.35542970768677
67.47903301077994
66.67783319027725
65.6090348824293
65.38245552896727
62.953358995880166
63.30918112974103
59.00383872775701
92.081994673995
80.67239167575835
83.47362601495992
82.83966133216659
82.66276356120163
82.99121179312847
83.37432836755607
83.84178695186851
84.31911129717905
84.70188764838528
84.90833339426236
84.87404083008194
84.17495956059912
83.04911239328072
81.48538219591433
79.5404182549178
77.31363807553632
75.17485898711425
73.50721769801076
72.46531485438405
71.90207213507169
71.38477135470448
70.74520022561785
70.19876197718028
69.93053749644004
69.93490084304166
70.07581214449294
70.26972011064717
70.3996248886256
70.39501886726822
70.2662590993963
70.08175904428109
69.87578521785139
69.28919895757407
67.90223459300384
66.48178585476269
65.58533919766361
64.41418693607322
63.33630419198403
65.47508916379311
93.84362996843852
85.06723163171955
88.05793711291764
86.85014513899573
85.6305465020479
85.48572004861768
85.56780582296858
85.63444794390205
85.86623096657601
86.160884072288
86.40353970495568
86.4998654191282
86.37133755519734
85.98126708200272
85.21489083030673
84.14329233583454
82.71976716149865
80.90799105060225
79.15658933587503
77.65020973016917
76.33228080866037
74.99665299161606
73.59416789095948
72.26399247608457
71.17817977432796
70.37833583029429
69.86469141621603
69.57780734646505
69.42699340257289
69.3833988329718
69.44724834415806
69.67999801453706
70.32357956686897
70.90675162086396
70.5022831500539
68.77942034726104
67.25647488598986
65.72980064009784
63.042243554678386
64.07566156198533
95.95395729208484
92.96546967795193
91.8055832197258
90.1660668625032
88.67344964595358
87.62739168727254
86.95515909358703
86.60301075866427
86.53622828158117
86.5995106597848
86.71750145039503
86.81819784670847
86.85574828771692
86.82870213105535
86.68371460336313
86.33908863487251
85.43396454743812
84.28403880187909
82.91767765814245
81.40987731919739
79.97368000055197
78.52364359835407
77.00191652629765
75.43115216765051
73.69807630708878
71.9292289449654
70.59466990470486
69.71012770752263
69.22361766253617
68.91931523212702
68.71378334046088
68.61003978914641
68.67239516555605
69.02492357291464
70.05114834311095
70.40681843459475
69.9278373038925
69.56682204775342
64.4601840216414
59.60873344782269
97.98150680922978
96.92065520803483
92.69699092345638
90.66415924532761
89.54770024609377
88.74629343535992
88.07335740111729
87.54248241084983
87.2259276280827
87.0184983625701
86.89133809616752
86.81289268176965
86.73071274156081
86.63712730210824
86.50765456886538
86.31965284793827
85.99958559545124
85.54400009222437
84.93122424557546
84.17339708077371
83.08287812551299
81.73614804367986
80.1936948199768
78.39877127562868
76.30968838586779
74.31299938061707
72.70853163991269
71.00573576006849
69.94422426316368
69.18353548713007
68.52994092667844
67.82348954635162
66.98537197936693
66.0522656151688
65.10893337581743
64.34900605645322
63.83308331427143
63.49001416685091
63.036825475869755
61.2176997746005
11.207678033606186
76.21324087668897
85.26549639995949
86.98194651921756
87.36565252009693
87.35844241145085
87.24304439780398
87.08683433169715
86.92707633117766
86.79237735000426
86.65914277578256
86.52214373193999
86.37698891874604
86.18668400385715
85.93163407815975
85.57462894914866
85.09409989471719
84.47389874017789
83.70447925669122
82.83633633120007
81.8133858835149
80.61354919214659
79.18554408818969
77.04486154272817
74.69560693282803
72.68899462135398
71.61544121431812
70.82955469360117
70.18168606823266
69.61518662130484
69.09372371715659
68.60637871607143
68.20180362285353
67.68319793312224
67.49054418125742
68.44502019590381
71.1053811913026
63.22915525968129
29.260968545388707
71.237727704676
85.4171822068299
86.85523363442302
87.28362704976286
87.33497050371025
87.16381757356089
86.93742790521108
86.71146366254574
86.51184835836686
86.32718411096619
86.15129120992795
85.97862380352021
85.8019117741382
85.57788875940128
85.29862128286636
84.94151436547367
84.44823031441388
83.83787653207041
83.0632391746846
82.07534438497042
80.85241093159532
79.38332463920278
77.67774657910016
75.8585673413809
74.20801644302544
72.92020229439049
71.56840094134458
71.04901346320213
71.07269855778033
71.28553795285619
71.56840094134458
71.82675271442324
72.06082746464449
72.27084308691845
72.38724908467302
67.51731604278496
65.17469885927574
68.25368684142833
53.72639501199156
43.90528187188002
79.50312522639237
84.39957154256898
86.25110292032647
87.05664511555268
86.99409083531619
86.65905123361479
86.30152319971637
85.96953209264312
85.67342773889644
85.38728859264114
85.08015021308141
84.80217919934526
84.49829990686138
84.20711763804464
83.88955800395321
83.5224005413547
83.11962725607242
82.61738038321651
82.01146397150143
81.25941128856297
80.3219019114077
79.15222018904421
77.69767597096308
75.8958118788527
73.85465406651151
71.74568472943335
70.04257124769263
69.12164383718276
68.89380968542594
68.83271231236681
69.29412060836356
69.7699276391171
69.36805229476661
68.53063136093348
67.6670458999323
65.9719529351089
65.2343523841696
)
;

boundaryField
{
    ".*"
    {
        type            zeroGradient;
    }
}


// ************************************************************************* //
