/*--------------------------------*- C++ -*----------------------------------*\
  =========                 |
  \\      /  F ield         | OpenFOAM: The Open Source CFD Toolbox
   \\    /   O peration     | Website:  https://openfoam.org
    \\  /    A nd           | Version:  6
     \\/     M anipulation  |
\*---------------------------------------------------------------------------*/
FoamFile
{
    version     2.0;
    format      ascii;
    class       volScalarField;
    location    "1000";
    object      T;
}
// * * * * * * * * * * * * * * * * * * * * * * * * * * * * * * * * * * * * * //

dimensions      [0 0 0 1 0 0 0];

internalField   nonuniform List<scalar> 
458
(
304.089
303.792
303.784
303.786
303.787
303.787
303.786
303.784
303.783
303.78
303.776
303.77
303.762
303.753
303.742
303.463
303.472
303.484
303.483
303.457
303.416
303.34
303.282
303.242
303.214
303.194
303.181
303.17
303.161
303.158
303.157
303.151
303.156
304.309
303.849
303.821
303.826
303.83
303.833
303.834
303.834
303.831
303.827
303.819
303.806
303.788
303.763
303.733
303.707
303.683
303.694
303.47
303.484
303.503
303.511
303.494
303.441
303.386
303.345
303.312
303.283
303.256
303.23
303.209
303.193
303.198
303.192
303.17
303.158
304.512
303.925
303.867
303.875
303.887
303.897
303.905
303.909
303.91
303.907
303.897
303.879
303.851
303.812
303.765
303.716
303.673
303.647
303.527
303.527
303.536
303.538
303.529
303.463
303.422
303.398
303.377
303.356
303.334
303.312
303.288
303.263
303.287
303.239
303.205
303.194
304.698
304.022
303.925
303.927
303.946
303.965
303.983
303.997
304.006
304.007
304
303.981
303.947
303.898
303.836
303.766
303.693
303.625
303.58
303.556
303.56
303.562
303.557
303.55
303.544
303.54
303.537
303.534
303.532
303.531
303.531
303.53
303.527
303.517
303.482
303.432
303.406
304.867
304.142
304.014
303.992
304.008
304.032
304.058
304.082
304.102
304.114
304.115
304.102
304.072
304.023
303.957
303.881
303.8
303.724
303.665
303.627
303.609
303.596
303.581
303.567
303.555
303.547
303.541
303.538
303.537
303.537
303.537
303.536
303.534
303.527
303.512
303.483
303.446
303.433
303.439
303.489
305.017
304.291
304.168
304.119
304.105
304.115
304.136
304.162
304.189
304.211
304.223
304.221
304.201
304.161
304.101
304.026
303.941
303.857
303.784
303.727
303.686
303.653
303.623
303.597
303.575
303.559
303.548
303.543
303.542
303.543
303.545
303.545
303.542
303.535
303.522
303.502
303.475
303.45
303.438
303.452
305.155
304.499
304.42
304.365
304.31
304.274
304.262
304.266
304.28
304.298
304.313
304.319
304.311
304.287
304.241
304.179
304.103
304.021
303.939
303.866
303.804
303.749
303.698
303.651
303.611
303.58
303.56
303.55
303.547
303.549
303.553
303.556
303.554
303.546
303.529
303.51
303.488
303.465
303.448
303.459
305.364
304.903
304.831
304.733
304.618
304.528
304.469
304.433
304.415
304.406
304.402
304.399
304.391
304.376
304.349
304.309
304.254
304.187
304.111
304.031
303.958
303.887
303.815
303.743
303.675
303.62
303.581
303.559
303.553
303.555
303.56
303.565
303.567
303.563
303.55
303.525
303.505
303.49
303.483
303.596
305.659
305.457
304.993
304.858
304.761
304.682
304.619
304.569
304.534
304.508
304.488
304.471
304.454
304.436
304.415
304.389
304.353
304.307
304.251
304.187
304.12
304.048
303.969
303.881
303.783
303.693
303.623
303.578
303.56
303.558
303.565
303.575
303.584
303.592
303.599
303.607
303.617
303.633
303.651
303.701
301.958
304.059
304.428
304.522
304.545
304.541
304.529
304.515
304.501
304.488
304.474
304.459
304.443
304.424
304.401
304.372
304.336
304.292
304.239
304.179
304.108
304.024
303.925
303.817
303.71
303.622
303.576
303.558
303.56
303.569
303.581
303.592
303.601
303.61
303.618
303.627
303.631
303.636
302.597
303.807
304.253
304.416
304.474
304.492
304.493
304.488
304.48
304.471
304.461
304.45
304.438
304.425
304.409
304.39
304.367
304.337
304.301
304.256
304.199
304.128
304.042
303.941
303.83
303.721
303.632
303.574
303.552
303.553
303.562
303.574
303.585
303.595
303.604
303.609
303.598
303.619
303.969
303.306
302.986
303.966
304.282
304.39
304.443
304.453
304.453
304.449
304.442
304.434
304.425
304.414
304.404
304.392
304.38
304.366
304.349
304.33
304.306
304.277
304.241
304.195
304.137
304.065
303.976
303.873
303.76
303.654
303.576
303.539
303.532
303.542
303.557
303.569
303.576
303.578
303.576
303.609
)
;

boundaryField
{
    floor
    {
        type            wallHeatTransfer;
        Tinf            uniform 305.2;
        alphaWall       uniform 0.24;
        value           nonuniform List<scalar> 
36
(
303.943
303.842
303.796
303.8
303.813
303.834
303.851
303.857
303.843
303.826
303.809
303.794
303.78
303.772
303.766
303.74
303.639
303.55
303.603
303.603
303.544
303.537
303.656
303.667
303.685
303.714
303.943
303.901
303.888
303.941
303.842
303.941
303.803
303.846
303.752
303.776
)
;
    }
    ceiling
    {
        type            wallHeatTransfer;
        Tinf            uniform 303.2;
        alphaWall       uniform 0.24;
        value           nonuniform List<scalar> 
43
(
303.922
303.301
302.994
303.932
304.227
304.327
304.371
304.373
304.366
304.355
304.342
304.328
304.313
304.299
304.285
304.271
304.257
304.243
304.227
304.209
304.187
304.16
304.127
304.085
304.033
303.967
303.886
303.791
303.688
303.593
303.525
303.493
303.489
303.501
303.518
303.532
303.539
303.54
303.537
303.563
305.549
305.366
302.612
)
;
    }
    sWall
    {
        type            wallHeatTransfer;
        Tinf            uniform 315.2;
        alphaWall       uniform 0.36;
        value           uniform 304.971;
    }
    nWall
    {
        type            wallHeatTransfer;
        Tinf            uniform 307.2;
        alphaWall       uniform 0.36;
        value           nonuniform List<scalar> 6(304.177 304.138 304.05 304.141 304.117 304.18);
    }
    sideWalls
    {
        type            empty;
    }
    glass1
    {
        type            wallHeatTransfer;
        Tinf            uniform 315.2;
        alphaWall       uniform 4.3;
        value           nonuniform List<scalar> 9(312.627 311.648 310.986 310.495 310.134 309.863 309.692 309.797 310.047);
    }
    glass2
    {
        type            wallHeatTransfer;
        Tinf            uniform 307.2;
        alphaWall       uniform 4.3;
        value           nonuniform List<scalar> 2(305.899 305.954);
    }
    sun
    {
        type            wallHeatTransfer;
        Tinf            uniform 305.2;
        alphaWall       uniform 0.24;
        value           nonuniform List<scalar> 
14
(
304.259
304.006
304.015
304.014
304.01
304.007
304.002
303.998
303.993
303.987
303.98
303.972
303.964
303.954
)
;
    }
    Table_master
    {
        type            zeroGradient;
    }
    Table_slave
    {
        type            zeroGradient;
    }
    inlet
    {
        type            fixedValue;
        value           uniform 293.15;
    }
    outlet
    {
        type            zeroGradient;
    }
}


// ************************************************************************* //
