/*--------------------------------*- C++ -*----------------------------------*\
  =========                 |
  \\      /  F ield         | OpenFOAM: The Open Source CFD Toolbox
   \\    /   O peration     | Website:  https://openfoam.org
    \\  /    A nd           | Version:  6
     \\/     M anipulation  |
\*---------------------------------------------------------------------------*/
FoamFile
{
    version     2.0;
    format      ascii;
    class       volScalarField;
    location    "2400";
    object      nut;
}
// * * * * * * * * * * * * * * * * * * * * * * * * * * * * * * * * * * * * * //

dimensions      [0 2 -1 0 0 0 0];

internalField   nonuniform List<scalar> 
458
(
0.000715066
0.000761691
0.000720208
0.000710121
0.000702848
0.000702417
0.000693482
0.000678934
0.000665203
0.000655884
0.00065192
0.000653187
0.000659599
0.000671791
0.00068818
0.000291806
0.000298387
0.000255832
0.000232776
0.00022784
0.000221789
0.000231933
0.000245747
0.000259411
0.000270831
0.000279116
0.000283286
0.000277888
0.000272196
0.000275918
0.000284385
0.000323784
0.000275378
0.00117122
0.00293432
0.00279583
0.00285661
0.00290032
0.00292894
0.00305733
0.00327761
0.00330798
0.00317119
0.00295153
0.00268723
0.00237056
0.00195305
0.00135872
0.000764817
0.000729147
0.000566994
0.000431653
0.00119341
0.000990696
0.000731579
0.000560363
0.000453343
0.000537174
0.000658523
0.000771865
0.00086013
0.000914877
0.000926237
0.00088082
0.000840891
0.00100482
0.00100629
0.00120367
0.000489458
0.00144628
0.00490613
0.0050647
0.00519063
0.00469547
0.00409015
0.00373056
0.00410212
0.00452996
0.00466796
0.00455988
0.0043361
0.00404665
0.00367251
0.00315198
0.00247506
0.00164848
0.000789574
0.000625756
0.0015839
0.00120272
0.000816688
0.000540752
0.000288513
0.00030868
0.00033585
0.00036483
0.000397444
0.000436565
0.000486369
0.000553167
0.00064819
0.00150367
0.00164611
0.00200547
0.000725939
0.00172195
0.00278885
0.00321971
0.00390148
0.00450897
0.00488244
0.00457081
0.00436021
0.0048037
0.00530661
0.00546474
0.00541308
0.00525583
0.00499821
0.00456837
0.003875
0.00287854
0.00168687
0.000809531
0.00181698
0.00204056
0.00156982
0.00116422
0.000859704
0.000633999
0.000637292
0.000641955
0.000648697
0.000659619
0.000677215
0.000704746
0.000746933
0.000811227
0.00188234
0.00184775
0.00164179
0.000985811
0.00296273
0.00285449
0.00276033
0.00298719
0.00355901
0.00422174
0.00449468
0.00430628
0.00464486
0.00537627
0.00585864
0.00606933
0.00615675
0.00617612
0.00612062
0.00596395
0.00569145
0.00529928
0.0048542
0.00463983
0.00433169
0.00408187
0.00392575
0.00379709
0.00367679
0.00359893
0.00351537
0.00341913
0.00330906
0.00318646
0.00305574
0.0029258
0.00280799
0.00270441
0.00248271
0.00223891
0.0019229
0.00126236
0.00125625
0.00116573
0.0034243
0.00345142
0.00302707
0.00289767
0.00325423
0.003863
0.00423842
0.00419728
0.0041813
0.0050283
0.00575439
0.00620573
0.00650741
0.00672962
0.00688068
0.00694711
0.00691347
0.00676024
0.00648578
0.00617064
0.00589245
0.00568949
0.00554348
0.00543022
0.00533064
0.00523465
0.00513723
0.00503602
0.00493003
0.00481896
0.00470266
0.00458172
0.00445905
0.00434014
0.00423011
0.00416212
0.00416636
0.00419625
0.0038414
0.00143552
0.00385974
0.00408164
0.00347522
0.00295722
0.00319918
0.00377479
0.00414337
0.00412898
0.00406651
0.00447778
0.00528391
0.00591043
0.00637901
0.00676269
0.00707608
0.00730416
0.0074275
0.00742272
0.00728439
0.00706572
0.00684099
0.00664939
0.00649294
0.00636308
0.0062475
0.00613692
0.00602723
0.00591588
0.00580159
0.00568432
0.00556521
0.00544708
0.0053357
0.00524013
0.00517072
0.00513508
0.00513082
0.00523568
0.00567866
0.00170147
0.00438474
0.0049551
0.00502327
0.00308166
0.00339588
0.00399019
0.00431761
0.0042994
0.00428588
0.00455805
0.0050591
0.00555695
0.00603681
0.00649113
0.00690255
0.00725106
0.00751135
0.00765296
0.00765859
0.0075606
0.00741444
0.00726086
0.00711676
0.00698542
0.00686333
0.00674572
0.00662889
0.0065094
0.00638438
0.00625191
0.00611148
0.00596484
0.00581734
0.00567902
0.00557079
0.00552527
0.00556812
0.00571583
0.00644876
0.00196443
0.00516121
0.00646329
0.0107215
0.00392988
0.00347081
0.00448985
0.00489184
0.00486439
0.00488183
0.0050786
0.00540303
0.0057677
0.00616169
0.00654885
0.0069045
0.00722186
0.00749137
0.00769249
0.00780269
0.00782122
0.00777434
0.00769126
0.00759158
0.00748489
0.00737561
0.0072655
0.00715448
0.00704088
0.00692207
0.00679521
0.00665793
0.00650931
0.00635087
0.00618796
0.00603239
0.00590843
0.00586347
0.00596916
0.00638305
0.00195449
0.0184824
0.0105461
0.00393857
0.00515469
0.00590303
0.00596238
0.00612989
0.0064225
0.0067466
0.00705438
0.00733636
0.00757554
0.00776143
0.00791067
0.00803869
0.00815029
0.00823868
0.00828913
0.00830115
0.00828078
0.00823182
0.00816036
0.00807455
0.00798108
0.00788386
0.00778411
0.00768088
0.00757178
0.00745367
0.00732338
0.0071784
0.00701757
0.00684186
0.00665389
0.00645317
0.0062071
0.00553195
0.0015723
0.00702806
0.00904543
0.00662041
0.00538393
0.00527115
0.00571501
0.00641823
0.00717281
0.00781954
0.00828254
0.0085585
0.00869189
0.00873855
0.00874861
0.00875281
0.00876466
0.00878602
0.00881179
0.0088342
0.00884451
0.00882474
0.00877665
0.00871207
0.00863996
0.00856564
0.00849134
0.00841714
0.00834158
0.00826223
0.00817609
0.00807975
0.00796931
0.00783962
0.00768254
0.00747862
0.00715642
0.00621943
0.00191358
0.000977471
0.00131641
0.003954
0.00360705
0.00315305
0.00277537
0.00248963
0.00229068
0.00216753
0.00210601
0.0020891
0.00209573
0.0021087
0.00211783
0.00211992
0.00211532
0.00210627
0.00209507
0.00208329
0.00207171
0.00206025
0.00204842
0.00203704
0.00202563
0.0020136
0.00200112
0.00198857
0.00197632
0.00196458
0.00195343
0.00194284
0.00193268
0.0019228
0.00191296
0.00190279
0.00189168
0.00187862
0.00185947
0.00178186
0.00155669
)
;

boundaryField
{
    floor
    {
        type            nutkWallFunction;
        Cmu             0.09;
        kappa           0.41;
        E               9.8;
        value           nonuniform List<scalar> 
36
(
8.32494e-05
3.22036e-05
3.31078e-05
2.72438e-05
2.40101e-05
2.3311e-05
2.24522e-05
2.3888e-05
2.58312e-05
2.77393e-05
2.93239e-05
3.04678e-05
3.10418e-05
3.02981e-05
2.95125e-05
3.0026e-05
3.1191e-05
3.65563e-05
2.99386e-05
2.99386e-05
5.83131e-05
8.78822e-05
0.000119082
0.000151261
0.000150558
0.000140116
8.32494e-05
9.26253e-05
8.8276e-05
6.81674e-05
3.22035e-05
6.81674e-05
5.08545e-05
9.56336e-05
7.55293e-05
9.80483e-05
)
;
    }
    ceiling
    {
        type            nutkWallFunction;
        Cmu             0.09;
        kappa           0.41;
        E               9.8;
        value           nonuniform List<scalar> 
43
(
0.000118173
0.000157595
0.000439365
0.000403814
0.000356778
0.000317122
0.000286754
0.000265398
0.00025208
0.000245394
0.000243544
0.000244255
0.000245653
0.000246636
0.000246855
0.000246349
0.00024536
0.000244137
0.00024285
0.000241585
0.00024033
0.000239035
0.000237789
0.00023654
0.000235222
0.000233854
0.00023248
0.000231138
0.000229852
0.00022863
0.000227468
0.000226354
0.000225269
0.000224187
0.000223069
0.000221846
0.000220407
0.000218295
0.00020973
0.000184654
0.000560358
0.000688056
0.000742949
)
;
    }
    sWall
    {
        type            nutkWallFunction;
        Cmu             0.09;
        kappa           0.41;
        E               9.8;
        value           uniform 0.000118184;
    }
    nWall
    {
        type            nutkWallFunction;
        Cmu             0.09;
        kappa           0.41;
        E               9.8;
        value           nonuniform List<scalar> 6(0.000140119 0.000170995 0.000200806 0.000186416 0.000224247 0.000184663);
    }
    sideWalls
    {
        type            empty;
    }
    glass1
    {
        type            nutkWallFunction;
        Cmu             0.09;
        kappa           0.41;
        E               9.8;
        value           nonuniform List<scalar> 9(8.65096e-05 0.000140826 0.000172346 0.000203253 0.00033692 0.000384982 0.00042971 0.00048297 0.000560609);
    }
    glass2
    {
        type            nutkWallFunction;
        Cmu             0.09;
        kappa           0.41;
        E               9.8;
        value           nonuniform List<scalar> 2(0.000229754 0.000228664);
    }
    sun
    {
        type            nutkWallFunction;
        Cmu             0.09;
        kappa           0.41;
        E               9.8;
        value           nonuniform List<scalar> 
14
(
8.65333e-05
9.2225e-05
8.71639e-05
8.59315e-05
8.50426e-05
8.49925e-05
8.38964e-05
8.21062e-05
8.04123e-05
7.92604e-05
7.87703e-05
7.89277e-05
7.97218e-05
8.12288e-05
)
;
    }
    Table_master
    {
        type            nutkWallFunction;
        Cmu             0.09;
        kappa           0.41;
        E               9.8;
        value           nonuniform List<scalar> 9(3.17405e-05 3.44949e-05 3.81688e-05 4.20451e-05 4.63605e-05 5.14785e-05 5.79125e-05 6.64173e-05 7.83065e-05);
    }
    Table_slave
    {
        type            nutkWallFunction;
        Cmu             0.09;
        kappa           0.41;
        E               9.8;
        value           nonuniform List<scalar> 9(7.65444e-05 7.69534e-05 7.75328e-05 7.83699e-05 7.97236e-05 8.18986e-05 8.52877e-05 9.04502e-05 9.82515e-05);
    }
    inlet
    {
        type            calculated;
        value           uniform 0.0184824;
    }
    outlet
    {
        type            calculated;
        value           nonuniform List<scalar> 2(0.000977471 0.00131641);
    }
}


// ************************************************************************* //
