// -*- C++ -*-
// File generated by PyFoam - sorry for the ugliness

FoamFile
{
 version 2.0;
 format ascii;
 class volVectorField;
 location "2400";
 object U;
}

dimensions [ 0 1 -1 0 0 0 0 ];

internalField nonuniform List<vector> 458
(
  (0.0337244 0.0710155 0)
  (-0.137222 0.016562 0)
  (-0.142845 0.00621478 0)
  (-0.152564 0.00239962 0)
  (-0.155943 -0.00104717 0)
  (-0.152935 -0.00433297 0)
  (-0.145188 -0.00706268 0)
  (-0.13487 -0.00837354 0)
  (-0.124063 -0.00876581 0)
  (-0.113682 -0.00927156 0)
  (-0.103365 -0.0104556 0)
  (-0.091457 -0.0127778 0)
  (-0.0754583 -0.0171981 0)
  (-0.0559836 -0.0259378 0)
  (-0.0448554 -0.0414682 0)
  (-0.042358 -0.00438503 0)
  (0.0133286 -1.29298e-05 0)
  (0.00296076 -0.000235489 0)
  (-0.000732065 -0.00153996 0)
  (0.00120918 -0.00197697 0)
  (0.00485128 -0.00311836 0)
  (0.00888081 -0.00304022 0)
  (0.0125114 -0.00252207 0)
  (0.0153164 -0.00199955 0)
  (0.0174767 -0.00157401 0)
  (0.0191164 -0.00131253 0)
  (0.0202836 -0.00127925 0)
  (0.021264 -0.00109759 0)
  (0.021253 -0.00069695 0)
  (0.0192226 0.00144552 0)
  (0.0148296 0.0042893 0)
  (-0.0056761 0.00930456 0)
  (0.0335779 -0.00366257 0)
  (0.162613 0.142664 0)
  (-0.136914 0.0434845 0)
  (-0.118484 0.0174942 0)
  (-0.130005 0.0109733 0)
  (-0.139051 0.00191981 0)
  (-0.140081 -0.00796508 0)
  (-0.134147 -0.0148329 0)
  (-0.125193 -0.0164523 0)
  (-0.116001 -0.0155738 0)
  (-0.107877 -0.0145849 0)
  (-0.100608 -0.0145262 0)
  (-0.0933995 -0.0161823 0)
  (-0.085728 -0.0208932 0)
  (-0.079489 -0.0312677 0)
  (-0.0771559 -0.0493396 0)
  (-0.0665432 -0.0654556 0)
  (-0.0501565 -0.0705482 0)
  (0.122648 -0.0558495 0)
  (-0.0746694 0.00114675 0)
  (0.00975986 0.0037617 0)
  (-0.00528082 0.00302022 0)
  (-0.00979907 0.000786012 0)
  (-0.0121803 -0.00158896 0)
  (-0.0124375 -0.00779117 0)
  (-0.00841539 -0.00602554 0)
  (-0.00592539 -0.00422566 0)
  (-0.00510896 -0.00295744 0)
  (-0.00478141 -0.00195767 0)
  (-0.00471164 -0.00103412 0)
  (-0.00494823 0.000104389 0)
  (-0.0062534 0.00195609 0)
  (-0.00668517 0.0033921 0)
  (-0.00564854 0.00633791 0)
  (-0.00535203 0.00866303 0)
  (-0.0279417 0.0113529 0)
  (0.0961317 0.00128374 0)
  (0.353152 0.221681 0)
  (-0.103665 0.0433004 0)
  (-0.0339059 -0.00570546 0)
  (-0.0472876 0.00673801 0)
  (-0.0769362 -0.00109888 0)
  (-0.100328 -0.0170384 0)
  (-0.105192 -0.0245131 0)
  (-0.102696 -0.0253328 0)
  (-0.0971861 -0.0236475 0)
  (-0.0919212 -0.0217502 0)
  (-0.087214 -0.0208507 0)
  (-0.0829604 -0.0217647 0)
  (-0.0792377 -0.0252847 0)
  (-0.0770733 -0.0316929 0)
  (-0.0765036 -0.038495 0)
  (-0.0716448 -0.0406048 0)
  (-0.0564393 -0.0452225 0)
  (-0.0248425 -0.0406351 0)
  (-0.0947818 0.0239772 0)
  (-0.0210803 0.00783847 0)
  (-0.0284572 0.00428901 0)
  (-0.0277412 0.000867259 0)
  (-0.0269174 -0.00338389 0)
  (-0.0237083 -0.00861818 0)
  (-0.0344971 -0.00768243 0)
  (-0.0395318 -0.0062949 0)
  (-0.0430263 -0.00535171 0)
  (-0.0455771 -0.00461898 0)
  (-0.0474613 -0.00400833 0)
  (-0.048676 -0.0035206 0)
  (-0.0485623 -0.00326649 0)
  (-0.0462034 -0.00381595 0)
  (-0.0407568 -0.00244384 0)
  (-0.0345411 -0.000162911 0)
  (-0.0413626 -0.00247397 0)
  (0.136087 0.0163366 0)
  (0.535865 0.201604 0)
  (0.284444 0.150206 0)
  (0.24695 0.123015 0)
  (0.201644 0.10889 0)
  (0.130419 0.0884487 0)
  (0.0569665 0.0550261 0)
  (-0.02978 -0.000108064 0)
  (-0.0632178 -0.0225795 0)
  (-0.0698385 -0.0257834 0)
  (-0.0701937 -0.0246595 0)
  (-0.069358 -0.0233396 0)
  (-0.0689916 -0.0235742 0)
  (-0.0701193 -0.0264543 0)
  (-0.0737375 -0.0322077 0)
  (-0.0800799 -0.0390972 0)
  (-0.0885174 -0.0444743 0)
  (-0.100845 -0.0484522 0)
  (-0.117954 -0.0480081 0)
  (-0.120417 -0.0349669 0)
  (-0.0991716 0.0120353 0)
  (-0.0802032 0.00456682 0)
  (-0.0805614 0.0027046 0)
  (-0.0818118 2.93336e-05 0)
  (-0.0843535 -0.00299196 0)
  (-0.0857204 -0.00302035 0)
  (-0.0839208 -0.00303261 0)
  (-0.0817659 -0.00344903 0)
  (-0.079248 -0.00374418 0)
  (-0.0765147 -0.00399857 0)
  (-0.073624 -0.00426993 0)
  (-0.0703754 -0.00463284 0)
  (-0.066254 -0.00527078 0)
  (-0.0612197 -0.00652281 0)
  (-0.0573131 -0.00949174 0)
  (-0.0534347 -0.0126098 0)
  (-0.0356064 -0.0171726 0)
  (0.0417956 -0.0178675 0)
  (0.416883 -0.214025 0)
  (0.251285 -0.0540064 0)
  (0.260911 0.0616878 0)
  (0.247576 0.126509 0)
  (0.188491 0.138893 0)
  (0.118085 0.116146 0)
  (0.0536209 0.0740153 0)
  (0.00207935 0.0234071 0)
  (-0.0349018 -0.0151866 0)
  (-0.0429323 -0.0220709 0)
  (-0.046147 -0.0221016 0)
  (-0.0484424 -0.0213774 0)
  (-0.0517459 -0.0220656 0)
  (-0.0571382 -0.0248342 0)
  (-0.0646751 -0.0287591 0)
  (-0.0740177 -0.0322572 0)
  (-0.0856007 -0.0337801 0)
  (-0.0977079 -0.0297116 0)
  (-0.101489 -0.0164947 0)
  (-0.0962708 -0.00432972 0)
  (-0.0895957 -0.000351171 0)
  (-0.0854297 0.00116538 0)
  (-0.0824128 0.000400873 0)
  (-0.0805665 -0.00101133 0)
  (-0.0788702 -0.00158883 0)
  (-0.0767705 -0.00243014 0)
  (-0.0746613 -0.00297748 0)
  (-0.0725596 -0.00328257 0)
  (-0.070504 -0.00344907 0)
  (-0.0685874 -0.00359657 0)
  (-0.0668846 -0.00393015 0)
  (-0.065474 -0.00493215 0)
  (-0.0648438 -0.0075789 0)
  (-0.0663275 -0.0129478 0)
  (-0.070836 -0.0207981 0)
  (-0.0771471 -0.0348093 0)
  (-0.0846786 -0.0628864 0)
  (-0.0928044 -0.121086 0)
  (-0.0706038 -0.128707 0)
  (0.088251 -0.147494 0)
  (0.350641 -0.31956 0)
  (0.104154 -0.0921839 0)
  (0.173902 0.0937143 0)
  (0.186092 0.180707 0)
  (0.145793 0.194215 0)
  (0.0982766 0.166516 0)
  (0.059736 0.117737 0)
  (0.0298256 0.0630493 0)
  (0.00674724 0.0155265 0)
  (-0.0130954 -0.0128794 0)
  (-0.0198078 -0.018267 0)
  (-0.0241615 -0.0180195 0)
  (-0.0285324 -0.0173142 0)
  (-0.0343749 -0.0181122 0)
  (-0.0420349 -0.0203847 0)
  (-0.0512625 -0.0231643 0)
  (-0.0616472 -0.0248145 0)
  (-0.0713364 -0.0224443 0)
  (-0.0765279 -0.0146957 0)
  (-0.0764151 -0.00783559 0)
  (-0.0737718 -0.00442804 0)
  (-0.0708177 -0.0028985 0)
  (-0.0680491 -0.002967 0)
  (-0.065784 -0.00372465 0)
  (-0.0637704 -0.00435561 0)
  (-0.0617755 -0.00501535 0)
  (-0.0597859 -0.00553621 0)
  (-0.0577372 -0.00586253 0)
  (-0.05557 -0.00600545 0)
  (-0.0532425 -0.00599311 0)
  (-0.0507083 -0.00588711 0)
  (-0.0479524 -0.005867 0)
  (-0.0451419 -0.00628764 0)
  (-0.0426634 -0.00735565 0)
  (-0.0407363 -0.00842054 0)
  (-0.0397517 -0.00929559 0)
  (-0.0422129 -0.00920298 0)
  (-0.0514066 -0.00686157 0)
  (-0.071625 -0.00975449 0)
  (0.13469 -0.0543597 0)
  (0.272895 -0.369762 0)
  (-0.0247573 -0.152362 0)
  (0.106378 0.0945499 0)
  (0.10968 0.211597 0)
  (0.071988 0.225543 0)
  (0.049233 0.192283 0)
  (0.0398326 0.138206 0)
  (0.0343564 0.0807905 0)
  (0.0285401 0.0331646 0)
  (0.0192233 0.00244824 0)
  (0.00924023 -0.0111199 0)
  (0.00304106 -0.0135474 0)
  (-0.00197986 -0.0124578 0)
  (-0.00735315 -0.0117703 0)
  (-0.0139944 -0.0124829 0)
  (-0.0219621 -0.0141886 0)
  (-0.0307349 -0.0156558 0)
  (-0.0388661 -0.0150502 0)
  (-0.0443105 -0.0118108 0)
  (-0.0464178 -0.00842201 0)
  (-0.0462875 -0.00633253 0)
  (-0.0451417 -0.00534887 0)
  (-0.0436183 -0.00533339 0)
  (-0.0421105 -0.00583664 0)
  (-0.0406698 -0.00645663 0)
  (-0.0392479 -0.0071085 0)
  (-0.0378175 -0.00769299 0)
  (-0.0363151 -0.00817338 0)
  (-0.0346691 -0.00856279 0)
  (-0.0328057 -0.00890635 0)
  (-0.0306475 -0.00929551 0)
  (-0.0281453 -0.00991341 0)
  (-0.0253454 -0.0110501 0)
  (-0.022378 -0.0129821 0)
  (-0.019266 -0.01587 0)
  (-0.0156319 -0.0201176 0)
  (-0.0112411 -0.0255787 0)
  (-0.0126654 -0.0304188 0)
  (-0.0738275 -0.0380659 0)
  (0.209433 -0.0781121 0)
  (0.138698 -0.309949 0)
  (-0.153857 -0.185046 0)
  (0.0350993 0.0131241 0)
  (0.0320252 0.249708 0)
  (-0.0155575 0.234221 0)
  (-0.00346061 0.189709 0)
  (0.0168165 0.132663 0)
  (0.033092 0.0787496 0)
  (0.0419954 0.0366144 0)
  (0.0427367 0.00986168 0)
  (0.0374496 -0.00378562 0)
  (0.0318077 -0.00809108 0)
  (0.0271276 -0.00787471 0)
  (0.0228147 -0.00668577 0)
  (0.0179954 -0.00621084 0)
  (0.0122604 -0.00677416 0)
  (0.00574783 -0.00783786 0)
  (-0.000782055 -0.00834393 0)
  (-0.00583738 -0.00769969 0)
  (-0.008808 -0.00669963 0)
  (-0.0101285 -0.00606273 0)
  (-0.0104277 -0.00587563 0)
  (-0.0101939 -0.00611448 0)
  (-0.00977338 -0.00661239 0)
  (-0.00929999 -0.00720289 0)
  (-0.00880137 -0.00781488 0)
  (-0.00827817 -0.00839249 0)
  (-0.00769745 -0.00891903 0)
  (-0.00701078 -0.00941311 0)
  (-0.00615923 -0.00992249 0)
  (-0.00507461 -0.0105329 0)
  (-0.00369448 -0.0113907 0)
  (-0.00199155 -0.012713 0)
  (4.08718e-05 -0.0147681 0)
  (0.00249662 -0.0178426 0)
  (0.00618284 -0.0223279 0)
  (0.0126879 -0.028636 0)
  (0.0185835 -0.0371944 0)
  (-0.0413344 -0.0493038 0)
  (0.342505 -0.0582876 0)
  (-0.0720651 -0.165116 0)
  (-0.415398 -0.1126 0)
  (-0.569933 -0.0357709 0)
  (-0.0587925 0.211457 0)
  (-0.10908 0.200109 0)
  (-0.0479166 0.157563 0)
  (0.00355999 0.105415 0)
  (0.0370819 0.0620327 0)
  (0.0558132 0.0313958 0)
  (0.06315 0.0123764 0)
  (0.0635116 0.00266244 0)
  (0.0612688 -0.000775252 0)
  (0.0586519 -0.000897646 0)
  (0.0560063 6.88885e-05 0)
  (0.0531148 0.000833888 0)
  (0.0497429 0.000936376 0)
  (0.0458339 0.000465417 0)
  (0.0416686 -0.000188862 0)
  (0.0378732 -0.000668802 0)
  (0.0349495 -0.000993891 0)
  (0.0329334 -0.00132138 0)
  (0.0316053 -0.0017224 0)
  (0.0306748 -0.00220314 0)
  (0.0299054 -0.00274658 0)
  (0.0291878 -0.00332025 0)
  (0.028492 -0.00389617 0)
  (0.0278145 -0.00445236 0)
  (0.027168 -0.00498933 0)
  (0.0265741 -0.0055348 0)
  (0.0260602 -0.00614545 0)
  (0.0256577 -0.00691392 0)
  (0.0253952 -0.00798337 0)
  (0.0252805 -0.00956341 0)
  (0.0252851 -0.0119428 0)
  (0.0253873 -0.0155222 0)
  (0.0259699 -0.0209073 0)
  (0.0277193 -0.0291588 0)
  (0.0272248 -0.0416844 0)
  (-0.0293506 -0.0539768 0)
  (0.357818 -0.021495 0)
  (-1.75383 -0.0614891 0)
  (-0.088558 0.0628782 0)
  (-0.139451 0.100078 0)
  (-0.0554285 0.0928032 0)
  (0.0211809 0.0632124 0)
  (0.0596935 0.0457704 0)
  (0.0816217 0.0339823 0)
  (0.091816 0.0264113 0)
  (0.0955185 0.0209809 0)
  (0.0955169 0.0183994 0)
  (0.0942957 0.018057 0)
  (0.0928103 0.0184966 0)
  (0.0913939 0.0183337 0)
  (0.0898445 0.0176066 0)
  (0.0879858 0.0164666 0)
  (0.0857977 0.015086 0)
  (0.0834438 0.0136037 0)
  (0.0811885 0.0119081 0)
  (0.0790945 0.0101058 0)
  (0.0771214 0.00836268 0)
  (0.0751947 0.00676996 0)
  (0.0732411 0.0052523 0)
  (0.0712359 0.0037668 0)
  (0.0691842 0.00231745 0)
  (0.0670956 0.000906712 0)
  (0.0649818 -0.000487716 0)
  (0.0628543 -0.00192339 0)
  (0.060719 -0.00349832 0)
  (0.0585719 -0.00535537 0)
  (0.0563891 -0.00768799 0)
  (0.0541083 -0.0107437 0)
  (0.0515935 -0.0148179 0)
  (0.0485986 -0.0202352 0)
  (0.0448239 -0.0273326 0)
  (0.039239 -0.0365911 0)
  (0.0257961 -0.0486543 0)
  (-0.0271049 -0.0579785 0)
  (0.137433 -0.0184546 0)
  (-0.750343 0.0553753 0)
  (0.289634 -0.0533863 0)
  (0.0898182 -0.0744066 0)
  (0.0736211 -0.0847844 0)
  (0.10777 -0.103283 0)
  (0.131729 -0.120564 0)
  (0.141836 -0.134785 0)
  (0.14318 -0.143508 0)
  (0.139887 -0.144567 0)
  (0.135198 -0.140669 0)
  (0.131116 -0.134577 0)
  (0.12849 -0.128211 0)
  (0.127068 -0.122283 0)
  (0.126324 -0.117446 0)
  (0.125797 -0.113848 0)
  (0.125166 -0.111348 0)
  (0.12426 -0.109708 0)
  (0.122927 -0.108561 0)
  (0.121083 -0.107736 0)
  (0.118759 -0.107183 0)
  (0.116097 -0.106457 0)
  (0.113202 -0.105593 0)
  (0.11013 -0.104777 0)
  (0.106891 -0.104048 0)
  (0.103481 -0.103401 0)
  (0.0998999 -0.102817 0)
  (0.0961498 -0.10229 0)
  (0.0922154 -0.101819 0)
  (0.0880528 -0.101411 0)
  (0.0835754 -0.101068 0)
  (0.0786402 -0.100781 0)
  (0.073033 -0.100519 0)
  (0.0664827 -0.100222 0)
  (0.0588282 -0.0997931 0)
  (0.0499634 -0.0992184 0)
  (0.0378315 -0.100171 0)
  (0.00461024 -0.112965 0)
  (0.145479 -0.211038 0)
  (0.274019 0.199027 0)
  (0.288345 -0.0121251 0)
  (0.0513343 0.170369 0)
  (0.259155 0.181784 0)
  (0.249711 0.245256 0)
  (0.210799 0.297002 0)
  (0.203471 0.338516 0)
  (0.206429 0.369983 0)
  (0.206982 0.39055 0)
  (0.204357 0.400454 0)
  (0.200645 0.400129 0)
  (0.197256 0.393125 0)
  (0.194432 0.383031 0)
  (0.192091 0.372449 0)
  (0.190129 0.362581 0)
  (0.188462 0.354175 0)
  (0.186911 0.347388 0)
  (0.185292 0.342048 0)
  (0.183457 0.337874 0)
  (0.181293 0.334479 0)
  (0.178756 0.331724 0)
  (0.17581 0.329572 0)
  (0.172385 0.327362 0)
  (0.168513 0.325137 0)
  (0.16421 0.323185 0)
  (0.159464 0.321594 0)
  (0.15428 0.320353 0)
  (0.148671 0.319426 0)
  (0.142633 0.318773 0)
  (0.136137 0.31836 0)
  (0.129114 0.318148 0)
  (0.121444 0.318089 0)
  (0.112939 0.318117 0)
  (0.103329 0.318144 0)
  (0.0922469 0.318081 0)
  (0.0792948 0.317862 0)
  (0.0639406 0.317399 0)
  (0.0430026 0.31881 0)
  (-0.0265538 0.356745 0)
  (0.213892 0.555907 0)
)
;

boundaryField
{
  floor
  {
    type noSlip;
  }
  ceiling
  {
    type noSlip;
  }
  sWall
  {
    type noSlip;
  }
  nWall
  {
    type noSlip;
  }
  sideWalls
  {
    type empty;
  }
  glass1
  {
    type noSlip;
  }
  glass2
  {
    type noSlip;
  }
  sun
  {
    type noSlip;
  }
  Table_master
  {
    type noSlip;
  }
  Table_slave
  {
    type noSlip;
  }
  inlet
  {
    type fixedValue;
    value uniform (0.646716 -0.267878 0);
  }
  outlet
  {
    type zeroGradient;
  }
} 	// ************************************************************************* //

