/*--------------------------------*- C++ -*----------------------------------*\
  =========                 |
  \\      /  F ield         | OpenFOAM: The Open Source CFD Toolbox
   \\    /   O peration     | Website:  https://openfoam.org
    \\  /    A nd           | Version:  6
     \\/     M anipulation  |
\*---------------------------------------------------------------------------*/
FoamFile
{
    version     2.0;
    format      ascii;
    class       volScalarField;
    location    "1000";
    object      epsilon;
}
// * * * * * * * * * * * * * * * * * * * * * * * * * * * * * * * * * * * * * //

dimensions      [0 2 -3 0 0 0 0];

internalField   nonuniform List<scalar> 
458
(
0.000266512
0.000319131
0.000302279
0.00033506
0.000366903
0.000396446
0.000424224
0.000451308
0.000478118
0.000494217
0.000494939
0.000477128
0.000442821
0.000401533
0.000363031
2.69126e-05
4.86925e-05
5.0179e-05
4.89639e-05
4.6847e-05
4.1867e-05
3.63634e-05
3.15577e-05
2.74501e-05
2.39086e-05
2.08459e-05
1.81907e-05
1.5879e-05
1.38443e-05
1.20008e-05
1.02493e-05
1.01004e-05
8.41529e-06
0.000857636
0.00148388
0.000297457
0.00025613
0.000255566
0.000260139
0.000268758
0.000283134
0.000304022
0.000323158
0.0003336
0.000329158
0.000309525
0.000287328
0.000296073
0.000373089
0.000257527
0.000217906
8.95106e-05
6.90238e-05
5.17907e-05
4.32923e-05
3.89248e-05
3.83768e-05
3.27239e-05
2.76352e-05
2.33598e-05
1.97835e-05
1.68256e-05
1.441e-05
1.24977e-05
1.12093e-05
1.0749e-05
1.10039e-05
4.23443e-05
2.59424e-05
0.00177829
0.00426241
0.000466398
0.000262801
0.000253042
0.000264073
0.000283564
0.000311337
0.000346022
0.000378954
0.00039856
0.000396086
0.00037155
0.000336347
0.000308095
0.000283909
0.000232229
0.000407166
0.000182201
8.72387e-05
5.7429e-05
4.60601e-05
4.33745e-05
9.36175e-05
6.82668e-05
5.15705e-05
4.05335e-05
3.30091e-05
2.76806e-05
2.37807e-05
2.08782e-05
1.87861e-05
1.60393e-05
1.5102e-05
7.56558e-05
4.31728e-05
0.00314771
0.00923973
0.000899031
0.000296524
0.000262497
0.000279825
0.000310327
0.000352721
0.000406182
0.000455852
0.000481615
0.000474143
0.000437499
0.000384072
0.000325208
0.000261367
0.000197883
0.000227308
0.00026724
0.000154128
7.31027e-05
4.97e-05
4.17176e-05
4.17864e-05
0.000107788
9.80049e-05
9.76619e-05
0.000100466
0.000102838
0.000101987
9.57975e-05
8.76482e-05
7.7798e-05
5.14928e-05
3.49924e-05
9.94783e-05
6.30903e-05
0.00507225
0.0163995
0.00193996
0.000396487
0.00028405
0.000297668
0.000338913
0.000404467
0.000495904
0.000571633
0.000599705
0.000577579
0.000519273
0.000442779
0.000360277
0.000273296
0.00019046
0.000139837
0.000123675
7.65586e-05
5.31789e-05
4.34453e-05
4.06199e-05
4.17537e-05
4.99358e-05
5.79613e-05
6.64231e-05
7.40072e-05
7.91602e-05
8.00434e-05
7.54691e-05
6.83395e-05
6.23844e-05
5.37539e-05
4.36685e-05
6.66403e-05
9.44943e-05
0.000109349
0.000119192
0.000119474
0.00770952
0.0237767
0.00445828
0.000829646
0.00042282
0.000372167
0.000401675
0.000493681
0.000659619
0.000758948
0.000771078
0.000715596
0.000620774
0.000512374
0.000406742
0.000302621
0.000206459
0.000133044
8.58054e-05
5.97388e-05
4.78871e-05
4.403e-05
4.51503e-05
4.97049e-05
5.87711e-05
7.1507e-05
8.57864e-05
9.95322e-05
0.000110753
0.000116479
0.000113113
9.77364e-05
8.12608e-05
6.64369e-05
5.4944e-05
5.68565e-05
6.87918e-05
0.000100321
0.000398853
0.000251647
0.0108849
0.0279393
0.00974207
0.00305157
0.00147503
0.000922184
0.000764951
0.000839903
0.00102102
0.00107045
0.0010146
0.000892687
0.000740815
0.000592254
0.000461656
0.000341853
0.000230288
0.000140026
8.29643e-05
5.79345e-05
4.99233e-05
4.97749e-05
5.42268e-05
6.22346e-05
7.43631e-05
9.10818e-05
0.000111249
0.000132654
0.000153858
0.000171881
0.000181683
0.000174988
0.000147337
0.000122462
0.000108298
0.000110371
0.000132034
0.000195908
0.000773414
0.000489698
0.0116192
0.0317968
0.0172758
0.0112218
0.00671698
0.00397759
0.00266044
0.00211832
0.00183206
0.00159585
0.00135763
0.00110855
0.000865925
0.000661358
0.000505653
0.000374281
0.000248809
0.000145184
8.44722e-05
6.2266e-05
5.77473e-05
6.00859e-05
6.67887e-05
7.74692e-05
9.25239e-05
0.00011233
0.000136738
0.000165486
0.00019857
0.000235847
0.000276544
0.000317979
0.000341668
0.000354133
0.0004153
0.000584502
0.000963574
0.00147402
0.0049094
0.00119478
0.0107139
0.0180172
0.0160274
0.0121087
0.0089234
0.00642515
0.00469769
0.00356948
0.00276659
0.00217617
0.00170025
0.00128661
0.00093502
0.000676596
0.000513093
0.00038654
0.000253389
0.000143452
9.04757e-05
7.49478e-05
7.21685e-05
7.48775e-05
8.16952e-05
9.26292e-05
0.000108035
0.000128308
0.000153868
0.000185503
0.000224738
0.000274122
0.000337325
0.00041888
0.000523444
0.000657756
0.000856887
0.0011396
0.00147485
0.00179213
0.00208031
0.00108251
0.00821868
0.0146731
0.00938707
0.00676266
0.0050733
0.00389295
0.0030084
0.00229879
0.00171035
0.00121254
0.000819577
0.000567396
0.000451661
0.000366415
0.000235576
0.00014299
0.000110285
0.000100665
9.81618e-05
9.88801e-05
0.000102832
0.000110508
0.000122224
0.000138148
0.000158419
0.000183386
0.000213891
0.000251653
0.000299799
0.000363618
0.000451652
0.000570155
0.000722084
0.000896115
0.00104341
0.00108818
0.00100047
0.000541736
0.00662492
0.0117733
0.00769488
0.00561056
0.00421323
0.00315767
0.00231661
0.00168027
0.00118326
0.000793681
0.000503881
0.000329674
0.000258368
0.000217282
0.00019125
0.00015986
0.000141167
0.000130583
0.000122494
0.000116304
0.000113081
0.000113718
0.000118689
0.000128341
0.000143187
0.000164085
0.000192393
0.000230145
0.000280297
0.000347029
0.000435647
0.000550752
0.000693214
0.00084951
0.000994525
0.00110941
0.000710685
0.00055468
0.00327244
0.0041421
0.00499985
0.00583252
0.0046691
0.00390003
0.00289466
0.00210695
0.00148303
0.00101122
0.000707206
0.00046495
0.000265727
0.000181195
0.00018317
0.000181983
0.000128661
0.000102541
9.26819e-05
9.08028e-05
9.24552e-05
9.67133e-05
0.000103639
0.000113409
0.000126193
0.000142196
0.000161703
0.000185138
0.000213191
0.000247057
0.00028896
0.000343377
0.000409462
0.000488968
0.000583051
0.000691743
0.000807779
0.000765139
0.000588798
0.000455476
)
;

boundaryField
{
    floor
    {
        Cmu             0.09;
        kappa           0.41;
        E               9.8;
        type            epsilonWallFunction;
        value           nonuniform List<scalar> 
36
(
0.000363031
2.69126e-05
4.86925e-05
5.0179e-05
4.89639e-05
4.6847e-05
4.1867e-05
3.63634e-05
3.15577e-05
2.74501e-05
2.39086e-05
2.08459e-05
1.81907e-05
1.5879e-05
1.38443e-05
1.20008e-05
1.02493e-05
1.01004e-05
8.41529e-06
8.41529e-06
2.59424e-05
4.31728e-05
6.30903e-05
0.000109349
0.000119192
0.000119474
0.000363031
0.000373089
0.000257527
0.000217906
2.69126e-05
0.000217906
8.95106e-05
0.000407166
0.000182201
0.00026724
)
;
    }
    ceiling
    {
        Cmu             0.09;
        kappa           0.41;
        E               9.8;
        type            epsilonWallFunction;
        value           nonuniform List<scalar> 
43
(
0.00327244
0.0041421
0.00499985
0.00583252
0.0046691
0.00390003
0.00289466
0.00210695
0.00148303
0.00101122
0.000707206
0.00046495
0.000265727
0.000181195
0.00018317
0.000181983
0.000128661
0.000102541
9.26819e-05
9.08028e-05
9.24552e-05
9.67133e-05
0.000103639
0.000113409
0.000126193
0.000142196
0.000161703
0.000185138
0.000213191
0.000247057
0.00028896
0.000343377
0.000409462
0.000488968
0.000583051
0.000691743
0.000807779
0.000765139
0.000588798
0.000455476
0.0107139
0.0180172
0.00662492
)
;
    }
    sWall
    {
        Cmu             0.09;
        kappa           0.41;
        E               9.8;
        type            epsilonWallFunction;
        value           uniform 0.00327244;
    }
    nWall
    {
        Cmu             0.09;
        kappa           0.41;
        E               9.8;
        type            epsilonWallFunction;
        value           nonuniform List<scalar> 6(0.000119474 0.000251647 0.000489698 0.000541736 0.00055468 0.000455476);
    }
    sideWalls
    {
        type            empty;
    }
    glass1
    {
        Cmu             0.09;
        kappa           0.41;
        E               9.8;
        type            epsilonWallFunction;
        value           nonuniform List<scalar> 9(0.000266512 0.000857636 0.00177829 0.00314771 0.00507225 0.00770952 0.0108849 0.0116192 0.0107139);
    }
    glass2
    {
        Cmu             0.09;
        kappa           0.41;
        E               9.8;
        type            epsilonWallFunction;
        value           nonuniform List<scalar> 2(0.00119478 0.00108251);
    }
    sun
    {
        Cmu             0.09;
        kappa           0.41;
        E               9.8;
        type            epsilonWallFunction;
        value           nonuniform List<scalar> 
14
(
0.000266512
0.000319131
0.000302279
0.00033506
0.000366903
0.000396446
0.000424224
0.000451308
0.000478118
0.000494217
0.000494939
0.000477128
0.000442821
0.000401533
)
;
    }
    Table_master
    {
        Cmu             0.09;
        kappa           0.41;
        E               9.8;
        type            epsilonWallFunction;
        value           nonuniform List<scalar> 9(9.36175e-05 6.82668e-05 5.15705e-05 4.05335e-05 3.30091e-05 2.76806e-05 2.37807e-05 2.08782e-05 1.87861e-05);
    }
    Table_slave
    {
        Cmu             0.09;
        kappa           0.41;
        E               9.8;
        type            epsilonWallFunction;
        value           nonuniform List<scalar> 9(0.000107788 9.80049e-05 9.76619e-05 0.000100466 0.000102838 0.000101987 9.57975e-05 8.76482e-05 7.7798e-05);
    }
    inlet
    {
        type            turbulentMixingLengthDissipationRateInlet;
        mixingLength    0.01;
        phi             phi;
        k               k;
        value           uniform 0.000101881;
    }
    outlet
    {
        type            zeroGradient;
    }
}


// ************************************************************************* //
