/*--------------------------------*- C++ -*----------------------------------*\
  =========                 |
  \\      /  F ield         | OpenFOAM: The Open Source CFD Toolbox
   \\    /   O peration     | Website:  https://openfoam.org
    \\  /    A nd           | Version:  6
     \\/     M anipulation  |
\*---------------------------------------------------------------------------*/
FoamFile
{
    version     2.0;
    format      ascii;
    class       surfaceScalarField;
    location    "1000";
    object      phi;
}
// * * * * * * * * * * * * * * * * * * * * * * * * * * * * * * * * * * * * * //

dimensions      [1 0 -1 0 0 0 0];

internalField   nonuniform List<scalar> 
850
(
-0.00274494
0.00280593
-0.00342067
0.000675803
-0.00400943
0.000588828
-0.0045354
0.000526041
-0.00495509
0.000419748
-0.00524722
0.000292202
-0.00539311
0.000145949
-0.00537279
-2.02587e-05
-0.00516446
-0.000208266
-0.00475683
-0.000407564
-0.00416229
-0.000594483
-0.00341389
-0.000748333
-0.00253692
-0.000876903
-0.00147141
-0.00106544
-0.00146932
-0.000261208
0.000265134
0.000299366
-0.000560508
0.000844171
-0.000544744
0.00122934
-0.00038511
0.00150193
-0.000272533
0.00162566
-0.00012367
0.00164597
-2.02391e-05
0.00162923
1.68073e-05
0.00159827
3.10318e-05
0.00155792
4.04259e-05
0.00151052
4.74769e-05
0.00145547
5.51356e-05
0.00138489
7.06663e-05
0.0012757
0.000109287
0.00109227
0.000183523
0.000837881
0.000254477
0.00062876
0.000209213
0.000634005
-0.00197097
0.00493846
-0.00279145
0.00149635
-0.00347814
0.00127558
-0.00402826
0.00107623
-0.00446023
0.000851782
-0.00476953
0.000601564
-0.00494127
0.000317738
-0.00495511
-6.36445e-06
-0.00479588
-0.000367434
-0.00446336
-0.000740033
-0.0039835
-0.00107428
-0.00340427
-0.00132751
-0.00279025
-0.00149086
-0.00228543
-0.00157019
-0.00236167
-0.00139303
-0.00153741
-0.000820214
-0.000911667
-0.000621285
-0.000900083
0.000989813
-0.000715889
0.00112365
-0.000694289
0.00120477
-0.000625815
0.00139295
-0.000573248
0.00159231
-0.000471844
0.00162578
-0.000157094
0.00162051
-1.49234e-05
0.00161716
2.02159e-05
0.00161377
3.44831e-05
0.00160938
4.48794e-05
0.00160462
5.23141e-05
0.00159888
6.09447e-05
0.00158825
8.1375e-05
0.00154005
0.000157566
0.00134806
0.000375598
0.00101802
0.000584607
0.000603906
0.000623415
0.00125035
-0.00141863
0.00660111
-0.00222972
0.00230751
-0.00288808
0.00193401
-0.0033901
0.00157831
-0.00379328
0.00125503
-0.00409553
0.000903869
-0.00427624
0.000498507
-0.00430907
2.65276e-05
-0.00417107
-0.000505379
-0.00386421
-0.00104683
-0.00342226
-0.00151617
-0.00290055
-0.00184915
-0.00237137
-0.00201997
-0.00192869
-0.00201281
-0.00154411
-0.00177754
-0.00097087
-0.0013934
-0.000395798
-0.0011963
-0.0012859
0.000541229
-0.00124488
0.000806156
-0.000959185
0.000977083
-0.000796711
0.00116948
-0.00076561
0.00150228
-0.000804619
0.00134538
0.00133065
0.00135106
0.00138575
0.00143083
0.00148336
0.00154452
0.00162611
0.0017839
0.00151699
0.000642585
0.00115451
0.000947169
0.000603688
0.00117432
0.00187252
-0.00103383
0.00794763
-0.00177121
0.00304497
-0.00225624
0.0024191
-0.00264455
0.0019667
-0.0029779
0.00158844
-0.00324525
0.00117128
-0.00341739
0.000670704
-0.00345714
6.63415e-05
-0.00332797
-0.000634495
-0.00303734
-0.00133741
-0.00263341
-0.00192003
-0.00217693
-0.00230554
-0.00172927
-0.00246757
-0.00133566
-0.00240634
-0.000957947
-0.0021552
-0.00053575
-0.00181554
-0.000176616
-0.00155539
-8.87489e-05
-0.00137373
0.000729676
-0.000805244
0.000494843
-0.00101002
0.000590857
-0.00105517
0.000729126
-0.000934956
0.000815925
-0.000852386
0.000746459
-0.00073513
0.00117916
-0.000432833
0.00151138
-0.000332351
0.00181533
-0.000304083
0.00209538
-0.000280181
0.00233344
-0.000238187
0.00249614
-0.000162826
0.00253313
-3.71206e-05
0.00238751
0.000145487
0.00198525
0.000402133
0.00177709
0.000850774
0.00139478
0.00132954
0.000792625
0.00177654
0.00268874
-0.000752792
0.00907089
-0.00139338
0.00368563
-0.00157803
0.00260382
-0.00178972
0.00217845
-0.00201363
0.00181242
-0.00221091
0.00136862
-0.00234264
0.000802494
-0.00236221
8.59687e-05
-0.00222223
-0.00077441
-0.00195205
-0.00160752
-0.0016146
-0.00225739
-0.00126286
-0.00265719
-0.000935764
-0.00279457
-0.000655903
-0.00268613
-0.000409202
-0.00240183
-0.000177681
-0.00204701
-6.91982e-06
-0.0017261
7.73255e-05
-0.00145794
0.000380596
-0.00110849
0.000456303
-0.0010857
0.000467288
-0.00106614
0.000520495
-0.000988143
0.000577622
-0.000909493
0.000655891
-0.000813379
0.000896437
-0.000673359
0.00115617
-0.000592065
0.00140921
-0.000557105
0.00165335
-0.000524292
0.00187732
-0.00046214
0.00205789
-0.000343372
0.00215946
-0.000138662
0.00214652
0.000158441
0.00202559
0.000523087
0.00189911
0.000977282
0.00177071
0.00145798
0.00160416
0.00194315
0.00236964
0.00192332
0.00172734
0.000665697
0.00171886
3.14389e-05
0.00180445
-0.000673125
0.0101635
-0.00117315
0.00418573
-0.000878985
0.00230972
-0.000798555
0.00209809
-0.000888488
0.00190242
-0.000995717
0.00147592
-0.00104857
0.000855413
-0.000995535
3.29858e-05
-0.000821074
-0.000948813
-0.000596875
-0.00183164
-0.000375095
-0.00247907
-0.000181812
-0.00285036
-2.8825e-05
-0.00294744
7.77601e-05
-0.00279262
0.000143196
-0.0024672
0.000180898
-0.00208465
0.000189321
-0.00173448
0.000179197
-0.00144778
0.000261909
-0.00119117
0.000274054
-0.00109782
0.000252946
-0.00104501
0.00025343
-0.000988609
0.000278933
-0.000934978
0.000343954
-0.000878381
0.00048344
-0.000812825
0.000662804
-0.000771406
0.000856098
-0.000750375
0.00105593
-0.000724099
0.00125814
-0.000664326
0.00145505
-0.000540254
0.0016313
-0.000314887
0.00174922
4.05476e-05
0.00180325
0.000469077
0.00186564
0.000914923
0.00200661
0.00131703
0.00226615
0.00168365
0.00248959
0.00169994
0.00199964
0.0011557
0.00113668
0.000894456
0.00300602
-0.000814934
0.0114418
-0.000801357
0.00417223
0.000155815
0.00135262
0.000537476
0.00171649
0.000534776
0.00190518
0.000507799
0.00150295
0.000577174
0.000786089
0.000734992
-0.000124799
0.000898841
-0.00111261
0.00100597
-0.00193868
0.00103803
-0.002511
0.00100668
-0.00281887
0.000928798
-0.00286943
0.000812579
-0.0026763
0.000662999
-0.00231754
0.000497224
-0.00191882
0.000335544
-0.00157275
0.000199684
-0.00131189
0.000127474
-0.00111894
5.27912e-05
-0.00102312
-2.04814e-05
-0.000971721
-7.48265e-05
-0.000934246
-0.000103775
-0.00090601
-9.96811e-05
-0.000882453
-5.0168e-05
-0.000862314
3.35401e-05
-0.000855088
0.000137741
-0.000854548
0.000257985
-0.000844314
0.000397392
-0.000803702
0.000563575
-0.000706408
0.000765637
-0.000516919
0.000996102
-0.000189889
0.00122396
0.00024124
0.00145379
0.000685123
0.00174483
0.00102602
0.00211149
0.00131703
0.00247304
0.00133844
0.00261096
0.00101782
0.00197173
0.00153374
0.00504287
0.00234905
0.00961046
0.00295222
0.00356913
0.00318506
0.00111985
0.00308436
0.00181725
0.0028824
0.00210718
0.00280001
0.00158538
0.00284223
0.000743897
0.00293967
-0.000222216
0.00293679
-0.00110967
0.00278559
-0.00178738
0.00251419
-0.00223944
0.00218161
-0.00248611
0.00182855
-0.00251622
0.00145882
-0.00230646
0.00107147
-0.0019301
0.000695841
-0.00154313
0.000370541
-0.00124741
0.000119884
-0.0010612
-5.82377e-05
-0.000940795
-0.000205906
-0.000875437
-0.000337159
-0.000840451
-0.000451494
-0.000819893
-0.00054747
-0.000810012
-0.00062217
-0.000807729
-0.000672583
-0.000811872
-0.000704478
-0.000823164
-0.000723312
-0.000835681
-0.000729649
-0.000837944
-0.000718479
-0.000814838
-0.000676001
-0.000748853
-0.000570811
-0.000622076
-0.000344464
-0.000416205
-1.1693e-05
-9.15005e-05
0.000356506
0.000316954
0.000734741
0.000647817
0.00112902
0.000922787
0.00145824
0.00100926
0.00158333
0.000892767
0.000837291
0.00227982
0.00617907
0.010181
0.0137442
0.0123899
0.00247425
0.0102531
0.00395406
0.00874863
0.00361174
0.00773418
0.00259989
0.00695666
0.00152146
0.00620118
0.000533335
0.00538494
-0.000293314
0.00454339
-0.000945651
0.00374068
-0.00143651
0.00302644
-0.00177165
0.00240418
-0.0018938
0.00181447
-0.00171664
0.00121188
-0.00132744
0.000655362
-0.000986547
0.000216794
-0.000808799
-8.29066e-05
-0.000761471
-0.000298487
-0.000725196
-0.000487999
-0.000685909
-0.00067016
-0.000658272
-0.000845154
-0.000644879
-0.00101307
-0.00064207
-0.00117454
-0.000646232
-0.00133131
-0.000655073
-0.00148836
-0.000666076
-0.00165086
-0.000673148
-0.00182298
-0.000665785
-0.00200902
-0.000628758
-0.00221541
-0.000542434
-0.00245266
-0.000384781
-0.00273493
-0.000133907
-0.00304997
0.00022358
-0.00342574
0.000692758
-0.00404071
0.00126283
-0.00502454
0.00190666
-0.00652245
0.00250722
-0.00842342
0.00279379
-0.00817825
0.0020347
-0.00166942
0.00314229
0.00367531
0.00403195
0.0030647
0.00527602
0.00236794
0.0055925
0.00228365
0.00544027
0.00167392
0.00511537
0.000858478
0.00465407
0.000168224
0.00405425
-0.000345567
0.00339118
-0.000773164
0.00275897
-0.00113921
0.00218652
-0.00132121
0.00159814
-0.00112818
0.00090842
-0.00063767
0.000265196
-0.000343284
-0.000162019
-0.000381556
-0.000395864
-0.000527606
-0.00058221
-0.000538833
-0.000781862
-0.00048624
-0.000992504
-0.000447611
-0.0012075
-0.000429857
-0.00142624
-0.000423306
-0.00165065
-0.000421794
-0.00188389
-0.000421804
-0.00213004
-0.000419889
-0.00239215
-0.000411002
-0.00267006
-0.000387834
-0.00295831
-0.000340471
-0.00324412
-0.000256578
-0.00350573
-0.000123141
-0.0037125
7.29071e-05
-0.00386223
0.000373353
-0.00397506
0.000805627
-0.00408602
0.00137383
-0.00420969
0.00203037
-0.00432278
0.00262034
-0.00426343
0.00273449
-0.0026865
0.000457811
-0.00426838
-0.00064124
0.00435809
0.00091909
0.00150466
0.00182733
0.00145994
0.00253347
0.00157774
0.00296549
0.00124214
0.00312361
0.000700609
0.0030212
0.000270911
0.00274076
-6.48505e-05
0.00233779
-0.000369945
0.00186379
-0.000665073
0.00135017
-0.000807576
0.000790126
-0.000568106
0.000185022
-3.25493e-05
-0.000324958
0.000166708
-0.000577064
-0.000129434
-0.000754793
-0.00034986
-0.000938144
-0.000355466
-0.00113443
-0.000289933
-0.00133629
-0.000245736
-0.00154172
-0.000224406
-0.00175132
-0.000213681
-0.00196549
-0.00020759
-0.00218392
-0.000203337
-0.00240542
-0.000198352
-0.00262714
-0.000189253
-0.00284334
-0.000171592
-0.00304396
-0.000139812
-0.00321332
-8.71733e-05
-0.00333258
-3.8448e-06
-0.00337271
0.000113076
-0.00328731
0.000287998
-0.00303342
0.000551778
-0.00259203
0.000932487
-0.00198362
0.00142201
-0.00104657
0.00168334
0.000609533
0.00107843
0.00148502
-0.000417629
-0.00268674
-0.00696063
-0.00926621
-0.00487502
-0.003354
-0.00188189
-0.000294184
0.000956737
0.00166629
0.00194689
0.00189276
0.00153438
0.000881287
8.54256e-05
-0.000471147
-0.000492403
-0.000314556
-0.000432093
-0.000769431
-0.00111203
-0.00138898
-0.00162176
-0.00183334
-0.00203441
-0.00222967
-0.00242101
-0.00260774
-0.00278574
-0.00294648
-0.00307584
-0.00315296
-0.00314715
-0.00302486
-0.00272807
-0.00216793
-0.00122749
0.000202049
0.00189245
0.00297791
0.00256778
)
;

boundaryField
{
    floor
    {
        type            calculated;
        value           nonuniform List<scalar> 
36
(
0
0
0
0
0
0
0
0
0
0
0
0
0
0
0
0
0
0
0
-5.15922e-06
-1.23492e-05
-1.84044e-05
-2.35191e-05
-2.33266e-05
-2.28918e-05
-2.25087e-05
-2.0216e-06
-3.98285e-06
-4.39289e-06
-4.58044e-06
-3.84895e-06
-6.94733e-06
-8.72994e-06
-9.93024e-06
-1.22066e-05
-1.31479e-05
)
;
    }
    ceiling
    {
        type            calculated;
        value           nonuniform List<scalar> 
43
(
-3.64573e-05
-3.46846e-05
-3.29525e-05
-1.61784e-05
-1.19899e-05
-9.77058e-06
-8.53119e-06
-8.69306e-06
-9.43036e-06
-1.04934e-05
-1.14211e-05
-1.20454e-05
-1.19462e-05
-1.15504e-05
-1.12804e-05
-1.11385e-05
-1.18876e-05
-1.25118e-05
-1.28574e-05
-1.29659e-05
-1.29356e-05
-1.28031e-05
-1.25851e-05
-1.2299e-05
-1.19636e-05
-1.15963e-05
-1.12105e-05
-1.08159e-05
-1.04178e-05
-1.00166e-05
-9.60773e-06
-9.1763e-06
-8.74777e-06
-8.32426e-06
-7.90735e-06
-7.49103e-06
-7.0128e-06
-6.99725e-06
-7.45444e-06
-7.26473e-06
8.79212e-06
5.98226e-06
-4.13115e-05
)
;
    }
    sWall
    {
        type            calculated;
        value           uniform -0.000236899;
    }
    nWall
    {
        type            calculated;
        value           nonuniform List<scalar> 6(-6.30153e-05 -6.48241e-05 -6.50567e-05 -8.74977e-05 -9.65873e-05 -0.000111648);
    }
    sideWalls
    {
        type            empty;
        value           nonuniform 0();
    }
    glass1
    {
        type            calculated;
        value           nonuniform List<scalar> 9(-6.09111e-05 -0.000161471 -0.000243947 -0.000312601 -0.000370378 -0.000419375 -0.000463264 -0.000517663 -0.000579211);
    }
    glass2
    {
        type            calculated;
        value           nonuniform List<scalar> 2(-0.000298852 -0.000329712);
    }
    sun
    {
        type            calculated;
        value           uniform 0;
    }
    Table_master
    {
        type            calculated;
        value           nonuniform List<scalar> 9(-1.53662e-07 -1.53759e-07 -1.53775e-07 -1.53781e-07 -1.53784e-07 -1.53784e-07 -1.53781e-07 -1.5377e-07 -1.53734e-07);
    }
    Table_slave
    {
        type            calculated;
        value           nonuniform List<scalar> 9(1.53719e-07 1.53649e-07 1.5355e-07 1.53459e-07 1.53381e-07 1.53331e-07 1.53324e-07 1.53334e-07 1.53396e-07);
    }
    inlet
    {
        type            calculated;
        value           uniform -0.00434308;
    }
    outlet
    {
        type            calculated;
        value           nonuniform List<scalar> 2(0.00723414 0.00234042);
    }
}


// ************************************************************************* //
