/*--------------------------------*- C++ -*----------------------------------*\
  =========                 |
  \\      /  F ield         | OpenFOAM: The Open Source CFD Toolbox
   \\    /   O peration     | Website:  https://openfoam.org
    \\  /    A nd           | Version:  6
     \\/     M anipulation  |
\*---------------------------------------------------------------------------*/
FoamFile
{
    version     2.0;
    format      ascii;
    class       volVectorField;
    location    "1000";
    object      U;
}
// * * * * * * * * * * * * * * * * * * * * * * * * * * * * * * * * * * * * * //

dimensions      [0 1 -1 0 0 0 0];

internalField   nonuniform List<vector> 
458
(
(0.0613999 0.0781942 0)
(-0.152657 0.0159591 0)
(-0.160586 0.0134821 0)
(-0.18525 0.0110927 0)
(-0.205722 0.00758008 0)
(-0.221177 0.00362231 0)
(-0.230751 -0.000747004 0)
(-0.233467 -0.00561075 0)
(-0.228228 -0.0110802 0)
(-0.214679 -0.0171852 0)
(-0.192625 -0.0235099 0)
(-0.162168 -0.0299067 0)
(-0.124342 -0.0372708 0)
(-0.0875082 -0.0479802 0)
(-0.0807131 -0.0619718 0)
(0.039901 0.0139906 0)
(-0.00164689 -0.0203213 0)
(0.0236494 -0.0209331 0)
(0.0436813 -0.0162601 0)
(0.0589561 -0.0115179 0)
(0.0680586 -0.00628423 0)
(0.0714035 -0.00335314 0)
(0.0711551 -0.00220171 0)
(0.0696274 -0.0016984 0)
(0.067863 -0.00133675 0)
(0.0659565 -0.00101081 0)
(0.0637863 -0.000656048 0)
(0.0611512 -9.34008e-05 0)
(0.057504 0.00111607 0)
(0.0516689 0.00353208 0)
(0.0423883 0.00548559 0)
(0.0392169 0.00443321 0)
(-0.0328264 0.0177192 0)
(0.248718 0.163507 0)
(-0.15557 0.0468962 0)
(-0.135007 0.0404926 0)
(-0.16292 0.0352132 0)
(-0.184054 0.0282843 0)
(-0.200167 0.0203219 0)
(-0.210696 0.0112056 0)
(-0.214811 0.000716992 0)
(-0.211247 -0.0111626 0)
(-0.200236 -0.0235323 0)
(-0.182129 -0.0348276 0)
(-0.158366 -0.0436962 0)
(-0.13191 -0.049925 0)
(-0.109414 -0.0537646 0)
(-0.0986427 -0.0476946 0)
(-0.0813692 -0.00605603 0)
(-0.0538482 0.00720693 0)
(-0.0856157 -0.00143164 0)
(0.105433 -0.0176309 0)
(0.0456342 -0.0237786 0)
(0.0432762 -0.0235874 0)
(0.0543959 -0.0204124 0)
(0.0642291 -0.0158367 0)
(0.0703131 -0.00469879 0)
(0.0709482 0.00210576 0)
(0.0699004 0.00459089 0)
(0.0693107 0.00534509 0)
(0.0691574 0.00561434 0)
(0.0690452 0.00572736 0)
(0.0688564 0.00589506 0)
(0.068566 0.00651029 0)
(0.0675716 0.0085573 0)
(0.0632107 0.0149251 0)
(0.0521615 0.0192702 0)
(0.0507823 0.0189695 0)
(-0.0704149 0.04033 0)
(0.414897 0.246848 0)
(-0.185935 0.0812311 0)
(-0.1057 0.0687904 0)
(-0.136124 0.0569677 0)
(-0.155709 0.0449168 0)
(-0.171199 0.0316736 0)
(-0.181921 0.0166062 0)
(-0.186785 -0.000608757 0)
(-0.183955 -0.0196604 0)
(-0.173774 -0.0391803 0)
(-0.156999 -0.0564357 0)
(-0.135661 -0.0691075 0)
(-0.112822 -0.0763486 0)
(-0.0921924 -0.0780585 0)
(-0.0742763 -0.0717234 0)
(-0.0529102 -0.0533177 0)
(-0.0301136 -0.0459911 0)
(-0.0530989 -0.0531362 0)
(0.0858687 -0.0519853 0)
(0.0289559 -0.0402396 0)
(0.0342045 -0.0324054 0)
(0.0459579 -0.0297464 0)
(0.0550588 -0.0290861 0)
(0.0640724 -0.0193165 0)
(0.0604244 -0.011703 0)
(0.0574505 -0.00785055 0)
(0.0580595 -0.00578944 0)
(0.0601999 -0.00447987 0)
(0.0625616 -0.00357999 0)
(0.0650307 -0.00284736 0)
(0.0681672 -0.00186398 0)
(0.0732062 0.00161037 0)
(0.0728234 0.0208398 0)
(0.0590374 0.0329235 0)
(0.0628781 0.0391961 0)
(-0.0977897 0.0675984 0)
(0.557905 0.315225 0)
(-0.228454 0.115863 0)
(-0.0724868 0.0944746 0)
(-0.105873 0.0766697 0)
(-0.12186 0.0612488 0)
(-0.135186 0.0443814 0)
(-0.145204 0.0245524 0)
(-0.150238 0.00111419 0)
(-0.147444 -0.0253815 0)
(-0.137478 -0.0521661 0)
(-0.121852 -0.0749379 0)
(-0.102937 -0.0904884 0)
(-0.0833769 -0.0975389 0)
(-0.0654654 -0.0959284 0)
(-0.0492574 -0.0859342 0)
(-0.0321392 -0.0706222 0)
(-0.0146076 -0.0605716 0)
(-0.00806037 -0.0548251 0)
(0.0151932 0.0271855 0)
(0.0279644 -0.0373505 0)
(0.0235841 -0.0421936 0)
(0.0276175 -0.0376116 0)
(0.0328803 -0.0351839 0)
(0.0342274 -0.0327104 0)
(0.0400132 -0.0209974 0)
(0.0564118 -0.0158298 0)
(0.0715212 -0.0132729 0)
(0.0843137 -0.0116159 0)
(0.0953728 -0.00991934 0)
(0.10413 -0.00763283 0)
(0.109078 -0.00434154 0)
(0.107457 0.000400368 0)
(0.0970002 0.00722969 0)
(0.0814857 0.0297818 0)
(0.066456 0.0488376 0)
(0.0764401 0.0645054 0)
(-0.0995004 0.0996776 0)
(0.676387 0.370139 0)
(-0.271802 0.147987 0)
(-0.0377196 0.11135 0)
(-0.0715649 0.0905928 0)
(-0.0825418 0.073641 0)
(-0.0920123 0.0546179 0)
(-0.0999338 0.0311776 0)
(-0.103966 0.00223726 0)
(-0.0996135 -0.0312909 0)
(-0.0894831 -0.0646417 0)
(-0.0758927 -0.0916059 0)
(-0.0609698 -0.10875 0)
(-0.0464855 -0.11519 0)
(-0.0337361 -0.111483 0)
(-0.0228526 -0.0999613 0)
(-0.0127743 -0.0849242 0)
(-0.00371228 -0.0721501 0)
(0.000525223 -0.0629233 0)
(0.0103983 -0.0466289 0)
(0.0182973 -0.0501448 0)
(0.0201165 -0.0467775 0)
(0.0210821 -0.042006 0)
(0.0233302 -0.0383029 0)
(0.0258833 -0.0336887 0)
(0.0327263 -0.024638 0)
(0.0437449 -0.0201722 0)
(0.0550761 -0.0184273 0)
(0.0658248 -0.0170262 0)
(0.0758833 -0.0145958 0)
(0.0846837 -0.0101064 0)
(0.0911725 -0.00255242 0)
(0.093849 0.00808008 0)
(0.0912783 0.0216565 0)
(0.0853307 0.0412464 0)
(0.0769735 0.0612746 0)
(0.0977421 0.0817165 0)
(0.0384623 0.10318 0)
(0.103213 0.131315 0)
(0.127449 0.151955 0)
(-0.168954 0.189508 0)
(0.75774 0.417681 0)
(-0.30974 0.17289 0)
(-0.01005 0.111253 0)
(-0.0315003 0.0974898 0)
(-0.0367999 0.082281 0)
(-0.0418462 0.0618654 0)
(-0.046369 0.0358969 0)
(-0.0474051 0.00245131 0)
(-0.0384477 -0.0379641 0)
(-0.0286326 -0.0761467 0)
(-0.019122 -0.104778 0)
(-0.0106242 -0.12148 0)
(-0.0036341 -0.126264 0)
(0.00150036 -0.120141 0)
(0.00470624 -0.106698 0)
(0.00666632 -0.0906303 0)
(0.00770104 -0.0758981 0)
(0.00728701 -0.0636958 0)
(0.00925366 -0.0511891 0)
(0.0117222 -0.0479161 0)
(0.0113992 -0.0457307 0)
(0.0106677 -0.0428192 0)
(0.011104 -0.0400205 0)
(0.0128359 -0.0367426 0)
(0.017312 -0.0322862 0)
(0.0244032 -0.0298774 0)
(0.0325068 -0.0288043 0)
(0.0409222 -0.0275373 0)
(0.0494821 -0.0248234 0)
(0.0579725 -0.0193913 0)
(0.0659736 -0.00976642 0)
(0.0736049 0.00485198 0)
(0.0773839 0.0224121 0)
(0.0795904 0.0422563 0)
(0.0808545 0.0616735 0)
(0.098457 0.0808032 0)
(0.0917533 0.0809687 0)
(0.10215 0.0358981 0)
(0.126799 -0.00955626 0)
(-0.207832 0.0995476 0)
(0.795429 0.461052 0)
(-0.326737 0.163664 0)
(0.0139113 0.0664575 0)
(0.0261619 0.0900033 0)
(0.0239914 0.0904001 0)
(0.0203946 0.0680731 0)
(0.0194599 0.0367357 0)
(0.0259991 -0.00335185 0)
(0.0377196 -0.0481481 0)
(0.0440912 -0.0854109 0)
(0.0461117 -0.111203 0)
(0.045221 -0.12517 0)
(0.0422905 -0.12773 0)
(0.0377156 -0.119829 0)
(0.0315785 -0.104886 0)
(0.0244122 -0.087914 0)
(0.0172245 -0.0726258 0)
(0.0107369 -0.0604317 0)
(0.00652655 -0.0506103 0)
(0.00381697 -0.0460612 0)
(0.000609429 -0.0436712 0)
(-0.00229779 -0.0416263 0)
(-0.00413539 -0.0399252 0)
(-0.00473458 -0.0383076 0)
(-0.00352441 -0.0366421 0)
(-0.000542865 -0.0358232 0)
(0.00354782 -0.0355469 0)
(0.00825712 -0.0348933 0)
(0.0136359 -0.0328325 0)
(0.0198599 -0.0281064 0)
(0.0272164 -0.0190121 0)
(0.0370461 -0.00362147 0)
(0.0488183 0.0161438 0)
(0.0583033 0.0355601 0)
(0.0675268 0.0523673 0)
(0.0849067 0.067409 0)
(0.0968336 0.0670538 0)
(0.10831 0.046158 0)
(0.160565 0.0530033 0)
(-0.148411 0.160599 0)
(0.898 0.471336 0)
(-0.0945006 0.14452 0)
(0.0967366 -0.00707505 0)
(0.150555 0.0272854 0)
(0.135628 0.0540182 0)
(0.120087 0.0419079 0)
(0.116965 0.0111244 0)
(0.124066 -0.0266267 0)
(0.130409 -0.0596731 0)
(0.126565 -0.0869628 0)
(0.115746 -0.106457 0)
(0.101568 -0.117267 0)
(0.0863112 -0.118433 0)
(0.0706984 -0.109417 0)
(0.0541931 -0.0933585 0)
(0.0371559 -0.0762435 0)
(0.0216979 -0.0621696 0)
(0.00944769 -0.0522345 0)
(0.000693785 -0.0452967 0)
(-0.00589725 -0.0416729 0)
(-0.0118125 -0.0397504 0)
(-0.0171289 -0.0384676 0)
(-0.0216658 -0.0376489 0)
(-0.0253331 -0.0371598 0)
(-0.0279638 -0.0369677 0)
(-0.0296694 -0.0372048 0)
(-0.0307581 -0.03761 0)
(-0.0313871 -0.0376417 0)
(-0.031462 -0.0366107 0)
(-0.0306561 -0.0337178 0)
(-0.0283622 -0.0281102 0)
(-0.0230917 -0.0189052 0)
(-0.00769925 -0.00491045 0)
(0.00995246 0.0126116 0)
(0.0236277 0.023069 0)
(0.0417194 0.0288641 0)
(0.0564486 0.0208155 0)
(0.0678088 0.000319421 0)
(0.153948 0.0639317 0)
(-0.473288 0.259982 0)
(1.03957 0.428465 0)
(0.494848 0.280086 0)
(0.503539 0.196494 0)
(0.496986 0.171536 0)
(0.420525 0.148695 0)
(0.351409 0.110897 0)
(0.311646 0.0668113 0)
(0.285124 0.0226113 0)
(0.251503 -0.0195084 0)
(0.214233 -0.0533382 0)
(0.17775 -0.0771883 0)
(0.144545 -0.0915046 0)
(0.115769 -0.0955598 0)
(0.0903701 -0.0879248 0)
(0.0651347 -0.0721282 0)
(0.0391195 -0.0562669 0)
(0.0167976 -0.0455499 0)
(0.00133082 -0.0402254 0)
(-0.00882867 -0.0373436 0)
(-0.0169847 -0.0356418 0)
(-0.0249407 -0.0345365 0)
(-0.032626 -0.0338752 0)
(-0.0399865 -0.0335928 0)
(-0.0470362 -0.033606 0)
(-0.0538219 -0.0338639 0)
(-0.0605182 -0.0343064 0)
(-0.0673705 -0.0346663 0)
(-0.0745809 -0.0344571 0)
(-0.0823037 -0.0329871 0)
(-0.0907409 -0.0293762 0)
(-0.100306 -0.0226149 0)
(-0.111615 -0.0116646 0)
(-0.124878 0.00422268 0)
(-0.136713 0.0238284 0)
(-0.156567 0.0464691 0)
(-0.190487 0.0727938 0)
(-0.241028 0.101483 0)
(-0.299303 0.130221 0)
(-0.375561 0.154751 0)
(-0.687615 0.172614 0)
(-0.516604 0.0158453 0)
(0.175544 0.132684 0)
(0.247598 0.136013 0)
(0.239071 0.110751 0)
(0.234715 0.0731522 0)
(0.226811 0.0331025 0)
(0.211812 -0.000862095 0)
(0.189 -0.0263852 0)
(0.160828 -0.04496 0)
(0.132027 -0.05835 0)
(0.105269 -0.0639776 0)
(0.080893 -0.0570863 0)
(0.0549782 -0.0414604 0)
(0.0244786 -0.0280237 0)
(-0.000467256 -0.0218096 0)
(-0.013465 -0.02188 0)
(-0.0213211 -0.0221038 0)
(-0.0292699 -0.0219633 0)
(-0.0380639 -0.0222358 0)
(-0.0472204 -0.0228395 0)
(-0.0565297 -0.0235687 0)
(-0.0660234 -0.024312 0)
(-0.0758211 -0.0250074 0)
(-0.086102 -0.0255582 0)
(-0.0970438 -0.0257249 0)
(-0.108726 -0.0250769 0)
(-0.121046 -0.0229753 0)
(-0.133649 -0.0186038 0)
(-0.14583 -0.0110757 0)
(-0.156327 0.000438405 0)
(-0.163319 0.0162841 0)
(-0.167578 0.0366728 0)
(-0.171619 0.0610087 0)
(-0.177348 0.0860617 0)
(-0.182493 0.102182 0)
(-0.176153 0.0867268 0)
(-0.165062 -0.00489392 0)
(-0.292755 -0.220052 0)
(-0.233146 0.198344 0)
(0.102543 0.123889 0)
(0.0720925 0.0933217 0)
(0.0933131 0.0869501 0)
(0.118003 0.0661728 0)
(0.131368 0.0392926 0)
(0.132461 0.0185593 0)
(0.125666 0.00380788 0)
(0.111219 -0.0112324 0)
(0.0918631 -0.0271706 0)
(0.0676564 -0.0362986 0)
(0.0445311 -0.0249557 0)
(0.0234668 0.0070212 0)
(-0.00551592 0.0225888 0)
(-0.0205972 0.0175095 0)
(-0.0289264 0.0086877 0)
(-0.036531 0.0112829 0)
(-0.0445669 0.017441 0)
(-0.0530706 0.0210199 0)
(-0.0618129 0.0219806 0)
(-0.0707271 0.0214491 0)
(-0.0798355 0.0201343 0)
(-0.0891489 0.0184625 0)
(-0.0986475 0.0167547 0)
(-0.108256 0.0152857 0)
(-0.117795 0.0142949 0)
(-0.126941 0.0139935 0)
(-0.135207 0.0145755 0)
(-0.14184 0.0162425 0)
(-0.145466 0.019214 0)
(-0.144181 0.0264415 0)
(-0.135748 0.0398698 0)
(-0.119495 0.0599989 0)
(-0.0969061 0.0850659 0)
(-0.0701941 0.106345 0)
(-0.0445315 0.108031 0)
(0.131475 0.023751 0)
(-0.219735 -0.136431 0)
(-0.048881 -0.30619 0)
(-0.379791 -0.0972788 0)
(-0.306093 0.100099 0)
(-0.156928 0.0166747 0)
(-0.116736 0.0132926 0)
(-0.049582 0.0245741 0)
(0.0174201 0.0112334 0)
(0.0542313 -0.0149678 0)
(0.0763981 -0.040009 0)
(0.084065 -0.0641995 0)
(0.0783258 -0.084682 0)
(0.0576642 -0.103734 0)
(0.0182528 -0.115784 0)
(-0.0155524 -0.112552 0)
(-0.0204295 -0.105278 0)
(-0.0165372 -0.105437 0)
(-0.014487 -0.13192 0)
(-0.0256085 -0.14328 0)
(-0.0410598 -0.145703 0)
(-0.0541944 -0.143454 0)
(-0.0649277 -0.13916 0)
(-0.0743732 -0.133558 0)
(-0.0831969 -0.126993 0)
(-0.0917031 -0.119802 0)
(-0.100036 -0.112294 0)
(-0.108231 -0.104683 0)
(-0.116196 -0.0970448 0)
(-0.123664 -0.0893005 0)
(-0.13016 -0.0812044 0)
(-0.134953 -0.0723262 0)
(-0.136972 -0.0619952 0)
(-0.134619 -0.0492204 0)
(-0.124964 -0.0351313 0)
(-0.104183 -0.018836 0)
(-0.070447 0.00101353 0)
(-0.0271822 0.0254458 0)
(0.0433347 0.0481881 0)
(0.0956337 0.0317118 0)
(0.171984 -0.0156288 0)
(-0.175059 -0.0949789 0)
)
;

boundaryField
{
    floor
    {
        type            noSlip;
    }
    ceiling
    {
        type            noSlip;
    }
    sWall
    {
        type            noSlip;
    }
    nWall
    {
        type            noSlip;
    }
    sideWalls
    {
        type            empty;
    }
    glass1
    {
        type            noSlip;
    }
    glass2
    {
        type            noSlip;
    }
    sun
    {
        type            noSlip;
    }
    Table_master
    {
        type            noSlip;
    }
    Table_slave
    {
        type            noSlip;
    }
    inlet
    {
        type            fixedValue;
        value           uniform (0.212132 -0.212132 0);
    }
    outlet
    {
        type            zeroGradient;
    }
}


// ************************************************************************* //
