/*--------------------------------*- C++ -*----------------------------------*\
  =========                 |
  \\      /  F ield         | OpenFOAM: The Open Source CFD Toolbox
   \\    /   O peration     | Website:  https://openfoam.org
    \\  /    A nd           | Version:  6
     \\/     M anipulation  |
\*---------------------------------------------------------------------------*/
FoamFile
{
    version     2.0;
    format      ascii;
    class       volScalarField;
    location    "2000";
    object      epsilon;
}
// * * * * * * * * * * * * * * * * * * * * * * * * * * * * * * * * * * * * * //

dimensions      [0 2 -3 0 0 0 0];

internalField   nonuniform List<scalar> 
458
(
0.000173719
0.000199969
9.94741e-05
8.23047e-05
7.7371e-05
7.53042e-05
7.51166e-05
7.65849e-05
7.94041e-05
8.32211e-05
8.76607e-05
9.24008e-05
9.7368e-05
0.000102807
0.0001078
4.24345e-06
5.75613e-06
6.31098e-06
4.41843e-06
2.75226e-06
2.0173e-06
2.27373e-06
2.94749e-06
3.89839e-06
4.97814e-06
5.86272e-06
5.88822e-06
5.63597e-06
5.54494e-06
5.78269e-06
5.32423e-06
4.44803e-06
3.4662e-06
0.00102224
0.00187825
0.000349465
0.000133367
8.50292e-05
6.63101e-05
5.72307e-05
5.35048e-05
5.32426e-05
5.53442e-05
5.9343e-05
6.52487e-05
7.34312e-05
8.46672e-05
0.000102541
0.000145609
0.000124498
3.74488e-05
1.50753e-05
1.78987e-05
1.31122e-05
7.60935e-06
4.39064e-06
3.64828e-06
4.80464e-06
6.97901e-06
9.63543e-06
1.20978e-05
1.37541e-05
1.47901e-05
1.54037e-05
1.57418e-05
1.48644e-05
1.31119e-05
1.25072e-05
1.07058e-05
0.00271828
0.00623174
0.0015728
0.000558696
0.000283849
0.000171393
0.000114127
8.47215e-05
7.17926e-05
6.78022e-05
6.87228e-05
7.26515e-05
7.86579e-05
8.58512e-05
9.35143e-05
0.000103256
0.0001177
0.000155962
5.21205e-05
4.19259e-05
2.64523e-05
2.00104e-05
1.53373e-05
6.04183e-06
7.36132e-06
9.47375e-06
1.20408e-05
1.52283e-05
1.9446e-05
2.56815e-05
3.62117e-05
5.78357e-05
4.30104e-05
4.2582e-05
4.38327e-05
3.78289e-05
0.00514291
0.0129346
0.00461388
0.00190771
0.000965796
0.000540768
0.00031245
0.000186946
0.000126357
9.97017e-05
9.11006e-05
9.10066e-05
9.5444e-05
0.000102076
0.000108819
0.000114862
0.000121709
0.000134264
0.000169735
5.49653e-05
4.27247e-05
4.07967e-05
4.51509e-05
5.5076e-05
7.42441e-05
7.55149e-05
7.71026e-05
7.93295e-05
8.29631e-05
8.90266e-05
9.91756e-05
0.000116718
0.000150237
8.41384e-05
9.59753e-05
0.000119408
0.000146319
0.00798521
0.0196753
0.00964316
0.00483431
0.00263963
0.00150481
0.00085123
0.000454214
0.00026235
0.000173567
0.000133084
0.000120934
0.000121198
0.000127354
0.000135099
0.000140511
0.000140034
0.000129552
0.000106258
7.6363e-05
6.1839e-05
5.61773e-05
5.51409e-05
5.59379e-05
5.71335e-05
5.76723e-05
5.8723e-05
6.07022e-05
6.41463e-05
6.97668e-05
7.8457e-05
9.11586e-05
0.000108182
0.000126696
0.000156296
0.00019775
0.000269561
0.000331217
0.000215048
0.000134895
0.0116397
0.0209178
0.0153984
0.0092076
0.00536591
0.00310436
0.00177636
0.00100487
0.000568082
0.000329411
0.000211679
0.000167071
0.000154164
0.000156503
0.000166363
0.000177359
0.000183385
0.00017784
0.000158237
0.000133051
0.000112989
9.99506e-05
9.25161e-05
8.85763e-05
8.64072e-05
8.51274e-05
8.47668e-05
8.55591e-05
8.80655e-05
9.32619e-05
0.000102613
0.000118034
0.000141492
0.000174274
0.000217339
0.000269217
0.000321006
0.000341875
0.000280454
0.000165662
0.0112714
0.0191987
0.0223332
0.0152597
0.00912954
0.00521945
0.00294561
0.00166121
0.000945578
0.00055285
0.000345297
0.000243548
0.000197952
0.000186956
0.000195531
0.00021197
0.000227618
0.000233439
0.000224449
0.000205254
0.000184366
0.000166916
0.000154286
0.000145866
0.000140354
0.000136719
0.000134519
0.000133739
0.00013487
0.000139103
0.000148586
0.000166467
0.000196088
0.000239215
0.000295866
0.000363726
0.000433891
0.000483305
0.000470889
0.000194551
0.00984749
0.0163334
0.0406409
0.0257812
0.0141854
0.00746217
0.00396142
0.00216837
0.00123481
0.000736634
0.000467822
0.000324994
0.000254524
0.000226793
0.000227371
0.000245554
0.00027087
0.000292141
0.000300013
0.000293607
0.00027943
0.000263448
0.000249178
0.00023797
0.000229712
0.000223792
0.000219675
0.000217112
0.000216374
0.000218659
0.000226805
0.000246167
0.000283986
0.000344657
0.000430668
0.000538611
0.000669759
0.000838955
0.00106864
0.00106425
0.00854661
0.0234673
0.132593
0.05502
0.0174981
0.00724388
0.00368209
0.00208378
0.00125947
0.000804624
0.000547364
0.000403582
0.000328938
0.000299138
0.000298798
0.000319567
0.00035366
0.000389345
0.000416156
0.000429272
0.000430351
0.000423834
0.000414073
0.000404066
0.000395268
0.000388056
0.000382244
0.000377467
0.000373535
0.000370939
0.000371745
0.000381593
0.000403715
0.000444662
0.00051506
0.000624916
0.000754951
0.000861559
0.00147875
0.00131727
0.229081
0.116719
0.0203907
0.00620902
0.00293007
0.00180064
0.00121342
0.000875616
0.000680783
0.000576676
0.000533216
0.000530938
0.000555878
0.000596233
0.000644133
0.000698208
0.000746125
0.000780946
0.000801227
0.000809378
0.000809363
0.000804938
0.000798758
0.000792234
0.000785788
0.00077921
0.000772062
0.000764173
0.000756307
0.0007515
0.000750233
0.000755061
0.000775393
0.00081047
0.000840074
0.000849353
0.000972459
0.00143484
0.132478
0.0419982
0.0110506
0.00407548
0.0021911
0.00156136
0.00125543
0.0011028
0.00105256
0.00107783
0.00115795
0.00127395
0.00140795
0.00154476
0.00167185
0.00177468
0.00184886
0.00189395
0.00191456
0.00191821
0.00191247
0.00190309
0.00189336
0.0018843
0.00187519
0.0018641
0.00184833
0.00182512
0.00179298
0.0017507
0.0017011
0.00164703
0.00159711
0.0015545
0.00150758
0.00141684
0.00161398
0.00179211
0.00185839
0.00615561
0.0418197
0.0180063
0.00608694
0.00225507
0.00191142
0.00164618
0.00144179
0.00129084
0.00118892
0.00112737
0.00109732
0.00109107
0.00110217
0.00112478
0.00115375
0.00118521
0.00121393
0.00123655
0.00125129
0.00125811
0.00125831
0.00125381
0.0012465
0.00123784
0.00122868
0.00121925
0.00120925
0.00119793
0.00118407
0.00116611
0.00114233
0.00111404
0.00107812
0.00103005
0.000960327
0.000853272
0.000768526
0.000747985
)
;

boundaryField
{
    floor
    {
        Cmu             0.09;
        kappa           0.41;
        E               9.8;
        type            epsilonWallFunction;
        value           nonuniform List<scalar> 
36
(
0.0001078
4.24345e-06
5.75613e-06
6.31098e-06
4.41843e-06
2.75226e-06
2.0173e-06
2.27373e-06
2.94749e-06
3.89839e-06
4.97814e-06
5.86272e-06
5.88822e-06
5.63597e-06
5.54494e-06
5.78269e-06
5.32423e-06
4.44803e-06
3.4662e-06
3.4662e-06
1.07058e-05
3.78289e-05
0.000146319
0.000331217
0.000215048
0.000134895
0.0001078
0.000145609
0.000124498
3.74488e-05
4.24345e-06
3.74488e-05
1.50753e-05
0.000155962
5.21205e-05
0.000169735
)
;
    }
    ceiling
    {
        Cmu             0.09;
        kappa           0.41;
        E               9.8;
        type            epsilonWallFunction;
        value           nonuniform List<scalar> 
43
(
0.00185839
0.00615561
0.0418197
0.0180063
0.00608694
0.00225507
0.00191142
0.00164618
0.00144179
0.00129084
0.00118892
0.00112737
0.00109732
0.00109107
0.00110217
0.00112478
0.00115375
0.00118521
0.00121393
0.00123655
0.00125129
0.00125811
0.00125831
0.00125381
0.0012465
0.00123784
0.00122868
0.00121925
0.00120925
0.00119793
0.00118407
0.00116611
0.00114233
0.00111404
0.00107812
0.00103005
0.000960327
0.000853272
0.000768526
0.000747985
0.00854661
0.0234673
0.132478
)
;
    }
    sWall
    {
        Cmu             0.09;
        kappa           0.41;
        E               9.8;
        type            epsilonWallFunction;
        value           uniform 0.00185839;
    }
    nWall
    {
        Cmu             0.09;
        kappa           0.41;
        E               9.8;
        type            epsilonWallFunction;
        value           nonuniform List<scalar> 6(0.000134895 0.000165662 0.000194551 0.00143484 0.00179211 0.000747985);
    }
    sideWalls
    {
        type            empty;
    }
    glass1
    {
        Cmu             0.09;
        kappa           0.41;
        E               9.8;
        type            epsilonWallFunction;
        value           nonuniform List<scalar> 9(0.000173719 0.00102224 0.00271828 0.00514291 0.00798521 0.0116397 0.0112714 0.00984749 0.00854661);
    }
    glass2
    {
        Cmu             0.09;
        kappa           0.41;
        E               9.8;
        type            epsilonWallFunction;
        value           nonuniform List<scalar> 2(0.00106425 0.00131727);
    }
    sun
    {
        Cmu             0.09;
        kappa           0.41;
        E               9.8;
        type            epsilonWallFunction;
        value           nonuniform List<scalar> 
14
(
0.000173719
0.000199969
9.94741e-05
8.23047e-05
7.7371e-05
7.53042e-05
7.51166e-05
7.65849e-05
7.94041e-05
8.32211e-05
8.76607e-05
9.24008e-05
9.7368e-05
0.000102807
)
;
    }
    Table_master
    {
        Cmu             0.09;
        kappa           0.41;
        E               9.8;
        type            epsilonWallFunction;
        value           nonuniform List<scalar> 9(6.04183e-06 7.36132e-06 9.47375e-06 1.20408e-05 1.52283e-05 1.9446e-05 2.56815e-05 3.62117e-05 5.78357e-05);
    }
    Table_slave
    {
        Cmu             0.09;
        kappa           0.41;
        E               9.8;
        type            epsilonWallFunction;
        value           nonuniform List<scalar> 9(7.42441e-05 7.55149e-05 7.71026e-05 7.93295e-05 8.29631e-05 8.90266e-05 9.91756e-05 0.000116718 0.000150237);
    }
    inlet
    {
        type            turbulentMixingLengthDissipationRateInlet;
        mixingLength    0.01;
        phi             phi;
        k               k;
        value           uniform 3.77337e-06;
    }
    outlet
    {
        type            zeroGradient;
    }
}


// ************************************************************************* //
