/*--------------------------------*- C++ -*----------------------------------*\
  =========                 |
  \\      /  F ield         | OpenFOAM: The Open Source CFD Toolbox
   \\    /   O peration     | Website:  https://openfoam.org
    \\  /    A nd           | Version:  6
     \\/     M anipulation  |
\*---------------------------------------------------------------------------*/
FoamFile
{
    version     2.0;
    format      ascii;
    class       volScalarField;
    location    "2000";
    object      k;
}
// * * * * * * * * * * * * * * * * * * * * * * * * * * * * * * * * * * * * * //

dimensions      [0 2 -2 0 0 0 0];

internalField   nonuniform List<scalar> 
458
(
0.00123411
0.00135553
0.000851016
0.000749979
0.000719668
0.000706775
0.00070559
0.00071475
0.000732182
0.000755463
0.000782097
0.000810043
0.000838821
0.000869773
0.000897717
0.000103883
0.000127297
0.000135351
0.000106722
7.78382e-05
6.32778e-05
6.85316e-05
8.14761e-05
9.81714e-05
0.000115551
0.000128862
0.000129236
0.000125518
0.000124162
0.000127686
0.000120845
0.000107194
9.07734e-05
0.00402233
0.00887698
0.00327293
0.00209775
0.00171453
0.00151637
0.00139812
0.00133608
0.00131566
0.00132353
0.00134786
0.00137713
0.00139471
0.00136639
0.00124158
0.00109695
0.000988178
0.000443628
0.00024187
0.000361597
0.00032749
0.000233888
0.000144485
0.000115377
0.000146707
0.000202697
0.000265856
0.000321711
0.000358583
0.000372531
0.000377541
0.000388143
0.000413871
0.000360442
0.000292844
0.000192518
0.00772015
0.022067
0.00955557
0.00535088
0.00375049
0.00290415
0.00238497
0.00207161
0.00190773
0.00184207
0.00183419
0.00185564
0.00188194
0.0018797
0.0018115
0.00167336
0.00144336
0.00114835
0.000553007
0.000786553
0.000565889
0.000412584
0.000285881
0.000131475
0.00014998
0.000177451
0.000208208
0.000243498
0.000286602
0.000344989
0.000433802
0.000592726
0.000898539
0.000909144
0.000849351
0.000446629
0.0118093
0.0384563
0.0209075
0.0121991
0.00809145
0.00573959
0.00423635
0.00327895
0.00273693
0.00246232
0.00236284
0.00235476
0.00238839
0.00241805
0.00239028
0.00226038
0.0019924
0.00157071
0.00121499
0.00106662
0.000939035
0.000808006
0.000734172
0.000700804
0.00070012
0.000708085
0.000717974
0.000731732
0.000753908
0.000790207
0.000849174
0.000946565
0.00112007
0.00146505
0.00160486
0.00170315
0.00110054
0.0158343
0.0525252
0.0344558
0.0221238
0.015121
0.0106165
0.00749136
0.00525975
0.00398486
0.00331636
0.00298716
0.00289538
0.00292708
0.00301204
0.00308822
0.00310211
0.00301313
0.0027813
0.00239323
0.00197226
0.00169496
0.00155425
0.00150111
0.00148185
0.00146995
0.0014604
0.00145667
0.00146171
0.00148094
0.00152192
0.00159413
0.00170682
0.00186225
0.00204165
0.00223217
0.00244878
0.0027476
0.00189727
0.0014226
0.00104245
0.0203565
0.0547473
0.044148
0.0319136
0.0229026
0.0162348
0.011431
0.00806076
0.00581427
0.00442302
0.00369244
0.00341919
0.00338706
0.00348973
0.00364457
0.00377818
0.00382371
0.0037098
0.00341004
0.00302897
0.00270249
0.00247339
0.00233024
0.0022436
0.00218685
0.00214517
0.00211529
0.00209661
0.00209153
0.0021059
0.00214959
0.00223527
0.00237121
0.00255035
0.00275498
0.00295569
0.00307382
0.00290002
0.00233522
0.00119547
0.0199231
0.0466375
0.0499208
0.0409262
0.0303413
0.0215668
0.0151341
0.0106307
0.00758205
0.00561069
0.00445156
0.00388837
0.00371222
0.00378664
0.00398913
0.00422166
0.00439977
0.00443532
0.00428528
0.00400906
0.00370811
0.0034486
0.00325169
0.00311206
0.00301392
0.00294375
0.0028948
0.00286415
0.00285189
0.00286097
0.00289795
0.00297352
0.00309652
0.00325866
0.00343631
0.00359225
0.00365722
0.0035115
0.00302578
0.00133072
0.0182079
0.0312397
0.0680184
0.0546802
0.0385746
0.0260988
0.0177257
0.0122916
0.00877205
0.0065041
0.00509543
0.00430363
0.00396772
0.0039548
0.00414834
0.00444241
0.00474132
0.00494664
0.00498595
0.00487063
0.00467391
0.00446027
0.004268
0.00411237
0.00399315
0.00390482
0.00384311
0.00380658
0.00379748
0.00382234
0.00389289
0.00402731
0.00424243
0.00451442
0.00479706
0.00502657
0.00520629
0.00537119
0.00559093
0.00413142
0.0165671
0.0324899
0.165992
0.0963862
0.0459005
0.0263732
0.0173684
0.0122786
0.0090757
0.00698508
0.00564131
0.00483868
0.00444557
0.00436626
0.00451064
0.00480191
0.00515596
0.00547524
0.00568526
0.00576195
0.00573104
0.00563583
0.00551523
0.00539548
0.00528975
0.00520257
0.00513466
0.00508625
0.00505978
0.00506248
0.0051092
0.00522728
0.0054225
0.00572104
0.00616752
0.00679342
0.007366
0.00753612
0.0093796
0.00476265
0.248985
0.155471
0.047745
0.024017
0.0155827
0.0116233
0.00918551
0.00759427
0.00659058
0.00603085
0.00580925
0.00583573
0.00603178
0.00632587
0.00666586
0.00702306
0.00733049
0.0075489
0.00767076
0.00771165
0.00769689
0.00765102
0.00759237
0.00753204
0.00747558
0.00742536
0.00738319
0.00735299
0.00734258
0.00736327
0.00741512
0.00749893
0.00762743
0.00775605
0.0077431
0.0074696
0.00728897
0.00504201
0.102997
0.0707168
0.0304632
0.0178551
0.0127163
0.0103928
0.00910246
0.00840914
0.00817019
0.00828472
0.00865219
0.00917455
0.00976528
0.0103576
0.0109019
0.011345
0.0116704
0.0118751
0.0119758
0.0120011
0.0119815
0.011941
0.0118945
0.0118478
0.0117997
0.0117442
0.0116726
0.0115765
0.0114528
0.0112985
0.0111148
0.0108845
0.0106176
0.0102986
0.00984328
0.0090586
0.0090002
0.00584768
0.00599073
0.0133114
0.04775
0.0272265
0.0132112
0.00681572
0.0061044
0.00552566
0.00505824
0.00469873
0.00444801
0.00429315
0.00421652
0.00420052
0.00422895
0.00428663
0.00435993
0.00443882
0.00451026
0.00456612
0.00460234
0.00461905
0.00461953
0.0046085
0.00459058
0.0045693
0.00454671
0.00452342
0.00449866
0.00447054
0.004436
0.00439101
0.00433113
0.00425933
0.00416727
0.00404245
0.00385792
0.0035656
0.00332543
0.00326586
)
;

boundaryField
{
    floor
    {
        type            kqRWallFunction;
        value           nonuniform List<scalar> 
36
(
0.000897717
0.000103883
0.000127297
0.000135351
0.000106722
7.78382e-05
6.32778e-05
6.85316e-05
8.14761e-05
9.81714e-05
0.000115551
0.000128862
0.000129236
0.000125518
0.000124162
0.000127686
0.000120845
0.000107194
9.07734e-05
9.07734e-05
0.000192518
0.000446629
0.00110054
0.00189727
0.0014226
0.00104245
0.000897717
0.00109695
0.000988178
0.000443628
0.000103883
0.000443628
0.00024187
0.00114835
0.000553007
0.00121499
)
;
    }
    ceiling
    {
        type            kqRWallFunction;
        value           nonuniform List<scalar> 
43
(
0.00599073
0.0133114
0.04775
0.0272265
0.0132112
0.00681572
0.0061044
0.00552566
0.00505824
0.00469873
0.00444801
0.00429315
0.00421652
0.00420052
0.00422895
0.00428663
0.00435993
0.00443882
0.00451026
0.00456612
0.00460234
0.00461905
0.00461953
0.0046085
0.00459058
0.0045693
0.00454671
0.00452342
0.00449866
0.00447054
0.004436
0.00439101
0.00433113
0.00425933
0.00416727
0.00404245
0.00385792
0.0035656
0.00332543
0.00326586
0.0165671
0.0324899
0.102997
)
;
    }
    sWall
    {
        type            kqRWallFunction;
        value           uniform 0.00599073;
    }
    nWall
    {
        type            kqRWallFunction;
        value           nonuniform List<scalar> 6(0.00104245 0.00119547 0.00133072 0.00504201 0.00584768 0.00326586);
    }
    sideWalls
    {
        type            empty;
    }
    glass1
    {
        type            kqRWallFunction;
        value           nonuniform List<scalar> 9(0.00123411 0.00402233 0.00772015 0.0118093 0.0158343 0.0203565 0.0199231 0.0182079 0.0165671);
    }
    glass2
    {
        type            kqRWallFunction;
        value           nonuniform List<scalar> 2(0.00413142 0.00476265);
    }
    sun
    {
        type            kqRWallFunction;
        value           nonuniform List<scalar> 
14
(
0.00123411
0.00135553
0.000851016
0.000749979
0.000719668
0.000706775
0.00070559
0.00071475
0.000732182
0.000755463
0.000782097
0.000810043
0.000838821
0.000869773
)
;
    }
    Table_master
    {
        type            kqRWallFunction;
        value           nonuniform List<scalar> 9(0.000131475 0.00014998 0.000177451 0.000208208 0.000243498 0.000286602 0.000344989 0.000433802 0.000592726);
    }
    Table_slave
    {
        type            kqRWallFunction;
        value           nonuniform List<scalar> 9(0.00070012 0.000708085 0.000717974 0.000731732 0.000753908 0.000790207 0.000849174 0.000946565 0.00112007);
    }
    inlet
    {
        type            turbulentIntensityKineticEnergyInlet;
        intensity       0.05;
        value           uniform 3.75e-05;
    }
    outlet
    {
        type            zeroGradient;
    }
}


// ************************************************************************* //
