/*--------------------------------*- C++ -*----------------------------------*\
  =========                 |
  \\      /  F ield         | OpenFOAM: The Open Source CFD Toolbox
   \\    /   O peration     | Website:  https://openfoam.org
    \\  /    A nd           | Version:  6
     \\/     M anipulation  |
\*---------------------------------------------------------------------------*/
FoamFile
{
    version     2.0;
    format      ascii;
    class       volScalarField;
    location    "2000";
    object      nut;
}
// * * * * * * * * * * * * * * * * * * * * * * * * * * * * * * * * * * * * * //

dimensions      [0 2 -1 0 0 0 0];

internalField   nonuniform List<scalar> 
458
(
0.000789053
0.000826989
0.000655251
0.000615059
0.000602461
0.000597016
0.000596502
0.000600354
0.000607629
0.000617213
0.000627999
0.000639121
0.000650376
0.000662268
0.000672824
0.000228883
0.000253367
0.000261259
0.000231998
0.000198125
0.000178638
0.000185902
0.000202699
0.000222499
0.00024139
0.000254915
0.000255284
0.000251585
0.000250222
0.000253747
0.000246855
0.000232494
0.000213947
0.00142444
0.00377589
0.00275876
0.00296964
0.00311146
0.00312087
0.003074
0.00300272
0.00292596
0.00284864
0.00275527
0.00261592
0.00238412
0.00198461
0.001353
0.000743747
0.000705913
0.00047298
0.000349253
0.00065746
0.000736142
0.000647013
0.000427919
0.000328392
0.000403168
0.000529839
0.000660185
0.00076996
0.000841375
0.000844492
0.000832809
0.000861337
0.00103711
0.000891758
0.000617096
0.000311578
0.00197333
0.00703265
0.00522496
0.0046123
0.00445996
0.00442883
0.00448556
0.00455895
0.00456245
0.00450414
0.00440584
0.00426566
0.00405239
0.00370403
0.0031582
0.00244066
0.00159299
0.000760976
0.000528074
0.00132805
0.00108954
0.000765619
0.000479584
0.000257491
0.000275015
0.000299141
0.000324029
0.000350414
0.000380165
0.000417094
0.000467709
0.000546707
0.00168944
0.00174695
0.00148122
0.000474584
0.0024405
0.0102902
0.00852666
0.00702074
0.00610113
0.00548269
0.00516947
0.005176
0.00533542
0.00547303
0.00551558
0.00548355
0.00537903
0.00515521
0.00472534
0.0040034
0.00293543
0.00165376
0.000782744
0.00186283
0.00185749
0.00144028
0.00107441
0.000802552
0.000594191
0.000597559
0.000601716
0.000607452
0.000616587
0.000631254
0.000654382
0.000690887
0.00075154
0.0022959
0.00241522
0.00218632
0.000744993
0.00282589
0.0126199
0.0110802
0.00911226
0.00779586
0.00674098
0.00593358
0.00548166
0.00544738
0.00570294
0.00603436
0.00623884
0.00636234
0.0064114
0.0063534
0.00616377
0.00583504
0.00537394
0.00485119
0.00458445
0.00418118
0.00387009
0.00367786
0.00353303
0.00340376
0.00332828
0.00325206
0.00316783
0.00307712
0.002988
0.00291514
0.00287619
0.00288514
0.00296103
0.00286912
0.00272913
0.00252053
0.00097811
0.00084698
0.000725035
0.00320409
0.0128959
0.0113917
0.00995515
0.00879766
0.00764126
0.00662037
0.00581948
0.00535577
0.00534494
0.00579683
0.00629777
0.00669739
0.0070033
0.00718585
0.00724363
0.00717543
0.00696489
0.00661385
0.00620606
0.00581748
0.00550863
0.00528236
0.00511466
0.00498114
0.00486513
0.0047507
0.00462394
0.00447061
0.00427971
0.00405274
0.00380975
0.00357642
0.00335899
0.00314298
0.0029205
0.00264902
0.002214
0.00175
0.000776424
0.00316941
0.0101963
0.0100428
0.00987873
0.00907535
0.00802028
0.00699808
0.00612267
0.00547165
0.00512469
0.00516505
0.0055872
0.0062654
0.00690258
0.00732461
0.00756719
0.00765411
0.00758435
0.00736351
0.00704751
0.00671223
0.00641254
0.00616785
0.00597563
0.0058248
0.0057045
0.00560654
0.00552045
0.00542742
0.00529581
0.00508684
0.00478029
0.00440088
0.00399515
0.00359198
0.00319302
0.00277437
0.00229619
0.00174984
0.00081918
0.00302995
0.00537747
0.0102455
0.0104375
0.00944071
0.00821519
0.00713835
0.00627084
0.00560847
0.0051685
0.00499487
0.00512905
0.00556668
0.00620673
0.00681171
0.00723322
0.0074693
0.00753826
0.00745757
0.0072719
0.00703607
0.00679626
0.00657934
0.00639595
0.00624726
0.00613199
0.00605099
0.00600658
0.00599831
0.00601358
0.00601361
0.00592984
0.00570395
0.00532182
0.00480895
0.00422194
0.00364234
0.00309488
0.00263256
0.00144344
0.0028903
0.00404833
0.0187023
0.0151968
0.0108365
0.00864166
0.00737337
0.00651167
0.00588593
0.00545748
0.0052327
0.00522112
0.00540733
0.00573576
0.00612832
0.00649396
0.00676513
0.00692968
0.00699017
0.00696063
0.0068689
0.0067447
0.0066114
0.00648412
0.0063712
0.00627746
0.00620761
0.0061682
0.00616843
0.00621824
0.00631978
0.00644455
0.00655492
0.00662463
0.0066467
0.00664657
0.00646826
0.00593271
0.00535448
0.00154977
0.0243556
0.0186381
0.0100616
0.00836096
0.0074585
0.0067526
0.00625805
0.00592791
0.00574224
0.00567632
0.00569612
0.00577283
0.00589052
0.00604042
0.00620839
0.00635785
0.00648182
0.00656733
0.00660942
0.00661281
0.00658764
0.00654514
0.00649504
0.00644487
0.0064007
0.00636829
0.00635445
0.00636765
0.00641568
0.00649313
0.00659603
0.00670284
0.0067527
0.00668015
0.00642324
0.0059122
0.00491704
0.00159459
0.0072068
0.0107166
0.00755805
0.00704029
0.00664204
0.00622589
0.00593975
0.00577099
0.00570769
0.00573125
0.00581844
0.0059465
0.0060957
0.00625031
0.00639802
0.00652723
0.00662993
0.00670117
0.00674186
0.00675754
0.00675568
0.00674321
0.00672518
0.00670454
0.00668249
0.00665914
0.00663431
0.00660854
0.006584
0.0065625
0.00653602
0.00647375
0.00635272
0.00614059
0.0057842
0.00521247
0.00451698
0.0017173
0.00173806
0.00259071
0.00490691
0.00370511
0.00258063
0.00185398
0.00175458
0.0016693
0.00159713
0.00153932
0.00149769
0.00147139
0.00145821
0.00145544
0.00146037
0.0014703
0.00148282
0.00149618
0.00150817
0.00151749
0.00152349
0.00152626
0.00152634
0.00152451
0.00152155
0.00151801
0.00151426
0.00151037
0.00150624
0.00150152
0.00149571
0.00148811
0.00147793
0.00146563
0.0014497
0.00142783
0.00139486
0.00134098
0.00129503
0.00128335
)
;

boundaryField
{
    floor
    {
        type            nutkWallFunction;
        Cmu             0.09;
        kappa           0.41;
        E               9.8;
        value           nonuniform List<scalar> 
36
(
8.13753e-05
2.34792e-05
2.69193e-05
2.80181e-05
2.39174e-05
1.90834e-05
1.62506e-05
1.7312e-05
1.97432e-05
2.25737e-05
2.52425e-05
2.71356e-05
2.71872e-05
2.6671e-05
2.64805e-05
2.69727e-05
2.6009e-05
2.39895e-05
2.13562e-05
2.13561e-05
3.49246e-05
5.64257e-05
9.022e-05
0.000118172
0.000102559
8.7787e-05
8.13753e-05
9.00718e-05
8.54455e-05
5.6219e-05
2.34791e-05
5.6219e-05
4.00039e-05
9.2169e-05
6.32713e-05
9.48112e-05
)
;
    }
    ceiling
    {
        type            nutkWallFunction;
        Cmu             0.09;
        kappa           0.41;
        E               9.8;
        value           nonuniform List<scalar> 
43
(
0.000204875
0.000297238
0.000534447
0.000413225
0.000296134
0.000217608
0.00020664
0.000197181
0.000189132
0.000182657
0.000177976
0.000175012
0.000173523
0.000173209
0.000173764
0.000174884
0.000176294
0.000177798
0.000179147
0.000180193
0.000180868
0.000181178
0.000181186
0.00018098
0.000180646
0.000180249
0.000179826
0.000179388
0.000178922
0.000178391
0.000177736
0.000176879
0.000175731
0.000174343
0.000172544
0.00017007
0.000166335
0.000160208
0.000154962
0.000153627
0.000328856
0.000448184
0.000758884
)
;
    }
    sWall
    {
        type            nutkWallFunction;
        Cmu             0.09;
        kappa           0.41;
        E               9.8;
        value           uniform 0.000204919;
    }
    nWall
    {
        type            nutkWallFunction;
        Cmu             0.09;
        kappa           0.41;
        E               9.8;
        value           nonuniform List<scalar> 6(8.77859e-05 9.40456e-05 9.92143e-05 0.000188834 0.000202492 0.000153637);
    }
    sideWalls
    {
        type            empty;
    }
    glass1
    {
        type            nutkWallFunction;
        Cmu             0.09;
        kappa           0.41;
        E               9.8;
        value           nonuniform List<scalar> 9(9.55523e-05 0.000169831 0.000230903 0.000281422 0.000322325 0.0003619 0.000358345 0.000343803 0.000329172);
    }
    glass2
    {
        type            nutkWallFunction;
        Cmu             0.09;
        kappa           0.41;
        E               9.8;
        value           nonuniform List<scalar> 2(0.000171865 0.00018384);
    }
    sun
    {
        type            nutkWallFunction;
        Cmu             0.09;
        kappa           0.41;
        E               9.8;
        value           nonuniform List<scalar> 
14
(
9.55542e-05
0.000100129
7.91839e-05
7.42002e-05
7.26324e-05
7.19543e-05
7.18917e-05
7.23745e-05
7.32841e-05
7.448e-05
7.58231e-05
7.72051e-05
7.86006e-05
8.0072e-05
)
;
    }
    Table_master
    {
        type            nutkWallFunction;
        Cmu             0.09;
        kappa           0.41;
        E               9.8;
        value           nonuniform List<scalar> 9(2.74915e-05 2.99204e-05 3.32316e-05 3.6611e-05 4.0157e-05 4.41146e-05 4.89729e-05 5.55451e-05 6.56312e-05);
    }
    Table_slave
    {
        type            nutkWallFunction;
        Cmu             0.09;
        kappa           0.41;
        E               9.8;
        value           nonuniform List<scalar> 9(7.16003e-05 7.20222e-05 7.25424e-05 7.32595e-05 7.43996e-05 7.62258e-05 7.90952e-05 8.35995e-05 9.10215e-05);
    }
    inlet
    {
        type            calculated;
        value           uniform 3.3541e-05;
    }
    outlet
    {
        type            calculated;
        value           nonuniform List<scalar> 2(0.00173806 0.00259071);
    }
}


// ************************************************************************* //
