// -*- C++ -*-
// File generated by PyFoam - sorry for the ugliness

FoamFile
{
 version 2.0;
 format ascii;
 class volVectorField;
 location "600";
 object U;
}

dimensions [ 0 1 -1 0 0 0 0 ];

internalField nonuniform List<vector> 458
(
  (0.0382007 0.0909417 0)
  (-0.176161 0.0271821 0)
  (-0.203413 0.0201372 0)
  (-0.238931 0.0146504 0)
  (-0.266749 0.00850323 0)
  (-0.285867 0.00180841 0)
  (-0.294548 -0.00566014 0)
  (-0.290144 -0.0142106 0)
  (-0.270755 -0.0242435 0)
  (-0.235465 -0.0348636 0)
  (-0.186257 -0.0440883 0)
  (-0.128666 -0.0494376 0)
  (-0.0706439 -0.0481241 0)
  (-0.0193134 -0.0357344 0)
  (-0.0104172 0.0107581 0)
  (-0.00732372 0.0103591 0)
  (-0.0375326 -0.020955 0)
  (-0.0115412 -0.0332205 0)
  (0.0194292 -0.0263951 0)
  (0.0396199 -0.0181407 0)
  (0.0545738 -0.00977001 0)
  (0.0632102 -0.00541654 0)
  (0.0668707 -0.00384447 0)
  (0.0681774 -0.0032524 0)
  (0.0687501 -0.00288746 0)
  (0.068977 -0.00259864 0)
  (0.0688094 -0.00228623 0)
  (0.0680718 -0.00178146 0)
  (0.0662586 -0.000713658 0)
  (0.0622505 0.00139758 0)
  (0.0548564 0.00358918 0)
  (0.049673 0.00530525 0)
  (-0.0181299 0.0241652 0)
  (0.223247 0.186711 0)
  (-0.16688 0.0722249 0)
  (-0.166978 0.0596084 0)
  (-0.20447 0.0489773 0)
  (-0.232581 0.0368471 0)
  (-0.252455 0.0229293 0)
  (-0.262646 0.00644486 0)
  (-0.260616 -0.013416 0)
  (-0.244606 -0.0364 0)
  (-0.214103 -0.0598766 0)
  (-0.171295 -0.0789186 0)
  (-0.121553 -0.0883983 0)
  (-0.0716724 -0.0843302 0)
  (-0.0271668 -0.0633143 0)
  (0.0126222 -0.0234274 0)
  (0.0440782 0.00310457 0)
  (0.0599055 0.0358107 0)
  (-0.0122394 0.0775813 0)
  (0.0799423 0.0451587 0)
  (0.0174264 -0.0234573 0)
  (0.031602 -0.0406757 0)
  (0.0468184 -0.0369927 0)
  (0.0594343 -0.0270938 0)
  (0.0659066 -0.0116968 0)
  (0.0674619 -0.00250808 0)
  (0.0674208 0.000938688 0)
  (0.067537 0.00220464 0)
  (0.0678462 0.0029038 0)
  (0.0680672 0.00340239 0)
  (0.0681106 0.00384998 0)
  (0.0679776 0.0046303 0)
  (0.0671689 0.00662271 0)
  (0.0633318 0.0122801 0)
  (0.0535847 0.0169071 0)
  (0.053079 0.0197332 0)
  (-0.0681511 0.0523438 0)
  (0.393089 0.280384 0)
  (-0.185526 0.116298 0)
  (-0.126688 0.0973101 0)
  (-0.16391 0.077852 0)
  (-0.189707 0.0576316 0)
  (-0.209256 0.0349492 0)
  (-0.220965 0.00834009 0)
  (-0.221587 -0.0231431 0)
  (-0.208484 -0.0593324 0)
  (-0.181732 -0.0957826 0)
  (-0.144228 -0.123843 0)
  (-0.101583 -0.136021 0)
  (-0.0596859 -0.128557 0)
  (-0.0230094 -0.100789 0)
  (0.0102613 -0.0563276 0)
  (0.0320196 -0.023881 0)
  (0.0416927 0.0109805 0)
  (-0.0312982 0.0676131 0)
  (0.135277 -0.0170227 0)
  (0.0785232 -0.039161 0)
  (0.0697163 -0.0462213 0)
  (0.0729269 -0.0435303 0)
  (0.0774154 -0.0377919 0)
  (0.0788911 -0.0278489 0)
  (0.0699167 -0.0180337 0)
  (0.0631401 -0.0127798 0)
  (0.060643 -0.00984262 0)
  (0.0600309 -0.00794 0)
  (0.0598913 -0.00663389 0)
  (0.0600907 -0.00559089 0)
  (0.0610829 -0.00436725 0)
  (0.0639378 -0.000797008 0)
  (0.0623512 0.0169124 0)
  (0.0488463 0.0284512 0)
  (0.0608026 0.0353708 0)
  (-0.114277 0.0798129 0)
  (0.547274 0.356268 0)
  (-0.222603 0.155639 0)
  (-0.0818437 0.129845 0)
  (-0.117926 0.103471 0)
  (-0.137748 0.0785185 0)
  (-0.154594 0.0501003 0)
  (-0.166754 0.0152906 0)
  (-0.169634 -0.0274664 0)
  (-0.158381 -0.077154 0)
  (-0.134872 -0.126579 0)
  (-0.103476 -0.162706 0)
  (-0.0695066 -0.176788 0)
  (-0.0373562 -0.16636 0)
  (-0.00948106 -0.132326 0)
  (0.0155582 -0.0822029 0)
  (0.0351114 -0.0366877 0)
  (0.0560488 0.00806567 0)
  (0.0573853 0.0552691 0)
  (0.105541 0.0655284 0)
  (0.105111 -0.00640705 0)
  (0.0889653 -0.0340087 0)
  (0.0814462 -0.0407081 0)
  (0.0767914 -0.0397192 0)
  (0.0708796 -0.0338144 0)
  (0.0712874 -0.0206412 0)
  (0.0821578 -0.0138548 0)
  (0.0912715 -0.0102067 0)
  (0.0968895 -0.00789735 0)
  (0.100259 -0.00586801 0)
  (0.101461 -0.00360044 0)
  (0.0990588 -0.000670586 0)
  (0.0917006 0.00331026 0)
  (0.077229 0.00900501 0)
  (0.0604345 0.0283633 0)
  (0.0435919 0.0448154 0)
  (0.0692016 0.0571653 0)
  (-0.157773 0.102106 0)
  (0.682354 0.415136 0)
  (-0.268547 0.187588 0)
  (-0.0347199 0.148999 0)
  (-0.0672174 0.119782 0)
  (-0.0779484 0.0935991 0)
  (-0.0891293 0.0627155 0)
  (-0.0996646 0.0226792 0)
  (-0.103052 -0.0291717 0)
  (-0.09124 -0.0912585 0)
  (-0.0711429 -0.151678 0)
  (-0.0484103 -0.192533 0)
  (-0.0262442 -0.206171 0)
  (-0.00685538 -0.192449 0)
  (0.00967544 -0.153679 0)
  (0.0244443 -0.102712 0)
  (0.0385919 -0.0527183 0)
  (0.0554504 -0.00978303 0)
  (0.0742673 0.0144117 0)
  (0.0907374 -0.00684217 0)
  (0.0904571 -0.0275675 0)
  (0.0828006 -0.0348775 0)
  (0.0735095 -0.0357103 0)
  (0.0653703 -0.0333743 0)
  (0.0589834 -0.0273499 0)
  (0.0578956 -0.0159418 0)
  (0.0621208 -0.00951286 0)
  (0.067079 -0.00690508 0)
  (0.0714023 -0.00522963 0)
  (0.0751165 -0.00276587 0)
  (0.077877 0.00136565 0)
  (0.0784146 0.00720539 0)
  (0.0758178 0.0148455 0)
  (0.0698114 0.0249322 0)
  (0.0616939 0.0409242 0)
  (0.048495 0.0586578 0)
  (0.0800047 0.0787934 0)
  (-0.0181842 0.109193 0)
  (0.0514645 0.168277 0)
  (-0.0975127 0.0859031 0)
  (-0.292742 0.00255496 0)
  (0.781954 0.463881 0)
  (-0.314255 0.208069 0)
  (0.00449996 0.143977 0)
  (-0.0122837 0.125038 0)
  (-0.0127608 0.104058 0)
  (-0.0175586 0.0734304 0)
  (-0.0251479 0.0315864 0)
  (-0.0238314 -0.0277148 0)
  (-0.00788983 -0.103014 0)
  (0.00720905 -0.170852 0)
  (0.0180761 -0.211052 0)
  (0.0253785 -0.220938 0)
  (0.0292511 -0.203538 0)
  (0.0310995 -0.163973 0)
  (0.0331696 -0.112465 0)
  (0.0366774 -0.0623513 0)
  (0.0436347 -0.0229438 0)
  (0.0552056 -0.0028808 0)
  (0.0626891 -0.00670311 0)
  (0.0618795 -0.0159864 0)
  (0.0553804 -0.0229833 0)
  (0.0471243 -0.0259917 0)
  (0.0397393 -0.0257336 0)
  (0.0343705 -0.0225085 0)
  (0.0326631 -0.0169184 0)
  (0.0347174 -0.0135708 0)
  (0.0385371 -0.0122173 0)
  (0.0430117 -0.0109321 0)
  (0.0477861 -0.00821908 0)
  (0.0524865 -0.00296908 0)
  (0.0568519 0.00523718 0)
  (0.0590934 0.0157151 0)
  (0.0597811 0.0283407 0)
  (0.0605106 0.0439661 0)
  (0.0582301 0.0614419 0)
  (0.083964 0.0838121 0)
  (0.0648871 0.0958217 0)
  (0.103029 0.10469 0)
  (0.124909 0.0585738 0)
  (-0.149141 -0.0397423 0)
  (0.838401 0.508004 0)
  (-0.337227 0.188616 0)
  (0.0391652 0.0808269 0)
  (0.0581423 0.106269 0)
  (0.062763 0.110088 0)
  (0.060363 0.0833556 0)
  (0.0574835 0.035122 0)
  (0.0707532 -0.0384898 0)
  (0.0870574 -0.11722 0)
  (0.093508 -0.178588 0)
  (0.0906395 -0.213148 0)
  (0.0810531 -0.218595 0)
  (0.0669572 -0.198352 0)
  (0.0511725 -0.158058 0)
  (0.0369715 -0.107507 0)
  (0.0267181 -0.0596356 0)
  (0.0222507 -0.0245546 0)
  (0.0236796 -0.00729266 0)
  (0.0258004 -0.00630626 0)
  (0.0244085 -0.011556 0)
  (0.0196717 -0.0167378 0)
  (0.0135525 -0.0195551 0)
  (0.00778482 -0.020172 0)
  (0.00352674 -0.0191151 0)
  (0.00193656 -0.0171789 0)
  (0.00309912 -0.0162898 0)
  (0.00590755 -0.0162358 0)
  (0.00965017 -0.0157881 0)
  (0.0141965 -0.0137698 0)
  (0.0196287 -0.00897771 0)
  (0.0269273 -0.000207765 0)
  (0.0347273 0.0115325 0)
  (0.0415756 0.0244761 0)
  (0.049693 0.038621 0)
  (0.0573764 0.0531287 0)
  (0.0794165 0.0709151 0)
  (0.0921655 0.0751475 0)
  (0.127261 0.0656757 0)
  (0.175296 0.0498742 0)
  (-0.0120736 0.0977871 0)
  (0.947072 0.507897 0)
  (-0.0637022 0.167008 0)
  (0.132705 -0.00700924 0)
  (0.201294 0.00643307 0)
  (0.192383 0.0349627 0)
  (0.174487 0.0257651 0)
  (0.167972 -0.0209375 0)
  (0.185798 -0.0776994 0)
  (0.194546 -0.132224 0)
  (0.185759 -0.175774 0)
  (0.163868 -0.198703 0)
  (0.13317 -0.196866 0)
  (0.0973797 -0.173498 0)
  (0.0608841 -0.133713 0)
  (0.0288273 -0.0862431 0)
  (0.00515508 -0.0437418 0)
  (-0.00790731 -0.0164021 0)
  (-0.0115456 -0.00593013 0)
  (-0.0122948 -0.00511773 0)
  (-0.0140219 -0.00837061 0)
  (-0.0175612 -0.0118829 0)
  (-0.0220705 -0.014246 0)
  (-0.0264836 -0.0155489 0)
  (-0.0299543 -0.0162168 0)
  (-0.0318971 -0.0167265 0)
  (-0.0324229 -0.0175794 0)
  (-0.0320972 -0.0185522 0)
  (-0.0312245 -0.0190746 0)
  (-0.0297192 -0.0185535 0)
  (-0.0271745 -0.0163633 0)
  (-0.022526 -0.0117093 0)
  (-0.0119662 -0.00374748 0)
  (-0.000301512 0.00664497 0)
  (0.0117848 0.0164905 0)
  (0.0234729 0.0240752 0)
  (0.0416821 0.0322076 0)
  (0.0567568 0.0266427 0)
  (0.0812146 0.00778157 0)
  (0.152013 0.0538463 0)
  (-0.480252 0.229854 0)
  (1.09514 0.444303 0)
  (0.518824 0.297076 0)
  (0.561402 0.332298 0)
  (0.575501 0.291603 0)
  (0.520379 0.22826 0)
  (0.455694 0.155511 0)
  (0.413177 0.0784872 0)
  (0.373382 -0.00294642 0)
  (0.325813 -0.0762623 0)
  (0.273795 -0.128145 0)
  (0.21888 -0.152825 0)
  (0.161553 -0.150277 0)
  (0.102605 -0.127799 0)
  (0.0458151 -0.091702 0)
  (-0.00074348 -0.0505148 0)
  (-0.0295796 -0.0208777 0)
  (-0.0419736 -0.00813724 0)
  (-0.0465557 -0.00400716 0)
  (-0.0484054 -0.00437306 0)
  (-0.0503202 -0.00666116 0)
  (-0.0531687 -0.00922559 0)
  (-0.0567092 -0.0114178 0)
  (-0.0604623 -0.0131861 0)
  (-0.0640924 -0.0146351 0)
  (-0.0675133 -0.0158828 0)
  (-0.0709574 -0.0169888 0)
  (-0.0747939 -0.017727 0)
  (-0.0793211 -0.0176646 0)
  (-0.0848124 -0.0162546 0)
  (-0.0916802 -0.0128268 0)
  (-0.100612 -0.00651216 0)
  (-0.112304 0.00345361 0)
  (-0.12425 0.0168393 0)
  (-0.141521 0.0336696 0)
  (-0.170022 0.0537737 0)
  (-0.212453 0.075239 0)
  (-0.270845 0.0926097 0)
  (-0.333901 0.101715 0)
  (-0.4124 0.101376 0)
  (-0.698923 0.0901937 0)
  (0.598873 -0.290664 0)
  (0.534529 -0.00620803 0)
  (0.470914 0.112544 0)
  (0.41147 0.120465 0)
  (0.367631 0.0737983 0)
  (0.331222 0.0121638 0)
  (0.290293 -0.0416456 0)
  (0.236616 -0.0771971 0)
  (0.177571 -0.0929629 0)
  (0.11554 -0.0864638 0)
  (0.0510571 -0.0660625 0)
  (-0.0132559 -0.0368857 0)
  (-0.0504057 -0.0174026 0)
  (-0.0680445 -0.00991988 0)
  (-0.0756905 -0.0085212 0)
  (-0.0787758 -0.00939041 0)
  (-0.0803278 -0.0108789 0)
  (-0.0817227 -0.0127044 0)
  (-0.0836219 -0.0145747 0)
  (-0.0861193 -0.0163253 0)
  (-0.0891871 -0.0179005 0)
  (-0.0928839 -0.0192726 0)
  (-0.0973664 -0.0203963 0)
  (-0.102835 -0.0211465 0)
  (-0.109407 -0.0212036 0)
  (-0.116989 -0.0200207 0)
  (-0.125176 -0.0168545 0)
  (-0.133173 -0.0108752 0)
  (-0.139973 -0.00126661 0)
  (-0.144615 0.0115794 0)
  (-0.148078 0.0283083 0)
  (-0.151131 0.0494116 0)
  (-0.155505 0.0738372 0)
  (-0.162248 0.0969902 0)
  (-0.167369 0.107138 0)
  (-0.152878 0.0804622 0)
  (-0.111833 -0.0300765 0)
  (-0.293174 -0.240722 0)
  (0.0920982 0.448751 0)
  (-0.0794202 0.298458 0)
  (-0.00353913 0.245974 0)
  (0.0441236 0.179669 0)
  (0.0737154 0.111843 0)
  (0.0824332 0.0534521 0)
  (0.0808526 0.0133551 0)
  (0.0627621 -0.0165504 0)
  (0.0281118 -0.0246663 0)
  (-0.0219391 0.00527609 0)
  (-0.0632553 0.0311035 0)
  (-0.0891899 0.0437874 0)
  (-0.100287 0.0491864 0)
  (-0.103664 0.0515988 0)
  (-0.104149 0.0532357 0)
  (-0.10396 0.0542689 0)
  (-0.103862 0.0537634 0)
  (-0.104193 0.0534557 0)
  (-0.105076 0.0534418 0)
  (-0.106498 0.0535901 0)
  (-0.108395 0.0538625 0)
  (-0.110704 0.0542133 0)
  (-0.113379 0.0544978 0)
  (-0.116387 0.0544934 0)
  (-0.119672 0.0539642 0)
  (-0.123131 0.0526782 0)
  (-0.126591 0.050373 0)
  (-0.129639 0.0465909 0)
  (-0.131171 0.0428889 0)
  (-0.129494 0.0423815 0)
  (-0.122741 0.0469559 0)
  (-0.109539 0.0580123 0)
  (-0.0903088 0.0757373 0)
  (-0.0667047 0.0959219 0)
  (-0.0411192 0.109972 0)
  (-0.00113029 0.0985865 0)
  (0.14587 0.0172254 0)
  (-0.205092 -0.159353 0)
  (-0.753581 -0.744864 0)
  (-0.914547 -0.188059 0)
  (-0.717158 0.246631 0)
  (-0.60186 0.127654 0)
  (-0.398768 0.0865248 0)
  (-0.260087 0.0363786 0)
  (-0.158428 -0.0282451 0)
  (-0.101138 -0.0973496 0)
  (-0.0854979 -0.139762 0)
  (-0.0945152 -0.138169 0)
  (-0.118887 -0.132596 0)
  (-0.13102 -0.127097 0)
  (-0.130196 -0.124389 0)
  (-0.124746 -0.126747 0)
  (-0.118631 -0.135493 0)
  (-0.113769 -0.146269 0)
  (-0.110732 -0.155686 0)
  (-0.109196 -0.162816 0)
  (-0.10909 -0.167478 0)
  (-0.110377 -0.171319 0)
  (-0.112745 -0.174315 0)
  (-0.11595 -0.176399 0)
  (-0.119747 -0.177487 0)
  (-0.123862 -0.177462 0)
  (-0.128009 -0.176136 0)
  (-0.131901 -0.173235 0)
  (-0.135222 -0.168393 0)
  (-0.137583 -0.161146 0)
  (-0.138542 -0.150888 0)
  (-0.137615 -0.136824 0)
  (-0.133992 -0.12011 0)
  (-0.125517 -0.101559 0)
  (-0.108803 -0.0813042 0)
  (-0.081011 -0.0586885 0)
  (-0.0425783 -0.0327677 0)
  (0.0197319 -0.000296904 0)
  (0.0785862 0.00407579 0)
  (0.133289 -0.021823 0)
  (0.188805 -0.0759823 0)
  (-0.149663 -0.153912 0)
)
;

boundaryField
{
  floor
  {
    type noSlip;
  }
  ceiling
  {
    type noSlip;
  }
  sWall
  {
    type noSlip;
  }
  nWall
  {
    type noSlip;
  }
  sideWalls
  {
    type empty;
  }
  glass1
  {
    type noSlip;
  }
  glass2
  {
    type noSlip;
  }
  sun
  {
    type noSlip;
  }
  Table_master
  {
    type noSlip;
  }
  Table_slave
  {
    type noSlip;
  }
  inlet
  {
    type fixedValue;
    value uniform (0.306147 -0.739104 0);
  }
  outlet
  {
    type zeroGradient;
  }
} 	// ************************************************************************* //

