/*--------------------------------*- C++ -*----------------------------------*\
  =========                 |
  \\      /  F ield         | OpenFOAM: The Open Source CFD Toolbox
   \\    /   O peration     | Website:  https://openfoam.org
    \\  /    A nd           | Version:  6
     \\/     M anipulation  |
\*---------------------------------------------------------------------------*/
FoamFile
{
    version     2.0;
    format      ascii;
    class       volVectorField;
    location    "500";
    object      U;
}
// * * * * * * * * * * * * * * * * * * * * * * * * * * * * * * * * * * * * * //

dimensions      [0 1 -1 0 0 0 0];

internalField   nonuniform List<vector> 
458
(
(0.110155 0.0625735 0)
(-0.131429 -0.0038687 0)
(-0.0970648 -0.0017474 0)
(-0.0986056 0.000688603 0)
(-0.102069 0.00134369 0)
(-0.106086 0.00100478 0)
(-0.109549 7.77012e-05 0)
(-0.111793 -0.00131025 0)
(-0.112305 -0.00315566 0)
(-0.110505 -0.00555525 0)
(-0.105269 -0.00870612 0)
(-0.0947186 -0.0129685 0)
(-0.0779175 -0.0194531 0)
(-0.0617647 -0.0302353 0)
(-0.0702646 -0.0447703 0)
(0.0182967 0.014859 0)
(-0.0434595 -0.00916743 0)
(-0.0321741 -0.00955461 0)
(-0.029892 -0.00623345 0)
(-0.0266765 -0.00620196 0)
(-0.0190836 -0.0103531 0)
(-0.00922435 -0.0134712 0)
(-5.27084e-05 -0.0113346 0)
(0.0101023 -0.00816109 0)
(0.0158143 -0.00645151 0)
(0.020205 -0.00518895 0)
(0.0238518 -0.0040714 0)
(0.0267689 -0.00251285 0)
(0.0285333 -0.000987257 0)
(0.0298753 -0.00116481 0)
(0.0321728 -0.00450412 0)
(0.0422623 -0.00237601 0)
(-0.0160641 0.0166386 0)
(0.30819 0.13882 0)
(-0.159665 0.00639827 0)
(-0.0920627 0.000626324 0)
(-0.0996644 0.00479009 0)
(-0.104568 0.0064785 0)
(-0.109111 0.00636634 0)
(-0.112915 0.00512882 0)
(-0.115663 0.00303356 0)
(-0.116998 0.000124776 0)
(-0.116501 -0.00365854 0)
(-0.113658 -0.00837649 0)
(-0.107665 -0.0142412 0)
(-0.0986808 -0.0220901 0)
(-0.0894753 -0.0328537 0)
(-0.080717 -0.0412976 0)
(-0.0567642 -0.0257783 0)
(-0.0150612 -0.0235225 0)
(-0.0478652 0.0647011 0)
(0.125326 0.0237383 0)
(0.0479177 0.0141328 0)
(0.0189314 0.0062144 0)
(0.00706729 0.00420392 0)
(-0.00447789 0.00448027 0)
(-0.00968706 -0.00923155 0)
(-0.0090017 -0.0164607 0)
(-0.00919605 -0.0112734 0)
(-0.00500695 -0.00735158 0)
(-0.00470897 -0.00549922 0)
(-0.0057672 -0.00396339 0)
(-0.00738493 -0.00176737 0)
(-0.01037 0.000613767 0)
(-0.0121117 -0.00070758 0)
(-0.0107434 -0.00760832 0)
(-0.00527159 -0.0147666 0)
(0.0224541 -0.00379963 0)
(-0.10009 0.0404931 0)
(0.466241 0.212168 0)
(-0.201924 0.0303591 0)
(-0.0774085 0.00992772 0)
(-0.0930888 0.0103348 0)
(-0.0996703 0.010949 0)
(-0.104395 0.00993298 0)
(-0.108168 0.00764031 0)
(-0.111054 0.00422191 0)
(-0.112982 -0.000272971 0)
(-0.113706 -0.00584758 0)
(-0.113117 -0.0126374 0)
(-0.111199 -0.0208966 0)
(-0.108606 -0.0310534 0)
(-0.106473 -0.042839 0)
(-0.103121 -0.0529741 0)
(-0.094771 -0.057175 0)
(-0.0928326 -0.0630732 0)
(-0.127271 -0.0598533 0)
(0.0827024 0.00472838 0)
(-0.0343853 0.00980856 0)
(-0.0246861 0.0114981 0)
(-0.0175812 0.00849635 0)
(-0.0154023 0.00544807 0)
(0.0132383 0.00161401 0)
(-0.0116117 -0.0158714 0)
(-0.0284578 -0.0107645 0)
(-0.036163 -0.00748164 0)
(-0.0416643 -0.00564826 0)
(-0.0455204 -0.00440954 0)
(-0.0479034 -0.0035776 0)
(-0.0485142 -0.00334154 0)
(-0.0464131 -0.00468419 0)
(-0.0366379 -0.00635669 0)
(-0.0414184 -0.000533419 0)
(-0.0665333 0.00906663 0)
(-0.147442 0.0196301 0)
(0.589172 0.271999 0)
(-0.239132 0.0589759 0)
(-0.0596002 0.022849 0)
(-0.0820434 0.0179966 0)
(-0.0907803 0.0163451 0)
(-0.0949138 0.0140631 0)
(-0.0977522 0.0109358 0)
(-0.0997509 0.00681615 0)
(-0.101136 0.00164666 0)
(-0.101975 -0.00460982 0)
(-0.102396 -0.0119461 0)
(-0.102841 -0.0204366 0)
(-0.104034 -0.0300495 0)
(-0.106611 -0.0399235 0)
(-0.109878 -0.0479762 0)
(-0.113592 -0.0530293 0)
(-0.123023 -0.0545643 0)
(-0.140185 -0.0392366 0)
(-0.135962 0.011765 0)
(-0.102152 0.00696319 0)
(-0.0978665 0.00837609 0)
(-0.0865427 0.00414347 0)
(-0.0830489 -0.000943364 0)
(-0.0819999 -0.00603889 0)
(-0.0792188 -0.00703615 0)
(-0.0715646 -0.00789055 0)
(-0.0633065 -0.00866837 0)
(-0.0544984 -0.00898346 0)
(-0.0456871 -0.008923 0)
(-0.0372393 -0.00863763 0)
(-0.0290473 -0.00837797 0)
(-0.0201358 -0.00844173 0)
(-0.00909649 -0.00898783 0)
(-0.00554306 -0.0121584 0)
(0.00844531 -0.00664336 0)
(0.0267923 -0.00411072 0)
(-0.0618852 -0.00192807 0)
(0.681831 0.320401 0)
(-0.267063 0.0899966 0)
(-0.0431121 0.0367627 0)
(-0.0660225 0.0267321 0)
(-0.0779047 0.0213318 0)
(-0.0814757 0.0169179 0)
(-0.0827709 0.0125824 0)
(-0.0829932 0.00777494 0)
(-0.0826961 0.0022523 0)
(-0.0822335 -0.00407097 0)
(-0.0821946 -0.0111189 0)
(-0.0830909 -0.0188474 0)
(-0.085514 -0.0271435 0)
(-0.0897826 -0.0353482 0)
(-0.0956209 -0.0423944 0)
(-0.103072 -0.0478233 0)
(-0.112834 -0.0506687 0)
(-0.121799 -0.04549 0)
(-0.1241 -0.0269701 0)
(-0.118138 -0.0119763 0)
(-0.109036 -0.00378391 0)
(-0.0998182 -0.00261881 0)
(-0.0931545 -0.00419584 0)
(-0.0880022 -0.00694565 0)
(-0.0831804 -0.00893998 0)
(-0.0779084 -0.0108611 0)
(-0.0724669 -0.0120355 0)
(-0.0668976 -0.0125011 0)
(-0.0613606 -0.0123803 0)
(-0.0559666 -0.0120136 0)
(-0.0505405 -0.0120081 0)
(-0.0444629 -0.0131506 0)
(-0.0369663 -0.0162261 0)
(-0.0275184 -0.0219054 0)
(-0.0130707 -0.0257324 0)
(0.019678 -0.0273519 0)
(0.0514513 -0.021774 0)
(0.0995811 -0.0018853 0)
(0.133676 0.0468317 0)
(-0.00807467 0.118256 0)
(0.736856 0.362954 0)
(-0.287718 0.116208 0)
(-0.0303539 0.0417463 0)
(-0.038294 0.0353852 0)
(-0.0541629 0.028165 0)
(-0.0602651 0.0192529 0)
(-0.0609555 0.0124599 0)
(-0.0595376 0.00667726 0)
(-0.057202 0.000958385 0)
(-0.0548008 -0.00491217 0)
(-0.0536214 -0.0108898 0)
(-0.0540126 -0.0170565 0)
(-0.0564398 -0.0234023 0)
(-0.0610234 -0.0295583 0)
(-0.067508 -0.0348619 0)
(-0.0756504 -0.0386067 0)
(-0.0849076 -0.0393414 0)
(-0.0927478 -0.0346898 0)
(-0.0962273 -0.0254865 0)
(-0.0949265 -0.01677 0)
(-0.0905736 -0.0111313 0)
(-0.085485 -0.00921855 0)
(-0.0812011 -0.00968324 0)
(-0.0779383 -0.01138 0)
(-0.0754366 -0.0131587 0)
(-0.0733875 -0.0147569 0)
(-0.0717213 -0.0157869 0)
(-0.0704505 -0.0160784 0)
(-0.0696878 -0.0157015 0)
(-0.06952 -0.0151043 0)
(-0.0698529 -0.0151468 0)
(-0.07035 -0.0169451 0)
(-0.0704486 -0.021669 0)
(-0.0690032 -0.0300801 0)
(-0.0631531 -0.0416462 0)
(-0.049169 -0.0568331 0)
(-0.0295554 -0.0750383 0)
(-0.00481718 -0.0845776 0)
(0.0911767 -0.00977718 0)
(-0.0625108 0.130138 0)
(0.753426 0.402375 0)
(-0.292255 0.109461 0)
(-0.00766757 0.00675625 0)
(0.0177228 0.0361919 0)
(-0.00164394 0.0418991 0)
(-0.0175743 0.0239861 0)
(-0.022065 0.0107834 0)
(-0.0219315 0.0032018 0)
(-0.0195418 -0.00266118 0)
(-0.0172982 -0.0075425 0)
(-0.0160615 -0.0118193 0)
(-0.0164484 -0.0158385 0)
(-0.0189298 -0.0198918 0)
(-0.023608 -0.0239707 0)
(-0.0302304 -0.0277374 0)
(-0.0383352 -0.03057 0)
(-0.047084 -0.0312486 0)
(-0.0546499 -0.0285079 0)
(-0.0592737 -0.0232734 0)
(-0.0606505 -0.0179066 0)
(-0.0598164 -0.0140299 0)
(-0.058157 -0.0122117 0)
(-0.0567329 -0.0120182 0)
(-0.0560074 -0.0128111 0)
(-0.0560841 -0.0138927 0)
(-0.0569461 -0.0147918 0)
(-0.0586517 -0.0150685 0)
(-0.0613939 -0.0144459 0)
(-0.0655717 -0.0129809 0)
(-0.0716441 -0.0113248 0)
(-0.0798738 -0.0106736 0)
(-0.0901127 -0.0122841 0)
(-0.101747 -0.0173093 0)
(-0.114034 -0.0270127 0)
(-0.125839 -0.0425691 0)
(-0.13517 -0.0642905 0)
(-0.139344 -0.0877998 0)
(-0.130808 -0.0930076 0)
(-0.106458 -0.0286302 0)
(-0.141797 0.210605 0)
(0.850572 0.419173 0)
(-0.087667 0.0804489 0)
(0.0815554 -0.060399 0)
(0.131144 0.00607252 0)
(0.0955367 0.0371696 0)
(0.0626374 0.0262338 0)
(0.0493314 0.0102909 0)
(0.0430622 0.000483619 0)
(0.0374999 -0.00580751 0)
(0.0342444 -0.00998761 0)
(0.0320506 -0.0128036 0)
(0.029494 -0.0147644 0)
(0.0258281 -0.0165136 0)
(0.0206862 -0.0184148 0)
(0.0140308 -0.0204695 0)
(0.0061404 -0.0223425 0)
(-0.00249839 -0.0232561 0)
(-0.0101664 -0.0222196 0)
(-0.0157998 -0.0195644 0)
(-0.0191702 -0.0164947 0)
(-0.0208656 -0.0139631 0)
(-0.0217635 -0.0124376 0)
(-0.0226207 -0.0118631 0)
(-0.0238839 -0.0119388 0)
(-0.0257382 -0.0122265 0)
(-0.0282199 -0.0122611 0)
(-0.0313459 -0.0115151 0)
(-0.0352359 -0.00948444 0)
(-0.0403042 -0.00586357 0)
(-0.0470962 -0.000886818 0)
(-0.0567867 0.00432111 0)
(-0.0720809 0.00729636 0)
(-0.0946467 0.00476169 0)
(-0.124443 -0.00569494 0)
(-0.159351 -0.0237031 0)
(-0.194293 -0.0452869 0)
(-0.23089 -0.0672229 0)
(-0.263261 -0.0801292 0)
(-0.32771 -0.0705343 0)
(-0.564251 -0.0151874 0)
(0.987795 0.386139 0)
(0.469719 0.216526 0)
(0.325541 0.135384 0)
(0.33522 0.135292 0)
(0.236444 0.116992 0)
(0.167211 0.0811553 0)
(0.138454 0.0490895 0)
(0.123324 0.0268939 0)
(0.111072 0.0122624 0)
(0.0995863 0.00222049 0)
(0.0898373 -0.00432469 0)
(0.0820945 -0.00808164 0)
(0.0752837 -0.0101539 0)
(0.0686415 -0.0114215 0)
(0.0616788 -0.0124023 0)
(0.0542181 -0.0132775 0)
(0.046427 -0.0139327 0)
(0.0389917 -0.0139271 0)
(0.0326506 -0.0130675 0)
(0.0277393 -0.0117001 0)
(0.0240568 -0.0103102 0)
(0.0211252 -0.00925037 0)
(0.0184521 -0.00862549 0)
(0.0156889 -0.00835792 0)
(0.0126703 -0.00822898 0)
(0.00940224 -0.00790787 0)
(0.00603252 -0.00694327 0)
(0.00280963 -0.0048149 0)
(-4.52038e-05 -0.00102693 0)
(-0.00186218 0.0046671 0)
(-0.00358657 0.0119774 0)
(-0.00537561 0.0196495 0)
(-0.00800801 0.0250124 0)
(-0.0117473 0.0251062 0)
(-0.0161766 0.0174518 0)
(-0.0336585 7.95128e-06 0)
(-0.0463285 -0.0217542 0)
(-0.0387245 -0.0585313 0)
(-0.0523758 -0.139237 0)
(-0.491396 -0.237096 0)
(-1.38819 0.0984631 0)
(0.119962 0.162223 0)
(0.076584 0.111695 0)
(0.0857216 0.0765396 0)
(0.108323 0.0496536 0)
(0.122482 0.0308361 0)
(0.126581 0.0187058 0)
(0.125937 0.0113227 0)
(0.123563 0.00707552 0)
(0.120091 0.00462907 0)
(0.116068 0.00327231 0)
(0.11155 0.00263358 0)
(0.10656 0.00230501 0)
(0.101078 0.00194557 0)
(0.0951245 0.00138001 0)
(0.0889042 0.00071961 0)
(0.0827863 0.00019249 0)
(0.0771207 -0.000140959 0)
(0.0720617 -0.000359126 0)
(0.0675607 -0.000583122 0)
(0.0634493 -0.000874886 0)
(0.0595441 -0.00123085 0)
(0.0557259 -0.00156201 0)
(0.0519849 -0.00167232 0)
(0.0484569 -0.00125539 0)
(0.0454585 7.63257e-05 0)
(0.0434829 0.00269085 0)
(0.0430695 0.00658239 0)
(0.0444838 0.0118613 0)
(0.0480116 0.0173797 0)
(0.053056 0.0208348 0)
(0.0584981 0.0198726 0)
(0.063466 0.0136646 0)
(0.0668504 0.00221782 0)
(0.0685641 -0.0110998 0)
(0.0764286 -0.024867 0)
(0.132955 -0.0760217 0)
(-0.144555 -0.180169 0)
(-0.609364 0.131838 0)
(0.197702 0.0893755 0)
(0.0600598 0.0330945 0)
(0.0712097 0.019944 0)
(0.105907 0.00814611 0)
(0.130128 -0.00411435 0)
(0.142226 -0.0151896 0)
(0.147645 -0.0249802 0)
(0.149895 -0.0336255 0)
(0.150184 -0.0406001 0)
(0.148878 -0.0460349 0)
(0.146408 -0.0502761 0)
(0.143103 -0.0534749 0)
(0.139131 -0.0556503 0)
(0.134554 -0.056763 0)
(0.129458 -0.0567859 0)
(0.124083 -0.0557091 0)
(0.118738 -0.0538928 0)
(0.113688 -0.0517186 0)
(0.109054 -0.0494885 0)
(0.104851 -0.0472889 0)
(0.101023 -0.0451425 0)
(0.0974824 -0.0430696 0)
(0.0941915 -0.0409994 0)
(0.0912097 -0.0387949 0)
(0.088775 -0.036251 0)
(0.0875319 -0.0327264 0)
(0.0876794 -0.0276051 0)
(0.0899601 -0.0213157 0)
(0.0947905 -0.0150727 0)
(0.101727 -0.0107658 0)
(0.109343 -0.0102898 0)
(0.115789 -0.0147489 0)
(0.119284 -0.0229873 0)
(0.116801 -0.0330718 0)
(0.106829 -0.0461681 0)
(0.139617 -0.0740915 0)
(-0.201166 -0.118336 0)
(0.264469 -0.0800799 0)
(-0.0850415 -0.0319027 0)
(-0.22899 0.182625 0)
(0.200622 0.0904553 0)
(0.153277 0.0706445 0)
(0.134253 0.0732668 0)
(0.147088 0.0793655 0)
(0.161085 0.0872345 0)
(0.167756 0.0966255 0)
(0.169469 0.107088 0)
(0.168984 0.118119 0)
(0.167468 0.128505 0)
(0.165489 0.137855 0)
(0.1634 0.145986 0)
(0.161427 0.152641 0)
(0.159697 0.157519 0)
(0.15825 0.160348 0)
(0.157073 0.160974 0)
(0.156108 0.159313 0)
(0.155306 0.155848 0)
(0.154574 0.1512 0)
(0.153802 0.145971 0)
(0.152885 0.140486 0)
(0.151777 0.134967 0)
(0.150507 0.129609 0)
(0.149147 0.124455 0)
(0.147833 0.119429 0)
(0.146809 0.114375 0)
(0.146343 0.108575 0)
(0.146955 0.101513 0)
(0.149314 0.0934338 0)
(0.153753 0.0850203 0)
(0.159906 0.0770394 0)
(0.166358 0.0699934 0)
(0.170913 0.0641457 0)
(0.170237 0.0579559 0)
(0.161528 0.049986 0)
(0.142039 0.0398544 0)
(0.160487 0.0216558 0)
(-0.232617 -0.0102366 0)
)
;

boundaryField
{
    floor
    {
        type            noSlip;
    }
    ceiling
    {
        type            noSlip;
    }
    sWall
    {
        type            noSlip;
    }
    nWall
    {
        type            noSlip;
    }
    sideWalls
    {
        type            empty;
    }
    glass1
    {
        type            noSlip;
    }
    glass2
    {
        type            noSlip;
    }
    sun
    {
        type            noSlip;
    }
    Table_master
    {
        type            noSlip;
    }
    Table_slave
    {
        type            noSlip;
    }
    inlet
    {
        type            fixedValue;
        value           uniform (0.0707107 -0.0707107 0);
    }
    outlet
    {
        type            zeroGradient;
    }
}


// ************************************************************************* //
