/*--------------------------------*- C++ -*----------------------------------*\
  =========                 |
  \\      /  F ield         | OpenFOAM: The Open Source CFD Toolbox
   \\    /   O peration     | Website:  https://openfoam.org
    \\  /    A nd           | Version:  6
     \\/     M anipulation  |
\*---------------------------------------------------------------------------*/
FoamFile
{
    version     2.0;
    format      ascii;
    class       volScalarField;
    location    "2500";
    object      epsilon;
}
// * * * * * * * * * * * * * * * * * * * * * * * * * * * * * * * * * * * * * //

dimensions      [0 2 -3 0 0 0 0];

internalField   nonuniform List<scalar> 
458
(
0.000248155
0.000307251
0.000310414
0.000352102
0.000393034
0.000432679
0.000471947
0.000512381
0.000555813
0.000590065
0.000608581
0.000605222
0.000578928
0.00053781
0.000493244
2.4757e-05
5.23644e-05
5.7891e-05
5.53241e-05
5.08539e-05
4.45809e-05
3.84846e-05
3.33175e-05
2.90433e-05
2.55043e-05
2.25746e-05
2.01042e-05
1.79737e-05
1.60736e-05
1.42917e-05
1.24784e-05
1.08109e-05
7.98388e-06
0.00072756
0.00122708
0.000290528
0.00026985
0.000276519
0.000287768
0.000303725
0.000327162
0.000360582
0.000395349
0.00042233
0.000431538
0.000418878
0.000396293
0.000408892
0.00053781
0.000314668
0.000177455
8.32362e-05
8.0562e-05
6.91008e-05
5.79818e-05
4.89474e-05
4.49434e-05
3.72366e-05
3.05302e-05
2.51575e-05
2.08793e-05
1.75173e-05
1.48435e-05
1.27074e-05
1.11196e-05
1.04156e-05
1.05619e-05
1.92497e-05
1.45727e-05
0.00145706
0.00344215
0.000407519
0.000263295
0.000264752
0.000283579
0.000311469
0.000350315
0.000400848
0.000455048
0.00049737
0.00051441
0.000502522
0.000471501
0.000441947
0.000411631
0.000320036
0.000427205
0.00024333
0.000141506
9.58823e-05
7.03297e-05
5.72598e-05
0.000103985
7.61651e-05
5.7124e-05
4.40643e-05
3.49404e-05
2.84335e-05
2.37012e-05
2.02322e-05
1.77516e-05
1.40639e-05
1.22978e-05
2.84588e-05
2.05808e-05
0.00255659
0.00759399
0.000752182
0.000276942
0.000259844
0.000285102
0.000323714
0.000378759
0.000454545
0.000534184
0.000588982
0.000605952
0.000586822
0.000542144
0.000483206
0.000416197
0.00032762
0.000309051
0.000513642
0.000270277
0.000150473
9.64046e-05
6.9169e-05
5.72093e-05
0.000125573
0.000102305
9.01816e-05
8.28998e-05
7.71142e-05
7.08004e-05
6.41259e-05
5.73283e-05
4.95598e-05
3.17257e-05
2.10796e-05
3.80504e-05
2.77876e-05
0.00416357
0.0138688
0.0016905
0.000357371
0.000267887
0.000286904
0.000332561
0.00041291
0.000544445
0.000662947
0.000724499
0.000730582
0.00069357
0.000626323
0.000533888
0.0004298
0.000323502
0.000241291
0.000192002
0.000142635
0.000104125
7.79212e-05
6.17067e-05
5.25265e-05
5.21264e-05
5.26131e-05
5.37784e-05
5.43998e-05
5.35971e-05
5.08035e-05
4.65301e-05
4.22472e-05
3.82334e-05
3.20393e-05
2.5244e-05
3.11674e-05
3.61882e-05
4.39178e-05
5.19251e-05
5.91453e-05
0.0064699
0.0206546
0.00419729
0.000824128
0.000433004
0.000379118
0.00040232
0.000515776
0.000748949
0.000889126
0.000929132
0.000903159
0.000833814
0.000734416
0.000611934
0.000476295
0.000344591
0.000237447
0.00016475
0.000120387
9.1765e-05
7.30851e-05
6.23891e-05
5.75525e-05
5.81177e-05
6.20948e-05
6.66603e-05
7.00742e-05
7.12027e-05
6.88371e-05
6.18435e-05
5.27621e-05
4.40055e-05
3.61572e-05
3.00057e-05
2.90086e-05
3.13901e-05
4.76904e-05
0.000249259
0.000142872
0.00931601
0.0246566
0.00940924
0.00332276
0.00178077
0.00118165
0.000985958
0.00110817
0.00125129
0.00128451
0.00123736
0.00114217
0.00101788
0.000873021
0.000711209
0.000540426
0.000379363
0.000248923
0.00016214
0.000113879
8.91269e-05
7.62646e-05
7.07549e-05
7.0089e-05
7.33756e-05
7.95433e-05
8.66439e-05
9.3453e-05
9.88721e-05
0.000101192
9.81164e-05
8.57655e-05
7.24308e-05
6.09599e-05
5.37699e-05
5.25696e-05
5.81939e-05
8.58378e-05
0.000375992
0.000254843
0.0100069
0.0278089
0.0155196
0.0108982
0.0072697
0.00477263
0.00343245
0.0027378
0.00227671
0.00194333
0.00167905
0.00144938
0.00123591
0.00102679
0.000814091
0.000600612
0.000406337
0.000252729
0.000157988
0.000111788
9.56984e-05
8.97062e-05
8.82817e-05
8.96195e-05
9.34337e-05
9.96907e-05
0.000108063
0.000118367
0.000130481
0.000144099
0.000158388
0.000170021
0.000171264
0.000178788
0.000202885
0.000268972
0.000423417
0.000663957
0.00254406
0.000691081
0.00928692
0.0156909
0.0138764
0.0105904
0.00807229
0.00612586
0.00473272
0.00373303
0.003025
0.00250134
0.00208554
0.00173743
0.00143428
0.00115566
0.000884353
0.000620628
0.000395213
0.000228799
0.000154318
0.000127905
0.000120202
0.000118071
0.000117364
0.000117238
0.000118205
0.000121183
0.000127086
0.000136826
0.000151326
0.000171598
0.000198961
0.000235146
0.000282688
0.000351428
0.000459436
0.000617913
0.000821683
0.00103646
0.00123388
0.000673367
0.00522086
0.0116898
0.00825157
0.00642235
0.00521522
0.00431743
0.00354431
0.0028669
0.00230885
0.00186348
0.00150133
0.00117528
0.000852906
0.000537956
0.000316834
0.000223982
0.000194662
0.000187967
0.00018717
0.000185771
0.000181518
0.000174261
0.000165053
0.000155607
0.00014789
0.000143861
0.000145351
0.000154154
0.00017233
0.000202621
0.000247145
0.000310021
0.000396936
0.000507126
0.000621046
0.00069543
0.000703326
0.000440477
0.00363821
0.00824071
0.00645355
0.00518442
0.00438017
0.00368453
0.00307607
0.00251121
0.00209233
0.00178778
0.00153897
0.00124944
0.000938757
0.000678862
0.000524528
0.000462445
0.000445354
0.000440847
0.000439275
0.000434418
0.000422193
0.000401124
0.000372089
0.000337965
0.000302847
0.000271005
0.000246011
0.000230454
0.000226238
0.000235369
0.000261617
0.000307106
0.000373266
0.000455133
0.000541312
0.000618247
0.000667954
0.000474139
0.00195674
0.00249794
0.0029674
0.00364797
0.00330583
0.00292096
0.00233651
0.00161075
0.00103653
0.000870759
0.00077962
0.000715615
0.000653144
0.000572378
0.000477561
0.000393542
0.000323538
0.000278673
0.000252698
0.000239194
0.000229084
0.000218587
0.00020709
0.000195216
0.000184258
0.000175673
0.000170693
0.000170162
0.000174621
0.000184594
0.000201024
0.000224574
0.000253866
0.000290465
0.000335968
0.000389608
0.000451238
0.000437434
0.000353691
0.000291016
)
;

boundaryField
{
    floor
    {
        Cmu             0.09;
        kappa           0.41;
        E               9.8;
        type            epsilonWallFunction;
        value           nonuniform List<scalar> 
36
(
0.000493244
2.4757e-05
5.23644e-05
5.7891e-05
5.53241e-05
5.08539e-05
4.45809e-05
3.84846e-05
3.33175e-05
2.90433e-05
2.55043e-05
2.25746e-05
2.01042e-05
1.79737e-05
1.60736e-05
1.42917e-05
1.24784e-05
1.08109e-05
7.98388e-06
7.98388e-06
1.45727e-05
2.05808e-05
2.77876e-05
4.39178e-05
5.19251e-05
5.91453e-05
0.000493244
0.00053781
0.000314668
0.000177455
2.4757e-05
0.000177455
8.32362e-05
0.000427205
0.00024333
0.000513642
)
;
    }
    ceiling
    {
        Cmu             0.09;
        kappa           0.41;
        E               9.8;
        type            epsilonWallFunction;
        value           nonuniform List<scalar> 
43
(
0.00195674
0.00249794
0.0029674
0.00364797
0.00330583
0.00292096
0.00233651
0.00161075
0.00103653
0.000870759
0.00077962
0.000715615
0.000653144
0.000572378
0.000477561
0.000393542
0.000323538
0.000278673
0.000252698
0.000239194
0.000229084
0.000218587
0.00020709
0.000195216
0.000184258
0.000175673
0.000170693
0.000170162
0.000174621
0.000184594
0.000201024
0.000224574
0.000253866
0.000290465
0.000335968
0.000389608
0.000451238
0.000437434
0.000353691
0.000291016
0.00928692
0.0156909
0.00363821
)
;
    }
    sWall
    {
        Cmu             0.09;
        kappa           0.41;
        E               9.8;
        type            epsilonWallFunction;
        value           uniform 0.00195674;
    }
    nWall
    {
        Cmu             0.09;
        kappa           0.41;
        E               9.8;
        type            epsilonWallFunction;
        value           nonuniform List<scalar> 6(5.91453e-05 0.000142872 0.000254843 0.000440477 0.000474139 0.000291016);
    }
    sideWalls
    {
        type            empty;
    }
    glass1
    {
        Cmu             0.09;
        kappa           0.41;
        E               9.8;
        type            epsilonWallFunction;
        value           nonuniform List<scalar> 9(0.000248155 0.00072756 0.00145706 0.00255659 0.00416357 0.0064699 0.00931601 0.0100069 0.00928692);
    }
    glass2
    {
        Cmu             0.09;
        kappa           0.41;
        E               9.8;
        type            epsilonWallFunction;
        value           nonuniform List<scalar> 2(0.000691081 0.000673367);
    }
    sun
    {
        Cmu             0.09;
        kappa           0.41;
        E               9.8;
        type            epsilonWallFunction;
        value           nonuniform List<scalar> 
14
(
0.000248155
0.000307251
0.000310414
0.000352102
0.000393034
0.000432679
0.000471947
0.000512381
0.000555813
0.000590065
0.000608581
0.000605222
0.000578928
0.00053781
)
;
    }
    Table_master
    {
        Cmu             0.09;
        kappa           0.41;
        E               9.8;
        type            epsilonWallFunction;
        value           nonuniform List<scalar> 9(0.000103985 7.61651e-05 5.7124e-05 4.40643e-05 3.49404e-05 2.84335e-05 2.37012e-05 2.02322e-05 1.77516e-05);
    }
    Table_slave
    {
        Cmu             0.09;
        kappa           0.41;
        E               9.8;
        type            epsilonWallFunction;
        value           nonuniform List<scalar> 9(0.000125573 0.000102305 9.01816e-05 8.28998e-05 7.71142e-05 7.08004e-05 6.41259e-05 5.73283e-05 4.95598e-05);
    }
    inlet
    {
        type            turbulentMixingLengthDissipationRateInlet;
        mixingLength    0.01;
        phi             phi;
        k               k;
        value           uniform 0.000101881;
    }
    outlet
    {
        type            zeroGradient;
    }
}


// ************************************************************************* //
