/*--------------------------------*- C++ -*----------------------------------*\
  =========                 |
  \\      /  F ield         | OpenFOAM: The Open Source CFD Toolbox
   \\    /   O peration     | Website:  https://openfoam.org
    \\  /    A nd           | Version:  6
     \\/     M anipulation  |
\*---------------------------------------------------------------------------*/
FoamFile
{
    version     2.0;
    format      ascii;
    class       volScalarField;
    location    "2500";
    object      nut;
}
// * * * * * * * * * * * * * * * * * * * * * * * * * * * * * * * * * * * * * //

dimensions      [0 2 -1 0 0 0 0];

internalField   nonuniform List<scalar> 
458
(
0.000888466
0.000954041
0.000957307
0.000998379
0.00103566
0.00106937
0.0011008
0.00113138
0.00116249
0.00118589
0.00119817
0.00119596
0.00117838
0.00114979
0.0011171
0.000412052
0.00052893
0.000546927
0.000538721
0.000523801
0.000501309
0.000477327
0.000454928
0.000434576
0.000416153
0.000399564
0.000384422
0.000370331
0.000356791
0.000343086
0.000327914
0.000312603
0.00028256
0.0012716
0.00267999
0.00245373
0.00285963
0.00319701
0.00354557
0.0038856
0.00418535
0.00440187
0.00459258
0.00472425
0.00474136
0.00455714
0.004006
0.00278055
0.00114979
0.000961654
0.00079448
0.000617284
0.000935816
0.00118861
0.001364
0.00142411
0.00119014
0.00106695
0.000977666
0.000907448
0.000850066
0.00079737
0.000747423
0.000697328
0.000645234
0.000600181
0.000565192
0.000631522
0.000345321
0.00160282
0.00372992
0.00288423
0.00391282
0.00432018
0.00461224
0.0048356
0.00501251
0.00515475
0.00531612
0.00548216
0.00562443
0.0057146
0.00572785
0.00561391
0.00519422
0.00424491
0.00106483
0.000882679
0.00126131
0.0015608
0.0017892
0.00182426
0.000664846
0.000599304
0.000544502
0.000499367
0.000462203
0.000431517
0.00040611
0.000385242
0.000368806
0.000403764
0.000469423
0.000694343
0.000387435
0.0019332
0.00508734
0.00282974
0.00418536
0.00468243
0.00484513
0.00490004
0.00493013
0.00499165
0.00511579
0.00528779
0.00547955
0.00567447
0.00586184
0.00600992
0.00598499
0.00555349
0.00433313
0.00113232
0.00149519
0.00193476
0.00226777
0.00246997
0.00238089
0.000707999
0.000661245
0.000634015
0.000616466
0.000601776
0.000584881
0.00056589
0.000545143
0.000519314
0.000491557
0.00049051
0.000739887
0.000428216
0.00227444
0.00689535
0.00330194
0.00390299
0.0046936
0.00484672
0.00480317
0.00472005
0.00471436
0.00483757
0.00502298
0.00523373
0.00545735
0.00567365
0.00583288
0.00582655
0.00558309
0.00507853
0.00412862
0.00376131
0.00356145
0.00341341
0.00329284
0.00315229
0.00278541
0.00267753
0.00265775
0.0026505
0.00261987
0.00254206
0.00235584
0.00206151
0.00168714
0.00127806
0.000951435
0.000848615
0.000640873
0.000498801
0.000527439
0.000550832
0.00263441
0.00888009
0.00516258
0.00376836
0.00422819
0.00457493
0.00470601
0.00464797
0.00456954
0.00472056
0.00490921
0.00511944
0.00534559
0.00555631
0.00568584
0.00565673
0.00543512
0.00507503
0.00465099
0.00432035
0.00401918
0.00372806
0.00349213
0.00333859
0.00326414
0.00327839
0.00331602
0.00333668
0.00332358
0.00326722
0.00314405
0.00289693
0.00252478
0.00204389
0.00156674
0.00118776
0.000898795
0.000863105
0.00120976
0.000739087
0.00297481
0.0104022
0.0081024
0.00553306
0.00461339
0.00438996
0.00453651
0.0046624
0.00472158
0.00481242
0.00494828
0.00513437
0.00535501
0.00556738
0.00569527
0.00565495
0.0054181
0.0050511
0.00466709
0.00430889
0.00392978
0.00357359
0.00333021
0.00322298
0.003223
0.00327924
0.00333644
0.00336936
0.00337313
0.00335028
0.0033037
0.0031891
0.0029229
0.00252277
0.0020812
0.00166963
0.00132824
0.00118863
0.00141302
0.000896338
0.0030466
0.00966806
0.00856058
0.00780467
0.00680074
0.00597672
0.00558414
0.0053168
0.00510032
0.00502455
0.00509061
0.00525861
0.00548074
0.00569744
0.00581898
0.00575079
0.00546765
0.00504126
0.00456963
0.00404292
0.00356982
0.00325796
0.00310155
0.00304935
0.00305611
0.00308563
0.00311038
0.00312037
0.00312004
0.00312137
0.00313803
0.00316948
0.00311481
0.0028325
0.00253854
0.00231663
0.00223087
0.00221751
0.00275332
0.00124994
0.0029717
0.00353939
0.00411185
0.00438843
0.00460187
0.00465447
0.00463773
0.00464855
0.00476294
0.00496424
0.00520875
0.00546669
0.00571928
0.00592792
0.00599873
0.00583136
0.00542831
0.00486558
0.00419356
0.00359266
0.00321077
0.00300721
0.00290259
0.00284691
0.00281307
0.0027824
0.00274114
0.00268367
0.00261176
0.00252913
0.00243561
0.00232552
0.00220176
0.00208346
0.00199555
0.00195342
0.00192569
0.00187108
0.00179462
0.00123917
0.00211626
0.00484806
0.00503131
0.0051876
0.00537198
0.00559416
0.00576345
0.00586607
0.00593413
0.00601032
0.00611059
0.00618666
0.00608245
0.00566991
0.00499645
0.00424959
0.00364661
0.00327553
0.00306478
0.00292763
0.00281658
0.00271205
0.0026072
0.0024992
0.00238628
0.00226854
0.00215036
0.00204157
0.0019548
0.00190061
0.00187551
0.0018606
0.00185385
0.0018435
0.00179862
0.00169025
0.00153481
0.00107569
0.00217429
0.00538944
0.00579661
0.00582282
0.00595439
0.00610881
0.00619877
0.00603372
0.00588539
0.0058482
0.00591502
0.00598657
0.00577258
0.00520766
0.00456689
0.00408167
0.00379361
0.00361106
0.00348687
0.00338299
0.00327243
0.00314175
0.00298743
0.00281361
0.00262997
0.00244902
0.00228306
0.00214151
0.00202872
0.00194894
0.0019139
0.0019137
0.00193302
0.00194737
0.00193972
0.00191733
0.00203685
0.00110243
0.00176824
0.00191818
0.00203151
0.00217627
0.00210601
0.00202091
0.00187601
0.00165732
0.00143095
0.0013502
0.00130135
0.0012647
0.00122674
0.00117391
0.00110512
0.00103607
0.000970577
0.000923465
0.000893834
0.00087762
0.000865078
0.000851659
0.000836459
0.000820158
0.000804514
0.000791818
0.000784261
0.000783442
0.000790224
0.000804988
0.000828193
0.000859345
0.000895191
0.000936292
0.000982832
0.00103258
0.00108438
0.00107321
0.000999816
0.000936882
)
;

boundaryField
{
    floor
    {
        type            nutkWallFunction;
        Cmu             0.09;
        kappa           0.41;
        E               9.8;
        value           nonuniform List<scalar> 
36
(
0.000134419
4.83243e-05
6.33865e-05
6.56659e-05
6.46274e-05
6.27342e-05
5.98678e-05
5.67938e-05
5.39052e-05
5.1265e-05
4.88618e-05
4.66862e-05
4.46902e-05
4.28238e-05
4.10218e-05
3.91887e-05
3.71483e-05
3.50767e-05
3.0972e-05
3.09719e-05
3.9488e-05
4.50881e-05
5.0437e-05
5.95479e-05
6.31977e-05
6.61604e-05
0.000134419
0.000138211
0.000116203
9.62273e-05
4.83243e-05
9.62273e-05
7.44963e-05
0.000128328
0.00010682
0.000136184
)
;
    }
    ceiling
    {
        type            nutkWallFunction;
        Cmu             0.09;
        kappa           0.41;
        E               9.8;
        value           nonuniform List<scalar> 
43
(
0.000207907
0.000224371
0.000236726
0.000252502
0.00024493
0.000235703
0.000219876
0.000195725
0.000170348
0.000161195
0.000155629
0.000151439
0.000147086
0.000140999
0.000133025
0.000124963
0.000117259
0.000111679
0.000108153
0.000106218
0.000104718
0.00010311
0.000101286
9.93246e-05
9.74386e-05
9.59048e-05
9.49907e-05
9.4892e-05
9.5713e-05
9.74971e-05
0.000100293
0.000104033
0.000108316
0.000113204
0.000118707
0.000124557
0.000130615
0.000129312
0.000120709
0.000113274
0.000337216
0.00039605
0.000252028
)
;
    }
    sWall
    {
        type            nutkWallFunction;
        Cmu             0.09;
        kappa           0.41;
        E               9.8;
        value           uniform 0.000207964;
    }
    nWall
    {
        type            nutkWallFunction;
        Cmu             0.09;
        kappa           0.41;
        E               9.8;
        value           nonuniform List<scalar> 6(6.61541e-05 8.95027e-05 0.000108456 0.00012961 0.000132726 0.000113278);
    }
    sideWalls
    {
        type            empty;
    }
    glass1
    {
        type            nutkWallFunction;
        Cmu             0.09;
        kappa           0.41;
        E               9.8;
        value           nonuniform List<scalar> 9(0.000107547 0.0001524 0.000189922 0.000226497 0.00026357 0.000302039 0.000337912 0.00034543 0.00033761);
    }
    glass2
    {
        type            nutkWallFunction;
        Cmu             0.09;
        kappa           0.41;
        E               9.8;
        value           nonuniform List<scalar> 2(0.000149808 0.000148571);
    }
    sun
    {
        type            nutkWallFunction;
        Cmu             0.09;
        kappa           0.41;
        E               9.8;
        value           nonuniform List<scalar> 
14
(
0.000107513
0.000115303
0.000115689
0.000120535
0.000124914
0.000128859
0.000132522
0.000136077
0.000139681
0.000142385
0.000143802
0.000143547
0.000141518
0.000138211
)
;
    }
    Table_master
    {
        type            nutkWallFunction;
        Cmu             0.09;
        kappa           0.41;
        E               9.8;
        value           nonuniform List<scalar> 9(8.03938e-05 7.22522e-05 6.53615e-05 5.96225e-05 5.48487e-05 5.0871e-05 4.75505e-05 4.48036e-05 4.26267e-05);
    }
    Table_slave
    {
        type            nutkWallFunction;
        Cmu             0.09;
        kappa           0.41;
        E               9.8;
        value           nonuniform List<scalar> 9(8.5701e-05 7.99491e-05 7.65769e-05 7.43944e-05 7.25616e-05 7.04469e-05 6.8061e-05 6.5443e-05 6.21667e-05);
    }
    inlet
    {
        type            calculated;
        value           uniform 0.000100623;
    }
    outlet
    {
        type            calculated;
        value           nonuniform List<scalar> 2(0.00176824 0.00191818);
    }
}


// ************************************************************************* //
