/*--------------------------------*- C++ -*----------------------------------*\
  =========                 |
  \\      /  F ield         | OpenFOAM: The Open Source CFD Toolbox
   \\    /   O peration     | Website:  https://openfoam.org
    \\  /    A nd           | Version:  6
     \\/     M anipulation  |
\*---------------------------------------------------------------------------*/
FoamFile
{
    version     2.0;
    format      ascii;
    class       surfaceScalarField;
    location    "2500";
    object      phi;
}
// * * * * * * * * * * * * * * * * * * * * * * * * * * * * * * * * * * * * * //

dimensions      [1 0 -1 0 0 0 0];

internalField   nonuniform List<scalar> 
850
(
-0.00273082
0.00278645
-0.00351455
0.000783744
-0.0041834
0.000668862
-0.00476138
0.000577989
-0.00521847
0.000457106
-0.005539
0.000320539
-0.00570517
0.000166177
-0.00569436
-1.07989e-05
-0.00547916
-0.000215189
-0.00504352
-0.000435631
-0.00439883
-0.000644682
-0.00358181
-0.000817013
-0.00262725
-0.000954548
-0.00149755
-0.00112969
-0.00149653
-0.000288832
0.000290861
0.000264052
-0.00055287
0.000840059
-0.000575993
0.00125309
-0.000413012
0.00153005
-0.000276953
0.00167377
-0.000143701
0.00172989
-5.61033e-05
0.00175308
-2.31788e-05
0.00176221
-9.11322e-06
0.00176092
1.30657e-06
0.00175034
1.0585e-05
0.00172789
2.2473e-05
0.00168287
4.50312e-05
0.00158864
9.42412e-05
0.00140089
0.00018777
0.00109434
0.000306565
0.000696102
0.00039825
0.00069867
-0.00195578
0.00489126
-0.00280301
0.00163098
-0.00352551
0.00139138
-0.00410195
0.00115443
-0.00455172
0.000906883
-0.0048738
0.000642637
-0.00505357
0.000345956
-0.00506664
2.28049e-06
-0.00489065
-0.000391173
-0.00451972
-0.000806556
-0.00397947
-0.00118492
-0.00332145
-0.00147503
-0.00261463
-0.00166136
-0.00200118
-0.00174314
-0.00193129
-0.00156641
-0.00101566
-0.000913681
-0.000522345
-0.000491067
-0.000515828
0.000728852
-0.000433317
0.00104192
-0.000865921
0.00127872
-0.000812785
0.00150995
-0.000644222
0.0016892
-0.000456198
0.00172071
-0.000175193
0.00172305
-5.84306e-05
0.00172733
-2.74459e-05
0.00173132
-1.30872e-05
0.00173317
-5.29385e-07
0.00173272
1.10548e-05
0.00172922
2.59846e-05
0.00171845
5.58184e-05
0.00166836
0.000144344
0.00147288
0.000383267
0.00112692
0.000652538
0.000667322
0.000857864
0.00137285
-0.00139218
0.00651004
-0.00217273
0.00241155
-0.00282056
0.00203923
-0.00331265
0.00164653
-0.00370451
0.00129876
-0.00399772
0.000935849
-0.00417261
0.000520854
-0.00419813
2.78105e-05
-0.00403971
-0.000549582
-0.00369337
-0.0011529
-0.00319856
-0.00167972
-0.00261748
-0.00205611
-0.0020253
-0.00225354
-0.00151659
-0.00225184
-0.00109933
-0.00198367
-0.000545513
-0.00146749
-8.05618e-05
-0.000956008
-0.000591062
0.0010629
-0.00149015
0.00132743
-0.00113044
0.00143061
-0.000915953
0.00154994
-0.000763539
0.00174994
-0.000656185
0.00157492
0.00151665
0.00148937
0.00147645
0.00147609
0.00148731
0.00151346
0.00156945
0.00171396
0.00146936
0.000627885
0.00114319
0.000978717
0.000655285
0.00134579
0.0020388
-0.00100185
0.00780325
-0.00167076
0.00308047
-0.00209344
0.00246192
-0.00242517
0.00197827
-0.00270561
0.00157921
-0.00293054
0.00116078
-0.003075
0.000665324
-0.00309578
4.85942e-05
-0.00293773
-0.000707619
-0.0026057
-0.00148493
-0.00216337
-0.00212205
-0.00167811
-0.00254137
-0.00120837
-0.00272328
-0.000791978
-0.00266823
-0.000399879
-0.00237577
4.88744e-05
-0.00191624
0.000513458
-0.00142058
0.000977369
-0.00105496
0.00182275
-0.000839451
0.00139482
-0.0010622
0.00133915
-0.00107476
0.00133399
-0.000910786
0.00133005
-0.000759582
0.00126013
-0.000586253
0.00156461
-0.000304613
0.00177071
-0.00020624
0.00194164
-0.000171069
0.00208311
-0.000141602
0.0021822
-9.92351e-05
0.00221628
-3.42149e-05
0.00215745
5.86995e-05
0.00197185
0.000185464
0.00160002
0.000371688
0.00146173
0.000766196
0.00119391
0.00124654
0.000777858
0.00176186
0.00283067
-0.000727946
0.00887666
-0.00128118
0.00363371
-0.00136064
0.0025414
-0.00146613
0.00208377
-0.00158804
0.00170113
-0.00169881
0.00127156
-0.00176945
0.000735978
-0.00174369
2.28416e-05
-0.00155299
-0.000898316
-0.00123987
-0.00179805
-0.000885517
-0.0024764
-0.000541894
-0.002885
-0.000239565
-0.00302562
1.60635e-05
-0.00292387
0.00025139
-0.00261109
0.000500502
-0.00216535
0.000770933
-0.00169101
0.00101793
-0.00130196
0.00123322
-0.00105472
0.00117652
-0.00100549
0.00106845
-0.000966675
0.00101371
-0.000856037
0.000990677
-0.000736534
0.0010121
-0.00060766
0.00116751
-0.000460014
0.00132913
-0.000367838
0.00147675
-0.000318682
0.00160877
-0.000273597
0.00171705
-0.000207503
0.001785
-0.000102147
0.00179016
5.35541e-05
0.0017197
0.000255941
0.00158433
0.000507076
0.00148414
0.000866403
0.00142253
0.00130817
0.00139317
0.00179123
0.00222991
0.00199395
0.00141189
0.000832348
0.00126317
0.000162537
0.00132827
-0.000654332
0.00992164
-0.00107858
0.00405798
-0.000678696
0.00214152
-0.000439087
0.00184418
-0.000369943
0.001632
-0.000342813
0.00124444
-0.000281336
0.000674512
-0.000126791
-0.000131692
0.000117975
-0.00114307
0.000371063
-0.00205114
0.000579823
-0.00268516
0.000723808
-0.00302899
0.000802349
-0.00310417
0.000829686
-0.00295121
0.000838957
-0.00262037
0.00085483
-0.00218122
0.000882488
-0.00171866
0.000898854
-0.00131831
0.000883771
-0.00103963
0.000787479
-0.000909186
0.000660573
-0.000839757
0.00057516
-0.00077061
0.000540575
-0.000701934
0.00056304
-0.00063011
0.000654437
-0.000551396
0.000777422
-0.000490807
0.000905564
-0.000446809
0.00103111
-0.000399122
0.00115096
-0.000327346
0.00125927
-0.000210438
0.00133738
-2.45356e-05
0.00137375
0.000219591
0.00138858
0.000492263
0.00144172
0.000813278
0.00159115
0.00115875
0.00185494
0.00152745
0.00214807
0.00170084
0.00175459
0.00122584
0.0009596
0.000957541
0.00234046
-0.000781491
0.011134
-0.000743186
0.00401969
0.000317852
0.0010805
0.000888178
0.00127387
0.00108764
0.00143255
0.0012411
0.00109099
0.00148196
0.000433675
0.00178398
-0.000433702
0.00202345
-0.00138253
0.00213747
-0.00216516
0.00212873
-0.00267642
0.00201188
-0.00291216
0.00181499
-0.00290729
0.00157108
-0.00270731
0.00131539
-0.00236468
0.0010735
-0.00193933
0.000856083
-0.00150124
0.00065845
-0.00112067
0.000480209
-0.000861379
0.000306002
-0.000734967
0.000154785
-0.000688526
5.0616e-05
-0.000666426
-1.97025e-06
-0.000649333
-4.82214e-06
-0.000627242
4.00104e-05
-0.000596212
0.000114367
-0.000565147
0.00020111
-0.000533535
0.000295125
-0.000493121
0.000399395
-0.000431599
0.000520113
-0.000331139
0.000663031
-0.000167437
0.000809701
7.29377e-05
0.000953534
0.000348448
0.00113582
0.000631011
0.00138962
0.000904962
0.00172024
0.00119685
0.00209387
0.00132723
0.00226306
0.00105667
0.00182145
0.00139917
0.00421627
0.00232968
0.00928545
0.00292988
0.0034195
0.00334522
0.000665169
0.00349491
0.0011242
0.00352544
0.00140203
0.00364077
0.000975688
0.00387312
0.000201342
0.00410561
-0.000666182
0.00415257
-0.00142949
0.00397943
-0.00199202
0.00362699
-0.002324
0.00315467
-0.00243985
0.00261896
-0.00237161
0.0020668
-0.00215516
0.00153602
-0.00183391
0.00104974
-0.00145304
0.000622601
-0.00107409
0.000259581
-0.000757643
-2.63374e-05
-0.000575448
-0.000245796
-0.000515494
-0.000409476
-0.000524832
-0.000526629
-0.000549257
-0.000605174
-0.000570772
-0.000650725
-0.000581675
-0.000666878
-0.000580044
-0.000663014
-0.000568994
-0.000647518
-0.000549015
-0.000623024
-0.000517598
-0.000584944
-0.000469662
-0.000518934
-0.000397131
-0.000397233
-0.000289121
-0.000198367
-0.00012591
4.4128e-05
0.000105969
0.000322972
0.000352184
0.000650168
0.000577783
0.00103826
0.000808775
0.00144806
0.00091745
0.00167088
0.000833864
0.00100995
0.00206012
0.00545389
0.00980841
0.0132166
0.0124608
0.00142095
0.0108468
0.00273826
0.00970325
0.00254554
0.00890301
0.00177594
0.00818084
0.000923508
0.00739508
0.000119574
0.00651888
-0.000553317
0.00558953
-0.0010627
0.00464651
-0.00138101
0.00372141
-0.00151479
0.00283906
-0.00148928
0.00201914
-0.00133526
0.00128309
-0.00109785
0.000637903
-0.000807855
9.28095e-05
-0.000528991
-0.000319113
-0.000345707
-0.000603446
-0.0002911
-0.00081111
-0.000307815
-0.000980131
-0.000355795
-0.00112299
-0.000406378
-0.00124611
-0.000447637
-0.00135258
-0.000475188
-0.00144473
-0.000487876
-0.00152785
-0.000485862
-0.00160875
-0.000468101
-0.00169464
-0.000431693
-0.00179301
-0.000371275
-0.00191263
-0.000277491
-0.00206434
-0.000137392
-0.00224649
5.62551e-05
-0.00246023
0.000319722
-0.00276653
0.000658509
-0.00327773
0.001089
-0.00408598
0.00161704
-0.00533744
0.00216892
-0.00700823
0.00250467
-0.00692368
0.00197559
-0.00121992
0.00316025
0.00276594
0.00406558
0.00183276
0.00534872
0.00126225
0.00565113
0.00147341
0.00547306
0.00110146
0.00513356
0.000458963
0.00468129
-0.000101136
0.00408682
-0.000468304
0.00337812
-0.000672363
0.002604
-0.000740694
0.00181442
-0.000699716
0.00104956
-0.000570405
0.000350201
-0.000398487
-0.000241767
-0.000215875
-0.000672677
-9.80663e-05
-0.000947294
-7.10746e-05
-0.00114156
-9.68208e-05
-0.00130998
-0.000139374
-0.00147763
-0.000188134
-0.00165004
-0.000233949
-0.00182617
-0.000271487
-0.00200287
-0.000298477
-0.00217717
-0.00031356
-0.00234768
-0.000315336
-0.00251426
-0.000301504
-0.00267737
-0.000268561
-0.00283689
-0.000211738
-0.00298977
-0.000124601
-0.00313092
3.77549e-06
-0.00325014
0.000175487
-0.00333887
0.000408473
-0.00341351
0.000733169
-0.00348343
0.00115892
-0.00353625
0.00166988
-0.00356029
0.00219297
-0.00345576
0.00240016
-0.00201378
0.000533623
-0.00316758
-0.000257632
0.00308187
0.000722151
0.00085284
0.0011394
0.000844881
0.00165034
0.000962366
0.00199416
0.000757558
0.00209168
0.000361365
0.00197516
1.53381e-05
0.00167775
-0.000170931
0.00123512
-0.000229755
0.000699378
-0.000204953
0.000141317
-0.000141649
-0.000367034
-6.20364e-05
-0.000775543
1.00383e-05
-0.00105031
5.89083e-05
-0.0012156
6.72381e-05
-0.00133015
4.34935e-05
-0.00143551
8.55362e-06
-0.00155222
-2.26391e-05
-0.00169304
-4.73044e-05
-0.00186097
-6.60029e-05
-0.00205312
-7.93152e-05
-0.00226354
-8.80401e-05
-0.00248409
-9.29977e-05
-0.00270486
-9.45468e-05
-0.00291428
-9.20692e-05
-0.00309922
-8.36023e-05
-0.0032453
-6.56412e-05
-0.00333638
-3.35099e-05
-0.00335233
1.97461e-05
-0.0032976
0.000120766
-0.00315321
0.000264107
-0.00288629
0.000466264
-0.00247589
0.000748535
-0.00189048
0.00108449
-0.000983186
0.00128569
0.000517204
0.00089978
0.0014223
-0.000371454
-0.00167311
-0.00539238
-0.00802546
-0.00490722
-0.00404026
-0.00318698
-0.00221967
-0.00145975
-0.00109847
-0.00108603
-0.00126217
-0.00149901
-0.00171254
-0.00186401
-0.00193702
-0.00193908
-0.0018933
-0.00184016
-0.00181151
-0.00181833
-0.00185667
-0.00191997
-0.00200227
-0.00209821
-0.00220323
-0.00231355
-0.00242574
-0.00253568
-0.00263726
-0.00272087
-0.00277219
-0.00276997
-0.00266633
-0.00241892
-0.00196889
-0.0012361
-0.0001669
0.0011039
0.0019886
0.00160124
)
;

boundaryField
{
    floor
    {
        type            calculated;
        value           nonuniform List<scalar> 
36
(
0
0
0
0
0
0
0
0
0
0
0
0
0
0
0
0
0
0
0
-2.55259e-06
-6.84271e-06
-1.06506e-05
-1.39939e-05
-1.43154e-05
-1.38005e-05
-1.29723e-05
-1.00886e-06
-1.9414e-06
-2.23518e-06
-2.57094e-06
-2.01547e-06
-3.93268e-06
-4.65943e-06
-5.3163e-06
-6.05621e-06
-5.916e-06
)
;
    }
    ceiling
    {
        type            calculated;
        value           nonuniform List<scalar> 
43
(
-3.9484e-05
-3.80259e-05
-3.63877e-05
-1.41301e-05
-8.41411e-06
-4.96209e-06
-2.35158e-06
1.01689e-07
2.93047e-06
5.22342e-06
7.10148e-06
8.5959e-06
9.8385e-06
1.09939e-05
1.21128e-05
1.31457e-05
1.41178e-05
1.48637e-05
1.53826e-05
1.57219e-05
1.60098e-05
1.63108e-05
1.66416e-05
1.69954e-05
1.73465e-05
1.76564e-05
1.78839e-05
1.79967e-05
1.7978e-05
1.78256e-05
1.75419e-05
1.71491e-05
1.67146e-05
1.62465e-05
1.57605e-05
1.53021e-05
1.49114e-05
1.50974e-05
1.59216e-05
1.7462e-05
1.49098e-05
1.13359e-05
-5.84076e-05
)
;
    }
    sWall
    {
        type            calculated;
        value           uniform -0.000267961;
    }
    nWall
    {
        type            calculated;
        value           nonuniform List<scalar> 6(-5.21162e-05 -5.25759e-05 -5.43481e-05 -6.60997e-05 -7.21648e-05 -8.93179e-05);
    }
    sideWalls
    {
        type            empty;
        value           nonuniform 0();
    }
    glass1
    {
        type            calculated;
        value           nonuniform List<scalar> 9(-5.56175e-05 -0.000149029 -0.000226588 -0.000291361 -0.000345456 -0.000390641 -0.000430829 -0.000481166 -0.000537864);
    }
    glass2
    {
        type            calculated;
        value           nonuniform List<scalar> 2(-0.000227652 -0.00024986);
    }
    sun
    {
        type            calculated;
        value           uniform 0;
    }
    Table_master
    {
        type            calculated;
        value           nonuniform List<scalar> 9(-1.52373e-07 -1.52463e-07 -1.52493e-07 -1.5251e-07 -1.52523e-07 -1.52526e-07 -1.52524e-07 -1.52512e-07 -1.52469e-07);
    }
    Table_slave
    {
        type            calculated;
        value           nonuniform List<scalar> 9(1.52372e-07 1.5234e-07 1.52287e-07 1.52243e-07 1.52213e-07 1.52206e-07 1.52213e-07 1.52242e-07 1.52315e-07);
    }
    inlet
    {
        type            calculated;
        value           uniform -0.00450536;
    }
    outlet
    {
        type            calculated;
        value           nonuniform List<scalar> 2(0.00569981 0.0026711);
    }
}


// ************************************************************************* //
