/*--------------------------------*- C++ -*----------------------------------*\
  =========                 |
  \\      /  F ield         | OpenFOAM: The Open Source CFD Toolbox
   \\    /   O peration     | Website:  https://openfoam.org
    \\  /    A nd           | Version:  6
     \\/     M anipulation  |
\*---------------------------------------------------------------------------*/
FoamFile
{
    version     2.0;
    format      ascii;
    class       surfaceScalarField;
    location    "1800";
    object      phi;
}
// * * * * * * * * * * * * * * * * * * * * * * * * * * * * * * * * * * * * * //

dimensions      [1 0 -1 0 0 0 0];

internalField   nonuniform List<scalar> 
850
(
-0.00270232
0.00275906
-0.00341982
0.000717505
-0.00406827
0.000648465
-0.00464267
0.00057442
-0.00511083
0.000468171
-0.005457
0.00034618
-0.00566418
0.000207197
-0.00571057
4.63971e-05
-0.00556913
-0.000141423
-0.0052152
-0.000353917
-0.00464393
-0.000571262
-0.003875
-0.000768912
-0.0029248
-0.000950193
-0.00171919
-0.0012056
-0.00171807
-0.000199918
0.000202098
0.000381627
-0.000581528
0.000895579
-0.000513936
0.00123321
-0.000337612
0.00144203
-0.00020881
0.00154592
-0.000103868
0.00158681
-4.08789e-05
0.00160306
-1.6232e-05
0.00160789
-4.81412e-06
0.00160438
3.53406e-06
0.00159323
1.11658e-05
0.00157185
2.13929e-05
0.00153072
4.1145e-05
0.00144635
8.43886e-05
0.00127979
0.000166574
0.00101269
0.000267117
0.000676812
0.000335895
0.000679641
-0.00194351
0.0048544
-0.00276076
0.00153477
-0.00347852
0.00136624
-0.00405944
0.00115535
-0.00452534
0.000934081
-0.00487571
0.000696569
-0.00509758
0.000429082
-0.00516955
0.000118375
-0.00506897
-0.000241986
-0.00478247
-0.000640407
-0.00431946
-0.00103426
-0.00371623
-0.00137213
-0.00303285
-0.00163357
-0.00242482
-0.00181362
-0.00243653
-0.00170635
-0.00138133
-0.00105306
-0.000695949
-0.000682984
-0.000689224
0.00082461
-0.000617638
0.00106227
-0.000819176
0.00123979
-0.000691435
0.0014102
-0.000508004
0.00153458
-0.000333177
0.00155291
-0.000122184
0.00155303
-4.09778e-05
0.00155435
-1.75408e-05
0.00155547
-5.91478e-06
0.00155518
3.84319e-06
0.00155338
1.29812e-05
0.00154937
2.54177e-05
0.0015393
5.12345e-05
0.0014944
0.000129304
0.00131698
0.000344007
0.0010078
0.000576313
0.000613076
0.000730641
0.00130021
-0.00139382
0.0064786
-0.00216823
0.00230919
-0.00281905
0.00201708
-0.00332019
0.0016565
-0.0037297
0.00134361
-0.0040492
0.00101609
-0.00426225
0.00064214
-0.00434297
0.00019911
-0.0042607
-0.000324238
-0.00399832
-0.000902783
-0.00357216
-0.00146041
-0.0030315
-0.00191279
-0.00245372
-0.00221133
-0.00194662
-0.00232071
-0.00151015
-0.00214281
-0.000868852
-0.00169434
-0.000279829
-0.00127199
-0.00096338
0.000888802
-0.00149969
0.00114758
-0.00107794
0.00125477
-0.000798611
0.00135744
-0.000610659
0.00148907
-0.000464787
0.00136705
0.00132624
0.00130887
0.00130313
0.00130714
0.00132029
0.00134588
0.00139728
0.00152676
0.00128513
0.000585653
0.000974834
0.000886626
0.000547946
0.00115755
0.00185974
-0.00101219
0.00778631
-0.00169531
0.00299232
-0.00212791
0.00244969
-0.00247747
0.00200608
-0.0027823
0.00164844
-0.00303594
0.00126974
-0.00321735
0.000823566
-0.00329408
0.000275856
-0.00321936
-0.000398943
-0.00297083
-0.00115131
-0.00258119
-0.00185003
-0.00211473
-0.00237924
-0.00164223
-0.00268384
-0.00120901
-0.00275393
-0.000775834
-0.00257598
-0.00027805
-0.00219212
0.000205271
-0.0017553
0.000599834
-0.00135793
0.00155939
-0.000952815
0.00114958
-0.00108987
0.00111099
-0.00103933
0.00112977
-0.000817367
0.00115203
-0.000632903
0.00114664
-0.000459383
0.0013899
-0.000243398
0.00156603
-0.000176263
0.00171614
-0.000150244
0.00184007
-0.000124066
0.00192228
-8.2349e-05
0.00193884
-1.66965e-05
0.00186513
7.35818e-05
0.00167378
0.000191214
0.00131548
0.000358167
0.00118142
0.00071973
0.000911509
0.00115655
0.000504237
0.00156484
0.00237917
-0.000739685
0.00887559
-0.00132034
0.00357299
-0.00141847
0.00254783
-0.00156279
0.00215041
-0.00172655
0.00181222
-0.00187747
0.00142068
-0.00198793
0.000934037
-0.00202741
0.000315351
-0.00193066
-0.000495677
-0.0016849
-0.00139706
-0.00135018
-0.00218475
-0.000993353
-0.00273607
-0.000662641
-0.00301455
-0.000369315
-0.00304725
-8.75409e-05
-0.00285775
0.000206261
-0.00248591
0.00048418
-0.00203321
0.00072044
-0.00159417
0.000984333
-0.00121669
0.000956936
-0.00106246
0.000863422
-0.000945804
0.00082621
-0.00078014
0.000826054
-0.000632731
0.000871505
-0.000504817
0.00101657
-0.000388445
0.00116367
-0.00032335
0.00130054
-0.000287097
0.00142311
-0.000246616
0.00152037
-0.000179587
0.00157271
-6.90204e-05
0.00155825
8.80552e-05
0.00146819
0.000281296
0.00131219
0.000514189
0.00118028
0.000851651
0.00105337
0.00128348
0.00081283
0.00180539
0.000964971
0.00222705
-0.00103701
0.00201562
-0.00163559
0.000610544
-0.0015791
-0.000664047
0.00993428
-0.00111966
0.00402862
-0.000741997
0.00217018
-0.000572449
0.00198088
-0.000582015
0.0018218
-0.000627581
0.00146626
-0.000634872
0.000941343
-0.0005746
0.000255094
-0.000401599
-0.000668663
-0.000158988
-0.00163966
8.14155e-05
-0.00242516
0.000277248
-0.0029319
0.00041683
-0.00315414
0.000507551
-0.00313797
0.000569977
-0.00292017
0.000628045
-0.00254397
0.000676564
-0.00208171
0.000699665
-0.00161726
0.000704041
-0.00122105
0.000619278
-0.000977677
0.000500645
-0.000827154
0.000427763
-0.000707241
0.000411206
-0.000616157
0.000451234
-0.000544829
0.000546529
-0.000483722
0.000664466
-0.000441269
0.000786497
-0.000409111
0.000906942
-0.000367043
0.00102148
-0.000294109
0.00112033
-0.000167849
0.00117993
2.8471e-05
0.00119314
0.000268103
0.00118016
0.000527192
0.00119643
0.000835393
0.00129511
0.00118482
0.00149515
0.00160537
0.00185442
0.0018678
0.00211585
0.00175421
0.00163571
0.0010907
0.000111721
-0.000822883
0.0111914
-0.000804793
0.00401054
0.000225352
0.00114005
0.000711138
0.00149511
0.000792678
0.00174028
0.000822436
0.00143652
0.00092037
0.000843425
0.00112831
4.71769e-05
0.00138253
-0.000922865
0.00156229
-0.00181942
0.00163391
-0.00249677
0.00160664
-0.00290464
0.00150322
-0.00305072
0.00134487
-0.00297963
0.0011582
-0.0027335
0.000966021
-0.00235178
0.000774554
-0.00189023
0.000582621
-0.00142531
0.000400963
-0.00103938
0.000217614
-0.00079431
6.4602e-05
-0.000674124
-3.11501e-05
-0.000611471
-6.91213e-05
-0.000578168
-5.88755e-05
-0.000555056
-9.53045e-06
-0.00053305
6.26698e-05
-0.000513451
0.000145483
-0.000491905
0.000237022
-0.000458564
0.000341792
-0.000398861
0.000464849
-0.000290886
0.000600022
-0.000106684
0.000729553
0.000138591
0.000856136
0.000400629
0.00102466
0.000666883
0.00128169
0.000927818
0.00166614
0.00122094
0.00219959
0.00133437
0.00285861
0.0010952
0.00300334
0.000945998
0.00317647
0.0022866
0.00938923
0.002856
0.00344114
0.00319985
0.000796217
0.00321516
0.00147982
0.003095
0.00186045
0.00307281
0.00145873
0.003171
0.000745256
0.00336116
-0.000142961
0.00347135
-0.00103304
0.0034163
-0.00176437
0.00320178
-0.00228227
0.00287091
-0.00257378
0.00246356
-0.00264339
0.00201531
-0.00253139
0.00155835
-0.00227653
0.00111687
-0.00191029
0.000702001
-0.00147535
0.000324044
-0.00104733
3.45886e-06
-0.000718771
-0.000240421
-0.000550411
-0.000410973
-0.000503554
-0.000523095
-0.000499331
-0.000592755
-0.00050849
-0.000630804
-0.000516989
-0.000644399
-0.000519436
-0.000642512
-0.00051532
-0.000631522
-0.000502877
-0.000611724
-0.000478343
-0.00057539
-0.000435177
-0.000503047
-0.000363211
-0.000360947
-0.000248764
-0.000158547
-6.37906e-05
7.32749e-05
0.000168826
0.000348312
0.000391864
0.000680677
0.000595473
0.00110593
0.000795705
0.00160616
0.000834159
0.00202318
0.000678197
0.00132154
0.00164766
0.00472845
0.00991541
0.0133454
0.0124181
0.00172352
0.0104846
0.00341331
0.00910801
0.00323709
0.00816198
0.00240477
0.00744567
0.00146158
0.00676507
0.000537641
0.00602283
-0.000290797
0.00524452
-0.000986084
0.00447839
-0.00151616
0.00373162
-0.00182703
0.00298982
-0.00190161
0.00226258
-0.00180415
0.00156765
-0.00158161
0.000926238
-0.00126886
0.000348712
-0.0008978
-0.000133226
-0.000565367
-0.000480105
-0.000371871
-0.000713992
-0.000316504
-0.000889748
-0.000327778
-0.0010294
-0.000359655
-0.00114588
-0.000391991
-0.00124616
-0.000416693
-0.00133515
-0.000430432
-0.00141935
-0.000431098
-0.00150646
-0.000415747
-0.00160456
-0.000380226
-0.00172151
-0.00031821
-0.00186515
-0.000219549
-0.00204053
-7.33706e-05
-0.00223236
0.000128058
-0.00246061
0.000397097
-0.00280773
0.000739005
-0.00337182
0.00115957
-0.0042291
0.00165301
-0.00550859
0.00211367
-0.00708733
0.00225695
-0.00681019
0.00137054
-0.00182852
0.00308053
0.00307101
0.00412827
0.00236546
0.00544333
0.00192196
0.00579515
0.00205289
0.00567093
0.00158574
0.00538172
0.0008268
0.0049787
0.00011217
0.00446393
-0.000471359
0.00389036
-0.000942632
0.00324749
-0.00118419
0.00250198
-0.00115611
0.00172387
-0.00102602
0.000961803
-0.000819521
0.000254752
-0.000561778
-0.000320394
-0.000322624
-0.000712902
-0.000172834
-0.00095851
-0.000126241
-0.00114211
-0.000132879
-0.00130726
-0.000162609
-0.00146934
-0.000197561
-0.00163225
-0.00022906
-0.00179536
-0.000253566
-0.00195697
-0.000268806
-0.00211596
-0.000272086
-0.00227198
-0.000259707
-0.00242505
-0.000227141
-0.00257405
-0.000169188
-0.0027151
-7.84781e-05
-0.00284301
5.45578e-05
-0.00294437
0.000229431
-0.0030208
0.000473544
-0.00308462
0.000802843
-0.00313806
0.00121303
-0.0031528
0.00166776
-0.00310155
0.00206244
-0.00283058
0.00198599
-0.00154933
8.9313e-05
-0.00331151
-0.000261172
0.00338278
0.00104716
0.00105704
0.00175884
0.00121021
0.00242009
0.00139159
0.00283483
0.00117095
0.00299586
0.000665717
0.00292602
0.000181969
0.00266982
-0.000215201
0.00233169
-0.000604533
0.00188673
-0.000739215
0.00120701
-0.000476362
0.000507854
-0.000326841
-0.000116512
-0.000195114
-0.000596244
-8.2015e-05
-0.00090831
-1.05305e-05
-0.0010959
1.47792e-05
-0.00122788
5.7581e-06
-0.00134553
-1.52066e-05
-0.00147261
-3.55071e-05
-0.0016188
-5.13486e-05
-0.00178569
-6.21499e-05
-0.00197078
-6.84588e-05
-0.00216844
-7.11275e-05
-0.00236982
-7.06892e-05
-0.00256272
-6.67862e-05
-0.00273218
-5.7664e-05
-0.00286147
-3.98851e-05
-0.00293077
-9.15149e-06
-0.00292664
5.04397e-05
-0.00285067
0.000153479
-0.00267923
0.000302123
-0.00238636
0.000509991
-0.00195119
0.000777885
-0.00133784
0.00105443
-0.000381461
0.00110608
0.00101049
0.000594056
0.0016603
-0.000560478
-0.00157903
-0.00562624
-0.00801869
-0.00460223
-0.00353286
-0.0023157
-0.000920506
0.00025163
0.000916995
0.00109789
0.000880959
0.00027382
-0.00047096
-0.000956419
-0.0012935
-0.00149959
-0.00159341
-0.00161663
-0.00161528
-0.00162353
-0.00165311
-0.00170329
-0.00176958
-0.00184698
-0.00193103
-0.00201811
-0.00210513
-0.00218857
-0.00226311
-0.00231997
-0.00234603
-0.00231227
-0.00217513
-0.00188894
-0.00139445
-0.0006316
0.000408258
0.00149996
0.0020794
0.00150371
)
;

boundaryField
{
    floor
    {
        type            calculated;
        value           nonuniform List<scalar> 
36
(
0
0
0
0
0
0
0
0
0
0
0
0
0
0
0
0
0
0
0
-2.812e-06
-7.47929e-06
-1.15605e-05
-1.51811e-05
-1.36205e-05
-1.19535e-05
-1.1198e-05
-1.10138e-06
-2.12539e-06
-2.38276e-06
-2.65359e-06
-2.1672e-06
-4.05666e-06
-4.85673e-06
-5.65788e-06
-6.73493e-06
-6.72483e-06
)
;
    }
    ceiling
    {
        type            calculated;
        value           nonuniform List<scalar> 
43
(
-3.69671e-05
-3.53994e-05
-3.36987e-05
-1.23599e-05
-6.98034e-06
-3.63361e-06
-1.2247e-06
3.26613e-07
1.05107e-06
1.70909e-06
2.60519e-06
5.69216e-06
9.15037e-06
1.02752e-05
1.10064e-05
1.18275e-05
1.27136e-05
1.34555e-05
1.4021e-05
1.44009e-05
1.46884e-05
1.49645e-05
1.52665e-05
1.5607e-05
1.59772e-05
1.63473e-05
1.66716e-05
1.69001e-05
1.69928e-05
1.69275e-05
1.66925e-05
1.63563e-05
1.59588e-05
1.55155e-05
1.50521e-05
1.45921e-05
1.43964e-05
1.4636e-05
1.52267e-05
1.66219e-05
1.47848e-05
1.11534e-05
-5.0685e-05
)
;
    }
    sWall
    {
        type            calculated;
        value           uniform -0.000255405;
    }
    nWall
    {
        type            calculated;
        value           nonuniform List<scalar> 6(-4.52661e-05 -5.50984e-05 -6.13905e-05 -6.6321e-05 -7.21652e-05 -9.19208e-05);
    }
    sideWalls
    {
        type            empty;
        value           nonuniform 0();
    }
    glass1
    {
        type            calculated;
        value           nonuniform List<scalar> 9(-5.67253e-05 -0.000151818 -0.000230375 -0.000295507 -0.000349592 -0.000394638 -0.000434266 -0.000484375 -0.000540961);
    }
    glass2
    {
        type            calculated;
        value           nonuniform List<scalar> 2(-0.000230416 -0.000253214);
    }
    sun
    {
        type            calculated;
        value           uniform 0;
    }
    Table_master
    {
        type            calculated;
        value           nonuniform List<scalar> 9(-1.5254e-07 -1.5261e-07 -1.52634e-07 -1.52649e-07 -1.52657e-07 -1.52661e-07 -1.52659e-07 -1.52649e-07 -1.52611e-07);
    }
    Table_slave
    {
        type            calculated;
        value           nonuniform List<scalar> 9(1.52517e-07 1.52492e-07 1.52446e-07 1.52408e-07 1.52384e-07 1.52384e-07 1.52391e-07 1.52425e-07 1.525e-07);
    }
    inlet
    {
        type            calculated;
        value           uniform -0.00442811;
    }
    outlet
    {
        type            calculated;
        value           nonuniform List<scalar> 2(0.0059186 0.00242783);
    }
}


// ************************************************************************* //
