/*--------------------------------*- C++ -*----------------------------------*\
  =========                 |
  \\      /  F ield         | OpenFOAM: The Open Source CFD Toolbox
   \\    /   O peration     | Website:  https://openfoam.org
    \\  /    A nd           | Version:  6
     \\/     M anipulation  |
\*---------------------------------------------------------------------------*/
FoamFile
{
    version     2.0;
    format      ascii;
    class       volScalarField;
    location    "2800";
    object      epsilon;
}
// * * * * * * * * * * * * * * * * * * * * * * * * * * * * * * * * * * * * * //

dimensions      [0 2 -3 0 0 0 0];

internalField   nonuniform List<scalar> 
458
(
0.000834179
0.0011642
0.00129219
0.00155395
0.00188702
0.00213753
0.00223594
0.00214526
0.00180078
0.00151084
0.00123811
0.000983161
0.000768993
0.000590458
0.000425383
5.04925e-05
8.17187e-05
0.0001238
0.000168779
0.000189691
0.000140769
0.000101964
7.61752e-05
5.85064e-05
4.55349e-05
3.53176e-05
2.67807e-05
1.91915e-05
1.25427e-05
7.27686e-06
3.84654e-06
3.41244e-06
3.1651e-06
0.00189953
0.00235345
0.00111788
0.00118601
0.00144867
0.00165379
0.00170623
0.00158478
0.00133668
0.0010963
0.00088298
0.000708524
0.000580396
0.000491558
0.000405318
0.00063138
0.000456807
0.000280755
4.56494e-05
5.53757e-05
0.000113026
0.000141296
0.000157186
0.00016847
0.000120664
8.20701e-05
5.65611e-05
4.0122e-05
2.93137e-05
2.14818e-05
1.54007e-05
1.0857e-05
8.02891e-06
6.51358e-06
2.16078e-05
1.48213e-05
0.00332947
0.00520835
0.00160881
0.00148982
0.00181955
0.00194687
0.00188074
0.00168661
0.00144047
0.00117797
0.000936392
0.000741005
0.000592951
0.00048267
0.000396838
0.000387548
0.000360788
0.000398434
4.71115e-05
9.48212e-05
0.000128896
0.000153822
0.000175165
0.000338051
0.000205152
0.000119966
6.87956e-05
3.99725e-05
2.57428e-05
1.9407e-05
1.57979e-05
1.3397e-05
1.15757e-05
9.67277e-06
2.39473e-05
2.05575e-05
0.00529566
0.0103173
0.00294671
0.00230915
0.00252964
0.00239603
0.00215014
0.00190164
0.00161039
0.00129263
0.00100178
0.000771353
0.000601995
0.000478612
0.000389117
0.000338028
0.000308918
0.000322812
0.00047821
0.000294344
0.000230268
0.000211314
0.000212351
0.000228631
0.000608183
0.000494859
0.00041322
0.000350097
0.000300678
0.000258166
0.000219209
0.000182002
0.000144924
8.08145e-05
4.4225e-05
3.89178e-05
2.93976e-05
0.00792488
0.0176041
0.00602971
0.00422051
0.00361065
0.00302235
0.00260141
0.00224375
0.00185417
0.00144064
0.00107002
0.000787375
0.000591106
0.000459417
0.000373401
0.000320005
0.000291152
0.000300747
0.000348872
0.000315896
0.000298661
0.000296749
0.000293986
0.000281797
0.000278778
0.000260029
0.000241938
0.00022475
0.000207203
0.00018744
0.000164958
0.000139918
0.000112985
8.16103e-05
5.47205e-05
4.11006e-05
3.76751e-05
4.84685e-05
5.38961e-05
5.85735e-05
0.0111766
0.0249846
0.0121503
0.0070975
0.0049949
0.00386748
0.003201
0.00269466
0.00216683
0.00161388
0.0011303
0.000782161
0.000558544
0.000428626
0.000359041
0.000324343
0.000317272
0.000344899
0.000387044
0.000408406
0.000422753
0.000422235
0.000399724
0.000358081
0.000312979
0.000277303
0.000250764
0.000227387
0.000204348
0.000180425
0.000155257
0.000129115
0.000103121
7.94102e-05
6.14447e-05
5.14699e-05
5.1541e-05
7.27095e-05
0.000173017
0.000146755
0.0132612
0.0274781
0.0171802
0.00953621
0.00630462
0.00474126
0.00388043
0.00323266
0.00252577
0.00177646
0.00114222
0.000731246
0.000503977
0.00040499
0.000368479
0.000363693
0.000385941
0.000437776
0.00049796
0.000538612
0.000548077
0.000523631
0.000471622
0.000404225
0.000339139
0.000288317
0.000250896
0.000221097
0.000194392
0.000169222
0.000145417
0.000123676
0.000105729
9.555e-05
9.8746e-05
0.000127302
0.000183258
0.000234463
0.000431485
0.000315807
0.0129241
0.0228183
0.013966
0.00925069
0.00671886
0.00538064
0.00456828
0.00382381
0.00285133
0.00181026
0.000988517
0.000618131
0.000477223
0.000427576
0.000421177
0.000440958
0.000484238
0.000549916
0.000606623
0.000629798
0.000611889
0.000556137
0.000474629
0.000389955
0.000318756
0.000266373
0.000228097
0.000197459
0.000171391
0.000149455
0.000132766
0.000124068
0.000128776
0.000156208
0.000216955
0.000317292
0.000446337
0.000591855
0.000753778
0.000354019
0.0113612
0.0145847
0.0115289
0.00839044
0.00660055
0.00585113
0.00523455
0.00428673
0.00270934
0.00135959
0.000793516
0.000584337
0.00051198
0.000496534
0.000510203
0.000541977
0.000585778
0.000631619
0.000656129
0.000643477
0.000594466
0.000521139
0.000438723
0.00036234
0.000299973
0.000251919
0.000213721
0.000181847
0.000155316
0.000135202
0.00012401
0.000125201
0.000142405
0.000178266
0.000232966
0.00030235
0.000377498
0.000452158
0.000516079
0.000473744
0.00182065
0.00425023
0.00500767
0.00487082
0.00356724
0.00227366
0.00138245
0.000918384
0.000714581
0.000638405
0.000619621
0.000627943
0.000650029
0.000677746
0.000703102
0.000715622
0.000703839
0.000665563
0.000608672
0.000544835
0.000483586
0.000429927
0.000384241
0.00034431
0.000307655
0.000273163
0.000241218
0.000213437
0.00019245
0.000181699
0.000185165
0.000206863
0.000249678
0.000312032
0.000382049
0.000436179
0.000378981
0.000544856
0.00566987
0.00692068
0.00444058
0.00278628
0.00182215
0.00130539
0.00101601
0.000874423
0.000816685
0.000801793
0.000808116
0.000826041
0.000851053
0.000879781
0.000908211
0.00093117
0.000943108
0.000940859
0.000925309
0.000899975
0.000869189
0.000836556
0.000803689
0.000770275
0.000734835
0.000695807
0.000652046
0.000603207
0.000550239
0.000495956
0.000445305
0.000404695
0.00037948
0.000369134
0.00036706
0.000412148
0.000642539
0.000720778
0.00187893
0.00197736
0.00231999
0.00217224
0.00185541
0.00157596
0.00140085
0.00124772
0.00114018
0.00107611
0.00104607
0.00103948
0.00104701
0.00106048
0.00107267
0.00107697
0.00106767
0.001041
0.000997053
0.00094094
0.000880321
0.000821987
0.000769713
0.00072418
0.000684195
0.00064803
0.000614304
0.000582277
0.000551797
0.000523167
0.000497031
0.000474291
0.000455969
0.000442748
0.000433734
0.000423887
0.000403154
0.000381002
0.000387104
0.000522361
)
;

boundaryField
{
    floor
    {
        Cmu             0.09;
        kappa           0.41;
        E               9.8;
        type            epsilonWallFunction;
        value           nonuniform List<scalar> 
36
(
0.000425383
5.04925e-05
8.17187e-05
0.0001238
0.000168779
0.000189691
0.000140769
0.000101964
7.61752e-05
5.85064e-05
4.55349e-05
3.53176e-05
2.67807e-05
1.91915e-05
1.25427e-05
7.27686e-06
3.84654e-06
3.41244e-06
3.1651e-06
3.1651e-06
1.48213e-05
2.05575e-05
2.93976e-05
4.84685e-05
5.38961e-05
5.85735e-05
0.000425383
0.00063138
0.000456807
0.000280755
5.04925e-05
0.000280755
4.56494e-05
0.000398434
4.71115e-05
0.00047821
)
;
    }
    ceiling
    {
        Cmu             0.09;
        kappa           0.41;
        E               9.8;
        type            epsilonWallFunction;
        value           nonuniform List<scalar> 
43
(
0.00187893
0.00197736
0.00231999
0.00217224
0.00185541
0.00157596
0.00140085
0.00124772
0.00114018
0.00107611
0.00104607
0.00103948
0.00104701
0.00106048
0.00107267
0.00107697
0.00106767
0.001041
0.000997053
0.00094094
0.000880321
0.000821987
0.000769713
0.00072418
0.000684195
0.00064803
0.000614304
0.000582277
0.000551797
0.000523167
0.000497031
0.000474291
0.000455969
0.000442748
0.000433734
0.000423887
0.000403154
0.000381002
0.000387104
0.000522361
0.0113612
0.0145847
0.00566987
)
;
    }
    sWall
    {
        Cmu             0.09;
        kappa           0.41;
        E               9.8;
        type            epsilonWallFunction;
        value           uniform 0.00187893;
    }
    nWall
    {
        Cmu             0.09;
        kappa           0.41;
        E               9.8;
        type            epsilonWallFunction;
        value           nonuniform List<scalar> 6(5.85735e-05 0.000146755 0.000315807 0.000544856 0.000720778 0.000522361);
    }
    sideWalls
    {
        type            empty;
    }
    glass1
    {
        Cmu             0.09;
        kappa           0.41;
        E               9.8;
        type            epsilonWallFunction;
        value           nonuniform List<scalar> 9(0.000834179 0.00189953 0.00332947 0.00529566 0.00792488 0.0111766 0.0132612 0.0129241 0.0113612);
    }
    glass2
    {
        Cmu             0.09;
        kappa           0.41;
        E               9.8;
        type            epsilonWallFunction;
        value           nonuniform List<scalar> 2(0.000354019 0.000473744);
    }
    sun
    {
        Cmu             0.09;
        kappa           0.41;
        E               9.8;
        type            epsilonWallFunction;
        value           nonuniform List<scalar> 
14
(
0.000834179
0.0011642
0.00129219
0.00155395
0.00188702
0.00213753
0.00223594
0.00214526
0.00180078
0.00151084
0.00123811
0.000983161
0.000768993
0.000590458
)
;
    }
    Table_master
    {
        Cmu             0.09;
        kappa           0.41;
        E               9.8;
        type            epsilonWallFunction;
        value           nonuniform List<scalar> 9(0.000338051 0.000205152 0.000119966 6.87956e-05 3.99725e-05 2.57428e-05 1.9407e-05 1.57979e-05 1.3397e-05);
    }
    Table_slave
    {
        Cmu             0.09;
        kappa           0.41;
        E               9.8;
        type            epsilonWallFunction;
        value           nonuniform List<scalar> 9(0.000608183 0.000494859 0.00041322 0.000350097 0.000300678 0.000258166 0.000219209 0.000182002 0.000144924);
    }
    inlet
    {
        type            turbulentMixingLengthDissipationRateInlet;
        mixingLength    0.01;
        phi             phi;
        k               k;
        value           uniform 0.000471672;
    }
    outlet
    {
        type            zeroGradient;
    }
}


// ************************************************************************* //
