/*--------------------------------*- C++ -*----------------------------------*\
  =========                 |
  \\      /  F ield         | OpenFOAM: The Open Source CFD Toolbox
   \\    /   O peration     | Website:  https://openfoam.org
    \\  /    A nd           | Version:  6
     \\/     M anipulation  |
\*---------------------------------------------------------------------------*/
FoamFile
{
    version     2.0;
    format      ascii;
    class       volScalarField;
    location    "2800";
    object      nut;
}
// * * * * * * * * * * * * * * * * * * * * * * * * * * * * * * * * * * * * * //

dimensions      [0 2 -1 0 0 0 0];

internalField   nonuniform List<scalar> 
458
(
0.00133086
0.00148726
0.00153987
0.00163752
0.00174702
0.00182114
0.00184866
0.0018233
0.00171995
0.00162219
0.00151802
0.00140572
0.00129518
0.00118601
0.0010632
0.000522558
0.000613522
0.000704651
0.000781337
0.000812358
0.000735508
0.000660562
0.000599402
0.00054896
0.00050501
0.00046407
0.000423287
0.000378922
0.000328976
0.000274472
0.000221887
0.000212907
0.000207601
0.00175094
0.00507718
0.00519913
0.00589209
0.00634767
0.00665091
0.00682863
0.00691348
0.00681673
0.00654187
0.00614762
0.00566033
0.00489805
0.00386132
0.00259205
0.00121275
0.00108872
0.000925655
0.000505293
0.00104446
0.001934
0.0025814
0.00278608
0.00173934
0.00135462
0.00111007
0.000951609
0.000854036
0.000781761
0.000688
0.000586787
0.000495892
0.000434682
0.000400434
0.000562032
0.000347195
0.00211114
0.0072188
0.00673186
0.00714196
0.00720315
0.00717591
0.00721829
0.00739546
0.00751539
0.00748809
0.00730581
0.00700483
0.00651636
0.00569732
0.00453891
0.0031776
0.00244001
0.00104019
0.000510641
0.00106995
0.00189266
0.00286175
0.00324991
0.000984903
0.000833886
0.00069736
0.000579394
0.000483446
0.000417395
0.000379857
0.000354689
0.000335736
0.000363915
0.000387778
0.000590652
0.000387162
0.00246434
0.00930129
0.00797887
0.00794396
0.00743804
0.00699837
0.00690991
0.00712532
0.00738245
0.00750639
0.00746664
0.00730474
0.00702341
0.00652677
0.00573258
0.0046627
0.00362548
0.00204799
0.00110543
0.00108868
0.00158641
0.00263241
0.0038431
0.00428729
0.00119782
0.00111823
0.00105299
0.000996374
0.000947089
0.000900161
0.000852386
0.000801134
0.000742544
0.000631872
0.000524075
0.000622315
0.000436207
0.00281876
0.0116433
0.010013
0.00903497
0.00765568
0.00686975
0.00673382
0.00699364
0.00733441
0.00753989
0.00756448
0.00746171
0.00727945
0.00699409
0.00651152
0.00579332
0.00493606
0.00384794
0.00338028
0.00369989
0.00453842
0.00557607
0.0064626
0.00688148
0.00624623
0.00576036
0.00538289
0.00505782
0.0046439
0.00416626
0.00363299
0.00303855
0.00238355
0.00171697
0.00119241
0.000914118
0.000699315
0.000515452
0.000533975
0.000548931
0.00316103
0.0137045
0.0125284
0.00965051
0.00765977
0.00675917
0.00667725
0.00705029
0.00750257
0.00778498
0.00786744
0.00783858
0.00779916
0.00771006
0.00749425
0.00713223
0.00670231
0.00630523
0.00646358
0.00721584
0.00804241
0.00868506
0.00902921
0.0090359
0.00870984
0.00827536
0.00780495
0.00724544
0.00660939
0.00590792
0.00514694
0.00432789
0.00346291
0.00261403
0.00192309
0.00146749
0.00122218
0.0012631
0.0015119
0.000745585
0.00334646
0.0140107
0.0123769
0.00886531
0.0070339
0.00643946
0.00666378
0.00728733
0.00790514
0.00828048
0.0084855
0.00867439
0.00893245
0.00902221
0.00897678
0.00887926
0.00882552
0.0089453
0.00944152
0.0101058
0.0105729
0.0107407
0.0106261
0.0102755
0.00977052
0.00920163
0.00856785
0.00787243
0.00711739
0.00631238
0.00546881
0.00460245
0.00374811
0.00298562
0.00242437
0.00212752
0.00205557
0.00211542
0.00232375
0.000962444
0.00331786
0.0101097
0.00792883
0.00628199
0.0056947
0.00598841
0.00682302
0.00780376
0.00857603
0.00902849
0.00959643
0.010109
0.010294
0.0103423
0.0103581
0.0104135
0.0105643
0.0108549
0.0112723
0.0116089
0.0116888
0.0114722
0.0110185
0.0103979
0.00968871
0.00895025
0.00819181
0.00739746
0.00655865
0.00567705
0.00476141
0.00383915
0.00300031
0.00241351
0.00215032
0.00209809
0.00208062
0.00203357
0.00196694
0.000999854
0.00317833
0.00345428
0.00350442
0.00375693
0.00468736
0.00618661
0.007665
0.00874381
0.00942004
0.0100746
0.0105827
0.0108065
0.0108245
0.0108168
0.0108691
0.0109973
0.0111912
0.0114131
0.0115679
0.0115343
0.0112494
0.0107306
0.0100416
0.00926215
0.00845951
0.00766759
0.00687815
0.0060686
0.00522662
0.00436214
0.00352298
0.00280574
0.002308
0.00203687
0.00190565
0.00181389
0.0017012
0.00157133
0.00142399
0.00110181
0.00124366
0.00515961
0.00805608
0.00972692
0.0101095
0.0099656
0.00994289
0.0101033
0.0101545
0.0100717
0.0100051
0.0100212
0.0101085
0.0102269
0.0103252
0.0103364
0.0101827
0.00982248
0.00927282
0.0085968
0.00787111
0.00715781
0.00648831
0.00586386
0.00527022
0.00469706
0.00414625
0.00363043
0.00316836
0.00277988
0.00248122
0.00227829
0.00215709
0.00208082
0.00200742
0.00192409
0.00172865
0.00115453
0.00252106
0.00822071
0.00894476
0.00894821
0.00856594
0.00821104
0.00795591
0.00773568
0.00755099
0.00744751
0.00743225
0.00748003
0.00755701
0.00762739
0.00765277
0.00759339
0.00741943
0.00713186
0.00676392
0.00636316
0.00597008
0.00560686
0.00527765
0.00497596
0.00469261
0.00442076
0.00415645
0.00389749
0.00364294
0.00339368
0.00315333
0.00292804
0.00272243
0.00253031
0.0023325
0.00234934
0.00249015
0.00126727
0.00174457
0.00177452
0.00187158
0.00183089
0.00173712
0.00164511
0.00158178
0.00152189
0.00147684
0.00144864
0.00143503
0.00143201
0.00143545
0.00144159
0.00144709
0.00144902
0.00144485
0.00143272
0.00141228
0.00138529
0.00135489
0.00132429
0.00129561
0.00126955
0.00124574
0.0012234
0.00120179
0.00118051
0.00115952
0.00113909
0.00111976
0.00110239
0.00108798
0.00107733
0.00106996
0.0010618
0.00104418
0.00102469
0.00103013
0.00113807
)
;

boundaryField
{
    floor
    {
        type            nutkWallFunction;
        Cmu             0.09;
        kappa           0.41;
        E               9.8;
        value           nonuniform List<scalar> 
36
(
0.000128141
6.25738e-05
7.40253e-05
8.52899e-05
9.4635e-05
9.83839e-05
8.90611e-05
7.98583e-05
7.22547e-05
6.59111e-05
6.03232e-05
5.50615e-05
4.9759e-05
4.39158e-05
3.72334e-05
2.9796e-05
2.24469e-05
2.12015e-05
2.04465e-05
2.04464e-05
3.97402e-05
4.50576e-05
5.14832e-05
6.16693e-05
6.40274e-05
6.59268e-05
0.000128141
0.000145488
0.000131124
0.000111946
6.25737e-05
0.000111946
6.03727e-05
0.000125456
6.10542e-05
0.000133074
)
;
    }
    ceiling
    {
        type            nutkWallFunction;
        Cmu             0.09;
        kappa           0.41;
        E               9.8;
        value           nonuniform List<scalar> 
43
(
0.000205501
0.000208766
0.000219435
0.000214986
0.000204646
0.000194434
0.000187367
0.000180658
0.000175591
0.000172411
0.000170874
0.000170534
0.000170924
0.000171618
0.000172241
0.00017246
0.000171989
0.000170618
0.000168305
0.000165244
0.000161789
0.000158301
0.000155025
0.000152041
0.000149309
0.00014674
0.000144251
0.000141796
0.00013937
0.000137004
0.000134762
0.000132743
0.000131066
0.000129826
0.000128965
0.000128011
0.000125951
0.000123665
0.000124305
0.000136927
0.000358689
0.000387211
0.000289453
)
;
    }
    sWall
    {
        type            nutkWallFunction;
        Cmu             0.09;
        kappa           0.41;
        E               9.8;
        value           uniform 0.000205549;
    }
    nWall
    {
        type            nutkWallFunction;
        Cmu             0.09;
        kappa           0.41;
        E               9.8;
        value           nonuniform List<scalar> 6(6.59208e-05 9.03065e-05 0.000116337 0.00013881 0.000151815 0.000136934);
    }
    sideWalls
    {
        type            empty;
    }
    glass1
    {
        type            nutkWallFunction;
        Cmu             0.09;
        kappa           0.41;
        E               9.8;
        value           nonuniform List<scalar> 9(0.000159182 0.000206395 0.00024588 0.000283897 0.000321471 0.000357294 0.000376537 0.000373591 0.000359132);
    }
    glass2
    {
        type            nutkWallFunction;
        Cmu             0.09;
        kappa           0.41;
        E               9.8;
        value           nonuniform List<scalar> 2(0.000120761 0.00013271);
    }
    sun
    {
        type            nutkWallFunction;
        Cmu             0.09;
        kappa           0.41;
        E               9.8;
        value           nonuniform List<scalar> 
14
(
0.000159007
0.000176708
0.000182617
0.000193526
0.000205676
0.000213853
0.00021688
0.000214093
0.000202686
0.000191824
0.000180173
0.000167511
0.000154938
0.000142401
)
;
    }
    Table_master
    {
        type            nutkWallFunction;
        Cmu             0.09;
        kappa           0.41;
        E               9.8;
        value           nonuniform List<scalar> 9(0.000118947 0.000100972 8.43904e-05 6.97491e-05 5.75755e-05 4.90279e-05 4.40907e-05 4.07427e-05 3.82012e-05);
    }
    Table_slave
    {
        type            nutkWallFunction;
        Cmu             0.09;
        kappa           0.41;
        E               9.8;
        value           nonuniform List<scalar> 9(0.000143766 0.000134557 0.000126952 0.000120308 0.000114488 0.000108914 0.000103205 9.70382e-05 8.99308e-05);
    }
    inlet
    {
        type            calculated;
        value           uniform 0.000167705;
    }
    outlet
    {
        type            calculated;
        value           nonuniform List<scalar> 2(0.00174457 0.00177452);
    }
}


// ************************************************************************* //
