/*--------------------------------*- C++ -*----------------------------------*\
  =========                 |
  \\      /  F ield         | OpenFOAM: The Open Source CFD Toolbox
   \\    /   O peration     | Website:  https://openfoam.org
    \\  /    A nd           | Version:  6
     \\/     M anipulation  |
\*---------------------------------------------------------------------------*/
FoamFile
{
    version     2.0;
    format      ascii;
    class       volScalarField;
    location    "2800";
    object      T;
}
// * * * * * * * * * * * * * * * * * * * * * * * * * * * * * * * * * * * * * //

dimensions      [0 0 0 1 0 0 0];

internalField   nonuniform List<scalar> 
458
(
303.417
303.153
303.126
303.112
303.098
303.088
303.085
303.1
303.145
303.175
303.201
303.223
303.243
303.265
303.295
304.115
304.044
303.991
303.959
303.958
303.989
304.026
304.066
304.109
304.156
304.204
304.251
304.29
304.317
304.323
304.3
304.25
304.205
303.565
303.179
303.124
303.099
303.077
303.052
303.041
303.067
303.119
303.167
303.205
303.233
303.254
303.273
303.293
303.311
303.337
303.386
304.141
304.06
303.919
303.885
303.889
303.916
303.953
303.998
304.05
304.109
304.17
304.229
304.28
304.318
304.338
304.336
304.319
304.273
303.724
303.229
303.152
303.118
303.082
303.031
303.006
303.041
303.108
303.176
303.231
303.267
303.289
303.303
303.315
303.329
303.347
303.382
304.133
303.943
303.839
303.817
303.838
303.868
303.91
303.964
304.035
304.123
304.21
304.277
304.325
304.356
304.367
304.368
304.357
304.323
303.886
303.306
303.209
303.17
303.103
303.014
302.976
303.018
303.106
303.201
303.278
303.327
303.35
303.36
303.363
303.367
303.374
303.389
303.413
303.544
303.589
303.654
303.736
303.818
303.885
303.936
303.979
304.016
304.052
304.085
304.115
304.143
304.17
304.24
304.299
304.334
304.333
304.047
303.407
303.297
303.248
303.116
302.989
302.947
303.001
303.118
303.249
303.354
303.417
303.444
303.448
303.44
303.432
303.428
303.434
303.459
303.516
303.597
303.702
303.816
303.922
304.012
304.081
304.135
304.183
304.22
304.249
304.27
304.282
304.287
304.294
304.312
304.334
304.338
304.348
304.364
304.422
304.199
303.533
303.412
303.298
303.1
302.948
302.911
302.993
303.155
303.331
303.469
303.547
303.578
303.572
303.551
303.534
303.526
303.537
303.582
303.663
303.77
303.891
304.01
304.116
304.201
304.266
304.319
304.356
304.383
304.401
304.41
304.41
304.401
304.385
304.373
304.37
304.37
304.382
304.399
304.438
304.372
303.711
303.572
303.303
303.016
302.858
302.864
303.007
303.236
303.468
303.637
303.722
303.747
303.728
303.701
303.685
303.688
303.722
303.798
303.908
304.03
304.152
304.262
304.354
304.424
304.477
304.51
304.531
304.544
304.55
304.548
304.539
304.521
304.497
304.474
304.46
304.456
304.466
304.465
304.47
304.598
304.112
303.697
303.138
302.78
302.702
302.829
303.082
303.404
303.69
303.874
303.939
303.938
303.919
303.903
303.904
303.929
303.992
304.094
304.217
304.339
304.444
304.536
304.605
304.652
304.678
304.693
304.7
304.702
304.699
304.691
304.68
304.665
304.65
304.637
304.628
304.622
304.607
304.584
304.596
304.937
304.692
303.177
302.344
302.232
302.536
302.932
303.336
303.753
304.03
304.134
304.16
304.16
304.159
304.167
304.194
304.245
304.326
304.431
304.544
304.647
304.729
304.789
304.829
304.852
304.863
304.868
304.868
304.865
304.859
304.851
304.844
304.838
304.839
304.853
304.885
304.938
305.003
305.083
305.22
294.881
298.943
301.714
303.191
303.792
304.075
304.247
304.339
304.384
304.407
304.424
304.445
304.477
304.523
304.587
304.667
304.756
304.842
304.914
304.968
305.004
305.025
305.036
305.041
305.041
305.037
305.031
305.022
305.01
304.997
304.985
304.978
304.983
305.004
305.044
305.105
305.225
305.399
302.497
303.089
303.769
304.179
304.391
304.499
304.568
304.617
304.653
304.684
304.715
304.751
304.793
304.844
304.902
304.966
305.029
305.084
305.128
305.159
305.179
305.19
305.195
305.196
305.193
305.188
305.18
305.168
305.154
305.138
305.122
305.108
305.1
305.103
305.13
305.195
305.306
305.391
305.798
304.591
304.114
304.524
304.675
304.764
304.818
304.864
304.906
304.944
304.98
305.015
305.049
305.083
305.119
305.155
305.192
305.227
305.258
305.283
305.302
305.314
305.321
305.325
305.325
305.324
305.32
305.315
305.308
305.299
305.288
305.276
305.263
305.251
305.242
305.244
305.281
305.354
305.444
305.572
)
;

boundaryField
{
    floor
    {
        type            wallHeatTransfer;
        Tinf            uniform 305.2;
        alphaWall       uniform 0.24;
        value           nonuniform List<scalar> 
36
(
303.499
304.308
304.228
304.166
304.126
304.12
304.159
304.204
304.249
304.297
304.346
304.396
304.445
304.49
304.528
304.556
304.569
304.54
304.513
304.513
304.488
304.512
304.507
304.501
304.511
304.556
303.499
303.493
303.533
303.601
304.308
303.601
304.334
303.58
304.326
303.598
)
;
    }
    ceiling
    {
        type            wallHeatTransfer;
        Tinf            uniform 303.2;
        alphaWall       uniform 0.24;
        value           nonuniform List<scalar> 
43
(
305.608
304.491
304.051
304.431
304.567
304.645
304.69
304.729
304.764
304.797
304.829
304.86
304.891
304.923
304.956
304.99
305.023
305.054
305.081
305.101
305.115
305.123
305.126
305.126
305.123
305.119
305.113
305.105
305.096
305.085
305.073
305.06
305.046
305.034
305.025
305.024
305.055
305.117
305.197
305.331
304.859
304.63
302.535
)
;
    }
    sWall
    {
        type            wallHeatTransfer;
        Tinf            uniform 315.2;
        alphaWall       uniform 0.36;
        value           uniform 306.795;
    }
    nWall
    {
        type            wallHeatTransfer;
        Tinf            uniform 307.2;
        alphaWall       uniform 0.36;
        value           nonuniform List<scalar> 6(305.083 304.977 304.917 305.659 305.635 305.81);
    }
    sideWalls
    {
        type            empty;
    }
    glass1
    {
        type            wallHeatTransfer;
        Tinf            uniform 315.2;
        alphaWall       uniform 4.3;
        value           nonuniform List<scalar> 9(311.004 310.407 310.016 309.709 309.459 309.262 309.221 309.367 309.651);
    }
    glass2
    {
        type            wallHeatTransfer;
        Tinf            uniform 307.2;
        alphaWall       uniform 4.3;
        value           nonuniform List<scalar> 2(306.405 306.561);
    }
    sun
    {
        type            wallHeatTransfer;
        Tinf            uniform 305.2;
        alphaWall       uniform 0.24;
        value           nonuniform List<scalar> 
14
(
303.577
303.322
303.293
303.271
303.251
303.236
303.232
303.248
303.296
303.331
303.363
303.393
303.423
303.455
)
;
    }
    Table_master
    {
        type            zeroGradient;
    }
    Table_slave
    {
        type            zeroGradient;
    }
    inlet
    {
        type            fixedValue;
        value           uniform 293.15;
    }
    outlet
    {
        type            zeroGradient;
    }
}


// ************************************************************************* //
