/*--------------------------------*- C++ -*----------------------------------*\
  =========                 |
  \\      /  F ield         | OpenFOAM: The Open Source CFD Toolbox
   \\    /   O peration     | Website:  https://openfoam.org
    \\  /    A nd           | Version:  6
     \\/     M anipulation  |
\*---------------------------------------------------------------------------*/
FoamFile
{
    version     2.0;
    format      ascii;
    class       volVectorField;
    location    "2800";
    object      U;
}
// * * * * * * * * * * * * * * * * * * * * * * * * * * * * * * * * * * * * * //

dimensions      [0 1 -1 0 0 0 0];

internalField   nonuniform List<vector> 
458
(
(0.0103165 0.0873289 0)
(-0.178723 0.0229203 0)
(-0.201417 0.00257771 0)
(-0.209045 -0.013051 0)
(-0.189219 -0.0294851 0)
(-0.146718 -0.0456281 0)
(-0.0891163 -0.0574532 0)
(-0.025243 -0.0612812 0)
(0.0450088 -0.0483461 0)
(0.0867199 -0.0348347 0)
(0.11778 -0.022424 0)
(0.134643 -0.0110169 0)
(0.134934 0.00113235 0)
(0.114796 0.0202707 0)
(0.0894456 0.0661204 0)
(-0.0329756 0.0179578 0)
(-0.0535339 -0.0048152 0)
(-0.0434329 -0.0198313 0)
(-0.0212475 -0.0289392 0)
(0.0121773 -0.0291362 0)
(0.0328323 -0.0166308 0)
(0.0493096 -0.0104513 0)
(0.060872 -0.00823626 0)
(0.0685631 -0.00689251 0)
(0.0736239 -0.00510986 0)
(0.0756142 -0.00279367 0)
(0.0735856 -5.37948e-05 0)
(0.0678335 0.00279621 0)
(0.0586324 0.0057571 0)
(0.0458681 0.00916375 0)
(0.0286216 0.0109526 0)
(0.0235638 0.00524672 0)
(-0.0533282 0.003765 0)
(0.171093 0.183445 0)
(-0.156274 0.0742637 0)
(-0.15711 0.0341328 0)
(-0.166396 -0.00195579 0)
(-0.148243 -0.0414041 0)
(-0.109539 -0.075698 0)
(-0.0594825 -0.0961736 0)
(-0.00558848 -0.0974595 0)
(0.0429532 -0.0793935 0)
(0.0791811 -0.0560377 0)
(0.105731 -0.0331553 0)
(0.1214 -0.0110919 0)
(0.127743 0.0115103 0)
(0.128813 0.0374307 0)
(0.131801 0.0749232 0)
(0.140482 0.0686647 0)
(0.0996686 0.0645774 0)
(0.0284787 0.0739609 0)
(0.00430991 0.0460183 0)
(-0.0225699 0.00928453 0)
(0.0160632 -0.0326057 0)
(0.0287759 -0.0425291 0)
(0.0446107 -0.0414509 0)
(0.0507981 -0.0233985 0)
(0.0529358 -0.0112306 0)
(0.0541677 -0.00709032 0)
(0.0554688 -0.0051319 0)
(0.0569571 -0.00203327 0)
(0.0580849 0.00244558 0)
(0.0577416 0.00679024 0)
(0.0568164 0.010487 0)
(0.0555548 0.0142761 0)
(0.0517262 0.0207743 0)
(0.0416218 0.0249456 0)
(0.0391951 0.0231316 0)
(-0.0538212 0.0175154 0)
(0.314792 0.2726 0)
(-0.160502 0.114321 0)
(-0.118514 0.0528733 0)
(-0.125948 -0.00743411 0)
(-0.104738 -0.0707846 0)
(-0.0670197 -0.12087 0)
(-0.023921 -0.145533 0)
(0.0183004 -0.140465 0)
(0.0521778 -0.115777 0)
(0.080022 -0.0842819 0)
(0.100211 -0.0524604 0)
(0.112549 -0.0224733 0)
(0.119078 0.00614139 0)
(0.122274 0.0342334 0)
(0.125709 0.0597412 0)
(0.123126 0.0575771 0)
(0.0999266 0.0653326 0)
(0.0430709 0.102781 0)
(0.0505339 0.0222885 0)
(0.0562554 -0.0230725 0)
(0.0691816 -0.0459213 0)
(0.0754617 -0.0538622 0)
(0.0821182 -0.0549064 0)
(0.0775887 -0.0435039 0)
(0.0587352 -0.0290757 0)
(0.0431011 -0.020849 0)
(0.0337205 -0.0156906 0)
(0.0279803 -0.0107701 0)
(0.02633 -0.00522289 0)
(0.0296725 -0.000154521 0)
(0.0364063 0.00361012 0)
(0.047046 0.00859484 0)
(0.0535565 0.0244004 0)
(0.0485719 0.0343736 0)
(0.0486973 0.0391247 0)
(-0.0424085 0.0415051 0)
(0.439681 0.343391 0)
(-0.179676 0.1496 0)
(-0.0831844 0.0696081 0)
(-0.0822458 -0.0139814 0)
(-0.052085 -0.102179 0)
(-0.0159759 -0.162412 0)
(0.0189047 -0.185163 0)
(0.0454893 -0.173919 0)
(0.0678006 -0.143444 0)
(0.0852005 -0.104847 0)
(0.0968497 -0.0656891 0)
(0.103274 -0.0297926 0)
(0.10633 0.0022275 0)
(0.107556 0.0308518 0)
(0.110141 0.0548161 0)
(0.112409 0.0668805 0)
(0.116291 0.0819078 0)
(0.115628 0.112261 0)
(0.150792 0.0921174 0)
(0.129035 0.0322297 0)
(0.125042 -0.0103168 0)
(0.119819 -0.0372208 0)
(0.110103 -0.0478609 0)
(0.0970184 -0.0467331 0)
(0.0932615 -0.0281375 0)
(0.104926 -0.0169367 0)
(0.113279 -0.0107781 0)
(0.115219 -0.00700527 0)
(0.113174 -0.0041623 0)
(0.109026 -0.00181444 0)
(0.103 0.000381357 0)
(0.0943518 0.00298098 0)
(0.0822206 0.00662242 0)
(0.0683113 0.0238471 0)
(0.0597962 0.0405238 0)
(0.06008 0.0553137 0)
(-0.0251574 0.0750488 0)
(0.543816 0.397646 0)
(-0.203987 0.177191 0)
(-0.0512187 0.0753238 0)
(-0.0270261 -0.0319844 0)
(0.0134875 -0.139146 0)
(0.0430945 -0.195249 0)
(0.0634004 -0.209505 0)
(0.0765553 -0.193238 0)
(0.0848644 -0.15774 0)
(0.0891463 -0.113863 0)
(0.0898705 -0.0700186 0)
(0.0883343 -0.0311361 0)
(0.0861287 0.00193914 0)
(0.0850715 0.0297217 0)
(0.0878985 0.0518502 0)
(0.0939543 0.0661717 0)
(0.104659 0.0771634 0)
(0.119079 0.0806958 0)
(0.135674 0.0398217 0)
(0.136841 0.00438713 0)
(0.133809 -0.0198457 0)
(0.125213 -0.0335568 0)
(0.112629 -0.0375782 0)
(0.0991411 -0.032493 0)
(0.0914703 -0.0167472 0)
(0.0900816 -0.00582122 0)
(0.088893 4.03886e-05 0)
(0.085409 0.00365341 0)
(0.0810552 0.00634617 0)
(0.0765062 0.00868661 0)
(0.0718739 0.0112059 0)
(0.0670588 0.0146877 0)
(0.0621458 0.0204772 0)
(0.059054 0.032989 0)
(0.0591176 0.0475018 0)
(0.0741296 0.063683 0)
(0.0565824 0.0798946 0)
(0.0935357 0.0812974 0)
(0.113467 0.0845503 0)
(-0.168689 0.10348 0)
(0.623171 0.440304 0)
(-0.229264 0.190208 0)
(-0.0165171 0.0559622 0)
(0.0502585 -0.0862035 0)
(0.0871091 -0.172724 0)
(0.105733 -0.214851 0)
(0.111152 -0.219614 0)
(0.107218 -0.196652 0)
(0.0977634 -0.156321 0)
(0.0858877 -0.109047 0)
(0.073473 -0.0633337 0)
(0.0625289 -0.0245486 0)
(0.0539398 0.00661357 0)
(0.0512904 0.03019 0)
(0.0547517 0.0471862 0)
(0.0626423 0.05741 0)
(0.074671 0.061976 0)
(0.0908334 0.0563484 0)
(0.10471 0.0301696 0)
(0.109112 0.00670957 0)
(0.106016 -0.0104062 0)
(0.0973251 -0.0207217 0)
(0.0856604 -0.0238713 0)
(0.0734759 -0.020215 0)
(0.0639545 -0.0108792 0)
(0.0580642 -0.00261433 0)
(0.053247 0.00289441 0)
(0.0492187 0.006427 0)
(0.0455938 0.00894349 0)
(0.0425361 0.0110659 0)
(0.0401866 0.0133427 0)
(0.0387935 0.0164766 0)
(0.0388696 0.0215068 0)
(0.0422717 0.0305256 0)
(0.0498969 0.0419668 0)
(0.0684666 0.0545515 0)
(0.0789254 0.0553681 0)
(0.0918022 0.0285226 0)
(0.117594 0.0327929 0)
(-0.137079 0.0878711 0)
(0.710576 0.477977 0)
(-0.234271 0.155005 0)
(0.0602183 -0.0610005 0)
(0.146484 -0.157638 0)
(0.174972 -0.205919 0)
(0.173967 -0.222057 0)
(0.156615 -0.210805 0)
(0.129388 -0.179501 0)
(0.0979142 -0.135621 0)
(0.0675793 -0.08794 0)
(0.0413909 -0.0441258 0)
(0.0220283 -0.0097173 0)
(0.0101218 0.0146251 0)
(0.00906521 0.0302043 0)
(0.0144365 0.0406045 0)
(0.0239693 0.0462673 0)
(0.0366354 0.0471331 0)
(0.0514454 0.040639 0)
(0.0623496 0.0240744 0)
(0.065585 0.00751859 0)
(0.0626377 -0.0046767 0)
(0.0549511 -0.0115098 0)
(0.0446948 -0.0129905 0)
(0.0339405 -0.00976204 0)
(0.0248067 -0.00326259 0)
(0.0177863 0.00307912 0)
(0.0136136 0.0072988 0)
(0.0106713 0.00984415 0)
(0.00850836 0.0115134 0)
(0.00708251 0.0127777 0)
(0.00652536 0.0139759 0)
(0.00719743 0.0154715 0)
(0.00978698 0.0177308 0)
(0.016081 0.0215534 0)
(0.0270269 0.0257338 0)
(0.0460553 0.027835 0)
(0.0658436 0.0163068 0)
(0.0842345 -0.00609846 0)
(0.120425 0.0282993 0)
(-0.100491 0.137335 0)
(0.829684 0.457103 0)
(0.0167175 0.113867 0)
(0.192844 -0.120746 0)
(0.282913 -0.193651 0)
(0.282137 -0.210028 0)
(0.240871 -0.200254 0)
(0.186283 -0.173494 0)
(0.127854 -0.136341 0)
(0.0713298 -0.0929457 0)
(0.0238936 -0.0499938 0)
(-0.0118376 -0.0134851 0)
(-0.0311934 0.00762798 0)
(-0.0363986 0.0190788 0)
(-0.0344114 0.0266251 0)
(-0.0277297 0.0319817 0)
(-0.0179956 0.0347735 0)
(-0.00638674 0.0343073 0)
(0.00574245 0.0289803 0)
(0.013308 0.0185138 0)
(0.01488 0.00800748 0)
(0.0115465 0.000459505 0)
(0.00526404 -0.00332696 0)
(-0.00346304 -0.00331303 0)
(-0.0123293 -0.000377918 0)
(-0.0195109 0.00390867 0)
(-0.023757 0.00757616 0)
(-0.0262715 0.0100304 0)
(-0.0278807 0.0115812 0)
(-0.029005 0.0125665 0)
(-0.0298599 0.0131841 0)
(-0.0306298 0.0135633 0)
(-0.0316278 0.0138398 0)
(-0.033482 0.0143498 0)
(-0.0371115 0.0161378 0)
(-0.0443665 0.0206056 0)
(-0.0560099 0.0292065 0)
(-0.0718242 0.0442821 0)
(-0.0875584 0.0756402 0)
(-0.136149 0.126598 0)
(-0.427531 0.185971 0)
(0.988906 0.390889 0)
(0.46419 0.233195 0)
(0.401654 0.0448926 0)
(0.415244 -0.0732243 0)
(0.355293 -0.122202 0)
(0.256219 -0.122479 0)
(0.157989 -0.0989823 0)
(0.0705961 -0.0661188 0)
(-0.00492002 -0.0289063 0)
(-0.0529021 -0.0025663 0)
(-0.0742064 0.00941944 0)
(-0.0811559 0.0149172 0)
(-0.081135 0.0185865 0)
(-0.0770297 0.0216842 0)
(-0.0701865 0.0241324 0)
(-0.0616808 0.0252906 0)
(-0.0525812 0.0245304 0)
(-0.0443882 0.021317 0)
(-0.0396073 0.0158174 0)
(-0.0390613 0.0102334 0)
(-0.041997 0.00623883 0)
(-0.0469654 0.00449753 0)
(-0.0525629 0.00480839 0)
(-0.0574615 0.006356 0)
(-0.0609406 0.00834873 0)
(-0.0629491 0.0101289 0)
(-0.0640709 0.0115203 0)
(-0.0648473 0.012615 0)
(-0.0657301 0.0135821 0)
(-0.0671626 0.014643 0)
(-0.0696832 0.0161543 0)
(-0.0739888 0.0187182 0)
(-0.0808994 0.0231856 0)
(-0.0913725 0.0303103 0)
(-0.106893 0.0399818 0)
(-0.128394 0.050274 0)
(-0.153626 0.05573 0)
(-0.182196 0.0472939 0)
(-0.248067 0.0145962 0)
(-0.427458 -0.0551165 0)
(-0.187726 -0.288179 0)
(0.0660633 -0.164129 0)
(0.0732733 -0.104782 0)
(-0.000447723 -0.0480159 0)
(-0.0583569 -0.00845401 0)
(-0.0977317 0.010415 0)
(-0.120248 0.0181959 0)
(-0.128209 0.0192688 0)
(-0.129965 0.0187635 0)
(-0.128366 0.0184247 0)
(-0.124714 0.018755 0)
(-0.119564 0.0196436 0)
(-0.113335 0.0206696 0)
(-0.10656 0.0213329 0)
(-0.0999482 0.0212486 0)
(-0.0944759 0.0202016 0)
(-0.09126 0.0183578 0)
(-0.0905835 0.016578 0)
(-0.0918689 0.0155842 0)
(-0.0941377 0.015705 0)
(-0.0964237 0.0168562 0)
(-0.0980392 0.0186424 0)
(-0.0987175 0.0206702 0)
(-0.0985459 0.0226691 0)
(-0.0977838 0.024558 0)
(-0.0966634 0.0263263 0)
(-0.0953686 0.0280054 0)
(-0.0940495 0.029696 0)
(-0.09282 0.0316402 0)
(-0.0917031 0.0343371 0)
(-0.0905318 0.0386656 0)
(-0.088904 0.0458559 0)
(-0.086346 0.0570814 0)
(-0.0822605 0.0725339 0)
(-0.0746284 0.0886551 0)
(-0.0595782 0.0927646 0)
(-0.00996577 0.0457342 0)
(-0.0892348 -0.159388 0)
(-0.0681053 0.114773 0)
(-0.0892244 -0.0222513 0)
(-0.130002 -0.0422555 0)
(-0.164959 -0.0321594 0)
(-0.181942 -0.0228232 0)
(-0.186022 -0.0194044 0)
(-0.185104 -0.01941 0)
(-0.181465 -0.021636 0)
(-0.177057 -0.0242493 0)
(-0.17239 -0.0261005 0)
(-0.167432 -0.0268565 0)
(-0.162035 -0.0268334 0)
(-0.156168 -0.0265923 0)
(-0.150001 -0.0267117 0)
(-0.143907 -0.0276874 0)
(-0.13843 -0.0298958 0)
(-0.134126 -0.0334352 0)
(-0.131186 -0.0379314 0)
(-0.129382 -0.0428228 0)
(-0.128234 -0.0475555 0)
(-0.127228 -0.0517487 0)
(-0.125977 -0.05528 0)
(-0.124286 -0.058195 0)
(-0.122116 -0.0605809 0)
(-0.119494 -0.0624332 0)
(-0.116435 -0.0636111 0)
(-0.112911 -0.0638109 0)
(-0.108812 -0.062567 0)
(-0.103891 -0.0592815 0)
(-0.0976521 -0.0532898 0)
(-0.0891941 -0.044002 0)
(-0.0770962 -0.0312174 0)
(-0.0596148 -0.0157621 0)
(-0.0357269 -0.000570835 0)
(-0.00183743 0.00555306 0)
(0.0384366 -0.0285739 0)
(0.113904 -0.0841116 0)
(-0.0308673 -0.148269 0)
(0.807987 0.102594 0)
(-0.221557 -0.385222 0)
(-0.318901 0.0861646 0)
(-0.244404 0.078901 0)
(-0.255376 0.0851228 0)
(-0.261962 0.0967674 0)
(-0.258488 0.103631 0)
(-0.251075 0.109065 0)
(-0.242407 0.113938 0)
(-0.234221 0.118228 0)
(-0.227227 0.121871 0)
(-0.221244 0.124907 0)
(-0.215731 0.127608 0)
(-0.210128 0.130407 0)
(-0.204045 0.13376 0)
(-0.197326 0.138048 0)
(-0.190053 0.143546 0)
(-0.182517 0.150381 0)
(-0.175117 0.158466 0)
(-0.168162 0.167452 0)
(-0.161773 0.176816 0)
(-0.155884 0.186016 0)
(-0.150309 0.194667 0)
(-0.144828 0.202625 0)
(-0.139244 0.209927 0)
(-0.133415 0.216663 0)
(-0.127238 0.222854 0)
(-0.120625 0.228405 0)
(-0.113468 0.233107 0)
(-0.105589 0.236675 0)
(-0.0966544 0.238831 0)
(-0.0860633 0.239434 0)
(-0.0729191 0.238679 0)
(-0.0563794 0.237388 0)
(-0.0364799 0.237343 0)
(-0.0143005 0.241351 0)
(0.0158671 0.247626 0)
(0.0267486 0.268241 0)
(0.134828 0.273709 0)
(-0.323764 0.344677 0)
)
;

boundaryField
{
    floor
    {
        type            noSlip;
    }
    ceiling
    {
        type            noSlip;
    }
    sWall
    {
        type            noSlip;
    }
    nWall
    {
        type            noSlip;
    }
    sideWalls
    {
        type            empty;
    }
    glass1
    {
        type            noSlip;
    }
    glass2
    {
        type            noSlip;
    }
    sun
    {
        type            noSlip;
    }
    Table_master
    {
        type            noSlip;
    }
    Table_slave
    {
        type            noSlip;
    }
    inlet
    {
        type            fixedValue;
        value           uniform (0.191342 -0.46194 0);
    }
    outlet
    {
        type            zeroGradient;
    }
}


// ************************************************************************* //
