/*--------------------------------*- C++ -*----------------------------------*\
  =========                 |
  \\      /  F ield         | OpenFOAM: The Open Source CFD Toolbox
   \\    /   O peration     | Website:  https://openfoam.org
    \\  /    A nd           | Version:  6
     \\/     M anipulation  |
\*---------------------------------------------------------------------------*/
FoamFile
{
    version     2.0;
    format      ascii;
    class       volScalarField;
    location    "900";
    object      alphat;
}
// * * * * * * * * * * * * * * * * * * * * * * * * * * * * * * * * * * * * * //

dimensions      [1 -1 -1 0 0 0 0];

internalField   nonuniform List<scalar> 
458
(
0.00082141
0.00085148
0.000811893
0.000842745
0.000872728
0.000899969
0.000924918
0.000948359
0.00097125
0.000994882
0.00101593
0.00103265
0.00104519
0.0010555
0.00106354
0.000400484
0.00045855
0.00046476
0.000381073
0.000307446
0.000274113
0.000263104
0.000263164
0.000243732
0.000221069
0.000211222
0.000215138
0.000219448
0.000247505
0.000302341
0.000416414
0.000441326
0.000396992
0.00133898
0.00226388
0.00180103
0.00223093
0.00240903
0.00259161
0.00277491
0.00294571
0.00308477
0.00316546
0.00319626
0.00313974
0.00294163
0.00252108
0.00182169
0.00113788
0.00109209
0.000755841
0.000569267
0.00127144
0.00149963
0.00153697
0.00127821
0.00098598
0.000843578
0.000742698
0.000518898
0.000342017
0.000270617
0.000284405
0.000334981
0.000603846
0.001217
0.00161765
0.00174601
0.000567086
0.00180427
0.00362412
0.00194891
0.00325828
0.00363167
0.00385836
0.00404925
0.00420893
0.00433644
0.00442555
0.0044827
0.00448643
0.00439613
0.00415264
0.00369474
0.00301642
0.00211976
0.00117945
0.000923647
0.00275104
0.00262068
0.00217811
0.00159111
0.000559972
0.000457999
0.000400312
0.000354784
0.000312413
0.000273892
0.00034016
0.000448354
0.000605569
0.00165036
0.00205982
0.00180476
0.000633059
0.0022635
0.00550157
0.0020871
0.0035839
0.00433367
0.00457254
0.00472071
0.0048276
0.00490952
0.00497518
0.00503548
0.0050993
0.00515108
0.00514835
0.00499583
0.00453637
0.00361308
0.00227979
0.00121054
0.00294089
0.00331258
0.00283156
0.00208778
0.00134114
0.000807788
0.000807984
0.000820559
0.000841609
0.000870672
0.000909446
0.000960859
0.0010066
0.00105158
0.00191013
0.00256605
0.00293446
0.00107957
0.00271085
0.0077545
0.00283425
0.00330871
0.00456591
0.00489565
0.00502142
0.00507917
0.00510419
0.00512323
0.00515472
0.00524236
0.00539342
0.00560404
0.00584736
0.00606546
0.00618835
0.00611854
0.00578091
0.00558456
0.00522004
0.00478903
0.00441534
0.00411892
0.00390145
0.0038271
0.00380991
0.00383996
0.00390801
0.00400325
0.00411711
0.00423356
0.00433983
0.00447266
0.00453391
0.00431416
0.00328853
0.00148478
0.00139164
0.00124853
0.00315092
0.0100086
0.00483834
0.00315271
0.00406941
0.00469551
0.00499178
0.00512572
0.00514998
0.00510792
0.005058
0.00510837
0.00523781
0.00545035
0.00575556
0.00613612
0.00652404
0.00676494
0.00671994
0.00646209
0.0061425
0.005869
0.00565081
0.00544538
0.00522902
0.0050278
0.00487213
0.00477676
0.00473906
0.00474569
0.00478156
0.00483665
0.0049116
0.0050137
0.00519194
0.00538291
0.00535908
0.00520258
0.00398488
0.00143787
0.00356406
0.0117936
0.00830495
0.00498643
0.00369334
0.00371003
0.0042249
0.00472591
0.00504383
0.0050526
0.00493947
0.00494096
0.00499387
0.00510341
0.00529711
0.00559021
0.00595897
0.00628134
0.00641959
0.00636833
0.00624931
0.00617538
0.00614243
0.00607445
0.00592566
0.00571218
0.00548603
0.00529085
0.00514199
0.00502787
0.00492878
0.00483707
0.00476255
0.00472272
0.00472155
0.00471037
0.00453024
0.00420686
0.0039158
0.00146896
0.00365175
0.0115601
0.00971666
0.00828252
0.00644605
0.00507755
0.00451132
0.00452568
0.00477995
0.00487661
0.00482003
0.00476357
0.00473977
0.00475106
0.00480272
0.00491201
0.00509769
0.00533288
0.00553528
0.00565074
0.00571957
0.00582978
0.00600272
0.00616311
0.00624644
0.00621856
0.00609207
0.00591155
0.00571838
0.00550979
0.00524675
0.00489634
0.00446098
0.00399632
0.00355002
0.00312958
0.00273707
0.00239524
0.00210199
0.00150163
0.00354837
0.00423579
0.00472985
0.00507582
0.00519249
0.00499013
0.00470222
0.00448966
0.00438652
0.00434019
0.00433023
0.00433502
0.00433836
0.00433177
0.00431646
0.00430499
0.00431977
0.00437952
0.00448105
0.00460609
0.0047533
0.00494998
0.0052213
0.00555061
0.00589014
0.00619254
0.00641381
0.00651128
0.00651521
0.00646826
0.00639368
0.00628104
0.00609224
0.00575015
0.00524243
0.00465287
0.00408847
0.00366395
0.00336515
0.00175288
0.00264295
0.00488365
0.00508303
0.00505132
0.00490471
0.00473296
0.00457958
0.0044481
0.00433163
0.00422315
0.00411467
0.00400073
0.00388143
0.00376387
0.00366236
0.003596
0.00358277
0.00363345
0.00375054
0.00393075
0.00416962
0.00446511
0.00481322
0.00520976
0.00564163
0.00605345
0.00636781
0.00654031
0.00659491
0.00660597
0.00662251
0.00665938
0.00674733
0.00688947
0.00684961
0.00625084
0.00567773
0.00177383
0.00258843
0.00527686
0.00538079
0.005264
0.00508159
0.00487349
0.00465001
0.00443484
0.00423817
0.00400695
0.00377058
0.00354647
0.00334558
0.00317691
0.00305057
0.00297917
0.00297616
0.00305012
0.00319641
0.00338096
0.00356071
0.00374162
0.00393695
0.00415767
0.00440823
0.00468788
0.00498547
0.0052582
0.00545946
0.00558553
0.00566877
0.00573
0.00576207
0.00572058
0.00544162
0.00478341
0.00456624
0.00156415
0.00209121
0.00226325
0.00240697
0.00257882
0.00250492
0.00239979
0.00222235
0.0020661
0.00191752
0.00177691
0.0016434
0.00153054
0.00142954
0.00133573
0.00124702
0.00116306
0.00108498
0.0010152
0.000956867
0.000912706
0.000883819
0.000871075
0.00087237
0.000879149
0.000887987
0.000898373
0.000911092
0.000927881
0.000951338
0.000984093
0.00102912
0.00108781
0.00115636
0.00122374
0.00127416
0.00128897
0.00126388
0.00122799
0.0012349
0.00115895
)
;

boundaryField
{
    floor
    {
        type            compressible::alphatWallFunction;
        Prt             0.85;
        value           nonuniform List<scalar> 
36
(
0.000151241
5.37856e-05
6.28505e-05
6.3811e-05
5.07148e-05
3.88808e-05
3.34047e-05
3.15772e-05
3.15872e-05
2.83366e-05
2.44994e-05
2.2815e-05
2.3487e-05
2.42227e-05
2.89703e-05
3.80492e-05
5.62847e-05
6.01727e-05
5.32294e-05
5.32287e-05
7.94171e-05
8.92948e-05
0.00015346
0.000208963
0.000196378
0.000176854
0.000151239
0.000161594
0.000155224
0.000107391
5.37849e-05
0.000107389
7.97524e-05
0.000167343
0.000131504
0.000171631
)
;
    }
    ceiling
    {
        type            compressible::alphatWallFunction;
        Prt             0.85;
        value           nonuniform List<scalar> 
43
(
0.000289025
0.000311232
0.000329647
0.000351577
0.000342217
0.000328829
0.000306076
0.000285873
0.000266508
0.000248029
0.000230334
0.000215252
0.000201648
0.000188916
0.000176784
0.000165209
0.000154358
0.000144585
0.000136354
0.000130083
0.00012596
0.000124135
0.000124318
0.000125286
0.000126548
0.00012803
0.000129843
0.00013223
0.000135558
0.00014019
0.000146527
0.000154739
0.000164267
0.000173568
0.00018049
0.000182518
0.000179082
0.000174154
0.000175104
0.000164628
0.000472538
0.000556057
0.000352646
)
;
    }
    sWall
    {
        type            compressible::alphatWallFunction;
        Prt             0.85;
        value           uniform 0.000287889;
    }
    nWall
    {
        type            compressible::alphatWallFunction;
        Prt             0.85;
        value           nonuniform List<scalar> 6(0.000176634 0.000202411 0.000206608 0.000247264 0.000219401 0.000164302);
    }
    sideWalls
    {
        type            empty;
    }
    glass1
    {
        type            compressible::alphatWallFunction;
        Prt             0.85;
        value           nonuniform List<scalar> 9(0.00011374 0.000184966 0.000246505 0.00030568 0.000362192 0.000416895 0.000467577 0.000478382 0.000465994);
    }
    glass2
    {
        type            compressible::alphatWallFunction;
        Prt             0.85;
        value           nonuniform List<scalar> 2(0.000209779 0.00024318);
    }
    sun
    {
        type            compressible::alphatWallFunction;
        Prt             0.85;
        value           nonuniform List<scalar> 
14
(
0.000116909
0.000121217
0.000115519
0.000119962
0.000124262
0.000128153
0.000131705
0.000135031
0.00013827
0.000141605
0.000144567
0.000146915
0.000148674
0.000150117
)
;
    }
    Table_master
    {
        type            compressible::alphatWallFunction;
        Prt             0.85;
        value           nonuniform List<scalar> 9(7.84677e-05 6.28785e-05 5.38677e-05 4.66378e-05 3.97991e-05 3.34729e-05 4.42876e-05 6.13821e-05 8.53214e-05);
    }
    Table_slave
    {
        type            compressible::alphatWallFunction;
        Prt             0.85;
        value           nonuniform List<scalar> 9(0.000115019 0.000115047 0.000116862 0.000119892 0.000124061 0.000129598 0.000136896 0.000143351 0.000149666);
    }
    inlet
    {
        type            fixedValue;
        value           uniform 1.94e-05;
    }
    outlet
    {
        type            zeroGradient;
    }
}


// ************************************************************************* //
