/*--------------------------------*- C++ -*----------------------------------*\
  =========                 |
  \\      /  F ield         | OpenFOAM: The Open Source CFD Toolbox
   \\    /   O peration     | Website:  https://openfoam.org
    \\  /    A nd           | Version:  6
     \\/     M anipulation  |
\*---------------------------------------------------------------------------*/
FoamFile
{
    version     2.0;
    format      ascii;
    class       volScalarField;
    location    "900";
    object      epsilon;
}
// * * * * * * * * * * * * * * * * * * * * * * * * * * * * * * * * * * * * * //

dimensions      [0 2 -3 0 0 0 0];

internalField   nonuniform List<scalar> 
458
(
0.000126
0.000139935
0.000121301
0.000135665
0.00015067
0.000165227
0.000179356
0.000193343
0.000207685
0.000223219
0.000237683
0.000249605
0.000258799
0.000266511
0.00027262
1.44701e-05
2.17185e-05
2.26105e-05
1.24539e-05
6.53441e-06
4.62976e-06
4.09388e-06
4.09683e-06
3.25495e-06
2.42885e-06
2.11854e-06
2.23893e-06
2.37593e-06
3.40877e-06
6.21494e-06
1.62426e-05
1.93335e-05
1.40726e-05
0.000546983
0.0012225
0.000136184
0.000105107
0.000107227
0.000111413
0.000116414
0.000123029
0.000132277
0.000145269
0.000160911
0.000178095
0.000196055
0.000215589
0.000247915
0.000333811
0.00029503
9.77916e-05
4.15878e-05
5.66973e-05
4.14719e-05
3.2571e-05
2.3208e-05
1.61015e-05
1.12252e-05
7.81686e-06
5.5609e-06
3.64788e-06
2.85787e-06
3.87824e-06
4.82968e-06
9.8072e-06
2.79469e-05
4.98816e-05
7.08433e-05
4.10292e-05
0.00134111
0.00404494
0.000285093
0.000114868
0.000108681
0.000113483
0.00012048
0.000129739
0.000141707
0.000156546
0.000173309
0.000189085
0.000201717
0.00021122
0.000221859
0.000241748
0.000277987
0.000371544
0.000178025
0.000142627
9.23524e-05
7.94007e-05
7.38414e-05
3.95993e-05
2.16491e-05
1.44508e-05
1.00567e-05
6.86452e-06
4.62342e-06
8.86162e-06
2.03119e-05
5.00878e-05
8.60067e-05
0.000104471
0.000142452
5.70972e-05
0.00265301
0.00919273
0.000680371
0.00014383
0.000118411
0.00012523
0.000136183
0.000149765
0.000166287
0.000185985
0.000208139
0.000227119
0.000239504
0.00024568
0.00024863
0.000253288
0.000270411
0.00031653
0.000401479
0.000151266
8.83372e-05
7.15428e-05
7.12015e-05
8.43579e-05
0.000119286
0.000119373
0.000125037
0.000134913
0.000149384
0.000170253
0.000200803
0.000230877
0.000263228
0.000188626
0.000167475
0.00022535
0.000284081
0.00456547
0.0163979
0.0016177
0.000217158
0.000134977
0.000139357
0.000154488
0.000174829
0.000200556
0.000232212
0.000267846
0.000294802
0.000308162
0.000310549
0.000306
0.000297515
0.000286454
0.000265442
0.000212881
0.000129714
8.74689e-05
6.99174e-05
6.58812e-05
6.86525e-05
7.44555e-05
8.10204e-05
9.16757e-05
0.000107174
0.000128419
0.000156596
0.000193216
0.000238057
0.000289645
0.000326922
0.000368573
0.000377427
0.000410421
0.000740163
0.000609439
0.000440156
0.0071803
0.0234098
0.00379319
0.000526429
0.00021557
0.000182017
0.00019035
0.000213899
0.000249946
0.000302373
0.00036162
0.000395079
0.000402165
0.000393075
0.000376911
0.000359424
0.000339191
0.000302913
0.000240222
0.000169178
0.000118112
9.09436e-05
8.03002e-05
7.86135e-05
8.20084e-05
9.03476e-05
0.000105188
0.000127723
0.000159408
0.000202008
0.000257516
0.000328196
0.00041691
0.000526847
0.000680397
0.000921218
0.00105339
0.00107336
0.000801373
0.000672551
0.0104043
0.02714
0.00865933
0.00239722
0.000916449
0.000503855
0.000389868
0.000368539
0.000388755
0.000462356
0.00053212
0.000546548
0.000525211
0.000487427
0.000445793
0.00040858
0.000375545
0.000334626
0.000275778
0.00020904
0.000153728
0.000118573
0.000100856
9.4645e-05
9.63119e-05
0.000106003
0.000125352
0.000155957
0.000199191
0.000256326
0.000328965
0.000420183
0.000535221
0.000681075
0.000863116
0.00106676
0.00119014
0.00116402
0.000727284
0.000717335
0.0112146
0.032615
0.0166092
0.0106247
0.00599565
0.00316058
0.00182267
0.001246
0.00100794
0.000925528
0.000851392
0.000765093
0.000674462
0.000587746
0.000509881
0.000443312
0.000388042
0.000338344
0.000285842
0.00023028
0.000180344
0.000143255
0.000120928
0.000111175
0.000111093
0.000121447
0.000145117
0.000185166
0.000242411
0.000313687
0.000390684
0.000463731
0.000526231
0.000580534
0.000633253
0.000685989
0.000738865
0.000797555
0.000862762
0.000767551
0.0103183
0.0175048
0.0142152
0.010716
0.00788699
0.00554756
0.00384326
0.00271826
0.00201941
0.00155523
0.00122426
0.000981992
0.000799159
0.000657067
0.000544082
0.000453027
0.000379271
0.000318757
0.000267303
0.000222357
0.00018424
0.00015455
0.000134183
0.000122779
0.000119785
0.000126072
0.000144956
0.000181832
0.000240618
0.000328139
0.000452025
0.000609665
0.000783515
0.000938888
0.00105285
0.00113973
0.00124023
0.00140763
0.00165546
0.00122246
0.00551588
0.0090031
0.00667331
0.00500744
0.00372337
0.00277125
0.0020924
0.0016082
0.00125513
0.000993119
0.00079589
0.000644547
0.000525909
0.000431135
0.000354606
0.000292852
0.000243579
0.000205041
0.00017579
0.000154382
0.000139398
0.000130401
0.000127448
0.000130799
0.000141245
0.000160761
0.000192542
0.000243694
0.000322809
0.000436314
0.000584351
0.000763229
0.000981795
0.00125325
0.00144278
0.00122114
0.00157266
0.00126527
0.00381535
0.00691601
0.00531264
0.00414576
0.00321038
0.00247846
0.00191266
0.00148997
0.00117946
0.000948323
0.000773721
0.000638963
0.000532669
0.000447617
0.000379649
0.000326625
0.000287362
0.000260619
0.000244379
0.000234789
0.000227591
0.000222348
0.000219413
0.000218558
0.000218913
0.000219814
0.000222684
0.000233461
0.00026019
0.000309811
0.000383135
0.000471919
0.00056048
0.000621904
0.000604628
0.000564981
0.00113773
0.000867503
0.00204166
0.00258639
0.00311097
0.00386356
0.00355375
0.00313185
0.00249059
0.00200233
0.00160107
0.00127421
0.00100807
0.000814357
0.00066355
0.000541314
0.000440471
0.000357351
0.000290094
0.000237636
0.000198966
0.000172653
0.000156753
0.000150047
0.000150698
0.000154222
0.000158904
0.000164527
0.000171594
0.000181232
0.0001953
0.000216143
0.000247152
0.000291855
0.000350543
0.000415418
0.000468888
0.00048541
0.00045759
0.000419686
0.000426797
0.000352897
)
;

boundaryField
{
    floor
    {
        Cmu             0.09;
        kappa           0.41;
        E               9.8;
        type            epsilonWallFunction;
        value           nonuniform List<scalar> 
36
(
0.00027262
1.44701e-05
2.17185e-05
2.26105e-05
1.24539e-05
6.53441e-06
4.62976e-06
4.09388e-06
4.09683e-06
3.25495e-06
2.42885e-06
2.11854e-06
2.23893e-06
2.37593e-06
3.40877e-06
6.21494e-06
1.62426e-05
1.93335e-05
1.40726e-05
1.40726e-05
4.10292e-05
5.70972e-05
0.000284081
0.000740163
0.000609439
0.000440156
0.00027262
0.000333811
0.00029503
9.77916e-05
1.44701e-05
9.77916e-05
4.15878e-05
0.000371544
0.000178025
0.000401479
)
;
    }
    ceiling
    {
        Cmu             0.09;
        kappa           0.41;
        E               9.8;
        type            epsilonWallFunction;
        value           nonuniform List<scalar> 
43
(
0.00204166
0.00258639
0.00311097
0.00386356
0.00355375
0.00313185
0.00249059
0.00200233
0.00160107
0.00127421
0.00100807
0.000814357
0.00066355
0.000541314
0.000440471
0.000357351
0.000290094
0.000237636
0.000198966
0.000172653
0.000156753
0.000150047
0.000150698
0.000154222
0.000158904
0.000164527
0.000171594
0.000181232
0.0001953
0.000216143
0.000247152
0.000291855
0.000350543
0.000415418
0.000468888
0.00048541
0.00045759
0.000419686
0.000426797
0.000352897
0.0103183
0.0175048
0.00381535
)
;
    }
    sWall
    {
        Cmu             0.09;
        kappa           0.41;
        E               9.8;
        type            epsilonWallFunction;
        value           uniform 0.00204166;
    }
    nWall
    {
        Cmu             0.09;
        kappa           0.41;
        E               9.8;
        type            epsilonWallFunction;
        value           nonuniform List<scalar> 6(0.000440156 0.000672551 0.000717335 0.00126527 0.000867503 0.000352897);
    }
    sideWalls
    {
        type            empty;
    }
    glass1
    {
        Cmu             0.09;
        kappa           0.41;
        E               9.8;
        type            epsilonWallFunction;
        value           nonuniform List<scalar> 9(0.000126 0.000546983 0.00134111 0.00265301 0.00456547 0.0071803 0.0104043 0.0112146 0.0103183);
    }
    glass2
    {
        Cmu             0.09;
        kappa           0.41;
        E               9.8;
        type            epsilonWallFunction;
        value           nonuniform List<scalar> 2(0.000767551 0.00122246);
    }
    sun
    {
        Cmu             0.09;
        kappa           0.41;
        E               9.8;
        type            epsilonWallFunction;
        value           nonuniform List<scalar> 
14
(
0.000126
0.000139935
0.000121301
0.000135665
0.00015067
0.000165227
0.000179356
0.000193343
0.000207685
0.000223219
0.000237683
0.000249605
0.000258799
0.000266511
)
;
    }
    Table_master
    {
        Cmu             0.09;
        kappa           0.41;
        E               9.8;
        type            epsilonWallFunction;
        value           nonuniform List<scalar> 9(3.95993e-05 2.16491e-05 1.44508e-05 1.00567e-05 6.86452e-06 4.62342e-06 8.86162e-06 2.03119e-05 5.00878e-05);
    }
    Table_slave
    {
        Cmu             0.09;
        kappa           0.41;
        E               9.8;
        type            epsilonWallFunction;
        value           nonuniform List<scalar> 9(0.000119286 0.000119373 0.000125037 0.000134913 0.000149384 0.000170253 0.000200803 0.000230877 0.000263228);
    }
    inlet
    {
        type            turbulentMixingLengthDissipationRateInlet;
        mixingLength    0.01;
        phi             phi;
        k               k;
        value           uniform 0.000471672;
    }
    outlet
    {
        type            zeroGradient;
    }
}


// ************************************************************************* //
