/*--------------------------------*- C++ -*----------------------------------*=========                 |
  \      /  F ield         | OpenFOAM: The Open Source CFD Toolbox
   \    /   O peration     | Website:  https://openfoam.org
    \  /    A nd           | Version:  6
     \/     M anipulation  |
\*---------------------------------------------------------------------------*/
FoamFile
{
    version     2.0;
    format      ascii;
    class       volScalarField;
    location    "900";
    object      PPD;
}
// * * * * * * * * * * * * * * * * * * * * * * * * * * * * * * * * * * * * * //

dimensions      [0 0 0 0 0 0 0];

internalField   nonuniform List<scalar> 
458
(
78.96741253405963
71.21057265012682
71.43532672582582
70.86867348342572
70.39493218275248
69.99681882934883
69.68081279259748
69.47777850848297
69.39726531000528
69.43351494530694
69.63355076811594
70.06717794849183
70.7979303943037
71.50754753198824
70.76028905917536
60.27790418994036
60.01972154837924
59.63197487743495
57.37368668066838
54.86963839211174
53.7986104355601
53.61574411445892
53.746362380613746
53.824734580585165
53.98148042122685
54.34721666601681
54.53007554867321
54.34721666601681
54.34721666601681
54.73904333586722
55.60076288477327
55.60076288477327
55.67907067958421
79.86737474798457
71.55733657036313
72.4405834357642
71.8039436731111
71.43401930552409
71.15580569412559
70.95944025768642
70.84146961274146
70.75447183462148
70.76243019264497
70.82969129167714
70.90231103781396
70.92823426930863
70.66792858367452
70.023162836412
70.57991198431084
71.67519600195047
72.66075087415007
59.072954065440555
62.61382046302214
62.970715646981475
63.25061168353847
61.590279162813985
59.0104847337533
57.113290140750046
55.60076288477327
55.23525145126473
55.261363133770494
55.339694961959005
56.018327540342405
55.86176374479388
56.43567587130871
59.606105696086125
59.29549437728299
57.764012807300034
54.74500849429323
82.92992879775997
71.64860127112084
73.67538170798667
73.04175883547504
72.93502469797636
72.91993146071881
72.91895773420379
72.97576189926235
73.04189644264459
73.09990642190648
73.1076492228655
72.99307959708305
72.60251288205933
71.84547116111135
70.8127326054245
70.00216410759283
68.92388625168871
67.43844924143065
67.08805428900848
67.0386488332015
67.58087176089286
68.0713819625579
67.92447607786826
62.40955711548657
60.252097668287576
59.29549437728299
58.439714614636834
57.5298574048929
56.53997391082737
58.33583774926301
60.561598604723734
62.61382046302214
65.62160153726829
61.33356331569182
58.777104564275575
51.35684706195842
86.18169983126103
72.22763052331788
74.77006656208464
74.22604189276589
74.45615640738066
74.75180658826677
75.0718152357554
75.37054280937924
75.64907510924417
75.8196792685935
75.89395596395283
75.72680978252806
75.18079349073801
74.20209748531643
72.89731139156152
71.35618763703178
69.39111797580885
67.19515629943913
66.20728996841277
67.0110849736756
67.92757622701151
68.99836857817169
69.33719245323535
69.2225892142163
69.61280268885504
70.59100810995008
71.0560899715141
71.12700335584638
71.245047591534
71.38646039591289
71.52760915071607
71.62156062231168
71.57459970641418
70.86428618740197
68.71036562085825
66.17333510753238
65.14558983732174
89.08921801958816
73.4853889613886
75.71420431801681
75.29234199494239
75.83368406372641
76.45501130033082
77.08336632660806
77.69758706274155
78.2439363560768
78.63491117064456
78.84918030075444
78.70670255470506
78.16389157624859
77.22139425719021
75.96079924064826
74.48377852855846
72.78515441659334
71.23600245579797
70.41434673806005
70.1585644434845
70.3850379157978
70.66870004011615
70.68225757103042
70.60641397555221
70.79294240254274
71.19445045309766
71.76226478231689
71.83251594451949
71.94945083810288
72.08952316059825
72.25259427254522
72.36884345741994
72.39207015724901
72.18275254249257
71.52760915071607
68.32249307614062
65.23453652892616
63.18989166880005
62.83901623924394
64.60712676710588
91.3478585356409
75.49487003109809
77.29781428673301
76.45638237046194
77.0139953178495
77.8826810538244
78.84809711626419
79.83669888669044
80.75109057537412
81.46435232428405
81.78132356406049
81.54160732809108
80.92064439934467
80.01523164001837
78.91830136686248
77.66312040580647
76.32403794526272
75.11715047684127
74.28072579198705
73.73287987089827
73.40054087185608
73.09717839146535
72.68623574644604
72.29546798484533
72.07482381641245
72.01603914670274
72.08107458616631
72.26787139631102
72.43850034671672
72.6239103005345
72.78573338237844
72.94716997001605
73.0162380017328
73.0162380017328
72.90108484853069
72.60076134702415
71.86842438932322
69.8275592738153
67.2042325509389
64.62144694967142
93.00810898583354
79.33115639515078
82.33296218371329
79.30932784661674
78.40493797656092
79.19852027157881
80.47141841578275
81.611731086698
82.27492952215697
83.03470769344331
83.65057213810604
83.3508980576708
82.58474924830898
81.79895976988894
80.9555772853211
80.09762565710182
79.25301541798072
78.53333487636425
77.9944765921019
77.36244053761723
76.32980693216172
75.4309442845462
74.62936964274441
73.975543500774
73.45199173932929
73.03924473645552
72.80881948687542
72.65280381698938
72.36277804325151
72.08352602605082
71.78044836837228
71.47313602283484
71.13135134262029
70.82821029847054
70.6184379845738
70.50788840179356
70.38066798770379
70.31545987937264
69.31626196922238
62.935158800038
95.29648311595996
89.10416241964846
88.16611708468542
84.71285813963593
82.5845125178141
81.69515192026483
81.5941206633857
81.82692504239799
82.15603575361503
82.31258750285764
82.40714331465718
82.29731402794641
82.00046177802058
81.57274956250697
81.10774713098392
80.70890447383138
80.39245809547715
80.18528572597369
79.88621545488841
78.95211226470161
77.99670590787628
77.02063641504735
76.09014518932051
75.25379825399693
74.51715066816848
73.90750223503136
73.42913011038362
73.15415844038866
73.10821698832414
72.40429893021549
71.48282421183106
70.55415742696827
69.65085987974356
68.81775659319864
68.06713593645131
67.37113762873408
66.81506471381692
66.31743314350678
65.11281567981143
61.99637439838996
97.52877548486056
95.70956553239338
93.49575767852502
90.7345329807076
87.89716112804406
85.56849399525711
83.93359281067296
82.89321034110121
82.33982592351485
82.0260534868712
81.61671224994622
81.12219879123006
80.62461347784051
80.18907803384022
79.85461597313177
79.6132891568331
79.49410337068784
79.47275472089825
79.51846447693636
79.49688180013533
79.11611252829181
78.33139843423055
77.48998785850631
76.65482174165241
75.82743792128406
75.05383451198357
74.35968532935539
73.79393386473454
73.47484522312205
73.36049644033238
73.42913011038362
73.6573788185287
73.45408842647306
72.38418331059589
71.28299955325417
70.2431177524037
69.50547063967346
69.10698344342299
68.2697682720211
65.46042757653555
6.49480362968805
37.27796306907284
62.925168871827594
72.74380375747327
76.3635040489857
77.77246240923586
78.26054411098517
78.3319016233443
78.31789842564375
78.2109512678509
78.05496910096356
77.9178573458316
77.84088635355792
77.8398134344952
77.92566930372963
78.03754581355716
78.1703468006246
78.2694053291791
78.28998286065891
78.17395649532651
77.97771186250738
77.68066034695791
76.97774033050007
76.24278552333504
75.5193043530767
74.83082195659982
74.26951819146683
73.83938610030937
73.61179458770206
73.54335671602584
73.6345908106135
73.81666412468219
74.02086263621071
74.15661908909516
74.15661908909516
73.99820724504664
69.89138198553312
66.7595310325495
6.0585976487259074
38.91822552433265
59.26188959063321
68.23236145540679
72.28695017110431
74.00852791395113
74.68866953483797
74.90392593712477
75.01593320509598
75.16530898678965
75.33219498840516
75.54169351106916
75.77179735491515
76.04542228561361
76.310783376134
76.5812116638765
76.77951816756826
76.90688046761063
76.94101673137385
76.8883437369011
76.76150811163944
76.56474575289411
76.3089368621093
75.98359290291857
75.63059243168985
75.25539721177657
74.86489946962747
74.39968527231139
73.83153946974474
73.14898463203173
72.43944118532062
71.79036284706766
71.25973290019267
70.88944879246357
70.48936600189664
70.29235384485766
68.32753222244476
66.89525589591763
24.58236225324883
21.117796355914805
22.42634306421604
51.22337808969042
63.4554145800822
71.03161156036455
73.78867111280223
73.75180930446601
73.41244731034286
73.2184422129357
73.18686781569329
73.37992611332177
73.67569916599345
74.06407007873435
74.44324612023279
74.77574210439806
75.01173151988642
75.04178659049059
74.85340670171429
74.54718370054132
74.18664160330636
73.8610901818671
73.6423421773785
73.44239325411314
73.26055249885056
73.08636489165391
72.86786937158375
72.62571591234249
72.3452099759982
72.00611482723703
71.56835402825033
70.99580613401561
70.3443210100141
69.64330676144422
69.00533823221244
68.53484384694924
68.36228049368628
68.6566571968276
67.90560821371886
66.90912289783242
)
;

boundaryField
{
    ".*"
    {
        type            zeroGradient;
    }
}


// ************************************************************************* //
