/*--------------------------------*- C++ -*----------------------------------*\
  =========                 |
  \\      /  F ield         | OpenFOAM: The Open Source CFD Toolbox
   \\    /   O peration     | Website:  https://openfoam.org
    \\  /    A nd           | Version:  6
     \\/     M anipulation  |
\*---------------------------------------------------------------------------*/
FoamFile
{
    version     2.0;
    format      ascii;
    class       volScalarField;
    location    "1800";
    object      alphat;
}
// * * * * * * * * * * * * * * * * * * * * * * * * * * * * * * * * * * * * * //

dimensions      [1 -1 -1 0 0 0 0];

internalField   nonuniform List<scalar> 
458
(
0.000961146
0.00102478
0.00102302
0.00106367
0.00109994
0.00113214
0.00116154
0.00118949
0.00121763
0.00124116
0.00125566
0.00125827
0.00124854
0.0012314
0.00121297
0.000456245
0.000589068
0.000585734
0.000568127
0.000546977
0.000522007
0.000497235
0.000474461
0.000453859
0.000435311
0.000418561
0.000403232
0.00038893
0.000375152
0.000361174
0.000345715
0.000331867
0.000302653
0.00139798
0.00273435
0.00245404
0.00285635
0.00315749
0.00346978
0.00377678
0.00405211
0.004253
0.0044075
0.00450307
0.00448409
0.00426555
0.00370891
0.00260668
0.00125024
0.00108457
0.000938362
0.000721033
0.00101089
0.00123176
0.00137546
0.00141422
0.00120839
0.0010924
0.00100787
0.000941132
0.000884045
0.000831208
0.000780687
0.000729351
0.000675028
0.000627405
0.000589219
0.000683861
0.000376815
0.00178115
0.00386015
0.00282138
0.00392535
0.00430641
0.00457381
0.00477581
0.00493222
0.00505697
0.00518176
0.00530915
0.00541211
0.00546676
0.00546892
0.0053987
0.00506842
0.00404613
0.00120311
0.000940969
0.00136761
0.00165959
0.00185677
0.00185663
0.000679983
0.000611763
0.000555491
0.000509554
0.00047203
0.000441267
0.000415966
0.000395355
0.000379386
0.000417011
0.00048738
0.000766555
0.000428654
0.00216827
0.00541518
0.00274907
0.00422787
0.004724
0.00487351
0.00491601
0.00492584
0.00495734
0.00503584
0.00515536
0.00528375
0.00540411
0.00553284
0.00567392
0.00571981
0.00541638
0.00438624
0.0011792
0.00162234
0.00208452
0.00238444
0.00254231
0.00242047
0.000727374
0.000680155
0.000652711
0.000634586
0.000618423
0.000598957
0.000578302
0.000555494
0.00052704
0.00049672
0.000502996
0.000846978
0.000475387
0.00256888
0.00750663
0.00326368
0.00393026
0.00477687
0.00491561
0.00485968
0.00475871
0.00472571
0.00479479
0.00493156
0.00506925
0.00518513
0.00529955
0.00542433
0.00549739
0.00537764
0.00500937
0.00416688
0.00379022
0.00357119
0.00340307
0.0032794
0.00315378
0.00280991
0.00271268
0.00268955
0.00266906
0.00261852
0.00251746
0.00229808
0.00198606
0.00161268
0.00121286
0.000902617
0.000880472
0.000712523
0.000641311
0.000735137
0.000801539
0.00299007
0.00980944
0.00533182
0.00369962
0.00427221
0.00464742
0.0047536
0.00469377
0.00457487
0.00467653
0.00484116
0.00497718
0.00507265
0.00515524
0.00524216
0.00529124
0.00521717
0.00498338
0.0046016
0.00426116
0.00395609
0.00366705
0.00344826
0.00332469
0.00327259
0.00328812
0.00331066
0.00330733
0.00326691
0.0031853
0.00303119
0.00275913
0.0023719
0.00188936
0.00143429
0.00109403
0.000885685
0.000775571
0.00105361
0.000817986
0.00339677
0.0116311
0.00880601
0.0056104
0.00444357
0.00415273
0.00430577
0.0046012
0.00464576
0.00477756
0.00490067
0.00498982
0.00504867
0.00510484
0.00518093
0.00524234
0.00519642
0.00498588
0.00464928
0.00428886
0.00391195
0.00355259
0.00332505
0.00324226
0.00324765
0.00328893
0.00331846
0.00331903
0.00329283
0.00324939
0.00319362
0.00304047
0.00273727
0.00231335
0.00188207
0.00150257
0.00123942
0.00112628
0.00109574
0.000899905
0.00348642
0.0110191
0.00965447
0.00857391
0.00712302
0.00596414
0.00539722
0.00528402
0.00515208
0.00507867
0.0050688
0.00507136
0.00507301
0.00510487
0.00519139
0.00528419
0.00525765
0.00503396
0.00465013
0.0041545
0.00367042
0.00334365
0.00318397
0.0031259
0.0031146
0.00311523
0.00310526
0.00308162
0.00305716
0.00305152
0.00308071
0.00312393
0.00299049
0.00266989
0.00237577
0.00220284
0.00221627
0.00236373
0.00297435
0.00147268
0.00340402
0.00407683
0.00480965
0.00516258
0.00535664
0.00530058
0.00516584
0.00507563
0.00505217
0.00510215
0.00514032
0.00511053
0.00506817
0.00509656
0.0052225
0.00535537
0.00530703
0.00499564
0.0044621
0.00386683
0.00344676
0.0032155
0.0030904
0.00301021
0.00294477
0.00287683
0.00279467
0.00269566
0.00258742
0.00248075
0.00237948
0.00227854
0.00218447
0.00210511
0.00207118
0.00208442
0.00209588
0.00205336
0.00195839
0.00143367
0.00288556
0.00606644
0.00588021
0.00580663
0.00576595
0.00576917
0.00576813
0.00567782
0.00545015
0.00514757
0.00498599
0.00503151
0.00523165
0.00538814
0.00519105
0.0046611
0.00408411
0.00367001
0.0034283
0.00327572
0.00315083
0.00302591
0.00289209
0.00274862
0.00259778
0.0024436
0.00229438
0.00216564
0.00207649
0.00203607
0.00202679
0.00203718
0.00206314
0.00208527
0.00206517
0.001979
0.00184574
0.00127018
0.00278164
0.00658537
0.0064676
0.0062463
0.00611017
0.00597976
0.00581742
0.00543079
0.00480059
0.00430828
0.00438232
0.00472877
0.00519569
0.0054802
0.00524941
0.00478255
0.00439141
0.00413957
0.00398765
0.00388203
0.00378097
0.00366002
0.00350712
0.00332064
0.00310853
0.00288596
0.00267087
0.00247893
0.00231902
0.00221503
0.00217149
0.00217575
0.00220703
0.00223592
0.00223085
0.00227872
0.00250332
0.00130763
0.00219272
0.00238884
0.00254587
0.00271146
0.00258882
0.00247044
0.0022944
0.00203072
0.00176956
0.00154114
0.00135037
0.00114992
0.00113948
0.00117771
0.00119212
0.00116269
0.00110445
0.00105417
0.00101799
0.000997599
0.000984739
0.000972485
0.000957964
0.000940513
0.000921237
0.000902644
0.000888018
0.000880547
0.000882625
0.000895787
0.000921415
0.000955588
0.000996656
0.00104508
0.00110062
0.00116314
0.00120148
0.00118183
0.00112007
0.0010662
)
;

boundaryField
{
    floor
    {
        type            compressible::alphatWallFunction;
        Prt             0.85;
        value           nonuniform List<scalar> 
36
(
0.000171987
6.25376e-05
8.27766e-05
8.22743e-05
7.96251e-05
7.64297e-05
7.26374e-05
6.88528e-05
6.53525e-05
6.21676e-05
5.92844e-05
5.66675e-05
5.42605e-05
5.20042e-05
4.98204e-05
4.75942e-05
4.51191e-05
4.28894e-05
3.81449e-05
3.81444e-05
5.00832e-05
5.82443e-05
6.54938e-05
9.05754e-05
0.000104394
0.000114042
0.000171985
0.00017711
0.000154193
0.000133631
6.25368e-05
0.000133629
0.00010233
0.00017063
0.000133991
0.000167322
)
;
    }
    ceiling
    {
        type            compressible::alphatWallFunction;
        Prt             0.85;
        value           nonuniform List<scalar> 
43
(
0.000302046
0.000327221
0.000347224
0.000368302
0.000352831
0.00033781
0.00031531
0.000281257
0.000247046
0.000216664
0.000190906
0.000163384
0.00016192
0.000167222
0.000169221
0.000165162
0.00015708
0.000150059
0.000144985
0.000142115
0.000140302
0.000138572
0.000136518
0.000134045
0.000131308
0.000128661
0.000126575
0.000125508
0.000125806
0.000127686
0.000131337
0.000136187
0.000141988
0.000148793
0.000156553
0.000165234
0.000170532
0.000167819
0.000159261
0.000151753
0.000454808
0.000536884
0.000376853
)
;
    }
    sWall
    {
        type            compressible::alphatWallFunction;
        Prt             0.85;
        value           uniform 0.000300847;
    }
    nWall
    {
        type            compressible::alphatWallFunction;
        Prt             0.85;
        value           nonuniform List<scalar> 6(0.000113855 0.000116227 0.000127965 0.00017966 0.00018478 0.000151444);
    }
    sideWalls
    {
        type            empty;
    }
    glass1
    {
        type            compressible::alphatWallFunction;
        Prt             0.85;
        value           nonuniform List<scalar> 9(0.000133415 0.000192961 0.000243598 0.000293651 0.000344521 0.000397163 0.000447309 0.0004584 0.000448516);
    }
    glass2
    {
        type            compressible::alphatWallFunction;
        Prt             0.85;
        value           nonuniform List<scalar> 2(0.000206076 0.000200877);
    }
    sun
    {
        type            compressible::alphatWallFunction;
        Prt             0.85;
        value           nonuniform List<scalar> 
14
(
0.000136871
0.000145824
0.000145576
0.000151272
0.000156334
0.000160811
0.000164886
0.00016875
0.000172628
0.000175863
0.000177854
0.000178212
0.000176877
0.000174523
)
;
    }
    Table_master
    {
        type            compressible::alphatWallFunction;
        Prt             0.85;
        value           nonuniform List<scalar> 9(9.63649e-05 8.62413e-05 7.77862e-05 7.08048e-05 6.50435e-05 6.02769e-05 5.63248e-05 5.30826e-05 5.05556e-05);
    }
    Table_slave
    {
        type            compressible::alphatWallFunction;
        Prt             0.85;
        value           nonuniform List<scalar> 9(0.000103326 9.63924e-05 9.2336e-05 8.96457e-05 8.72387e-05 8.43292e-05 8.12291e-05 7.77898e-05 7.34743e-05);
    }
    inlet
    {
        type            fixedValue;
        value           uniform 1.94e-05;
    }
    outlet
    {
        type            zeroGradient;
    }
}


// ************************************************************************* //
