/*--------------------------------*- C++ -*----------------------------------*\
  =========                 |
  \\      /  F ield         | OpenFOAM: The Open Source CFD Toolbox
   \\    /   O peration     | Website:  https://openfoam.org
    \\  /    A nd           | Version:  6
     \\/     M anipulation  |
\*---------------------------------------------------------------------------*/
FoamFile
{
    version     2.0;
    format      ascii;
    class       volScalarField;
    location    "1800";
    object      nut;
}
// * * * * * * * * * * * * * * * * * * * * * * * * * * * * * * * * * * * * * //

dimensions      [0 2 -1 0 0 0 0];

internalField   nonuniform List<scalar> 
458
(
0.000830086
0.000884278
0.000882731
0.000917804
0.000949095
0.000976877
0.00100224
0.00102635
0.00105062
0.0010709
0.00108339
0.00108562
0.00107718
0.00106236
0.00104643
0.000393615
0.000508172
0.000505293
0.000490104
0.000471858
0.000450317
0.000428946
0.0004093
0.000391527
0.000375525
0.000361076
0.000347851
0.000335513
0.000323626
0.000311567
0.000298231
0.000286283
0.000261087
0.00120812
0.00235981
0.00211775
0.00246496
0.00272489
0.00299443
0.00325939
0.003497
0.00367035
0.00380361
0.00388593
0.00386931
0.00368045
0.00319991
0.00224879
0.00107854
0.000935617
0.000809497
0.000622033
0.000872078
0.00106261
0.00118658
0.00122001
0.00104244
0.000942371
0.000869444
0.000811865
0.000762612
0.000717027
0.000673441
0.000629152
0.000582289
0.000541207
0.000508267
0.000589908
0.000325059
0.00154025
0.00333197
0.00243504
0.00338795
0.00371701
0.00394797
0.00412247
0.00425756
0.00436528
0.00447292
0.0045826
0.00467101
0.00471757
0.00471882
0.00465773
0.00437248
0.00349045
0.00103788
0.000811764
0.00117983
0.00143173
0.00160185
0.00160174
0.000586625
0.000527765
0.000479214
0.000439579
0.000407203
0.00038066
0.000358829
0.000341046
0.000327267
0.00035972
0.00042042
0.000661239
0.000369779
0.0018762
0.00467521
0.00237289
0.00364951
0.00407807
0.00420746
0.00424445
0.00425317
0.00428049
0.00434821
0.00445105
0.00456123
0.00466426
0.00477446
0.00489546
0.00493457
0.00467258
0.00378388
0.00101728
0.00139959
0.00179836
0.00205716
0.0021934
0.0020883
0.000627557
0.000586819
0.000563141
0.000547502
0.000533556
0.000516758
0.000498935
0.000479253
0.000454699
0.00042852
0.000433914
0.000730633
0.000410099
0.00222415
0.00648257
0.00281744
0.00339294
0.00412419
0.00424441
0.00419657
0.00410978
0.00408154
0.00414121
0.00425891
0.00437694
0.00447587
0.00457352
0.0046803
0.00474276
0.00463922
0.00432152
0.0035948
0.00326996
0.00308111
0.00293615
0.00282951
0.00272116
0.00242448
0.0023406
0.00232064
0.00230294
0.00225933
0.00217211
0.00198279
0.00171356
0.00139139
0.00104639
0.000778691
0.000759554
0.000614674
0.000553326
0.000634376
0.000691688
0.00259016
0.00847409
0.00460383
0.00319422
0.00368882
0.0040132
0.00410538
0.00405422
0.00395198
0.00403991
0.00418161
0.004298
0.00437913
0.00444916
0.00452318
0.00456493
0.00450081
0.00429917
0.00396997
0.00367645
0.00341341
0.00316414
0.00297543
0.00286883
0.00282389
0.00283729
0.00285673
0.00285384
0.00281893
0.00274847
0.00261545
0.00238065
0.00204649
0.0016301
0.00123742
0.000943822
0.000764072
0.000669126
0.000909052
0.000705825
0.00294375
0.0100532
0.0076078
0.0048459
0.00383778
0.00358664
0.00371909
0.00397469
0.00401374
0.00412762
0.0042333
0.00430906
0.00435842
0.00440556
0.00447022
0.00452264
0.0044829
0.00430142
0.0040113
0.0037006
0.00337557
0.00306559
0.0028693
0.00279788
0.00280254
0.00283816
0.00286363
0.00286409
0.00284144
0.00280391
0.00275572
0.00262349
0.00236181
0.00199598
0.0016238
0.00129633
0.00106927
0.000971687
0.000945364
0.00077646
0.00302351
0.0095372
0.00835188
0.00741379
0.00615705
0.00515427
0.00466397
0.00456619
0.00445214
0.00438811
0.00437835
0.00437898
0.00437882
0.004405
0.00447879
0.00455849
0.00453568
0.00434305
0.00401229
0.00358495
0.00316738
0.00288548
0.00274772
0.00269763
0.00268788
0.00268842
0.0026798
0.00265937
0.00263823
0.00263332
0.00265844
0.00269566
0.00258044
0.00230373
0.00204989
0.00190063
0.00191219
0.00203946
0.00256643
0.00127121
0.00295485
0.00353578
0.00416728
0.00446964
0.00463498
0.00458454
0.00446671
0.0043878
0.00436634
0.00440774
0.00443868
0.00441109
0.00437308
0.00439664
0.00450488
0.00461959
0.00457835
0.00431027
0.00385038
0.00333695
0.00297456
0.00277504
0.00266711
0.00259793
0.00254146
0.00248283
0.00241192
0.00232645
0.00223302
0.00214095
0.00205354
0.00196644
0.00188527
0.00181683
0.00178762
0.00179917
0.00180923
0.00177269
0.00169082
0.001238
0.00243123
0.00518808
0.0050553
0.0050018
0.00497096
0.00497536
0.00497493
0.00489702
0.00470029
0.00443898
0.00429956
0.004339
0.00451208
0.00464782
0.00447867
0.00402204
0.00352447
0.00316727
0.00295876
0.00282714
0.00271939
0.00261162
0.00249614
0.00237233
0.00224216
0.0021091
0.00198032
0.00186921
0.00179228
0.00175741
0.00174943
0.00175844
0.00178092
0.00180012
0.00178288
0.0017086
0.00159363
0.00109673
0.0023513
0.00562994
0.00555059
0.00537209
0.00526071
0.00515108
0.00501231
0.0046798
0.00413712
0.00371339
0.00377806
0.00407769
0.00448143
0.00472799
0.00452957
0.00412715
0.00378983
0.00357263
0.0034416
0.00335052
0.00326336
0.00315902
0.0030271
0.00286619
0.00268314
0.00249106
0.00230543
0.00213978
0.00200176
0.00191202
0.00187447
0.00187818
0.00190523
0.00193024
0.00192595
0.00196736
0.00216123
0.00112902
0.00186988
0.00203653
0.00217035
0.00232611
0.0022249
0.00212543
0.00197541
0.00174911
0.00152437
0.00132773
0.00116351
0.000991233
0.000982776
0.00101599
0.00102856
0.00100327
0.000953076
0.000909722
0.000878528
0.00086095
0.000849869
0.000839311
0.000826794
0.000811747
0.000795125
0.00077909
0.000766479
0.000760044
0.000761851
0.000773224
0.000795359
0.00082487
0.000860335
0.000902149
0.000950117
0.00100411
0.00103724
0.00102029
0.000966969
0.000920573
)
;

boundaryField
{
    floor
    {
        type            nutkWallFunction;
        Cmu             0.09;
        kappa           0.41;
        E               9.8;
        value           nonuniform List<scalar> 
36
(
0.000126177
4.59033e-05
6.07468e-05
6.03782e-05
5.84349e-05
5.60911e-05
5.33093e-05
5.05331e-05
4.79655e-05
4.56291e-05
4.3514e-05
4.15942e-05
3.98283e-05
3.8173e-05
3.65708e-05
3.49375e-05
3.31214e-05
3.14854e-05
2.80047e-05
2.80046e-05
3.6764e-05
4.27516e-05
4.80703e-05
6.64765e-05
7.66228e-05
8.37023e-05
0.000126177
0.000129931
0.000113124
9.80447e-05
4.59032e-05
9.80447e-05
7.50913e-05
0.000125179
9.83125e-05
0.000122756
)
;
    }
    ceiling
    {
        type            nutkWallFunction;
        Cmu             0.09;
        kappa           0.41;
        E               9.8;
        value           nonuniform List<scalar> 
43
(
0.000219087
0.000237273
0.000251764
0.000268626
0.00025778
0.000247054
0.000230757
0.000205914
0.00018089
0.000158657
0.00013981
0.000119699
0.000118685
0.000122596
0.000124078
0.000121112
0.000115191
0.000110046
0.000106326
0.000104224
0.000102895
0.000101628
0.000100123
9.8311e-05
9.63044e-05
9.43641e-05
9.28349e-05
9.20536e-05
9.22734e-05
9.36541e-05
9.63341e-05
9.98936e-05
0.000104152
0.000109146
0.000114842
0.000121214
0.000125105
0.000123116
0.000116835
0.000111338
0.000335451
0.000395675
0.000271053
)
;
    }
    sWall
    {
        type            nutkWallFunction;
        Cmu             0.09;
        kappa           0.41;
        E               9.8;
        value           uniform 0.000219147;
    }
    nWall
    {
        type            nutkWallFunction;
        Cmu             0.09;
        kappa           0.41;
        E               9.8;
        value           nonuniform List<scalar> 6(8.37002e-05 8.54357e-05 9.40471e-05 0.000132062 0.000135818 0.000111342);
    }
    sideWalls
    {
        type            empty;
    }
    glass1
    {
        type            nutkWallFunction;
        Cmu             0.09;
        kappa           0.41;
        E               9.8;
        value           nonuniform List<scalar> 9(0.000100533 0.000145092 0.000182907 0.00022024 0.000258147 0.000297343 0.000334658 0.000343017 0.000335844);
    }
    glass2
    {
        type            nutkWallFunction;
        Cmu             0.09;
        kappa           0.41;
        E               9.8;
        value           nonuniform List<scalar> 2(0.000152248 0.000148437);
    }
    sun
    {
        type            nutkWallFunction;
        Cmu             0.09;
        kappa           0.41;
        E               9.8;
        value           nonuniform List<scalar> 
14
(
0.000100519
0.000107012
0.000106827
0.000111005
0.000114717
0.000118001
0.000120989
0.000123822
0.000126666
0.000129036
0.000130494
0.000130754
0.000129771
0.00012804
)
;
    }
    Table_master
    {
        type            nutkWallFunction;
        Cmu             0.09;
        kappa           0.41;
        E               9.8;
        value           nonuniform List<scalar> 9(7.06652e-05 6.32407e-05 5.70398e-05 5.19198e-05 4.76946e-05 4.41988e-05 4.13004e-05 3.89226e-05 3.70692e-05);
    }
    Table_slave
    {
        type            nutkWallFunction;
        Cmu             0.09;
        kappa           0.41;
        E               9.8;
        value           nonuniform List<scalar> 9(7.57739e-05 7.06892e-05 6.77144e-05 6.57414e-05 6.3976e-05 6.18421e-05 5.95682e-05 5.70456e-05 5.38803e-05);
    }
    inlet
    {
        type            calculated;
        value           uniform 0.000100623;
    }
    outlet
    {
        type            calculated;
        value           nonuniform List<scalar> 2(0.00186988 0.00203653);
    }
}


// ************************************************************************* //
