/*--------------------------------*- C++ -*----------------------------------*\
  =========                 |
  \\      /  F ield         | OpenFOAM: The Open Source CFD Toolbox
   \\    /   O peration     | Website:  https://openfoam.org
    \\  /    A nd           | Version:  6
     \\/     M anipulation  |
\*---------------------------------------------------------------------------*/
FoamFile
{
    version     2.0;
    format      ascii;
    class       volScalarField;
    location    "800";
    object      alphat;
}
// * * * * * * * * * * * * * * * * * * * * * * * * * * * * * * * * * * * * * //

dimensions      [1 -1 -1 0 0 0 0];

internalField   nonuniform List<scalar> 
458
(
0.000826833
0.000842796
0.000751721
0.00077674
0.000805786
0.00083355
0.000859903
0.000885434
0.000911117
0.000938436
0.000962256
0.000981814
0.000997495
0.00101115
0.00102178
0.000405275
0.000445253
0.000459645
0.000382073
0.000302198
0.000269522
0.00025499
0.000251971
0.000263703
0.000290097
0.000326304
0.000364908
0.000391562
0.000428123
0.000491411
0.000555333
0.000563364
0.000502315
0.00145916
0.00252286
0.00171891
0.00238997
0.00260136
0.00279659
0.00299394
0.00317566
0.00331843
0.00339374
0.00341428
0.00333601
0.00310366
0.00263155
0.00186557
0.00111892
0.00106855
0.000812536
0.000544077
0.00114383
0.00132681
0.0013406
0.00100296
0.000445646
0.000328551
0.000352671
0.000453145
0.000640137
0.000904111
0.00121903
0.00148236
0.00175172
0.00208756
0.00201791
0.00200655
0.000636422
0.00201617
0.00435297
0.00183127
0.00336779
0.0039882
0.00425471
0.00448035
0.00467705
0.00483376
0.00493586
0.00498873
0.0049577
0.00479194
0.00442221
0.00380454
0.00300834
0.0020956
0.00117859
0.00100164
0.00262627
0.00235508
0.00199664
0.00140966
0.000482197
0.000339832
0.000377441
0.000433638
0.000491375
0.000554145
0.000626401
0.000716468
0.000841403
0.00223904
0.002033
0.00158692
0.000800886
0.00253652
0.00660899
0.00221629
0.00344104
0.00471508
0.00506162
0.00528435
0.00548154
0.00565671
0.00580196
0.0059279
0.00603216
0.00606902
0.00595319
0.0055587
0.00476334
0.00354181
0.00217639
0.00130571
0.00309867
0.00290079
0.00242117
0.00179602
0.00123752
0.000826857
0.000828298
0.000834299
0.000844967
0.000862691
0.000890188
0.000930036
0.000984923
0.0010731
0.00311481
0.00368289
0.00358267
0.0012304
0.00301137
0.00897339
0.00312288
0.00307716
0.00483906
0.0053147
0.00552219
0.00569143
0.00584964
0.00600561
0.00619701
0.0064651
0.00678777
0.00711566
0.0073695
0.00746519
0.00734052
0.0069684
0.0064382
0.0062261
0.00580124
0.00530062
0.00486934
0.00452342
0.00425038
0.00407274
0.0039189
0.00379868
0.0037294
0.00372315
0.00377947
0.00388719
0.00404063
0.00427773
0.00440955
0.00434446
0.00365486
0.00165644
0.00151027
0.00135847
0.00344928
0.0110169
0.00478938
0.00292877
0.00428439
0.00498997
0.00528285
0.0054563
0.00556745
0.00565172
0.00584058
0.006164
0.00661023
0.00715457
0.00773601
0.00826725
0.00864771
0.00876443
0.00857672
0.00820403
0.00774392
0.0072892
0.00688533
0.00651815
0.0061581
0.00578883
0.00541389
0.00505973
0.00476352
0.00455499
0.00443747
0.00438585
0.00436387
0.00434054
0.00431792
0.00428297
0.00404553
0.00370852
0.00289433
0.00140796
0.00385041
0.0124485
0.00759604
0.00404387
0.00338319
0.00398866
0.00463031
0.00503595
0.0051969
0.00519038
0.00531734
0.00555493
0.00592062
0.00643845
0.00709305
0.00780922
0.00845745
0.00888537
0.00899998
0.00887373
0.00862506
0.00834702
0.00807816
0.00780682
0.00750103
0.00713334
0.00669489
0.00620186
0.00569882
0.0052449
0.00487763
0.0045877
0.00434114
0.0041024
0.00384832
0.00355467
0.00319927
0.00280281
0.002368
0.00136157
0.00392963
0.0124215
0.00971024
0.00733734
0.00522184
0.00429547
0.00444629
0.00487133
0.00499845
0.00497469
0.0049896
0.00506786
0.00522736
0.00550449
0.00594495
0.00656361
0.00728634
0.00795464
0.00834954
0.0085173
0.00853938
0.00849887
0.0084453
0.00838604
0.00829987
0.00815307
0.00791113
0.00755118
0.00708076
0.00654903
0.00601463
0.00546754
0.00489902
0.0043256
0.00376818
0.00320713
0.00270738
0.00232525
0.00199492
0.00144691
0.00379653
0.00450947
0.00615016
0.00644163
0.00594214
0.00530262
0.00486789
0.00465812
0.00456593
0.00454869
0.00457418
0.00461683
0.00467346
0.00476339
0.00492829
0.00522351
0.00567894
0.00623869
0.00676418
0.0071724
0.00745614
0.00765639
0.00782032
0.00797701
0.00813363
0.00827952
0.00838938
0.00842561
0.00835415
0.00816438
0.00785907
0.00752561
0.0071882
0.0067391
0.00601591
0.00511361
0.00421868
0.00362507
0.00332973
0.00162261
0.00921757
0.0110468
0.00781445
0.00653621
0.00579849
0.00532577
0.00500853
0.00477776
0.00459786
0.00445215
0.00433181
0.00423737
0.00418038
0.00418494
0.00428413
0.00450123
0.00482105
0.00519404
0.0055663
0.00590885
0.00622163
0.00651988
0.00681998
0.00713119
0.00745064
0.00775851
0.00801384
0.0081435
0.00812129
0.00797963
0.00775835
0.00748288
0.00720082
0.00677106
0.00594368
0.00480808
0.00411726
0.00159516
0.0048311
0.0107717
0.00809614
0.00683265
0.006035
0.00545825
0.00501926
0.00466916
0.00435236
0.00406409
0.00380922
0.0035903
0.00340964
0.00327133
0.00318282
0.00315474
0.00319703
0.00331333
0.00349713
0.0037331
0.00400272
0.00429022
0.00458615
0.00488835
0.00520001
0.00552411
0.00584966
0.00614445
0.00637291
0.00650187
0.00651669
0.00640623
0.00611929
0.00542226
0.00434882
0.00309187
0.00258776
0.00133131
0.00271297
0.00323793
0.00393598
0.00390533
0.00331148
0.00291068
0.00260654
0.00236115
0.0021562
0.00198077
0.00183236
0.00170406
0.00159067
0.00148915
0.00139773
0.00131544
0.00124182
0.00117673
0.00112019
0.00107226
0.00103286
0.00100174
0.000978431
0.000962354
0.000952897
0.000949599
0.000952278
0.000961097
0.000977049
0.00100356
0.00103984
0.00108199
0.0011228
0.00115116
0.00115484
0.00114357
0.00111132
0.00106411
0.00109922
0.00130084
)
;

boundaryField
{
    floor
    {
        type            compressible::alphatWallFunction;
        Prt             0.85;
        value           nonuniform List<scalar> 
36
(
0.000145321
5.44511e-05
6.06975e-05
6.29269e-05
5.07879e-05
3.79529e-05
3.25764e-05
3.01551e-05
2.96478e-05
3.16012e-05
3.59613e-05
4.18599e-05
4.8056e-05
5.22855e-05
5.803e-05
6.78319e-05
7.75724e-05
7.87849e-05
6.9508e-05
6.95071e-05
8.97109e-05
0.000113825
0.000174306
0.000231894
0.000212354
0.000191838
0.000145319
0.000158891
0.000151869
0.000115541
5.44504e-05
0.00011554
7.58374e-05
0.000167153
0.000142439
0.000184611
)
;
    }
    ceiling
    {
        type            compressible::alphatWallFunction;
        Prt             0.85;
        value           nonuniform List<scalar> 
43
(
0.000368632
0.000434203
0.000519733
0.000516002
0.000443271
0.000393436
0.000355142
0.000323903
0.000297545
0.000274771
0.000255332
0.000238389
0.000223297
0.000209683
0.000197335
0.000186141
0.000176059
0.000167088
0.000159249
0.000152567
0.000147047
0.000142669
0.00013938
0.000137104
0.000135763
0.000135293
0.00013567
0.000136917
0.000139171
0.00014291
0.000148007
0.000153904
0.000159589
0.000163526
0.000164037
0.000162476
0.000157996
0.000151411
0.000156309
0.000184117
0.000502812
0.000588863
0.000627213
)
;
    }
    sWall
    {
        type            compressible::alphatWallFunction;
        Prt             0.85;
        value           uniform 0.00036754;
    }
    nWall
    {
        type            compressible::alphatWallFunction;
        Prt             0.85;
        value           nonuniform List<scalar> 6(0.000191597 0.000198313 0.000192022 0.000223503 0.000187927 0.000183769);
    }
    sideWalls
    {
        type            empty;
    }
    glass1
    {
        type            compressible::alphatWallFunction;
        Prt             0.85;
        value           nonuniform List<scalar> 9(0.000114182 0.000200569 0.000273399 0.000339638 0.000398944 0.000452843 0.00050164 0.00051136 0.0004955);
    }
    glass2
    {
        type            compressible::alphatWallFunction;
        Prt             0.85;
        value           nonuniform List<scalar> 2(0.000202192 0.000225702);
    }
    sun
    {
        type            compressible::alphatWallFunction;
        Prt             0.85;
        value           nonuniform List<scalar> 
14
(
0.000117629
0.000119905
0.00010673
0.000110367
0.000114572
0.000118575
0.00012236
0.000126013
0.000129675
0.000133558
0.000136932
0.000139695
0.000141906
0.000143827
)
;
    }
    Table_master
    {
        type            compressible::alphatWallFunction;
        Prt             0.85;
        value           nonuniform List<scalar> 9(6.66151e-05 4.42349e-05 5.02461e-05 5.90893e-05 6.80234e-05 7.75873e-05 8.84313e-05 0.000101737 0.000119866);
    }
    Table_slave
    {
        type            compressible::alphatWallFunction;
        Prt             0.85;
        value           nonuniform List<scalar> 9(0.000117768 0.000117977 0.000118842 0.000120377 0.000122921 0.000126855 0.000132531 0.000140302 0.000152682);
    }
    inlet
    {
        type            fixedValue;
        value           uniform 1.94e-05;
    }
    outlet
    {
        type            zeroGradient;
    }
}


// ************************************************************************* //
