/*--------------------------------*- C++ -*----------------------------------*=========                 |
  \      /  F ield         | OpenFOAM: The Open Source CFD Toolbox
   \    /   O peration     | Website:  https://openfoam.org
    \  /    A nd           | Version:  6
     \/     M anipulation  |
\*---------------------------------------------------------------------------*/
FoamFile
{
    version     2.0;
    format      ascii;
    class       volScalarField;
    location    "800";
    object      PPD;
}
// * * * * * * * * * * * * * * * * * * * * * * * * * * * * * * * * * * * * * //

dimensions      [0 0 0 0 0 0 0];

internalField   nonuniform List<scalar> 
458
(
55.693796060221146
45.8012113049497
47.2172107630063
46.78800346865379
46.35167079799744
45.952358993378404
45.684852574552984
45.51621172442453
45.51714848186832
45.71508331841578
46.100735835332394
46.818287231225945
47.996455168332986
49.04115396797819
47.80030811556479
22.054640822118785
21.926955443661512
22.091206500103596
21.709133903545037
21.277551060764964
21.277551060764964
21.38493802227505
21.170504058211762
20.780914368245348
20.587842768474886
20.552862575974856
20.6579174257311
20.833769914521554
21.34910462423136
22.681325066949427
24.04362570781211
24.024380772722992
23.870747766675464
55.692316793935426
46.29227232168034
48.8479020513126
48.15389674675959
47.86344305750162
47.657729871090716
47.53772578144321
47.50376438607548
47.56322335615856
47.70506582461843
47.865652255480406
48.055494545967285
48.186093577478104
47.89558777170427
47.17652932557044
48.53846435960385
50.0718150332488
47.16461181590562
19.093400427647808
23.870747766675464
24.33338508806129
24.89932740282765
24.43042270833851
22.662739894772812
22.64416398537267
22.64416398537267
22.64416398537267
22.79303047291326
23.186616452907245
24.04362570781211
25.912752226187706
28.25954848692811
30.758024975150207
30.210486320760523
27.44425887293025
21.493996676134458
59.687020248554084
46.61004023870758
51.19822231569451
50.13985143119271
50.139999498530344
50.28155609840329
50.47877269309804
50.71594312275954
50.93333122045419
51.13475238178901
51.23117024698339
51.079722236191245
50.516359443245385
49.37775375742072
47.85745271135783
46.50965898300077
44.71284640698783
41.87123234898031
31.226479197405354
31.42145433860081
31.46592738980138
32.384243157650346
33.47502036315126
28.217429717852227
24.178593729622833
25.09622341766253
26.64183290216326
28.154313846717173
29.732719348685663
31.399229193904375
33.24640932270701
35.799025457228026
38.332587197531424
34.003500634014756
31.644122300189764
23.68356688256462
64.61069317068981
47.62932601427977
53.455636343209456
52.203928758409845
52.60372274144783
53.176486809261284
53.840427539874696
54.521409226874795
55.12501842284578
55.563950893387954
55.7905801463129
55.600744729582146
54.787756338256884
53.34598151912051
51.29947826371854
48.803602899663865
45.557979210181294
41.77212847826798
39.581303198743086
39.6011525803726
40.865357046340606
44.105986586050285
46.76412309829556
48.433853676794214
49.90586337044507
50.94244515793693
52.03084151219183
53.03814135033859
53.40300424154623
53.820133018939345
54.26334902177913
54.65439523915036
54.65439523915036
52.10013693611347
50.20160206283108
47.82087413802475
47.35724271537558
69.57099868857162
49.371833736377454
55.19953373605912
54.10428080197598
54.91006564915667
56.04121420295179
57.26428432299424
58.500960197291285
59.62367983219963
60.544644202160526
61.07910446914487
61.049580618771145
60.364557315408
59.030777243573375
57.13562945105072
54.801851055480775
52.17829325010347
49.820954026707824
48.430291834875874
47.975135850227545
48.57239966564369
49.60997621081775
50.49686776291466
51.167933273293514
51.789694208811035
52.448094583716056
53.2146026540306
54.138173470399906
55.1670493664007
56.16552260929162
56.764036767073186
57.335958190833246
57.77744076391385
57.80339661642161
57.82935087624788
57.543768225991556
54.58106946817979
51.730547929879094
49.93356599939365
51.412234677021715
73.94578419117624
51.79991382252122
57.01807739536098
55.913395001749926
57.01014781070121
58.70442412804768
60.51192584124475
62.38147628608766
64.17057714108103
65.71452478406545
66.62162329152336
66.79368088375733
66.31040805724575
65.20047878378594
63.53326596003524
61.399562965531814
59.03204562985887
56.88084949227622
55.296810289483844
54.36687015593833
54.054396266262415
54.03863138624871
54.10007053085067
54.165610696947866
54.261549071403145
54.438428602020515
54.747214805222825
55.20808277499947
55.8349780081404
56.54126819413214
57.276673970944515
57.99908596907992
58.64167846334028
59.18078591051077
59.811812494408976
60.35101952558062
60.0820783634249
59.69384736391318
55.90789746474589
51.48318980983336
77.46323224297139
56.58702696082571
63.022961382727914
59.36649064951333
59.74771728864317
61.8447017143155
64.30763117026123
66.26593289058812
67.99031156646652
69.61367880698354
70.7112842394167
71.32514395049448
71.48957957648355
71.1335311629916
69.9585352182948
68.28537795701097
66.29695237714728
64.28573552394369
62.58172932325191
61.2749954528736
60.35865388011811
59.66982332540839
59.07701040550631
58.546740932365324
58.048185429238416
57.640022368119894
57.31446141573586
57.17417353563018
57.159547896968306
57.277773433035
57.44846223271481
57.556205846427694
57.564602355733804
57.4901583770144
57.33881760099058
57.13553056810336
56.921508303416466
57.20236990011412
61.64697628816403
48.110877763471905
82.78866115790086
72.34070206454335
73.34181744390091
67.15281945107336
66.2673719971524
66.7860816325605
67.37760828353288
68.57502853589979
70.30733211242504
71.723862187956
72.27905603900717
72.77628845214804
73.21465181562152
73.50321384713891
73.47943410689389
72.76879221838355
71.58338132688871
69.99708475639189
68.38051035733994
66.8107918319889
65.368973987112
64.11295454158149
62.99876350143581
62.03054760040734
61.1600819097773
60.36337003693373
59.71897015582426
59.27990950465613
59.12479113347924
59.38327754729126
59.083437882968155
58.334452272012584
57.45690562589454
56.59561269669424
55.788669867131496
55.03666231349408
54.49624688900703
54.053440042630896
52.614572891459204
48.92921142075039
89.01359676714144
84.84590067602797
82.42446263257088
77.99673391025112
73.94282707646855
71.70222990321284
70.64925794801574
70.31669822585019
70.4187675968069
70.82982434456915
71.42848179517503
72.05426221705488
72.62854738826084
73.11019428184576
73.45475000240347
73.62061526044522
73.58587132536348
73.32865117857365
72.44536812096877
71.06602532662575
69.66169764141982
68.30746541948021
67.03293828350509
65.81826422652756
64.66700051396411
63.55683724989555
62.5407830888074
61.59577779392912
60.852003502261596
60.414851978778565
60.26037409874285
60.38911235260276
60.67209790500076
61.134425049146756
61.8516403378118
60.56948428963017
59.697949247173426
59.38660921743011
57.39054405225321
52.978120772631115
87.66200154098503
82.04493136270966
78.7078175870967
76.69860354944264
75.15031283919271
74.2045192984416
73.73653550339137
73.54966924110784
73.49259201968792
73.57473003330301
73.69232179588721
73.81457974574687
73.91139473510381
73.93323067824514
73.83426965493689
73.56777372371332
73.12644777894984
72.51995658575123
71.78351512542861
70.98602117100964
70.13542986294789
69.3123415558025
68.52325159059713
67.35302546916624
66.11689397477144
64.94321101816188
63.83514764451905
62.871667641938394
62.10717150680983
61.59577779392912
61.288320718195266
61.18573575202839
61.26267905898054
61.51895604657386
61.11709637060412
59.16250087356441
56.47062688304008
57.4708973811105
86.7306570481818
83.10133691159389
82.06885209487524
80.07729413620216
78.2763346668292
77.08176650835003
76.388580934478
75.96988881072697
75.68704556911197
75.46888128051894
75.32297054918494
75.18583321248516
75.0423409026654
74.8796553717453
74.64129354464272
74.32233424393304
73.92259198695437
73.42153561263768
72.8000013345898
72.08632002655344
71.2833614650601
70.41550614816917
69.50364656743479
68.53909371055984
67.55435403923326
66.4975199146657
65.37417710290295
64.17692943429991
62.900060737311854
61.62125522771659
60.47738098960158
59.51177762380326
58.88598844928224
58.69081911228213
58.71631964982272
57.55406269105569
56.41827452761034
59.53061593281597
88.2415578368842
88.10313699257803
87.18125486231553
84.36795221941495
83.87032325686636
82.03870099961482
80.32010580313441
79.14896455312804
78.39230795931044
77.90328754232462
77.5275584746895
77.18463640584748
76.9006193548838
76.63548014510638
76.32604319286237
76.02835936493807
75.66187976946016
75.26811113449793
74.82383427500908
74.31010081572343
73.78239770789085
73.20082490863707
72.57080709715918
71.89519783799199
71.17355593763816
70.42717446925067
69.59868484698703
68.67533547664704
67.68955464136957
66.57370626418428
65.30401328750321
63.977479263920316
62.63963306677911
61.418501605156656
60.44618583755035
59.828968911742365
59.73491781570524
58.56482119207034
61.212447415337216
50.18245324767113
)
;

boundaryField
{
    ".*"
    {
        type            zeroGradient;
    }
}


// ************************************************************************* //
