/*--------------------------------*- C++ -*----------------------------------*\
  =========                 |
  \\      /  F ield         | OpenFOAM: The Open Source CFD Toolbox
   \\    /   O peration     | Website:  https://openfoam.org
    \\  /    A nd           | Version:  6
     \\/     M anipulation  |
\*---------------------------------------------------------------------------*/
FoamFile
{
    version     2.0;
    format      ascii;
    class       volScalarField;
    location    "800";
    object      T;
}
// * * * * * * * * * * * * * * * * * * * * * * * * * * * * * * * * * * * * * //

dimensions      [0 0 0 1 0 0 0];

internalField   nonuniform List<scalar> 
458
(
302.78
302.432
302.428
302.437
302.445
302.451
302.457
302.461
302.465
302.469
302.47
302.468
302.463
302.456
302.448
301.155
301.148
301.157
301.136
301.112
301.112
301.118
301.106
301.084
301.073
301.071
301.077
301.087
301.116
301.189
301.261
301.26
301.252
303.032
302.503
302.473
302.488
302.504
302.518
302.53
302.54
302.548
302.553
302.552
302.544
302.527
302.498
302.458
302.42
302.378
302.342
301.235
301.252
301.276
301.305
301.281
301.188
301.187
301.187
301.187
301.195
301.216
301.261
301.356
301.47
301.586
301.561
301.431
301.293
303.264
302.59
302.529
302.549
302.576
302.602
302.625
302.645
302.66
302.67
302.672
302.662
302.637
302.595
302.537
302.468
302.397
302.34
301.68
301.616
301.618
301.659
301.707
301.468
301.268
301.315
301.392
301.465
301.539
301.615
301.697
301.807
301.913
301.73
301.626
301.551
303.476
302.687
302.586
302.609
302.648
302.686
302.723
302.757
302.785
302.804
302.813
302.807
302.781
302.736
302.669
302.583
302.476
302.35
302.239
302.145
302.177
302.266
302.356
302.415
302.46
302.47
302.48
302.492
302.506
302.522
302.539
302.554
302.554
302.456
302.383
302.291
302.273
303.67
302.792
302.648
302.663
302.711
302.762
302.813
302.862
302.905
302.939
302.959
302.961
302.943
302.905
302.848
302.776
302.695
302.615
302.549
302.506
302.499
302.51
302.523
302.533
302.541
302.548
302.558
302.573
302.591
302.612
302.635
302.657
302.674
302.675
302.676
302.665
302.619
302.651
302.646
302.651
303.837
302.907
302.728
302.714
302.763
302.823
302.884
302.946
303.005
303.055
303.089
303.102
303.095
303.067
303.019
302.954
302.879
302.804
302.738
302.688
302.657
302.638
302.626
302.618
302.613
302.612
302.617
302.629
302.649
302.674
302.702
302.731
302.758
302.781
302.801
302.815
302.822
302.813
302.745
302.688
303.971
303.079
302.896
302.818
302.828
302.878
302.94
303.007
303.077
303.144
303.19
303.216
303.223
303.211
303.178
303.125
303.058
302.984
302.914
302.854
302.807
302.77
302.74
302.716
302.696
302.682
302.674
302.677
302.69
302.714
302.745
302.777
302.807
302.834
302.856
302.873
302.882
302.876
302.824
302.705
304.197
303.505
303.333
303.168
303.058
303.028
303.052
303.101
303.173
303.233
303.276
303.304
303.32
303.322
303.309
303.278
303.227
303.16
303.093
303.029
302.971
302.921
302.877
302.839
302.805
302.774
302.749
302.732
302.726
302.736
302.759
302.79
302.821
302.85
302.875
302.898
302.918
302.931
302.938
302.937
304.507
304.219
304.088
303.881
303.671
303.531
303.452
303.414
303.396
303.391
303.397
303.406
303.413
303.415
303.409
303.392
303.362
303.318
303.264
303.205
303.146
303.09
303.038
302.989
302.943
302.899
302.859
302.822
302.793
302.776
302.77
302.775
302.786
302.804
302.832
302.865
302.902
302.94
302.981
303.071
304.412
303.981
303.803
303.696
303.629
303.59
303.567
303.552
303.54
303.532
303.524
303.515
303.504
303.489
303.468
303.439
303.402
303.358
303.309
303.258
303.205
303.153
303.102
303.051
303.001
302.954
302.91
302.872
302.842
302.822
302.81
302.806
302.809
302.819
302.835
302.855
302.868
302.89
304.296
304
303.875
303.793
303.74
303.705
303.682
303.665
303.65
303.635
303.621
303.606
303.59
303.573
303.553
303.53
303.504
303.474
303.439
303.4
303.357
303.311
303.263
303.213
303.163
303.112
303.062
303.014
302.969
302.93
302.9
302.877
302.864
302.863
302.872
302.886
302.886
302.898
304.294
304.251
304.262
304.035
303.932
303.868
303.825
303.794
303.77
303.751
303.733
303.714
303.696
303.678
303.658
303.639
303.618
303.597
303.575
303.551
303.527
303.501
303.473
303.443
303.411
303.378
303.342
303.303
303.263
303.22
303.174
303.129
303.086
303.048
303.017
302.99
302.966
302.942
302.91
302.929
)
;

boundaryField
{
    floor
    {
        type            wallHeatTransfer;
        Tinf            uniform 305.2;
        alphaWall       uniform 0.24;
        value           nonuniform List<scalar> 
36
(
302.786
302.087
302.028
302.018
302.106
302.231
302.304
302.345
302.344
302.299
302.229
302.153
302.089
302.055
302.026
302.008
302.004
301.996
302.046
302.046
301.965
302.086
302.586
302.869
302.88
302.904
302.786
302.739
302.714
302.757
302.087
302.757
301.993
302.657
302.119
302.542
)
;
    }
    ceiling
    {
        type            wallHeatTransfer;
        Tinf            uniform 303.2;
        alphaWall       uniform 0.24;
        value           nonuniform List<scalar> 
43
(
304.231
304.198
304.217
303.999
303.897
303.831
303.788
303.756
303.731
303.71
303.691
303.671
303.652
303.633
303.614
303.594
303.574
303.553
303.532
303.51
303.487
303.463
303.438
303.412
303.384
303.354
303.323
303.29
303.255
303.217
303.177
303.137
303.099
303.065
303.037
303.014
302.993
302.972
302.944
302.957
304.45
304.18
304.257
)
;
    }
    sWall
    {
        type            wallHeatTransfer;
        Tinf            uniform 315.2;
        alphaWall       uniform 0.36;
        value           uniform 305.208;
    }
    nWall
    {
        type            wallHeatTransfer;
        Tinf            uniform 307.2;
        alphaWall       uniform 0.36;
        value           nonuniform List<scalar> 6(303.297 303.312 303.342 303.434 303.518 303.556);
    }
    sideWalls
    {
        type            empty;
    }
    glass1
    {
        type            wallHeatTransfer;
        Tinf            uniform 315.2;
        alphaWall       uniform 4.3;
        value           nonuniform List<scalar> 9(312.151 311.004 310.303 309.815 309.471 309.215 309.014 309.089 309.341);
    }
    glass2
    {
        type            wallHeatTransfer;
        Tinf            uniform 307.2;
        alphaWall       uniform 4.3;
        value           nonuniform List<scalar> 2(305.723 305.677);
    }
    sun
    {
        type            wallHeatTransfer;
        Tinf            uniform 305.2;
        alphaWall       uniform 0.24;
        value           nonuniform List<scalar> 
14
(
303.127
302.823
302.853
302.851
302.847
302.843
302.839
302.835
302.831
302.826
302.821
302.814
302.806
302.796
)
;
    }
    Table_master
    {
        type            zeroGradient;
    }
    Table_slave
    {
        type            zeroGradient;
    }
    inlet
    {
        type            fixedValue;
        value           uniform 296.15;
    }
    outlet
    {
        type            zeroGradient;
    }
}


// ************************************************************************* //
