/*--------------------------------*- C++ -*----------------------------------*\
  =========                 |
  \\      /  F ield         | OpenFOAM: The Open Source CFD Toolbox
   \\    /   O peration     | Website:  https://openfoam.org
    \\  /    A nd           | Version:  6
     \\/     M anipulation  |
\*---------------------------------------------------------------------------*/
FoamFile
{
    version     2.0;
    format      ascii;
    class       volScalarField;
    location    "900";
    object      alphat;
}
// * * * * * * * * * * * * * * * * * * * * * * * * * * * * * * * * * * * * * //

dimensions      [1 -1 -1 0 0 0 0];

internalField   nonuniform List<scalar> 
458
(
0.00134089
0.00146813
0.00151559
0.00159082
0.00166117
0.00173075
0.00180577
0.00187373
0.00192804
0.00195775
0.00195367
0.00182561
0.00163487
0.00142822
0.00123633
0.000601112
0.000704004
0.000811058
0.000862063
0.000858338
0.000813053
0.00076053
0.000712553
0.000670272
0.000632991
0.000599988
0.000570749
0.000544397
0.000519904
0.000496087
0.0004712
0.000448593
0.000406732
0.00174991
0.00391489
0.00361106
0.00409607
0.0045956
0.00507431
0.00540088
0.00576423
0.00612318
0.00642291
0.00664737
0.00677417
0.00638831
0.00515354
0.00329603
0.00141558
0.00124466
0.00105277
0.000580936
0.00147773
0.00226507
0.00285554
0.00300938
0.00215095
0.00182059
0.00160468
0.001448
0.00132884
0.00123463
0.00115057
0.00106725
0.000977913
0.00089426
0.000824248
0.000931239
0.000490496
0.00208407
0.00517687
0.00429187
0.0049059
0.00512559
0.0052775
0.0054157
0.00564164
0.00593691
0.00628876
0.0067021
0.00716404
0.00734196
0.00686663
0.00555174
0.00389915
0.0028903
0.00113958
0.000799055
0.00159914
0.00252096
0.00337982
0.00354426
0.00105387
0.000929173
0.000823808
0.00073777
0.000668017
0.000611348
0.00056553
0.000529178
0.000502479
0.000569131
0.000675946
0.00106941
0.000553291
0.00239772
0.00639331
0.00417894
0.00492923
0.00486387
0.00476402
0.00480129
0.00498
0.00526935
0.00567556
0.00618668
0.00674122
0.0070606
0.0069158
0.00631376
0.00521595
0.00401626
0.00219371
0.00119967
0.00167972
0.00255101
0.00362314
0.00449828
0.00449673
0.00117043
0.00107679
0.0010123
0.000963907
0.000922076
0.000881253
0.000841512
0.000798659
0.000747848
0.000698339
0.000701459
0.00119082
0.000620113
0.00271209
0.00804016
0.00416608
0.00472177
0.00456689
0.00434147
0.00437576
0.0045788
0.00489799
0.00534783
0.00588768
0.00638799
0.00658813
0.00649993
0.00624649
0.005706
0.00489209
0.0037858
0.00370835
0.0042905
0.00508134
0.00582511
0.00627354
0.0062567
0.00532424
0.00485073
0.00460536
0.0044345
0.00425148
0.00397524
0.00354048
0.00298458
0.00235571
0.00175703
0.00132294
0.00124852
0.000987977
0.000759423
0.00081414
0.000811871
0.00304783
0.00998044
0.00522748
0.00443044
0.00444502
0.00419585
0.00420928
0.00444568
0.00479119
0.00526022
0.00578275
0.00617483
0.00622587
0.00606759
0.00598759
0.00594743
0.00576205
0.0055289
0.0059678
0.00675336
0.00734487
0.00761838
0.00756939
0.00725935
0.00677535
0.00640296
0.00612766
0.00587983
0.00561941
0.00531854
0.00489929
0.00433676
0.00364309
0.00288199
0.00221844
0.00169534
0.00132491
0.00140797
0.00203604
0.00104569
0.00339481
0.0114812
0.0076248
0.00482151
0.00421448
0.00436767
0.0043547
0.00454898
0.00486366
0.0053014
0.00577836
0.00608145
0.00599449
0.00582481
0.00612353
0.00662731
0.00691489
0.00724649
0.00789539
0.00841721
0.00855093
0.00834058
0.00788331
0.00729741
0.00671269
0.00627376
0.00595272
0.00568588
0.00543658
0.00519667
0.00496524
0.00467476
0.00421597
0.00360904
0.00300148
0.00245568
0.00203284
0.00190162
0.00232316
0.00130429
0.00349241
0.0107455
0.00882647
0.00684098
0.00550303
0.00515085
0.00484543
0.0048193
0.00505712
0.0054409
0.00584773
0.00603877
0.00581369
0.0059181
0.00677871
0.00744687
0.00783912
0.0082367
0.0086334
0.00872401
0.008415
0.00780794
0.00704212
0.00627109
0.00564731
0.00523498
0.00496572
0.00476713
0.00461135
0.00449818
0.00443771
0.0044285
0.00438665
0.00405518
0.00374648
0.00355652
0.00355631
0.00357321
0.00448512
0.00169776
0.00344114
0.00420355
0.00482868
0.00502631
0.00489879
0.00478508
0.00475351
0.00493551
0.00525855
0.00560816
0.00590978
0.00592104
0.00557994
0.00618714
0.00715674
0.00759934
0.00783469
0.00798759
0.00796444
0.00763721
0.00698929
0.00615443
0.00531571
0.00464403
0.00420479
0.00394389
0.00377638
0.00365059
0.0035439
0.00344504
0.00334496
0.00323457
0.00312048
0.00302105
0.00294453
0.00289444
0.0028255
0.00269911
0.00253753
0.00163755
0.00165507
0.00284155
0.00364839
0.00420608
0.00477033
0.00531034
0.00561295
0.00574577
0.00576457
0.00540734
0.00541717
0.00619554
0.00664373
0.00671636
0.00665664
0.00646356
0.00606968
0.00546253
0.00473776
0.00402637
0.00348379
0.00315086
0.00297135
0.00287647
0.00282199
0.00278654
0.0027611
0.00274275
0.00273281
0.00273884
0.00276053
0.0027834
0.00280152
0.00279621
0.00273446
0.00258734
0.00231102
0.00135414
0.00243718
0.00491784
0.00556199
0.00631336
0.00680828
0.00621771
0.00552941
0.00498127
0.00446528
0.00412418
0.0044575
0.00468936
0.00465669
0.00450215
0.00425561
0.00389419
0.00342734
0.00293159
0.00251487
0.00223916
0.0020821
0.00201995
0.00201626
0.00204827
0.00210435
0.00217833
0.00226559
0.00236074
0.00245565
0.00255973
0.00266965
0.00278023
0.00287905
0.00294266
0.00297748
0.00311719
0.00208047
0.00140151
0.00291399
0.00294019
0.00297914
0.00348443
0.00313885
0.00261999
0.00188241
0.00156623
0.00130917
0.00110474
0.00096205
0.000882888
0.000828023
0.000794178
0.000769517
0.000747603
0.000725368
0.000702993
0.000684207
0.000674299
0.000676135
0.000688856
0.000709912
0.000735759
0.000765404
0.00079841
0.000834691
0.000874441
0.000918174
0.000966896
0.00102248
0.00108401
0.00115145
0.00122522
0.00130559
0.00139074
0.00147201
0.00131998
0.0012164
0.00136708
)
;

boundaryField
{
    floor
    {
        type            compressible::alphatWallFunction;
        Prt             0.85;
        value           nonuniform List<scalar> 
36
(
0.000175104
8.45093e-05
9.97551e-05
0.000115335
0.000122672
0.000122139
0.000115626
0.000108018
0.000101013
9.47924e-05
8.9268e-05
8.43443e-05
7.99543e-05
7.5974e-05
7.2253e-05
6.86138e-05
6.47874e-05
6.12897e-05
5.47528e-05
5.4752e-05
6.77567e-05
7.7321e-05
8.73526e-05
0.000107862
0.00011579
0.000115466
0.000175103
0.000199548
0.000176251
0.000149656
8.45082e-05
0.000149654
8.14827e-05
0.000161751
0.000113597
0.000170064
)
;
    }
    ceiling
    {
        type            compressible::alphatWallFunction;
        Prt             0.85;
        value           nonuniform List<scalar> 
43
(
0.000393556
0.000396834
0.000401701
0.000464338
0.000421684
0.000356686
0.000261813
0.000219967
0.000185245
0.000157072
0.000137051
0.000125795
0.000117924
0.000113038
0.000109462
0.000106273
0.000103025
9.9745e-05
9.6981e-05
9.55194e-05
9.579e-05
9.76647e-05
0.000100759
0.000104542
0.000108862
0.000113647
0.000118881
0.000124584
0.000130823
0.000137733
0.000145567
0.000154181
0.000163557
0.000173741
0.000184759
0.000196348
0.000207334
0.000186724
0.000172533
0.00019315
0.000459267
0.000552067
0.000333263
)
;
    }
    sWall
    {
        type            compressible::alphatWallFunction;
        Prt             0.85;
        value           uniform 0.000392288;
    }
    nWall
    {
        type            compressible::alphatWallFunction;
        Prt             0.85;
        value           nonuniform List<scalar> 6(0.000115253 0.000148467 0.000184213 0.000191039 0.000197467 0.000192807);
    }
    sideWalls
    {
        type            empty;
    }
    glass1
    {
        type            compressible::alphatWallFunction;
        Prt             0.85;
        value           nonuniform List<scalar> 9(0.000184472 0.000238525 0.000281768 0.000321761 0.000361352 0.000403147 0.000445873 0.000457947 0.000451925);
    }
    glass2
    {
        type            compressible::alphatWallFunction;
        Prt             0.85;
        value           nonuniform List<scalar> 2(0.000235561 0.000227677);
    }
    sun
    {
        type            compressible::alphatWallFunction;
        Prt             0.85;
        value           nonuniform List<scalar> 
14
(
0.000189414
0.000206634
0.000213019
0.000223095
0.000232471
0.000241701
0.000251607
0.000260542
0.000267656
0.00027154
0.000271008
0.000254225
0.00022898
0.000201256
)
;
    }
    Table_master
    {
        type            compressible::alphatWallFunction;
        Prt             0.85;
        value           nonuniform List<scalar> 9(0.000149984 0.000132402 0.000117328 0.000104849 9.46035e-05 8.61836e-05 7.93057e-05 7.37997e-05 6.97257e-05);
    }
    Table_slave
    {
        type            compressible::alphatWallFunction;
        Prt             0.85;
        value           nonuniform List<scalar> 9(0.000166206 0.000153193 0.000144154 0.000137328 0.000131395 0.000125575 0.000119878 0.000113699 0.000106321);
    }
    inlet
    {
        type            fixedValue;
        value           uniform 1.94e-05;
    }
    outlet
    {
        type            zeroGradient;
    }
}


// ************************************************************************* //
