/*--------------------------------*- C++ -*----------------------------------*\
  =========                 |
  \\      /  F ield         | OpenFOAM: The Open Source CFD Toolbox
   \\    /   O peration     | Website:  https://openfoam.org
    \\  /    A nd           | Version:  6
     \\/     M anipulation  |
\*---------------------------------------------------------------------------*/
FoamFile
{
    version     2.0;
    format      ascii;
    class       volScalarField;
    location    "900";
    object      k;
}
// * * * * * * * * * * * * * * * * * * * * * * * * * * * * * * * * * * * * * //

dimensions      [0 2 -2 0 0 0 0];

internalField   nonuniform List<scalar> 
458
(
0.00262579
0.00314196
0.00334811
0.00368865
0.00402205
0.004366
0.00475261
0.00511704
0.00541794
0.00558652
0.00556404
0.00486103
0.00389917
0.00297605
0.00223034
0.000528461
0.000724709
0.000961817
0.00108674
0.00107748
0.000966859
0.000846032
0.000742703
0.000657218
0.000586178
0.000526679
0.000476625
0.000433655
0.000395537
0.000360152
0.000324947
0.000294543
0.000242187
0.00447737
0.00799126
0.00472391
0.00498122
0.00538255
0.00592112
0.00656875
0.00733916
0.00805773
0.00848514
0.00850894
0.00804445
0.00676019
0.00525551
0.00364898
0.00292456
0.00226112
0.00161793
0.000493632
0.0010409
0.00149066
0.00173551
0.00179286
0.00156092
0.00129427
0.00107778
0.000910397
0.000779574
0.000675909
0.000590917
0.000518358
0.000454935
0.000409172
0.000382791
0.000560807
0.000352196
0.00635883
0.0136473
0.00529852
0.00514138
0.00534614
0.00576068
0.00636483
0.00711739
0.00781121
0.0082657
0.00844892
0.00832416
0.0074142
0.00619707
0.00482079
0.00375047
0.00299742
0.00189595
0.000933516
0.00139527
0.00174906
0.00199279
0.00203954
0.00162464
0.00126296
0.000992798
0.00079628
0.000652852
0.000546807
0.000467934
0.000409729
0.000369442
0.000347805
0.00035446
0.000779617
0.000448159
0.00842826
0.0213302
0.00597117
0.00497782
0.00498207
0.00531137
0.00594809
0.0067785
0.00749367
0.00799772
0.00829286
0.00821591
0.00733003
0.00611362
0.00498566
0.00399386
0.00322833
0.00242504
0.00210165
0.00217096
0.00230109
0.00248025
0.00257461
0.00249545
0.00200543
0.00169777
0.00150075
0.0013609
0.0012455
0.00113777
0.00103755
0.000934639
0.000819539
0.000614846
0.000488324
0.0010105
0.000562998
0.0107981
0.0319341
0.00774074
0.0048315
0.00459782
0.00496248
0.00586675
0.00693295
0.00770825
0.00824763
0.00855122
0.00831552
0.00719513
0.00576389
0.00464986
0.00388315
0.00332393
0.00295699
0.00319794
0.00324535
0.00331167
0.00335208
0.0032577
0.00300863
0.00268526
0.00247313
0.00235852
0.00226712
0.00215522
0.00199688
0.00178525
0.00153766
0.00127105
0.000977856
0.00073867
0.000876184
0.000898983
0.000844562
0.000970783
0.000965771
0.0136549
0.0439299
0.0127256
0.00537282
0.00444907
0.00475587
0.00637085
0.00763861
0.00841162
0.00892085
0.00912427
0.00864932
0.0071778
0.00536991
0.00410756
0.00354201
0.00337227
0.00346651
0.00382125
0.00410704
0.00420157
0.00406711
0.0037397
0.00331249
0.00295209
0.00278375
0.00272111
0.00266551
0.00257391
0.0024262
0.00219661
0.001915
0.00161168
0.00130409
0.00105121
0.000943076
0.000919145
0.00119678
0.00285626
0.00160239
0.0169603
0.0519977
0.0230272
0.00992735
0.00642462
0.00615507
0.00807898
0.00901567
0.00956753
0.00990163
0.00990824
0.0091321
0.00721339
0.00497988
0.00363024
0.00331062
0.00351787
0.00394388
0.00442815
0.0046727
0.00457836
0.00422142
0.00372868
0.00324189
0.00291501
0.00280684
0.00280131
0.00280954
0.00279875
0.00275359
0.00264825
0.00244201
0.002185
0.0019099
0.00169017
0.00156465
0.00154753
0.00184512
0.00420202
0.00249328
0.0179791
0.0547887
0.035943
0.0230514
0.01525
0.0125648
0.0116026
0.0112574
0.0112181
0.0111539
0.0108071
0.00958525
0.00706531
0.00442075
0.003395
0.00336056
0.00369726
0.00414963
0.00450023
0.00451573
0.00420026
0.00371183
0.00321874
0.00284664
0.00265845
0.00263008
0.00268524
0.00277732
0.00289353
0.00303483
0.00320361
0.00337393
0.00346824
0.00352419
0.00371205
0.00425322
0.00534299
0.00675811
0.014903
0.00422937
0.0174958
0.0260465
0.0250634
0.0221303
0.0186818
0.016202
0.0144076
0.0134964
0.0129878
0.0123964
0.011532
0.00960729
0.00611873
0.00381734
0.00326408
0.00331424
0.00354239
0.00375475
0.00379702
0.00360307
0.00322434
0.00280326
0.00246409
0.0022689
0.00221389
0.00225701
0.00235752
0.00249636
0.00266996
0.00288112
0.00313353
0.00342797
0.00377403
0.0042041
0.00477526
0.00547605
0.00618959
0.00674528
0.00710011
0.0039394
0.00828153
0.0124405
0.0142801
0.0148781
0.0152442
0.0153076
0.0144596
0.0129755
0.0112897
0.00778534
0.00437386
0.00314245
0.00284384
0.00281105
0.00282779
0.00278846
0.00263367
0.00237737
0.00209609
0.00185383
0.00170786
0.00166277
0.00169212
0.00176934
0.00187875
0.00201475
0.00217818
0.00237454
0.00261427
0.00291694
0.00330072
0.00376653
0.00431429
0.00489333
0.00537898
0.00559762
0.00532166
0.0026947
0.00845047
0.0269581
0.0252152
0.0245855
0.0230954
0.0182403
0.0137895
0.00940662
0.00566807
0.00337098
0.00245125
0.00213801
0.00199508
0.00190087
0.00179789
0.00165903
0.00148848
0.00132247
0.00120252
0.00114694
0.00114448
0.0011858
0.00126027
0.00136246
0.00149167
0.00165023
0.00184229
0.00207328
0.00234906
0.00268468
0.00308981
0.00357281
0.00412359
0.00468882
0.00524649
0.00619993
0.00357681
0.00288623
0.0121668
0.0123846
0.0127145
0.0174964
0.0142475
0.00996895
0.00517538
0.00359265
0.00251412
0.00179176
0.00135928
0.00114493
0.00100713
0.000926518
0.000869896
0.000821072
0.000772968
0.000726018
0.000687727
0.00066794
0.000671565
0.000697051
0.000740294
0.000795158
0.0008605
0.000936285
0.00102328
0.00112304
0.00123815
0.001373
0.00153537
0.00172568
0.00194704
0.00220447
0.00250317
0.00284035
0.00318222
0.00255908
0.00217415
0.0027484
)
;

boundaryField
{
    floor
    {
        type            kqRWallFunction;
        value           nonuniform List<scalar> 
36
(
0.00223034
0.000528461
0.000724709
0.000961817
0.00108674
0.00107748
0.000966859
0.000846032
0.000742703
0.000657218
0.000586178
0.000526679
0.000476625
0.000433655
0.000395537
0.000360152
0.000324947
0.000294543
0.000242187
0.000242187
0.000352196
0.000448159
0.000562998
0.000844562
0.000970783
0.000965771
0.00223034
0.00292456
0.00226112
0.00161793
0.000528461
0.00161793
0.000493632
0.00189595
0.000933516
0.00210165
)
;
    }
    ceiling
    {
        type            kqRWallFunction;
        value           nonuniform List<scalar> 
43
(
0.0121668
0.0123846
0.0127145
0.0174964
0.0142475
0.00996895
0.00517538
0.00359265
0.00251412
0.00179176
0.00135928
0.00114493
0.00100713
0.000926518
0.000869896
0.000821072
0.000772968
0.000726018
0.000687727
0.00066794
0.000671565
0.000697051
0.000740294
0.000795158
0.0008605
0.000936285
0.00102328
0.00112304
0.00123815
0.001373
0.00153537
0.00172568
0.00194704
0.00220447
0.00250317
0.00284035
0.00318222
0.00255908
0.00217415
0.0027484
0.0174958
0.0260465
0.00845047
)
;
    }
    sWall
    {
        type            kqRWallFunction;
        value           uniform 0.0121668;
    }
    nWall
    {
        type            kqRWallFunction;
        value           nonuniform List<scalar> 6(0.000965771 0.00160239 0.00249328 0.0026947 0.00288623 0.0027484);
    }
    sideWalls
    {
        type            empty;
    }
    glass1
    {
        type            kqRWallFunction;
        value           nonuniform List<scalar> 9(0.00262579 0.00447737 0.00635883 0.00842826 0.0107981 0.0136549 0.0169603 0.0179791 0.0174958);
    }
    glass2
    {
        type            kqRWallFunction;
        value           nonuniform List<scalar> 2(0.00422937 0.0039394);
    }
    sun
    {
        type            kqRWallFunction;
        value           nonuniform List<scalar> 
14
(
0.00262579
0.00314196
0.00334811
0.00368865
0.00402205
0.004366
0.00475261
0.00511704
0.00541794
0.00558652
0.00556404
0.00486103
0.00389917
0.00297605
)
;
    }
    Table_master
    {
        type            kqRWallFunction;
        value           nonuniform List<scalar> 9(0.00162464 0.00126296 0.000992798 0.00079628 0.000652852 0.000546807 0.000467934 0.000409729 0.000369442);
    }
    Table_slave
    {
        type            kqRWallFunction;
        value           nonuniform List<scalar> 9(0.00200543 0.00169777 0.00150075 0.0013609 0.0012455 0.00113777 0.00103755 0.000934639 0.000819539);
    }
    inlet
    {
        type            turbulentIntensityKineticEnergyInlet;
        intensity       0.05;
        value           uniform 0.0018375;
    }
    outlet
    {
        type            zeroGradient;
    }
}


// ************************************************************************* //
