/*--------------------------------*- C++ -*----------------------------------*=========                 |
  \      /  F ield         | OpenFOAM: The Open Source CFD Toolbox
   \    /   O peration     | Website:  https://openfoam.org
    \  /    A nd           | Version:  6
     \/     M anipulation  |
\*---------------------------------------------------------------------------*/
FoamFile
{
    version     2.0;
    format      ascii;
    class       volScalarField;
    location    "900";
    object      PPD;
}
// * * * * * * * * * * * * * * * * * * * * * * * * * * * * * * * * * * * * * //

dimensions      [0 0 0 0 0 0 0];

internalField   nonuniform List<scalar> 
458
(
46.58927770635119
34.473202214984525
32.80239532735877
31.493442351863024
30.726124723524734
30.43522643656796
30.670283952882215
31.60731190116431
33.42837650603907
36.418839307603186
40.19464800343176
44.52873452650477
44.066932440753796
44.0011081821103
44.5810787503035
55.43399520185336
54.62705895522913
54.36668642875487
54.88740458559008
55.30387491559514
54.81798065493021
54.206901475329936
54.11009215058379
54.218815208285875
54.394348016691886
54.6263524868793
54.87224941627984
55.2042750943468
55.62395305683385
56.30065773915099
57.42783475767278
58.497510987650834
59.35033459937309
43.10816258832023
34.621065576887915
33.71160479797051
32.304256360381515
31.482684789111715
31.119851896048132
31.266388892070182
31.80421209643167
32.818315112174375
34.47979916384405
37.19025463022488
42.22623323750622
46.31328145871475
45.59527536359415
42.8767610168698
42.0575119940854
43.39699108311228
45.732832028464664
54.15462436671676
53.63766828316514
53.715784615300905
53.67628928409227
53.68758395321054
53.78467439566933
53.913456656221534
54.104076526773476
54.274097489214796
54.42006550623818
54.57369759639321
54.74608934114879
54.93674024902939
55.23305871236832
55.77094716033466
56.88166932351274
57.876472168956965
58.00319650341835
44.40082316642459
33.90359925954536
34.7192376847308
33.8309251984669
33.33383016132072
33.03462697556897
32.95492491226261
32.71519181147029
32.12828624325968
32.13362988197798
34.082901521964885
39.14447519837953
46.028316184335
48.18864101167459
46.42768366426127
45.51471273523744
45.67841841098836
45.776393762447434
48.98887051263901
50.733491157511146
50.90980059410526
51.67644959665506
52.61812667682849
52.88441119276936
54.168525729135816
55.20007502601342
55.698730559681856
55.96190960430862
56.18118936259483
56.32859555833966
56.399692437099006
56.245453476639895
56.287791745439485
57.028814037868
56.67584466410145
54.62967252746261
48.00094442685092
33.34674527924987
35.42084301405531
35.70740008173328
36.273770754275205
36.50296921128315
36.292503060509624
34.754670507331355
31.91247830122944
30.266943026268393
31.789259313731122
37.217913133855944
44.785748589062074
49.791103322169356
49.66160318537686
47.95867889851511
45.69990658129325
44.14952089642803
42.624096571454665
45.91468607295943
48.07035680957821
50.03287365487321
52.351092580199065
54.813883884919456
56.80649146891879
56.93687823097492
56.99341777094095
57.29431042037283
57.634593892503396
58.02294933396902
58.530745131198955
59.30753254038816
60.47785471266544
59.93259992381483
58.62350386942447
56.089009462792674
53.02069759017802
52.789656601446225
33.47491317210839
35.91100339159
37.528997783047316
40.01470858795496
41.91488937369001
41.63486950719258
37.627309950703584
32.01272318762449
28.951404327786307
30.161830127758847
36.085835615576926
44.18098529118086
50.998007570316986
51.78989903358496
51.08818789010796
48.293204541724194
46.558204816585715
46.791866671424195
47.93941545856319
50.02089925970448
52.78233718023272
55.73313945384687
58.52568568700021
60.80186820459865
61.73684935793989
62.17568648194273
62.530049142318546
62.754812966834805
62.81330764672484
62.82352515185081
62.81230162374435
62.684555752333715
61.60579631732535
59.66042287302337
55.97453195068923
55.37689746737801
53.04158608430377
52.55305596070725
52.29572818400161
57.937689903289154
34.61275139270674
36.92317071332989
38.748466150195114
42.941790154988645
47.77643187746537
47.75490631930362
39.62891452959883
31.887688899829158
28.054693962898128
29.264479810458127
35.476249670663734
44.48820200962059
52.65061535339579
54.158376222362065
53.429364807216466
52.57032143345142
51.50693578231578
51.793215751148196
53.299488900178154
55.69965396075747
58.517649023892645
61.30447080426085
62.98725026178137
64.25125685968294
65.12970131113585
65.72876137000159
66.1265577009628
66.37451695265247
66.4488032367465
66.30018360699562
65.84349102723746
64.86669418270644
63.260890437151616
61.0795591398878
57.717856066479115
56.74004833841047
57.40636605804875
56.27537874113323
53.33111287999521
62.778087976801636
38.44614777131632
41.76470294193915
40.7109984505516
43.68954708747072
48.808037356838156
46.23779641406191
38.67710780869537
31.11293172695403
27.321035358930473
28.866958634939323
35.88430876744077
46.26615281090326
55.798247689744215
56.94194298964477
56.318345171512775
55.64215581562719
55.77223419576647
57.045811183393944
58.96296678218855
61.04825879266778
62.98725026178137
64.6284092086552
65.85321105049007
66.72077909253463
67.23818820250452
67.55725935936627
67.70419798782257
67.7531313458561
67.65524148290586
67.43465296085012
67.01673783202338
66.49830114173636
65.5309291812768
63.22163661571244
60.29456900649896
58.52804722242556
58.002937014441166
55.41539051051737
54.51623821192908
69.84235565431723
57.83110151971132
53.18008868787488
47.05592236787936
46.45346774095414
46.84835906905087
43.28381046855404
35.625121740010854
28.406856639232885
25.918265885038636
29.045639718942297
38.043358984070814
50.545058740163995
58.96296678218855
59.969057717502665
59.73719759173193
59.556726698753245
60.097781694506295
61.534799083588126
63.24085303250388
64.87928508527537
66.25060203713248
67.2627659770194
67.9242146392371
68.31417493848316
68.48429875274942
68.53285070875364
68.46001360321323
68.33849654265907
68.14375514094793
67.89979172261263
67.55725935936627
67.09060448565185
66.42404638850266
65.67894672888389
64.80407010145757
63.803485623550074
62.91007879328505
57.46121244527139
52.34387538086586
79.35135719241005
72.30129567012675
64.24204390587796
56.33489156939986
51.507480436037135
48.71254856236903
39.293177227198186
28.575570132421973
23.12028842063438
24.138962200081423
30.965645963086374
43.87221654351104
58.39399127311471
62.3770773329979
63.19016332867294
63.367508861891096
63.671077033168665
64.40223672244235
65.52938469344568
66.6960806808818
67.65524148290586
68.01000543392502
68.00827385206799
67.83849335954537
67.61752377381569
67.33207968681602
66.98845561749872
66.60908412318864
66.15335769129658
65.62816685832715
65.02933908307577
64.33822893717168
63.59078540056251
62.79561826695785
61.77454190152622
60.63387643295816
59.62548430153075
58.86594620818038
58.01754191906611
56.300243181956034
30.779264890284225
6.930140519113195
5.499481957772147
7.120761133273419
8.365098363167505
10.77548837185769
15.834556706727653
25.647340678917814
39.70109941327089
57.019846016619894
63.05435395523281
63.822513319928156
64.06276515317573
64.34614740447286
64.86022729771783
65.53666185618755
66.23425754873995
66.7480657158422
66.96392621067375
66.9489512992611
66.75345933260834
66.46782899761479
66.11146725702804
65.72207311376833
65.29026216664619
64.86562458879449
64.40133816911819
63.985173275749425
63.58105375920635
63.239874950032274
62.955199980852704
62.745454141200284
62.51167701218908
62.3569729344092
62.504536217520496
63.46325613677922
65.87088461021231
63.87815403960754
29.626107442479835
5.41346047234812
6.41243238832665
10.10021713633337
13.98754746075393
21.806971851471005
34.04240315678767
50.98429762218656
60.32861820599639
62.75593912048653
63.98450489114125
64.54027691946436
64.89352977554071
65.26552953032713
65.62404129892565
66.00915527309346
66.32467919044996
66.50815618790733
66.51123883882099
66.44337805452278
66.2729268206194
66.04534097874372
65.78885882605647
65.50950738275448
65.18937453616343
64.89048284932925
64.626796679813
64.38886854093151
64.201591777055
64.12201550021751
64.19579494418569
64.48325184381346
64.92753403136851
65.42251305925865
66.09184795160336
68.2416393291922
65.5613420076633
69.79834586061536
15.038220852998919
14.108321115361576
11.511053419115157
5.012145810931074
10.337944628646653
23.750901234617842
43.11705801176639
54.606541044849315
59.98344634758666
62.701034359108945
64.10644725592635
64.9048957907327
65.48531943520696
65.87148301431091
66.13906868331343
66.36963118463589
66.5755259721539
66.75061189306868
66.85271898239338
66.86883394624076
66.79725183019163
66.66795909197948
66.5102794918996
66.3207966886751
66.08237753140938
65.85551503653704
65.6253001177977
65.43174834371919
65.2416806506355
65.13221779056477
65.11242672580431
65.24544580192867
65.68739073675584
66.65647485853367
68.40273934126336
69.42655415340064
69.666589265747
67.18550890824787
66.25692078317405
62.297383505334814
)
;

boundaryField
{
    ".*"
    {
        type            zeroGradient;
    }
}


// ************************************************************************* //
