/*--------------------------------*- C++ -*----------------------------------*\
  =========                 |
  \\      /  F ield         | OpenFOAM: The Open Source CFD Toolbox
   \\    /   O peration     | Website:  https://openfoam.org
    \\  /    A nd           | Version:  6
     \\/     M anipulation  |
\*---------------------------------------------------------------------------*/
FoamFile
{
    version     2.0;
    format      ascii;
    class       volScalarField;
    location    "1100";
    object      alphat;
}
// * * * * * * * * * * * * * * * * * * * * * * * * * * * * * * * * * * * * * //

dimensions      [1 -1 -1 0 0 0 0];

internalField   nonuniform List<scalar> 
458
(
0.00126254
0.00138014
0.00141658
0.00148621
0.00155054
0.0016118
0.00167356
0.00173588
0.00178729
0.00182045
0.00182602
0.00179448
0.00171355
0.00153135
0.00117474
0.000555338
0.000658411
0.000761191
0.000805636
0.000796304
0.000744283
0.000685803
0.000633027
0.000586881
0.000546273
0.000510212
0.000478047
0.000448392
0.000419803
0.000390412
0.000357249
0.000333523
0.000304585
0.0016817
0.00387716
0.00361013
0.004142
0.00468503
0.00524132
0.00573688
0.00613028
0.00653671
0.00692325
0.0072429
0.00744697
0.00748164
0.00720313
0.00576993
0.00155267
0.00128625
0.00103559
0.000546042
0.00134047
0.00202819
0.00255684
0.00272061
0.00194421
0.00162676
0.00141148
0.00125238
0.00113068
0.00103337
0.000941979
0.0008521
0.000763087
0.000687753
0.000620888
0.000751654
0.000436343
0.00203107
0.0052204
0.00440103
0.00531783
0.0057401
0.00603944
0.00626769
0.00648314
0.00678354
0.00715998
0.00758707
0.0080119
0.00835247
0.00845874
0.00795986
0.00649312
0.00485171
0.00126361
0.000870189
0.00155074
0.00232803
0.00308421
0.00328466
0.001016
0.000882467
0.000771659
0.000682044
0.000609813
0.000551566
0.000505071
0.000468436
0.000440742
0.000484552
0.000539829
0.000867068
0.000512697
0.00236627
0.00660731
0.00431997
0.00552349
0.0057556
0.00573933
0.00571787
0.00581331
0.00605025
0.00642482
0.00692845
0.00748966
0.00798388
0.00827497
0.00823881
0.0078186
0.00669279
0.00365962
0.00144948
0.00179173
0.00251332
0.00344857
0.00428176
0.00433558
0.00115201
0.00104785
0.000978357
0.000929912
0.000892425
0.000857377
0.00082068
0.000782438
0.000737287
0.000676495
0.000631686
0.000981264
0.000582216
0.00270915
0.00845785
0.00452338
0.00526786
0.00558439
0.00539572
0.00523321
0.0052982
0.00552894
0.00591298
0.00646661
0.00708373
0.00756517
0.00782967
0.00787461
0.0077502
0.0073036
0.00606527
0.00538892
0.005467
0.00583163
0.00626572
0.00654647
0.00644195
0.00542374
0.00491088
0.00464525
0.00447037
0.00430237
0.00409094
0.00374341
0.00322941
0.00259936
0.00196011
0.0014458
0.00119969
0.000977556
0.000716488
0.000747531
0.000753156
0.00307772
0.0105456
0.00610513
0.00492438
0.00533487
0.00534015
0.00509623
0.00515544
0.00537154
0.00575535
0.00631535
0.00692248
0.00738228
0.00757169
0.00753023
0.00742182
0.00736329
0.00725848
0.00744073
0.00782045
0.00811934
0.00822422
0.00809864
0.0077395
0.00716792
0.00668319
0.00629378
0.00594702
0.00561642
0.00528874
0.00494702
0.00449758
0.00390696
0.00320046
0.0025095
0.00189355
0.00148294
0.00148002
0.00200299
0.000996332
0.00343687
0.0120974
0.00890415
0.00602079
0.0053257
0.00540782
0.00538171
0.00535098
0.00546315
0.00582275
0.00639944
0.00701698
0.00744509
0.00755281
0.00743029
0.0073621
0.0076586
0.00823458
0.00882806
0.00921805
0.00929073
0.0090753
0.00862999
0.00801838
0.00732304
0.00670318
0.00618466
0.00574431
0.00537501
0.00506798
0.00482078
0.00462234
0.0043457
0.00389294
0.00334069
0.00278388
0.00234676
0.00215969
0.002455
0.00125587
0.00352259
0.0111088
0.00951821
0.00811421
0.0070677
0.00656386
0.00598711
0.0056198
0.00564502
0.00605422
0.00670025
0.00732809
0.00768261
0.00767391
0.00753054
0.00769857
0.0084684
0.00908322
0.00944933
0.00953266
0.00928195
0.00874833
0.00800648
0.0071545
0.00633417
0.00567281
0.00517989
0.00481772
0.0045603
0.00439366
0.00431169
0.00431389
0.00437503
0.00431715
0.00407682
0.00391254
0.0038999
0.00378335
0.00444304
0.00162885
0.00344807
0.00415498
0.00459413
0.00483904
0.00488534
0.00482369
0.00485306
0.00511962
0.00567713
0.00645695
0.00726326
0.00782569
0.00795176
0.00770962
0.00780146
0.00823989
0.00871489
0.00892947
0.00890327
0.00861812
0.00806815
0.00730508
0.00641236
0.00554289
0.00483829
0.00434231
0.00400924
0.00378434
0.00363106
0.00352467
0.00344484
0.00337176
0.00328568
0.00319795
0.00310433
0.00301372
0.00289143
0.00271615
0.00252895
0.00157112
0.00148286
0.00259433
0.0035843
0.00441879
0.00524135
0.00614256
0.00700771
0.00777415
0.0082499
0.00822816
0.0077949
0.00741115
0.00749652
0.00770215
0.00772908
0.00755879
0.0071925
0.00662771
0.00591622
0.00516669
0.00449781
0.00396395
0.00357648
0.00331186
0.00313177
0.00300937
0.00292731
0.0028745
0.00284432
0.00283371
0.00284618
0.00286247
0.00286213
0.00282982
0.00273494
0.00254609
0.00222386
0.00127614
0.00227894
0.00465024
0.00602433
0.00707251
0.00793681
0.00816513
0.00817159
0.00824863
0.0079434
0.00711192
0.00635907
0.00596557
0.00577022
0.00557933
0.00535402
0.00507516
0.0047229
0.00431756
0.00391798
0.00358073
0.00332578
0.00313736
0.00298492
0.00284629
0.00273411
0.00265789
0.00261662
0.00260694
0.0026229
0.00265381
0.00270781
0.00277646
0.00283852
0.0028634
0.00283993
0.00284239
0.00197499
0.00131417
0.00242279
0.00248881
0.00254707
0.00284483
0.00268819
0.00239962
0.00208817
0.00187734
0.00174899
0.00160523
0.00144205
0.00129332
0.00115816
0.00106308
0.00100612
0.000970018
0.00094298
0.000918158
0.000892773
0.00086736
0.000844012
0.000824444
0.000809399
0.000799556
0.000796442
0.00080262
0.00081741
0.000840027
0.000870613
0.000909391
0.000957159
0.0010161
0.00108249
0.00115422
0.0012302
0.00130546
0.00136022
0.00121594
0.00112678
0.00131436
)
;

boundaryField
{
    floor
    {
        type            compressible::alphatWallFunction;
        Prt             0.85;
        value           nonuniform List<scalar> 
36
(
0.000166669
7.76606e-05
9.30702e-05
0.000108145
0.000114586
0.000113237
0.000105682
9.71114e-05
8.9301e-05
8.24063e-05
7.62835e-05
7.07987e-05
6.58653e-05
6.12792e-05
5.68208e-05
5.21958e-05
4.69221e-05
4.31154e-05
3.84295e-05
3.84289e-05
5.94283e-05
7.12024e-05
8.17281e-05
0.00010164
0.000106175
0.000106995
0.000166667
0.000218055
0.000182001
0.000147296
7.76597e-05
0.000147294
7.62534e-05
0.000178899
0.000123864
0.000204181
)
;
    }
    ceiling
    {
        type            compressible::alphatWallFunction;
        Prt             0.85;
        value           nonuniform List<scalar> 
43
(
0.00033155
0.000339961
0.000347366
0.000385009
0.000365336
0.00032873
0.000288679
0.000261203
0.000244313
0.000225227
0.000203326
0.000183118
0.000164525
0.000151295
0.000143306
0.000138214
0.000134387
0.000130863
0.000127247
0.000123614
0.000120265
0.00011745
0.00011528
0.000113856
0.000113403
0.000114294
0.000116427
0.000119683
0.000124069
0.000129606
0.000136388
0.000144703
0.000154003
0.000163978
0.000174465
0.000184781
0.000192243
0.000172504
0.000160176
0.000186004
0.000460179
0.000546271
0.000313039
)
;
    }
    sWall
    {
        type            compressible::alphatWallFunction;
        Prt             0.85;
        value           uniform 0.000330334;
    }
    nWall
    {
        type            compressible::alphatWallFunction;
        Prt             0.85;
        value           nonuniform List<scalar> 6(0.0001068 0.000141591 0.000177647 0.000180449 0.000185645 0.000185677);
    }
    sideWalls
    {
        type            empty;
    }
    glass1
    {
        type            compressible::alphatWallFunction;
        Prt             0.85;
        value           nonuniform List<scalar> 9(0.000174356 0.000230099 0.000275503 0.000318356 0.000361587 0.000407463 0.000451658 0.000462265 0.000453382);
    }
    glass2
    {
        type            compressible::alphatWallFunction;
        Prt             0.85;
        value           nonuniform List<scalar> 2(0.000226719 0.000219107);
    }
    sun
    {
        type            compressible::alphatWallFunction;
        Prt             0.85;
        value           nonuniform List<scalar> 
14
(
0.000178771
0.000194796
0.000199734
0.000209132
0.00021777
0.00022596
0.000234181
0.000242443
0.000249234
0.000253602
0.000254335
0.000250181
0.000239485
0.000215197
)
;
    }
    Table_master
    {
        type            compressible::alphatWallFunction;
        Prt             0.85;
        value           nonuniform List<scalar> 9(0.00014466 0.000125735 0.000109774 9.6664e-05 8.59449e-05 7.71874e-05 7.01149e-05 6.44848e-05 6.01919e-05);
    }
    Table_slave
    {
        type            compressible::alphatWallFunction;
        Prt             0.85;
        value           nonuniform List<scalar> 9(0.000163647 0.000149137 0.000139364 0.000132504 0.000127168 0.000122155 0.000116879 0.00011135 0.000104781);
    }
    inlet
    {
        type            fixedValue;
        value           uniform 1.94e-05;
    }
    outlet
    {
        type            zeroGradient;
    }
}


// ************************************************************************* //
