/*--------------------------------*- C++ -*----------------------------------*=========                 |
  \      /  F ield         | OpenFOAM: The Open Source CFD Toolbox
   \    /   O peration     | Website:  https://openfoam.org
    \  /    A nd           | Version:  6
     \/     M anipulation  |
\*---------------------------------------------------------------------------*/
FoamFile
{
    version     2.0;
    format      ascii;
    class       volScalarField;
    location    "1100";
    object      PMV;
}
// * * * * * * * * * * * * * * * * * * * * * * * * * * * * * * * * * * * * * //

dimensions      [0 0 0 0 0 0 0];

internalField   nonuniform List<scalar> 
458
(
1.8087311178990544
1.6079726502251759
1.5816042232741683
1.5586622495196443
1.543078489474146
1.5329418796108083
1.5295712175990552
1.5323165472396838
1.5427104698882812
1.5618118443409015
1.5922010689989654
1.6381495839679483
1.7017705071170381
1.7154352607433752
1.7360062166370496
1.8335358336419232
1.8211117707540092
1.8148990269923306
1.8177665055993488
1.8215896546023276
1.8258904828709877
1.8176864330147877
1.815941032603755
1.8179337558933935
1.821147218092428
1.825039174223568
1.83030368575679
1.8360001398063557
1.844125013699125
1.8559010735463273
1.8626769067409505
1.8555120911404697
1.8454802209474983
1.780839050970996
1.6235758435578205
1.6124607134092945
1.5916474145728843
1.57814301338965
1.5698276465748833
1.5659553716486478
1.5673588410075745
1.5704932011267367
1.577473868476308
1.5919512694567894
1.6186613293395498
1.6622595660220072
1.7063444206650475
1.7178274514504626
1.7235684758813508
1.7209209406474062
1.731352607992391
1.8197609589015373
1.8062959961175176
1.8024721431579758
1.8028675043930604
1.798925247671857
1.8007556714020563
1.8032168060608194
1.8065754778252077
1.8096248820683085
1.8123925225149533
1.8152845089387486
1.8184767092748328
1.8223515453212762
1.8269535287487455
1.834636087783376
1.8496949594764727
1.8478688797442213
1.8162354049676228
1.8249110349344662
1.6242409389033234
1.641920716138583
1.6321566272674415
1.628827362709785
1.6263831307057655
1.6251165972313544
1.624731189083485
1.6167057815496162
1.6020486205369493
1.5900694376103677
1.5944018781114955
1.622261617957468
1.677499156469745
1.7135214672913452
1.7206980049766865
1.7269172535380701
1.7237887755451449
1.7399783837267275
1.7593189923125467
1.7582580826002878
1.7639553709874112
1.7723459926664105
1.7774186769506293
1.7965911585705954
1.8122630200442045
1.8208797071598954
1.825396628199209
1.8292236279066512
1.8319383727606153
1.8325677710180246
1.828618487433171
1.8271461028065894
1.8365582287647588
1.8239210306547782
1.777032942393364
1.9003676132166814
1.6272233777901104
1.6640710219683577
1.6732871672947853
1.6890146198278515
1.7016300479894995
1.709265094833361
1.7068056013649404
1.6775865084757176
1.6289095127229425
1.5849895188158525
1.5687930866810311
1.589668353695329
1.6398515258894484
1.6949193135167446
1.7245252810729328
1.709553794178432
1.6854944100429146
1.6559623971087858
1.6820783617911843
1.7095040893408084
1.7357476445278508
1.7641662623116208
1.7953047798091284
1.8213782339843614
1.8221740954645143
1.8230886229067407
1.8270250372900496
1.8318101628006198
1.8363923965457774
1.8424321486222128
1.8516976817379056
1.8674727570863399
1.8636012492283727
1.8493826183876716
1.8124278137339227
1.7636442542664328
1.9898113002590594
1.642522062948422
1.6817628597754188
1.7071912525545954
1.7479176565507204
1.7895860115962061
1.8189170106534938
1.802116202045071
1.731444782091723
1.6448265864836547
1.5739177243663987
1.5461638108325269
1.565189781598211
1.615720416892645
1.675375637614542
1.719557257458483
1.7207020042339878
1.7019112970849786
1.698031112022463
1.712502840963486
1.7393900190641534
1.7728782888584016
1.8090148579132737
1.8446120477595758
1.874985146722361
1.8882958347851702
1.895996012331459
1.901997457672453
1.9065246673376577
1.9079860794635728
1.907317563125516
1.906077492576245
1.9028260712508838
1.8877963333108418
1.862231913687339
1.8108197957126404
1.8018466554879469
1.7627497964679604
1.7470041284010285
1.7357014554862438
2.0796530987009327
1.6761545300080662
1.7142763955682563
1.73480323210473
1.787408473987236
1.8569451083859976
1.8937164364298829
1.843028620925711
1.7401114862422868
1.6356570177071628
1.5564752068122536
1.5263374634170788
1.5479522375714838
1.6065531860993696
1.677901136876103
1.7387416617559825
1.7642984861802713
1.7597958473625193
1.765137674275306
1.7852171693717713
1.8159543482019846
1.8514650062312985
1.8765269409347864
1.8980131641795597
1.9161519817664432
1.931423022427465
1.943351066135276
1.9528919131289537
1.9600466052316254
1.9643390273059056
1.9657697686006006
1.9564966265288593
1.94054613327203
1.9161437039437839
1.8841163000698518
1.8372146904613753
1.8188850305050932
1.825493149447587
1.806557364284955
1.7561296272408853
2.1640783381411155
1.7579829291679483
1.8238150219145803
1.7946809466717404
1.8128840837663194
1.8653330741393481
1.8644118647342873
1.805213341969121
1.7066683559422755
1.5981869219913762
1.5214382715899508
1.50165493308158
1.5404756636526176
1.6177151434353856
1.7102287474549418
1.7847845963547122
1.8058180239883448
1.8196781024276776
1.83592485576488
1.8550344127406773
1.87604939673824
1.8984905621970796
1.9190155667400677
1.937625877764197
1.9528919131289537
1.9643390273059056
1.9733998262663845
1.9795985437296764
1.982936050260324
1.9843663531511597
1.9834128217030897
1.9795985437296764
1.9724461211385917
1.9564296809659358
1.9197400165416405
1.8774228124760224
1.8503671947976092
1.8406090928686032
1.7973237517069327
1.777376880803988
2.290568852702825
2.062825580864307
2.0099983223119486
1.9114000438102354
1.8790829040201276
1.8703549364951055
1.8389648589816265
1.7529102322265702
1.6289409526491323
1.5173875208480738
1.4618971614804517
1.4764992737391527
1.5536740287727813
1.664809605659321
1.7881311665504458
1.8311467398521968
1.8569451083859976
1.8722289314313645
1.8879870611426939
1.9061284869915585
1.924742371520447
1.9423969032653523
1.9581387671191723
1.971492401077121
1.981505713097965
1.98818032593997
1.9924707510383204
1.9939008230776567
1.9939008230776567
1.9924707510383204
1.9900872201467248
1.985796621678083
1.9800753417563715
1.97101553545465
1.9600466052316254
1.9481216679330318
1.9367538587840893
1.9196903571064907
1.8281319849205329
1.7409976447262996
2.4774294853761045
2.333368737068173
2.2011524337986565
2.077789435168015
1.9871697925129024
1.9205713754886533
1.7929638036435493
1.6070102175642644
1.4472158739740835
1.3708159242338975
1.3888284068903844
1.4816000758831196
1.6265572868583154
1.7766566813688431
1.8536013596258696
1.889419448116407
1.9085151661489612
1.9218790302116449
1.9361945017980795
1.9509838580486258
1.964815944751977
1.9731252519961247
1.9771825814164838
1.9791429453082015
1.979322954892684
1.9777646758057226
1.974208105699604
1.9687085537000018
1.9616239400565645
1.9533676735377001
1.9436920889150449
1.9324996008360393
1.9196171407328093
1.906799889574801
1.891351105755139
1.873101700416037
1.854922751682256
1.8401144165351084
1.824578941649236
1.793084137623278
-0.8343694094303021
-0.13364017547518994
0.35073645411604404
0.5705452929652709
0.684119069988171
0.8200268430459636
0.9911975215701864
1.1981576924516535
1.4174220994494402
1.6375596480296675
1.7890873058804444
1.875571849431313
1.8955113020921865
1.9069734651565107
1.9165876676086093
1.9270482072056105
1.9382183007596665
1.9477122554441457
1.9549207410627454
1.9592400834338959
1.9606492894857603
1.960024147236237
1.9576372673960813
1.953232535611762
1.947595268840515
1.940788020607138
1.933493191618651
1.9259400061126732
1.9183457655042002
1.9115134573126398
1.9060767168140165
1.9018726646575148
1.8982019854206933
1.8952451231615286
1.8969835562694588
1.910264869928969
1.946307237701299
1.9051299692269934
-0.7779109729073049
0.06800606182636366
0.5609474282456808
0.8435584537425938
1.0182827564449188
1.2016219180074392
1.389673155001608
1.5895323824233956
1.7407895392129167
1.810141294773806
1.8558547000212904
1.8843145122216862
1.9020565837845118
1.9144278397019043
1.9245410195492645
1.9342488731748337
1.9420568288675957
1.9480952192998173
1.951826355307991
1.9524566789247984
1.951658743606144
1.9490893808212213
1.94575994370365
1.9417038811894283
1.9373546720080657
1.9327603324413032
1.9282063441350004
1.9246394439996628
1.922152780163748
1.9214084982683188
1.9227076665098375
1.9275697712229396
1.9356782022214554
1.945216474313285
1.9590043439637166
1.9955818945226247
1.942220639945488
1.9971191112809026
-0.18525326745601955
-0.20644349396617465
-0.12053712032431087
0.4775542545066542
0.9101883749391415
1.240496182000019
1.4918949476653391
1.6428514769998683
1.7284730106130888
1.7888293976697769
1.8301830344683194
1.8580474510373155
1.8782098927715303
1.89291685401367
1.9031652025704617
1.9114640299396226
1.9171915802661792
1.9223331495236442
1.925311411640501
1.92661146636105
1.9268875372239143
1.925935562479178
1.9250850950124063
1.9241546914015257
1.9238753357366356
1.9243253823820003
1.9254533815245216
1.9258081860676857
1.9263173650226948
1.9266700986852499
1.9274302910589558
1.929703241558926
1.9352179183531126
1.9446722139579664
1.9588712849696768
1.969250725984131
1.973258148964717
1.9686323634131802
1.9484466041440394
1.8739714944708779
)
;

boundaryField
{
    ".*"
    {
        type            zeroGradient;
    }
}


// ************************************************************************* //
