/*--------------------------------*- C++ -*----------------------------------*\
  =========                 |
  \\      /  F ield         | OpenFOAM: The Open Source CFD Toolbox
   \\    /   O peration     | Website:  https://openfoam.org
    \\  /    A nd           | Version:  6
     \\/     M anipulation  |
\*---------------------------------------------------------------------------*/
FoamFile
{
    version     2.0;
    format      ascii;
    class       volVectorField;
    location    "1100";
    object      U;
}
// * * * * * * * * * * * * * * * * * * * * * * * * * * * * * * * * * * * * * //

dimensions      [0 1 -1 0 0 0 0];

internalField   nonuniform List<vector> 
458
(
(0.0294806 0.0881494 0)
(-0.171411 0.027649 0)
(-0.200665 0.0194025 0)
(-0.234841 0.0130117 0)
(-0.259932 0.00610576 0)
(-0.274717 -0.00131489 0)
(-0.277076 -0.00947474 0)
(-0.264828 -0.0186598 0)
(-0.237654 -0.028403 0)
(-0.196894 -0.0370568 0)
(-0.146849 -0.0428062 0)
(-0.0939463 -0.0440123 0)
(-0.0452434 -0.0388466 0)
(-0.00345807 -0.0218702 0)
(-0.00292323 0.0111547 0)
(-0.0139972 0.0103213 0)
(-0.0347314 -0.0160868 0)
(-0.012816 -0.0286376 0)
(0.0164365 -0.0258719 0)
(0.0368896 -0.0187936 0)
(0.0524475 -0.0101383 0)
(0.0618153 -0.00554726 0)
(0.0659981 -0.00390853 0)
(0.0676033 -0.0032909 0)
(0.0683478 -0.00287006 0)
(0.0686065 -0.00245908 0)
(0.0682125 -0.00189964 0)
(0.0668317 -0.000964734 0)
(0.0637432 0.000811107 0)
(0.0575809 0.00404739 0)
(0.0466572 0.00750584 0)
(0.0399134 0.0076362 0)
(-0.0303054 0.0170102 0)
(0.20328 0.180505 0)
(-0.159363 0.0729528 0)
(-0.162877 0.0584564 0)
(-0.198409 0.0458298 0)
(-0.223609 0.0315949 0)
(-0.239072 0.0153271 0)
(-0.242759 -0.00370651 0)
(-0.232291 -0.025589 0)
(-0.208024 -0.0478598 0)
(-0.171776 -0.0664028 0)
(-0.128092 -0.0774048 0)
(-0.0827919 -0.0783662 0)
(-0.0413214 -0.067934 0)
(-0.00521498 -0.0439648 0)
(0.0232814 -0.0116463 0)
(0.0469392 0.00611895 0)
(0.0540531 0.0298951 0)
(-0.00277337 0.0621526 0)
(0.0503742 0.0412136 0)
(0.0137529 -0.0225486 0)
(0.0287116 -0.0385383 0)
(0.0432356 -0.0371623 0)
(0.0562948 -0.0291192 0)
(0.0633445 -0.0129612 0)
(0.0651344 -0.00309269 0)
(0.0651469 0.000541972 0)
(0.0652764 0.00185275 0)
(0.0655981 0.00266577 0)
(0.0658302 0.00341535 0)
(0.0658421 0.00422961 0)
(0.0656526 0.00555578 0)
(0.0647497 0.00836539 0)
(0.0606564 0.015371 0)
(0.0500361 0.0212176 0)
(0.0478218 0.0224966 0)
(-0.0603793 0.0386031 0)
(0.363919 0.270411 0)
(-0.174512 0.115767 0)
(-0.122685 0.0945525 0)
(-0.157474 0.0721915 0)
(-0.180419 0.0486146 0)
(-0.195605 0.0221102 0)
(-0.200278 -0.00871089 0)
(-0.190498 -0.0435761 0)
(-0.167726 -0.0782934 0)
(-0.134876 -0.105635 0)
(-0.0969648 -0.120058 0)
(-0.0592033 -0.119012 0)
(-0.0255001 -0.102661 0)
(0.00399704 -0.0717881 0)
(0.0277974 -0.0379016 0)
(0.0432338 -0.0124817 0)
(0.0475558 0.0167712 0)
(-0.00381877 0.0642125 0)
(0.105788 -0.00969122 0)
(0.0700083 -0.0348912 0)
(0.0655565 -0.0448003 0)
(0.0692215 -0.0447174 0)
(0.0742743 -0.0411341 0)
(0.0766021 -0.030126 0)
(0.0668042 -0.0192081 0)
(0.0592378 -0.0134053 0)
(0.0564007 -0.0102047 0)
(0.0556455 -0.00811863 0)
(0.0554793 -0.0065873 0)
(0.055956 -0.00512723 0)
(0.0577372 -0.00326049 0)
(0.0622179 0.00124968 0)
(0.0625701 0.0203883 0)
(0.0510638 0.0333132 0)
(0.0555341 0.0405791 0)
(-0.0845368 0.0634836 0)
(0.511034 0.342868 0)
(-0.208424 0.153112 0)
(-0.0791962 0.125674 0)
(-0.112668 0.0954879 0)
(-0.129934 0.0656651 0)
(-0.142681 0.0314047 0)
(-0.146851 -0.0104016 0)
(-0.135588 -0.0588175 0)
(-0.113374 -0.105692 0)
(-0.0846822 -0.140311 0)
(-0.0542032 -0.156628 0)
(-0.0257813 -0.152973 0)
(-0.00107258 -0.131117 0)
(0.019958 -0.0956305 0)
(0.0376111 -0.0568355 0)
(0.0517968 -0.0207539 0)
(0.0669131 0.0155289 0)
(0.0718009 0.0558443 0)
(0.110984 0.0536535 0)
(0.108446 -0.00327546 0)
(0.0937837 -0.0299091 0)
(0.0844641 -0.0393216 0)
(0.076951 -0.0404558 0)
(0.0681261 -0.0362451 0)
(0.0659009 -0.0213145 0)
(0.0760683 -0.0137449 0)
(0.0846814 -0.00994711 0)
(0.0899582 -0.00785572 0)
(0.0937083 -0.00629523 0)
(0.0963737 -0.00460262 0)
(0.0967043 -0.00222239 0)
(0.09243 0.0015176 0)
(0.0812527 0.0072961 0)
(0.066955 0.0281049 0)
(0.0545359 0.0463316 0)
(0.0656899 0.0615511 0)
(-0.0872684 0.0916349 0)
(0.64132 0.398684 0)
(-0.2522 0.182806 0)
(-0.0345153 0.144307 0)
(-0.0652595 0.109753 0)
(-0.0737491 0.0769268 0)
(-0.0812598 0.0382707 0)
(-0.0814095 -0.0120844 0)
(-0.0650008 -0.073695 0)
(-0.0439369 -0.129815 0)
(-0.0220438 -0.167615 0)
(-0.00198553 -0.182686 0)
(0.0145642 -0.174786 0)
(0.0273094 -0.149177 0)
(0.0380717 -0.111937 0)
(0.0477198 -0.0707267 0)
(0.0568729 -0.0319561 0)
(0.0690421 0.00200611 0)
(0.083925 0.0213647 0)
(0.0974616 0.00145755 0)
(0.0960337 -0.019121 0)
(0.087534 -0.0286302 0)
(0.0769375 -0.0319041 0)
(0.0665629 -0.0312771 0)
(0.0574104 -0.0261577 0)
(0.0537196 -0.0142182 0)
(0.0560081 -0.00770538 0)
(0.0595158 -0.00567305 0)
(0.0629189 -0.0051467 0)
(0.066589 -0.00433994 0)
(0.0703296 -0.00208536 0)
(0.0735407 0.00262704 0)
(0.0743348 0.0100804 0)
(0.0720266 0.0207601 0)
(0.0678784 0.0376537 0)
(0.0625125 0.0555985 0)
(0.0839692 0.0745449 0)
(0.0343212 0.0933508 0)
(0.0927003 0.113868 0)
(0.119778 0.127734 0)
(-0.17664 0.16004 0)
(0.739335 0.444717 0)
(-0.297206 0.202 0)
(0.00208058 0.14217 0)
(-0.0170874 0.113625 0)
(-0.015235 0.0825065 0)
(-0.0161904 0.0431876 0)
(-0.00356959 -0.0161845 0)
(0.0202864 -0.0920635 0)
(0.0369536 -0.149775 0)
(0.0485925 -0.184167 0)
(0.0550854 -0.194549 0)
(0.057191 -0.183379 0)
(0.056412 -0.155321 0)
(0.0545258 -0.116892 0)
(0.05289 -0.0753636 0)
(0.0528357 -0.0376969 0)
(0.0565217 -0.00833632 0)
(0.0648242 0.00680923 0)
(0.0701386 0.00128872 0)
(0.068041 -0.00862445 0)
(0.0604055 -0.0164163 0)
(0.0506597 -0.0205767 0)
(0.041122 -0.0213028 0)
(0.0331234 -0.0186094 0)
(0.0287973 -0.0129621 0)
(0.0286942 -0.00984805 0)
(0.0308699 -0.00946112 0)
(0.0342376 -0.00994584 0)
(0.0385616 -0.00978917 0)
(0.0436447 -0.00769661 0)
(0.0491301 -0.00221333 0)
(0.055002 0.0074855 0)
(0.0591586 0.0205291 0)
(0.0630571 0.0366647 0)
(0.0668614 0.0533 0)
(0.0854181 0.0704964 0)
(0.0829128 0.0705618 0)
(0.0935915 0.0310823 0)
(0.120342 0.00160595 0)
(-0.196988 0.0879771 0)
(0.795013 0.486176 0)
(-0.322216 0.185483 0)
(0.0319261 0.0920385 0)
(0.0420923 0.0963242 0)
(0.0508739 0.0774623 0)
(0.059 0.0324667 0)
(0.0900288 -0.0399369 0)
(0.113313 -0.109928 0)
(0.122962 -0.160476 0)
(0.12184 -0.187497 0)
(0.112539 -0.191726 0)
(0.0978114 -0.176465 0)
(0.0804321 -0.146376 0)
(0.0631825 -0.107966 0)
(0.0480118 -0.067793 0)
(0.0369398 -0.0330969 0)
(0.031439 -0.00818786 0)
(0.0315374 0.0040245 0)
(0.0321417 0.0030014 0)
(0.0297519 -0.00307508 0)
(0.0239835 -0.00883067 0)
(0.016474 -0.0123504 0)
(0.00887313 -0.0135693 0)
(0.00248752 -0.0128587 0)
(-0.00116064 -0.0110948 0)
(-0.00161746 -0.0108248 0)
(-4.70977e-05 -0.0121481 0)
(0.00275892 -0.0139254 0)
(0.00651784 -0.0149367 0)
(0.0113045 -0.0139968 0)
(0.0173468 -0.00962617 0)
(0.0261107 -0.000130887 0)
(0.0364035 0.0136123 0)
(0.0466149 0.0284398 0)
(0.0573778 0.0420821 0)
(0.0753328 0.0549235 0)
(0.0888929 0.0548981 0)
(0.100387 0.0387199 0)
(0.14883 0.0495009 0)
(-0.131698 0.143912 0)
(0.900532 0.48772 0)
(-0.0709161 0.164418 0)
(0.110879 0.0230837 0)
(0.165766 0.0152572 0)
(0.166795 0.0048968 0)
(0.176465 -0.0395957 0)
(0.208728 -0.0878926 0)
(0.221126 -0.130374 0)
(0.213537 -0.160409 0)
(0.191662 -0.173745 0)
(0.160591 -0.169717 0)
(0.12505 -0.150715 0)
(0.088731 -0.120091 0)
(0.0552182 -0.0837583 0)
(0.0266067 -0.0472436 0)
(0.00637204 -0.0184709 0)
(-0.0048374 -0.000633235 0)
(-0.00754686 0.00579733 0)
(-0.00828174 0.00473319 0)
(-0.010509 0.000656286 0)
(-0.0142755 -0.00330265 0)
(-0.019609 -0.0060187 0)
(-0.0251059 -0.00764127 0)
(-0.0296998 -0.00863601 0)
(-0.0325087 -0.0096763 0)
(-0.0334998 -0.011574 0)
(-0.0334062 -0.0141756 0)
(-0.0327888 -0.016828 0)
(-0.0318139 -0.0188136 0)
(-0.0303038 -0.019423 0)
(-0.0277371 -0.0178897 0)
(-0.0228693 -0.0133559 0)
(-0.0116008 -0.00497432 0)
(0.00503641 0.00638705 0)
(0.0190468 0.0143841 0)
(0.0364082 0.0186552 0)
(0.0509823 0.0131469 0)
(0.0614226 0.00253686 0)
(0.137961 0.0682245 0)
(-0.448379 0.236654 0)
(1.04435 0.437756 0)
(0.506863 0.294909 0)
(0.519396 0.243702 0)
(0.513572 0.174188 0)
(0.47213 0.112142 0)
(0.438279 0.0498278 0)
(0.396382 -0.0160316 0)
(0.347079 -0.0720791 0)
(0.292464 -0.109056 0)
(0.234224 -0.124583 0)
(0.17486 -0.121306 0)
(0.117683 -0.104201 0)
(0.0645661 -0.0768303 0)
(0.0193566 -0.0457069 0)
(-0.0175868 -0.0157212 0)
(-0.0354818 -0.000972475 0)
(-0.0432307 0.00551567 0)
(-0.044963 0.00721315 0)
(-0.0457511 0.0059535 0)
(-0.0474148 0.00332055 0)
(-0.0501464 0.000623854 0)
(-0.0535978 -0.00163918 0)
(-0.0574953 -0.00358219 0)
(-0.0610944 -0.00554293 0)
(-0.0640173 -0.0077657 0)
(-0.0664621 -0.0103605 0)
(-0.0690007 -0.0131038 0)
(-0.0720964 -0.0155516 0)
(-0.0760682 -0.017129 0)
(-0.0812216 -0.0171324 0)
(-0.0879801 -0.0146789 0)
(-0.0969057 -0.00873761 0)
(-0.108399 0.00159369 0)
(-0.120558 0.0158058 0)
(-0.137811 0.0333155 0)
(-0.166409 0.0547883 0)
(-0.208926 0.0799948 0)
(-0.261282 0.107215 0)
(-0.337442 0.130658 0)
(-0.627281 0.140945 0)
(0.252619 0.0400578 0)
(0.313059 0.0976983 0)
(0.3254 0.0729231 0)
(0.30324 0.0244149 0)
(0.279435 -0.0197644 0)
(0.245821 -0.0504783 0)
(0.201534 -0.0678488 0)
(0.148936 -0.0718459 0)
(0.0929463 -0.0641513 0)
(0.0386384 -0.0477128 0)
(-0.0149568 -0.0220739 0)
(-0.0498384 -0.00290668 0)
(-0.0680363 0.00629669 0)
(-0.0748752 0.00936448 0)
(-0.07708 0.0106251 0)
(-0.0774744 0.0108867 0)
(-0.0777718 0.0104124 0)
(-0.078791 0.00951424 0)
(-0.0806324 0.00857013 0)
(-0.0829945 0.00765949 0)
(-0.0854724 0.00645314 0)
(-0.0881437 0.00460488 0)
(-0.0911809 0.00209863 0)
(-0.0948229 -0.000585436 0)
(-0.0993269 -0.00300336 0)
(-0.104753 -0.00464864 0)
(-0.111024 -0.0049941 0)
(-0.117954 -0.00355947 0)
(-0.125235 7.10365e-05 0)
(-0.132276 0.00623242 0)
(-0.137761 0.0155571 0)
(-0.141738 0.0293058 0)
(-0.144945 0.0475908 0)
(-0.147653 0.0687654 0)
(-0.146954 0.0875259 0)
(-0.136034 0.090257 0)
(-0.119658 0.0426499 0)
(-0.188625 -0.175443 0)
(0.133844 0.305306 0)
(0.0117298 0.185366 0)
(0.039309 0.100884 0)
(0.0540833 0.0415939 0)
(0.0544749 0.00401994 0)
(0.0502087 -0.0183097 0)
(0.0286146 -0.0288972 0)
(-0.00772 -0.0276776 0)
(-0.0450776 -0.0193808 0)
(-0.0762456 -0.0111827 0)
(-0.0956688 -0.00669952 0)
(-0.1029 -0.00635857 0)
(-0.104225 -0.00739203 0)
(-0.103341 -0.00922239 0)
(-0.101661 -0.0110983 0)
(-0.0998009 -0.0132932 0)
(-0.0982603 -0.0161683 0)
(-0.0973705 -0.0197693 0)
(-0.0972135 -0.0237661 0)
(-0.0977172 -0.0276683 0)
(-0.0988355 -0.0310026 0)
(-0.100622 -0.0333369 0)
(-0.103178 -0.0344617 0)
(-0.106498 -0.0343464 0)
(-0.110482 -0.0334825 0)
(-0.114983 -0.0321006 0)
(-0.119666 -0.0299376 0)
(-0.123967 -0.0264931 0)
(-0.127053 -0.0209996 0)
(-0.127848 -0.0122956 0)
(-0.125371 -0.000515598 0)
(-0.118169 0.0146097 0)
(-0.105072 0.0334935 0)
(-0.085562 0.0545698 0)
(-0.0582611 0.0702808 0)
(-0.0162367 0.0613717 0)
(0.135736 -0.0275924 0)
(-0.0565603 -0.0651088 0)
(-0.385668 -0.490013 0)
(-0.605799 -0.136639 0)
(-0.429753 0.167873 0)
(-0.35021 0.0597224 0)
(-0.218172 0.00990715 0)
(-0.159451 -0.0146132 0)
(-0.137001 -0.0157877 0)
(-0.134157 -0.00315953 0)
(-0.141421 0.0121406 0)
(-0.150109 0.0263993 0)
(-0.153806 0.0377002 0)
(-0.151486 0.0460409 0)
(-0.146074 0.0528257 0)
(-0.139075 0.0577939 0)
(-0.132043 0.0618267 0)
(-0.125506 0.0658062 0)
(-0.11939 0.0701891 0)
(-0.113541 0.0751295 0)
(-0.108009 0.0805821 0)
(-0.102982 0.0862529 0)
(-0.0986594 0.0916306 0)
(-0.0951915 0.0961334 0)
(-0.0926826 0.0992382 0)
(-0.0911892 0.100479 0)
(-0.0907447 0.0995039 0)
(-0.0914062 0.0961111 0)
(-0.0931073 0.0912766 0)
(-0.09565 0.0858719 0)
(-0.098695 0.0802151 0)
(-0.101675 0.0744923 0)
(-0.103668 0.0687179 0)
(-0.10315 0.0628061 0)
(-0.0973997 0.0588946 0)
(-0.0836398 0.0585487 0)
(-0.0610431 0.0626702 0)
(-0.0330366 0.0711073 0)
(0.00922508 0.0772372 0)
(0.0717705 0.0480595 0)
(0.14422 0.00303127 0)
(-0.514477 0.0774989 0)
)
;

boundaryField
{
    floor
    {
        type            noSlip;
    }
    ceiling
    {
        type            noSlip;
    }
    sWall
    {
        type            noSlip;
    }
    nWall
    {
        type            noSlip;
    }
    sideWalls
    {
        type            empty;
    }
    glass1
    {
        type            noSlip;
    }
    glass2
    {
        type            noSlip;
    }
    sun
    {
        type            noSlip;
    }
    Table_master
    {
        type            noSlip;
    }
    Table_slave
    {
        type            noSlip;
    }
    inlet
    {
        type            fixedValue;
        value           uniform (0.46194 -0.191342 0);
    }
    outlet
    {
        type            zeroGradient;
    }
}


// ************************************************************************* //
