/*--------------------------------*- C++ -*----------------------------------*\
  =========                 |
  \\      /  F ield         | OpenFOAM: The Open Source CFD Toolbox
   \\    /   O peration     | Website:  https://openfoam.org
    \\  /    A nd           | Version:  6
     \\/     M anipulation  |
\*---------------------------------------------------------------------------*/
FoamFile
{
    version     2.0;
    format      ascii;
    class       volScalarField;
    location    "700";
    object      epsilon;
}
// * * * * * * * * * * * * * * * * * * * * * * * * * * * * * * * * * * * * * //

dimensions      [0 2 -3 0 0 0 0];

internalField   nonuniform List<scalar> 
458
(
0.00167727
0.00440158
0.0039526
0.00348085
0.0031016
0.00279584
0.00253987
0.00231915
0.00212251
0.00193939
0.00176174
0.00158225
0.00139212
0.0011762
0.000932961
4.79311e-06
6.14004e-06
6.74248e-06
5.84067e-06
5.38055e-06
4.71343e-06
4.34829e-06
3.29464e-06
2.43196e-06
2.45134e-06
2.74633e-06
3.11017e-06
3.86189e-06
4.74816e-06
6.72554e-06
9.48502e-06
1.24497e-05
9.18202e-06
0.00543513
0.00537791
0.00439252
0.00341139
0.00270307
0.00222738
0.00189242
0.00164537
0.00146171
0.00132184
0.00121252
0.0011225
0.00103806
0.000937302
0.000800073
0.000845071
0.000592007
0.000158494
8.11602e-06
1.50915e-05
1.25967e-05
1.24221e-05
1.33874e-05
1.43158e-05
1.2414e-05
9.11011e-06
5.67162e-06
3.96866e-06
3.49434e-06
3.57441e-06
5.55013e-06
8.24482e-06
1.21565e-05
2.27394e-05
6.04391e-05
2.29394e-05
0.00775113
0.00778462
0.0052899
0.00349802
0.00252524
0.00199487
0.001683
0.00147015
0.00130138
0.00116294
0.00104769
0.000950672
0.000865735
0.000779371
0.000690742
0.000668873
0.000537868
0.000386487
3.99865e-05
3.15257e-05
1.90145e-05
1.64727e-05
1.67052e-05
3.18826e-05
2.16613e-05
1.54897e-05
1.12876e-05
8.43121e-06
6.33503e-06
4.97965e-06
9.98545e-06
2.16847e-05
2.50084e-05
3.47065e-05
4.38619e-05
4.14473e-05
0.00887973
0.0100862
0.00519459
0.00259027
0.00156822
0.00114158
0.000962216
0.000901702
0.000877473
0.00085415
0.000819802
0.000774434
0.00072135
0.000659387
0.000601314
0.000575563
0.00048316
0.000359065
0.000211832
7.8332e-05
2.77583e-05
2.24109e-05
2.0973e-05
2.24632e-05
5.9107e-05
4.848e-05
4.26772e-05
3.89204e-05
3.59498e-05
3.27585e-05
2.97584e-05
2.68675e-05
2.53121e-05
2.82201e-05
4.27876e-05
7.64932e-05
9.9379e-05
0.00973334
0.0119024
0.00414533
0.00140827
0.000706546
0.000529741
0.000507123
0.000537132
0.000583996
0.000618025
0.000630402
0.000621321
0.00059478
0.000553533
0.000515364
0.000493075
0.000423395
0.000324048
0.000175077
6.47051e-05
3.09909e-05
2.46414e-05
2.33901e-05
2.35146e-05
2.56742e-05
2.57626e-05
2.56272e-05
2.57923e-05
2.63535e-05
2.71113e-05
2.78248e-05
2.90748e-05
3.247e-05
4.20585e-05
6.05156e-05
8.5672e-05
0.000121346
0.00024911
0.000219731
0.000160366
0.010568
0.012995
0.00315313
0.000652355
0.000418973
0.000357563
0.000363202
0.000391827
0.00043645
0.000474719
0.000497377
0.000501027
0.000487407
0.000460047
0.000437029
0.000419005
0.000364988
0.000286196
0.000149129
6.99208e-05
4.06103e-05
3.3154e-05
3.20023e-05
3.195e-05
3.17352e-05
3.11834e-05
3.11386e-05
3.25953e-05
3.65707e-05
4.3993e-05
5.58321e-05
7.42365e-05
0.000106551
0.000163285
0.000244343
0.000329469
0.000373002
0.000342451
0.000370814
0.000320193
0.0116451
0.0130331
0.00431137
0.000608388
0.000380824
0.000294624
0.000290866
0.000311635
0.000343553
0.000372897
0.000393588
0.000401346
0.000396402
0.000382618
0.000370651
0.000354845
0.000317956
0.000266888
0.000141432
7.50656e-05
5.38959e-05
5.00128e-05
5.03464e-05
5.01024e-05
4.81398e-05
4.55775e-05
4.45992e-05
4.79401e-05
5.87408e-05
8.04437e-05
0.000117146
0.000176737
0.000272292
0.000415222
0.000608053
0.000822912
0.000924313
0.000740326
0.000556752
0.000417826
0.0132911
0.0150545
0.0103611
0.000971949
0.000371309
0.000239122
0.000229005
0.000245348
0.000270513
0.000294744
0.000313568
0.000324474
0.000327464
0.000325132
0.000321781
0.000313255
0.000296236
0.00026509
0.00014513
9.15386e-05
8.47429e-05
8.74846e-05
8.96083e-05
8.79259e-05
8.20054e-05
7.47987e-05
7.09683e-05
7.62358e-05
9.27296e-05
0.000122893
0.000167098
0.000221478
0.000278771
0.000329542
0.000365458
0.000386623
0.000403898
0.000438689
0.000507827
0.000500393
0.0166678
0.0240173
0.0351798
0.00489809
0.000507522
0.000240021
0.000207288
0.000210302
0.000225054
0.000245514
0.000264338
0.000279639
0.000291007
0.000299462
0.000306486
0.000311036
0.000312623
0.000284073
0.000191161
0.000170352
0.000178881
0.000186934
0.000189057
0.000183407
0.000169791
0.000152791
0.000140352
0.000132056
0.000134162
0.000149732
0.000179373
0.000221484
0.000273076
0.000330696
0.000390685
0.000451068
0.000518441
0.000616767
0.000791002
0.000829296
0.0787319
0.0122781
0.00102675
0.000366655
0.00027863
0.000259988
0.000265318
0.000280836
0.000300442
0.000322022
0.000344485
0.000368017
0.000393879
0.00042412
0.000459536
0.000469078
0.000458748
0.000475559
0.000492338
0.000501782
0.000502701
0.000491466
0.000466593
0.000435049
0.000392428
0.000349362
0.000314935
0.000295462
0.000293535
0.000309532
0.000343837
0.000397139
0.000470813
0.000566236
0.000658569
0.000644165
0.00066053
0.000970412
0.0103816
0.00177684
0.00140055
0.000660314
0.000480772
0.000386299
0.000333473
0.000309951
0.00030778
0.000318282
0.000336871
0.000361997
0.00039681
0.000457473
0.000596649
0.000925068
0.00129504
0.00145297
0.00149997
0.00151472
0.00151184
0.00148913
0.00143915
0.00135424
0.00124445
0.00112137
0.00100142
0.000898812
0.000818164
0.000754684
0.000707684
0.000690641
0.000700999
0.000740035
0.000792321
0.000779185
0.00100136
0.00124555
0.00145886
0.00170064
0.00301043
0.000507119
0.000471795
0.000450714
0.00045684
0.00046842
0.000484273
0.00050541
0.000524906
0.000545053
0.000567289
0.000592793
0.000623445
0.000662666
0.000713849
0.000765542
0.000802516
0.000838335
0.000863581
0.000878385
0.000886454
0.000886831
0.00087856
0.000862537
0.000840176
0.000815486
0.000792742
0.000774859
0.000761796
0.000749638
0.000739117
0.000729035
0.000712594
0.000678009
0.000613398
0.000548457
0.000529645
0.00067513
)
;

boundaryField
{
    floor
    {
        Cmu             0.09;
        kappa           0.41;
        E               9.8;
        type            epsilonWallFunction;
        value           nonuniform List<scalar> 
36
(
0.000932961
4.79311e-06
6.14004e-06
6.74248e-06
5.84067e-06
5.38055e-06
4.71343e-06
4.34829e-06
3.29464e-06
2.43196e-06
2.45134e-06
2.74633e-06
3.11017e-06
3.86189e-06
4.74816e-06
6.72554e-06
9.48502e-06
1.24497e-05
9.18202e-06
9.18202e-06
2.29394e-05
4.14473e-05
9.9379e-05
0.00024911
0.000219731
0.000160366
0.000932961
0.000845071
0.000592007
0.000158494
4.79311e-06
0.000158494
8.11602e-06
0.000386487
3.99865e-05
0.000211832
)
;
    }
    ceiling
    {
        Cmu             0.09;
        kappa           0.41;
        E               9.8;
        type            epsilonWallFunction;
        value           nonuniform List<scalar> 
43
(
0.00145886
0.00170064
0.00301043
0.000507119
0.000471795
0.000450714
0.00045684
0.00046842
0.000484273
0.00050541
0.000524906
0.000545053
0.000567289
0.000592793
0.000623445
0.000662666
0.000713849
0.000765542
0.000802516
0.000838335
0.000863581
0.000878385
0.000886454
0.000886831
0.00087856
0.000862537
0.000840176
0.000815486
0.000792742
0.000774859
0.000761796
0.000749638
0.000739117
0.000729035
0.000712594
0.000678009
0.000613398
0.000548457
0.000529645
0.00067513
0.0166678
0.0240173
0.0103816
)
;
    }
    sWall
    {
        Cmu             0.09;
        kappa           0.41;
        E               9.8;
        type            epsilonWallFunction;
        value           uniform 0.00145886;
    }
    nWall
    {
        Cmu             0.09;
        kappa           0.41;
        E               9.8;
        type            epsilonWallFunction;
        value           nonuniform List<scalar> 6(0.000160366 0.000320193 0.000417826 0.000970412 0.00124555 0.00067513);
    }
    sideWalls
    {
        type            empty;
    }
    glass1
    {
        Cmu             0.09;
        kappa           0.41;
        E               9.8;
        type            epsilonWallFunction;
        value           nonuniform List<scalar> 9(0.00167727 0.00543513 0.00775113 0.00887973 0.00973334 0.010568 0.0116451 0.0132911 0.0166678);
    }
    glass2
    {
        Cmu             0.09;
        kappa           0.41;
        E               9.8;
        type            epsilonWallFunction;
        value           nonuniform List<scalar> 2(0.000500393 0.000829296);
    }
    sun
    {
        Cmu             0.09;
        kappa           0.41;
        E               9.8;
        type            epsilonWallFunction;
        value           nonuniform List<scalar> 
14
(
0.00167727
0.00440158
0.0039526
0.00348085
0.0031016
0.00279584
0.00253987
0.00231915
0.00212251
0.00193939
0.00176174
0.00158225
0.00139212
0.0011762
)
;
    }
    Table_master
    {
        Cmu             0.09;
        kappa           0.41;
        E               9.8;
        type            epsilonWallFunction;
        value           nonuniform List<scalar> 9(3.18826e-05 2.16613e-05 1.54897e-05 1.12876e-05 8.43121e-06 6.33503e-06 4.97965e-06 9.98545e-06 2.16847e-05);
    }
    Table_slave
    {
        Cmu             0.09;
        kappa           0.41;
        E               9.8;
        type            epsilonWallFunction;
        value           nonuniform List<scalar> 9(5.9107e-05 4.848e-05 4.26772e-05 3.89204e-05 3.59498e-05 3.27585e-05 2.97584e-05 2.68675e-05 2.53121e-05);
    }
    inlet
    {
        type            turbulentMixingLengthDissipationRateInlet;
        mixingLength    0.01;
        phi             phi;
        k               k;
        value           uniform 3.77336e-06;
    }
    outlet
    {
        type            zeroGradient;
    }
}


// ************************************************************************* //
