/*--------------------------------*- C++ -*----------------------------------*\
  =========                 |
  \\      /  F ield         | OpenFOAM: The Open Source CFD Toolbox
   \\    /   O peration     | Website:  https://openfoam.org
    \\  /    A nd           | Version:  6
     \\/     M anipulation  |
\*---------------------------------------------------------------------------*/
FoamFile
{
    version     2.0;
    format      ascii;
    class       volScalarField;
    location    "1700";
    object      alphat;
}
// * * * * * * * * * * * * * * * * * * * * * * * * * * * * * * * * * * * * * //

dimensions      [1 -1 -1 0 0 0 0];

internalField   nonuniform List<scalar> 
458
(
0.000877386
0.000924897
0.000914621
0.000947464
0.000976197
0.00100102
0.00102295
0.00104301
0.00106235
0.00108107
0.0010945
0.00110135
0.00110203
0.00110002
0.00109754
0.000629496
0.000598179
0.000575785
0.000558777
0.000542717
0.000523479
0.000503903
0.000485598
0.000468781
0.000453188
0.0004386
0.000424791
0.000411469
0.000398192
0.000384307
0.000368556
0.000353282
0.000322167
0.00131709
0.00233184
0.00203763
0.00238017
0.00258623
0.00279859
0.0030066
0.00319393
0.00333584
0.0034177
0.00344472
0.00337739
0.00315744
0.0027036
0.00193858
0.00113013
0.00103358
0.000957318
0.000769986
0.00110659
0.00136145
0.00152306
0.00155802
0.00132008
0.00120475
0.00112442
0.00105344
0.000988263
0.000926947
0.000866915
0.000803838
0.000734072
0.000670736
0.000620147
0.000704991
0.000389646
0.00171
0.00340751
0.00229657
0.00335548
0.00366891
0.00388846
0.00405855
0.00419065
0.00429319
0.00436506
0.00442583
0.00445438
0.00442684
0.0043311
0.00414717
0.00373856
0.00277308
0.00115281
0.000886911
0.0016117
0.00198358
0.00215952
0.00204061
0.000639892
0.000574932
0.000522624
0.000481234
0.000448442
0.000422221
0.000401163
0.000384649
0.000373219
0.000426312
0.000509893
0.000796325
0.000439727
0.00211209
0.00498748
0.0022557
0.00369334
0.0041733
0.00433569
0.00440532
0.00443198
0.0044513
0.0044789
0.00452664
0.0045751
0.00460204
0.00460184
0.00456761
0.00443515
0.00405594
0.00315852
0.00105265
0.00197441
0.00245922
0.00259406
0.00259315
0.00232595
0.000653725
0.000621232
0.000608198
0.000601742
0.000594279
0.000580878
0.000562782
0.000542618
0.000516907
0.000493733
0.000512716
0.000881001
0.00048737
0.00252741
0.00711113
0.00278556
0.00344832
0.00431898
0.00450156
0.00450904
0.00445306
0.00440217
0.00439925
0.00445061
0.00451956
0.00456272
0.00456284
0.00451895
0.00443569
0.00432362
0.00418289
0.00373917
0.00339485
0.0031392
0.00291235
0.00275823
0.00263991
0.00239588
0.00237938
0.00240701
0.00242167
0.00240037
0.00232813
0.00215335
0.00187496
0.00153117
0.00116015
0.000877699
0.00089026
0.000725079
0.000658893
0.000749956
0.000815071
0.00296018
0.00944191
0.00480928
0.00319119
0.00386731
0.00430544
0.00446134
0.00445776
0.00437784
0.00430571
0.00438624
0.00448348
0.00453686
0.00452328
0.0044449
0.00434071
0.00426264
0.00419561
0.00397788
0.00362829
0.00325632
0.00292458
0.00272827
0.00266802
0.00269196
0.00276893
0.00284003
0.00288011
0.00288216
0.0028429
0.00274542
0.00252646
0.00219251
0.00175965
0.00134974
0.00105553
0.000874997
0.000782517
0.00106914
0.000831985
0.00338364
0.0113397
0.0083826
0.00500591
0.0038076
0.00358373
0.00382366
0.00413993
0.00428448
0.00430449
0.0044097
0.00449908
0.00453642
0.00449863
0.00438912
0.00426776
0.00419723
0.00415414
0.00399781
0.0036713
0.00324034
0.00286661
0.00268911
0.00265736
0.00270084
0.00277278
0.00283806
0.00288003
0.00289916
0.00290102
0.00288904
0.00279302
0.00253676
0.00215188
0.00175909
0.00142094
0.00119129
0.0011037
0.00108562
0.000908622
0.00348154
0.0109627
0.00949793
0.00823404
0.00656205
0.00526337
0.00463037
0.00449614
0.0045482
0.0045444
0.00455225
0.00456843
0.00455446
0.00447033
0.00431749
0.0041812
0.0041335
0.00413788
0.00402585
0.0036726
0.00318365
0.00283695
0.00268674
0.00264565
0.00265152
0.00267274
0.00269249
0.00270753
0.00272594
0.0027617
0.00282706
0.002906
0.00283949
0.0025264
0.00225088
0.00210494
0.00214753
0.00233649
0.00299367
0.0014975
0.00340308
0.00409089
0.00484983
0.00520606
0.00533109
0.00515784
0.00490539
0.00472296
0.00461983
0.00458634
0.00459577
0.00459705
0.00453927
0.00438485
0.00416289
0.00402115
0.00402989
0.00410807
0.00401239
0.00359235
0.00312208
0.002837
0.00269578
0.0026194
0.00256875
0.00252512
0.00247755
0.00242285
0.00236449
0.00230677
0.00224902
0.00218541
0.00211682
0.00205665
0.00204127
0.00207198
0.00209756
0.00206295
0.00196962
0.00145159
0.00309912
0.00623583
0.00584539
0.00562451
0.00543016
0.00527784
0.00516487
0.00504786
0.00490791
0.00472873
0.00448454
0.00415524
0.00382185
0.00373479
0.00387638
0.00406281
0.00390542
0.00348574
0.00314652
0.0029384
0.00279458
0.00267129
0.00255472
0.0024424
0.002334
0.00223
0.00213417
0.00205527
0.00200449
0.00199043
0.00200105
0.00202381
0.00205797
0.00208509
0.0020663
0.00197796
0.00184134
0.0012696
0.00291078
0.00676296
0.00635644
0.00601417
0.00573388
0.00550688
0.00527084
0.00502565
0.0046735
0.00426831
0.00383069
0.0033606
0.00302875
0.00332056
0.0038275
0.00426068
0.00418635
0.00393216
0.00370813
0.00354322
0.00340188
0.0032553
0.00309301
0.00291752
0.00273856
0.00256842
0.00241835
0.00229601
0.00220329
0.00213865
0.00212746
0.00215695
0.00220666
0.00224891
0.00225119
0.00231004
0.00249055
0.00130162
0.00227673
0.00248316
0.00265463
0.002829
0.00267993
0.00255126
0.00231962
0.00211867
0.00192129
0.00172417
0.00156481
0.00142231
0.00128083
0.00112632
0.000952015
0.000940878
0.00099131
0.000998998
0.000966076
0.000934153
0.000911492
0.000893663
0.00087678
0.000860014
0.000844842
0.000833778
0.000829273
0.000832997
0.000845741
0.000867867
0.000900129
0.000943259
0.000991846
0.00104666
0.00110788
0.00117689
0.00121724
0.00119783
0.00113179
0.00107185
)
;

boundaryField
{
    floor
    {
        type            compressible::alphatWallFunction;
        Prt             0.85;
        value           nonuniform List<scalar> 
36
(
0.000155993
8.88146e-05
8.4137e-05
8.07742e-05
7.82099e-05
7.57797e-05
7.2857e-05
6.98691e-05
6.70619e-05
6.44712e-05
6.20584e-05
5.97916e-05
5.76369e-05
5.55497e-05
5.34609e-05
5.12667e-05
4.87652e-05
4.63262e-05
4.13144e-05
4.13138e-05
5.21099e-05
5.99647e-05
6.73315e-05
9.31752e-05
0.000106548
0.000115989
0.000155992
0.000160524
0.00014705
0.000136305
8.88136e-05
0.000136304
0.000109458
0.000163666
0.000126295
0.000149726
)
;
    }
    ceiling
    {
        type            compressible::alphatWallFunction;
        Prt             0.85;
        value           nonuniform List<scalar> 
43
(
0.00031286
0.000339252
0.000361002
0.000383092
0.000364358
0.000348088
0.000318555
0.000292671
0.000266985
0.000241042
0.00021983
0.000200658
0.00018141
0.00016011
0.000135665
0.000134072
0.000141209
0.000142298
0.000137655
0.000133133
0.000129911
0.000127369
0.000124957
0.000122557
0.00012038
0.00011879
0.000118143
0.00011868
0.000120513
0.000123687
0.000128298
0.000134432
0.000141303
0.000149007
0.000157556
0.000167129
0.000172696
0.000170022
0.000160881
0.000152536
0.00045469
0.000538581
0.00039307
)
;
    }
    sWall
    {
        type            compressible::alphatWallFunction;
        Prt             0.85;
        value           uniform 0.000311658;
    }
    nWall
    {
        type            compressible::alphatWallFunction;
        Prt             0.85;
        value           nonuniform List<scalar> 6(0.000115798 0.000118232 0.000129197 0.00017957 0.000183949 0.000152223);
    }
    sideWalls
    {
        type            empty;
    }
    glass1
    {
        type            compressible::alphatWallFunction;
        Prt             0.85;
        value           nonuniform List<scalar> 9(0.000121687 0.000182093 0.000234277 0.000286434 0.000339274 0.000393428 0.000445667 0.000457769 0.000448367);
    }
    glass2
    {
        type            compressible::alphatWallFunction;
        Prt             0.85;
        value           nonuniform List<scalar> 2(0.000209348 0.000203235);
    }
    sun
    {
        type            compressible::alphatWallFunction;
        Prt             0.85;
        value           nonuniform List<scalar> 
14
(
0.000124954
0.000131712
0.000130249
0.000134913
0.000138978
0.000142479
0.000145562
0.000148377
0.000151084
0.000153699
0.000155571
0.000156526
0.00015662
0.000156339
)
;
    }
    Table_master
    {
        type            compressible::alphatWallFunction;
        Prt             0.85;
        value           nonuniform List<scalar> 9(9.0434e-05 8.07207e-05 7.28004e-05 6.64631e-05 6.13933e-05 5.73055e-05 5.39991e-05 5.13905e-05 4.95766e-05);
    }
    Table_slave
    {
        type            compressible::alphatWallFunction;
        Prt             0.85;
        value           nonuniform List<scalar> 9(9.2487e-05 8.76579e-05 8.57126e-05 8.47473e-05 8.36296e-05 8.16178e-05 7.8892e-05 7.58417e-05 7.19315e-05);
    }
    inlet
    {
        type            fixedValue;
        value           uniform 1.94e-05;
    }
    outlet
    {
        type            zeroGradient;
    }
}


// ************************************************************************* //
