/*--------------------------------*- C++ -*----------------------------------*\
  =========                 |
  \\      /  F ield         | OpenFOAM: The Open Source CFD Toolbox
   \\    /   O peration     | Website:  https://openfoam.org
    \\  /    A nd           | Version:  6
     \\/     M anipulation  |
\*---------------------------------------------------------------------------*/
FoamFile
{
    version     2.0;
    format      ascii;
    class       volScalarField;
    location    "1600";
    object      epsilon;
}
// * * * * * * * * * * * * * * * * * * * * * * * * * * * * * * * * * * * * * //

dimensions      [0 2 -3 0 0 0 0];

internalField   nonuniform List<scalar> 
458
(
5.06336e-05
3.79641e-05
3.21525e-05
2.92227e-05
2.6384e-05
2.59102e-05
2.62822e-05
2.66551e-05
2.67755e-05
2.68037e-05
2.7321e-05
2.96127e-05
3.70145e-05
5.99442e-05
8.93165e-05
4.50616e-05
5.12401e-05
1.69933e-05
8.40978e-06
6.05039e-06
4.49113e-06
3.85133e-06
3.99138e-06
3.59897e-06
3.3042e-06
3.17794e-06
3.47538e-06
4.39936e-06
5.77836e-06
8.08452e-06
1.84923e-05
5.27007e-05
4.18271e-05
0.000330349
0.000273978
0.000103794
3.29016e-05
2.31245e-05
2.20724e-05
2.20671e-05
2.24844e-05
2.38833e-05
2.71301e-05
3.42603e-05
5.02761e-05
8.57255e-05
0.000162383
0.000330693
0.00027557
0.000339835
0.00023198
0.000151379
0.000242007
7.04093e-05
2.20249e-05
9.87114e-06
6.95229e-06
6.82183e-06
6.99386e-06
8.64616e-06
1.02496e-05
1.23062e-05
1.46295e-05
1.72541e-05
2.38775e-05
4.58905e-05
0.000106248
0.000317562
0.000176827
0.00128588
0.000652364
0.000278116
8.99948e-05
4.38932e-05
3.67107e-05
3.30324e-05
3.12027e-05
3.2184e-05
3.61047e-05
4.36014e-05
5.67462e-05
8.01182e-05
0.000121154
0.000191628
0.000305592
0.000467703
0.000410153
0.000357381
0.000371499
0.000100295
5.02678e-05
3.7234e-05
3.05573e-05
1.56727e-05
1.06975e-05
1.70559e-05
2.75969e-05
4.37255e-05
6.96651e-05
0.000115402
0.000207117
0.00021281
0.000346053
0.000935076
0.000514667
0.00334756
0.00249873
0.00104135
0.000437934
0.000145042
7.50504e-05
5.449e-05
4.58739e-05
4.58482e-05
5.15595e-05
6.24511e-05
7.98216e-05
0.000105874
0.000145147
0.000202613
0.000283088
0.000408679
0.00063843
0.000451999
0.000242717
0.000141609
9.47334e-05
9.26203e-05
0.000107059
0.000140792
0.000154615
0.000171902
0.000192626
0.000217942
0.000253455
0.000309617
0.00040795
0.00059899
0.000498422
0.000793104
0.00157651
0.00111834
0.00717954
0.0069967
0.00291823
0.00144138
0.000673409
0.000195435
9.8507e-05
7.04259e-05
6.68078e-05
7.22733e-05
8.31034e-05
9.76042e-05
0.000116975
0.000141769
0.000170614
0.000200746
0.000225975
0.000233312
0.000210389
0.000152525
0.000132849
0.000122486
0.000121693
0.000126719
0.000135505
0.000145718
0.00015844
0.000173668
0.000193401
0.000221644
0.000265455
0.000337081
0.000457106
0.000656924
0.00102288
0.00166275
0.00275712
0.00348924
0.00400827
0.0041585
0.0133717
0.0161655
0.00696052
0.00327843
0.00158524
0.000690126
0.000197865
0.000115091
0.000105892
0.00011279
0.000125067
0.000141662
0.000162243
0.000186553
0.000213779
0.000241559
0.00026566
0.000281064
0.000281093
0.000269635
0.000260264
0.000253078
0.000248431
0.00024783
0.000251926
0.000259441
0.000269021
0.00028087
0.000295915
0.00031664
0.000347857
0.000398532
0.00048595
0.000644885
0.000946246
0.00152495
0.00264515
0.0049257
0.00844643
0.00840598
0.0228484
0.0296723
0.0129384
0.00580203
0.00256901
0.00111107
0.00036959
0.000208293
0.000190986
0.00020733
0.000234921
0.000267143
0.000301834
0.000338766
0.000379237
0.000424033
0.00046955
0.000510025
0.000535546
0.000544046
0.000541932
0.000533852
0.000523329
0.000513908
0.000507892
0.000506189
0.000508243
0.000513044
0.000520267
0.000530765
0.000547048
0.000574313
0.000622537
0.00071101
0.000879649
0.00122687
0.00210792
0.00529651
0.0162456
0.0150034
0.0387738
0.0634447
0.0316535
0.00951932
0.00282039
0.00114322
0.000502521
0.000392974
0.00042249
0.000490123
0.000569893
0.000647166
0.000716965
0.000778335
0.000835826
0.000895344
0.000960167
0.00101441
0.00105369
0.00107388
0.00107714
0.00106801
0.00105133
0.00103216
0.00101461
0.00100129
0.000992694
0.000988047
0.00098653
0.000988042
0.000993852
0.00100765
0.00103743
0.00110014
0.0012329
0.00153278
0.00239039
0.0060611
0.0265929
0.0257894
0.0714994
0.158085
0.210846
0.0257918
0.00359612
0.00157542
0.00118183
0.00121252
0.00134921
0.00152674
0.00171763
0.00186384
0.00197085
0.00204324
0.00209472
0.00213298
0.00215995
0.00218136
0.00219507
0.00219699
0.0021863
0.00216484
0.00213602
0.00210404
0.00207291
0.00204573
0.002024
0.00200795
0.00199734
0.00199231
0.00199421
0.002007
0.00203939
0.00210837
0.00224842
0.00254988
0.00337171
0.00681944
0.0264839
0.0268603
0.526766
0.21243
0.017949
0.00659194
0.0059994
0.00556169
0.00534047
0.00519945
0.00510831
0.00510313
0.00515776
0.00523215
0.00528798
0.00530334
0.00527637
0.00521846
0.0051437
0.00506257
0.0049812
0.0049029
0.00482937
0.00476173
0.00470101
0.00464822
0.00460413
0.00456924
0.00454397
0.0045292
0.00452705
0.00454207
0.00458322
0.00466651
0.00482008
0.00510342
0.00574914
0.00808359
0.0141934
0.0113761
0.243973
0.119922
0.0509051
0.0288721
0.0193312
0.0146408
0.0122053
0.0109657
0.0104838
0.010517
0.0108695
0.0113494
0.0117897
0.0120868
0.0122133
0.0121965
0.0120855
0.0119264
0.0117537
0.0115889
0.0114438
0.0113231
0.0112276
0.0111562
0.0111065
0.0110759
0.0110622
0.0110647
0.0110851
0.0111295
0.0112108
0.0113507
0.0115754
0.0119169
0.0125413
0.0152871
0.0139367
0.00712351
0.00369372
0.00638959
0.0378009
0.0343646
0.0279124
0.0222412
0.0177261
0.0142431
0.0116184
0.00969166
0.00833268
0.00743971
0.00692657
0.00670814
0.00669417
0.00679525
0.00693588
0.00706452
0.00715495
0.0072006
0.00720648
0.00718236
0.00713836
0.00708273
0.00702128
0.00695749
0.00689295
0.00682784
0.00676134
0.00669207
0.00661853
0.00653967
0.00645575
0.00636918
0.00628468
0.00621119
0.00618715
0.00648776
0.00631365
0.00471086
)
;

boundaryField
{
    floor
    {
        Cmu             0.09;
        kappa           0.41;
        E               9.8;
        type            epsilonWallFunction;
        value           nonuniform List<scalar> 
36
(
8.93165e-05
4.50616e-05
5.12401e-05
1.69933e-05
8.40978e-06
6.05039e-06
4.49113e-06
3.85133e-06
3.99138e-06
3.59897e-06
3.3042e-06
3.17794e-06
3.47538e-06
4.39936e-06
5.77836e-06
8.08452e-06
1.84923e-05
5.27007e-05
4.18271e-05
4.18271e-05
0.000176827
0.000514667
0.00111834
0.00348924
0.00400827
0.0041585
8.93165e-05
0.00027557
0.000339835
0.00023198
4.50616e-05
0.00023198
0.000151379
0.000410153
0.000357381
0.000451999
)
;
    }
    ceiling
    {
        Cmu             0.09;
        kappa           0.41;
        E               9.8;
        type            epsilonWallFunction;
        value           nonuniform List<scalar> 
43
(
0.00369372
0.00638959
0.0378009
0.0343646
0.0279124
0.0222412
0.0177261
0.0142431
0.0116184
0.00969166
0.00833268
0.00743971
0.00692657
0.00670814
0.00669417
0.00679525
0.00693588
0.00706452
0.00715495
0.0072006
0.00720648
0.00718236
0.00713836
0.00708273
0.00702128
0.00695749
0.00689295
0.00682784
0.00676134
0.00669207
0.00661853
0.00653967
0.00645575
0.00636918
0.00628468
0.00621119
0.00618715
0.00648776
0.00631365
0.00471086
0.0714994
0.158085
0.243973
)
;
    }
    sWall
    {
        Cmu             0.09;
        kappa           0.41;
        E               9.8;
        type            epsilonWallFunction;
        value           uniform 0.00369372;
    }
    nWall
    {
        Cmu             0.09;
        kappa           0.41;
        E               9.8;
        type            epsilonWallFunction;
        value           nonuniform List<scalar> 6(0.0041585 0.00840598 0.0150034 0.0113761 0.00712351 0.00471086);
    }
    sideWalls
    {
        type            empty;
    }
    glass1
    {
        Cmu             0.09;
        kappa           0.41;
        E               9.8;
        type            epsilonWallFunction;
        value           nonuniform List<scalar> 9(5.06336e-05 0.000330349 0.00128588 0.00334756 0.00717954 0.0133717 0.0228484 0.0387738 0.0714994);
    }
    glass2
    {
        Cmu             0.09;
        kappa           0.41;
        E               9.8;
        type            epsilonWallFunction;
        value           nonuniform List<scalar> 2(0.0257894 0.0268603);
    }
    sun
    {
        Cmu             0.09;
        kappa           0.41;
        E               9.8;
        type            epsilonWallFunction;
        value           nonuniform List<scalar> 
14
(
5.06336e-05
3.79641e-05
3.21525e-05
2.92227e-05
2.6384e-05
2.59102e-05
2.62822e-05
2.66551e-05
2.67755e-05
2.68037e-05
2.7321e-05
2.96127e-05
3.70145e-05
5.99442e-05
)
;
    }
    Table_master
    {
        Cmu             0.09;
        kappa           0.41;
        E               9.8;
        type            epsilonWallFunction;
        value           nonuniform List<scalar> 9(3.05573e-05 1.56727e-05 1.06975e-05 1.70559e-05 2.75969e-05 4.37255e-05 6.96651e-05 0.000115402 0.000207117);
    }
    Table_slave
    {
        Cmu             0.09;
        kappa           0.41;
        E               9.8;
        type            epsilonWallFunction;
        value           nonuniform List<scalar> 9(0.000140792 0.000154615 0.000171902 0.000192626 0.000217942 0.000253455 0.000309617 0.00040795 0.00059899);
    }
    inlet
    {
        type            turbulentMixingLengthDissipationRateInlet;
        mixingLength    0.01;
        phi             phi;
        k               k;
        value           uniform 0.526766;
    }
    outlet
    {
        type            zeroGradient;
    }
}


// ************************************************************************* //
