/*--------------------------------*- C++ -*----------------------------------*\
  =========                 |
  \\      /  F ield         | OpenFOAM: The Open Source CFD Toolbox
   \\    /   O peration     | Website:  https://openfoam.org
    \\  /    A nd           | Version:  6
     \\/     M anipulation  |
\*---------------------------------------------------------------------------*/
FoamFile
{
    version     2.0;
    format      ascii;
    class       volScalarField;
    location    "300";
    object      alphat;
}
// * * * * * * * * * * * * * * * * * * * * * * * * * * * * * * * * * * * * * //

dimensions      [1 -1 -1 0 0 0 0];

internalField   nonuniform List<scalar> 
458
(
0.000851965
0.000874372
0.000811376
0.000841652
0.000872485
0.000900781
0.000926793
0.000951288
0.000975289
0.00100024
0.00102178
0.00103831
0.00104985
0.00105821
0.00106337
0.000501964
0.000575285
0.000587259
0.000481753
0.000373091
0.000329812
0.000320494
0.000325006
0.00033184
0.0003143
0.000286925
0.000263983
0.000270937
0.000306968
0.000381825
0.000511117
0.000528964
0.000480607
0.00144709
0.00240227
0.00177248
0.00226951
0.00243616
0.00260881
0.00278445
0.00294758
0.00307794
0.00314908
0.00317053
0.00310615
0.00290482
0.00248999
0.00181391
0.00114226
0.00109004
0.000846947
0.000723353
0.00138426
0.00160567
0.00165257
0.00141789
0.00112204
0.000972467
0.000969747
0.000949462
0.000805712
0.000590783
0.00040819
0.000351976
0.000487545
0.00109845
0.00165033
0.00187602
0.000681812
0.0019605
0.00388681
0.00188268
0.00328478
0.00363727
0.00383015
0.00399725
0.00413885
0.00424921
0.00431907
0.00435152
0.00431748
0.00417606
0.00387517
0.00338422
0.00274697
0.00198225
0.00118119
0.00111407
0.00299753
0.00270578
0.00223225
0.00172453
0.000666989
0.000556313
0.000497052
0.000453884
0.000417346
0.00038147
0.000344841
0.000360386
0.000674267
0.00180007
0.00222637
0.00171014
0.000740972
0.00244766
0.00580669
0.00202446
0.00362811
0.00435486
0.00455422
0.00468759
0.00479555
0.00488324
0.00494958
0.00500055
0.00503393
0.00502476
0.00492065
0.00463321
0.00405723
0.00314096
0.00205279
0.00127908
0.00269478
0.00285464
0.00242601
0.00188263
0.00135251
0.000954513
0.000973275
0.00100816
0.00105693
0.00112238
0.00121759
0.00126368
0.00129181
0.00128884
0.00157865
0.00203993
0.00250619
0.00127375
0.0029034
0.00797283
0.00257141
0.00341418
0.00465688
0.00491047
0.00501704
0.00508948
0.00514481
0.00519233
0.00524151
0.00533425
0.00547675
0.00565213
0.00581688
0.0059137
0.00589373
0.0057147
0.00534602
0.00499297
0.00458035
0.00420441
0.00396603
0.00383882
0.003785
0.00383187
0.00395453
0.00415042
0.00441933
0.00475503
0.00499532
0.00511787
0.00510449
0.0049789
0.00444671
0.00388015
0.00275734
0.00138696
0.00131429
0.00120885
0.00333275
0.00998945
0.00384139
0.00299702
0.00445924
0.00493293
0.00509901
0.00517283
0.00518653
0.00516312
0.00513455
0.00519301
0.00534622
0.00558697
0.00588769
0.00619693
0.00643353
0.00648019
0.00626124
0.00585058
0.00539624
0.00502228
0.00477326
0.00461415
0.0045042
0.00444098
0.00444664
0.00453234
0.00471684
0.005119
0.00549929
0.00570083
0.00579279
0.0058487
0.00572427
0.00527976
0.00455992
0.00376192
0.00358302
0.0014094
0.00374537
0.0115053
0.00634157
0.00326937
0.00330666
0.00412147
0.00472174
0.00506012
0.00518446
0.00507888
0.00492075
0.00488556
0.00495705
0.00513007
0.00539454
0.00572032
0.00603249
0.0062067
0.00614635
0.00588805
0.0055485
0.00523221
0.00498065
0.00478091
0.00461373
0.00448112
0.00439118
0.0043529
0.00444247
0.00494303
0.00545244
0.0056753
0.00579728
0.00602482
0.00636396
0.00638752
0.00598033
0.0053025
0.00474311
0.00166916
0.00385009
0.011886
0.00879573
0.00607602
0.00422246
0.00366124
0.00407867
0.00464827
0.00501768
0.00485403
0.00464804
0.00453509
0.00451649
0.00458057
0.00472155
0.0049376
0.00520488
0.00544282
0.00552729
0.00545693
0.0052955
0.0051094
0.00493504
0.00478057
0.00465129
0.00454908
0.00442982
0.00423485
0.00415743
0.00484086
0.00549035
0.00563471
0.00569547
0.00597078
0.00660624
0.00743578
0.0074893
0.00666852
0.00644853
0.00191175
0.00375059
0.00453902
0.00499363
0.00500046
0.00460047
0.00411574
0.00380357
0.00369953
0.00371977
0.00377493
0.00383553
0.00389298
0.00394904
0.00400949
0.00408308
0.00418221
0.00431614
0.00447155
0.00460602
0.00469118
0.00472715
0.00472926
0.00470955
0.00467698
0.00465645
0.00468078
0.00464847
0.0042481
0.00379809
0.0047103
0.00561703
0.00553184
0.00520905
0.00490927
0.00465299
0.00440019
0.00411759
0.00366364
0.00325869
0.00185843
0.00263548
0.00389052
0.00424978
0.00415741
0.00396836
0.00380881
0.00369755
0.0036228
0.00358566
0.0035714
0.00356648
0.00356318
0.00356129
0.00356853
0.00359878
0.00366599
0.00377592
0.00392484
0.00410006
0.0042791
0.00443264
0.00453866
0.00461672
0.00476119
0.00496432
0.00441583
0.00319955
0.00418614
0.00579845
0.00572767
0.00535595
0.00498699
0.00464448
0.00422393
0.00368174
0.00305008
0.00243972
0.00155362
0.00276219
0.00440747
0.00459905
0.00444007
0.00422546
0.00401506
0.00382704
0.00366144
0.003502
0.0033235
0.00314297
0.00297377
0.00282777
0.002717
0.00265512
0.00265783
0.00274009
0.00290903
0.00315349
0.00343794
0.00371031
0.00392424
0.00407617
0.00425282
0.00450741
0.00421754
0.00252791
0.00314345
0.00514155
0.00515685
0.00503072
0.00488854
0.00486573
0.00477795
0.004506
0.0040431
0.00312824
0.00158495
0.00246976
0.00257007
0.00266305
0.00281097
0.00261718
0.00238264
0.00221508
0.00207109
0.00194431
0.00183108
0.00172998
0.00164112
0.00156007
0.00148449
0.0014133
0.00134633
0.00128413
0.00122789
0.00117934
0.0011406
0.00111374
0.00109985
0.00109795
0.00110478
0.00111678
0.00113371
0.00115479
0.00115277
0.00109805
0.00120084
0.0013094
0.00134399
0.00142073
0.00152075
0.00164393
0.0018126
0.00186119
0.00181175
0.0016601
0.00151715
)
;

boundaryField
{
    floor
    {
        type            compressible::alphatWallFunction;
        Prt             0.85;
        value           nonuniform List<scalar> 
36
(
0.000151108
6.94427e-05
8.05646e-05
8.23639e-05
6.63365e-05
4.93493e-05
4.24149e-05
4.09067e-05
4.1637e-05
4.2741e-05
3.99009e-05
3.54266e-05
3.16335e-05
3.27865e-05
3.87097e-05
5.07327e-05
7.08241e-05
7.35431e-05
6.61491e-05
6.61483e-05
9.64043e-05
0.00010508
0.000180194
0.000195633
0.000185745
0.000171289
0.000151106
0.000162092
0.000154831
0.000120459
6.94419e-05
0.000120457
0.000102525
0.000167477
0.000158165
0.000180938
)
;
    }
    ceiling
    {
        type            compressible::alphatWallFunction;
        Prt             0.85;
        value           nonuniform List<scalar> 
43
(
0.000337567
0.000350314
0.000362084
0.000380773
0.000356355
0.000326529
0.000305025
0.000286407
0.000269897
0.000255052
0.000241713
0.000229918
0.000219098
0.000208951
0.000199341
0.000190251
0.000181763
0.000174048
0.000167355
0.000161993
0.000158263
0.00015633
0.000156065
0.000157017
0.000158687
0.000161039
0.000163959
0.000163679
0.000156076
0.000170311
0.000185214
0.000189922
0.000200338
0.000213829
0.000230292
0.000252617
0.000259007
0.000252505
0.000232439
0.00021334
0.000497168
0.00059235
0.000374548
)
;
    }
    sWall
    {
        type            compressible::alphatWallFunction;
        Prt             0.85;
        value           uniform 0.000336362;
    }
    nWall
    {
        type            compressible::alphatWallFunction;
        Prt             0.85;
        value           nonuniform List<scalar> 6(0.000171023 0.000198401 0.000233229 0.000217845 0.000222035 0.000212952);
    }
    sideWalls
    {
        type            empty;
    }
    glass1
    {
        type            compressible::alphatWallFunction;
        Prt             0.85;
        value           nonuniform List<scalar> 9(0.000117506 0.000198659 0.000265869 0.000328045 0.000385136 0.000438139 0.000488454 0.000501285 0.000489483);
    }
    glass2
    {
        type            compressible::alphatWallFunction;
        Prt             0.85;
        value           nonuniform List<scalar> 2(0.000263048 0.000256181);
    }
    sun
    {
        type            compressible::alphatWallFunction;
        Prt             0.85;
        value           nonuniform List<scalar> 
14
(
0.000121201
0.000124389
0.000115338
0.000119698
0.000124119
0.000128161
0.000131863
0.000135338
0.000138732
0.00014225
0.000145281
0.0001476
0.000149217
0.000150387
)
;
    }
    Table_master
    {
        type            compressible::alphatWallFunction;
        Prt             0.85;
        value           nonuniform List<scalar> 9(9.44518e-05 7.79149e-05 6.88958e-05 6.22407e-05 5.65447e-05 5.08891e-05 4.50426e-05 4.7525e-05 9.55263e-05);
    }
    Table_slave
    {
        type            compressible::alphatWallFunction;
        Prt             0.85;
        value           nonuniform List<scalar> 9(0.000136001 0.000138655 0.000143574 0.000150418 0.000159545 0.000172717 0.00017905 0.000182903 0.000182496);
    }
    inlet
    {
        type            fixedValue;
        value           uniform 1.94e-05;
    }
    outlet
    {
        type            zeroGradient;
    }
}


// ************************************************************************* //
