/*--------------------------------*- C++ -*----------------------------------*\
  =========                 |
  \\      /  F ield         | OpenFOAM: The Open Source CFD Toolbox
   \\    /   O peration     | Website:  https://openfoam.org
    \\  /    A nd           | Version:  6
     \\/     M anipulation  |
\*---------------------------------------------------------------------------*/
FoamFile
{
    version     2.0;
    format      ascii;
    class       volScalarField;
    location    "300";
    object      nut;
}
// * * * * * * * * * * * * * * * * * * * * * * * * * * * * * * * * * * * * * //

dimensions      [0 2 -1 0 0 0 0];

internalField   nonuniform List<scalar> 
458
(
0.000730697
0.000748987
0.000695005
0.000720949
0.000747371
0.000771618
0.000793907
0.000814897
0.000835463
0.000856838
0.000875297
0.000889454
0.000899336
0.000906487
0.0009109
0.000429302
0.000491983
0.000502193
0.000411776
0.000318645
0.000281584
0.000273605
0.000277454
0.00028329
0.000268312
0.000244944
0.000225367
0.000231321
0.000262093
0.000326037
0.000436491
0.000451734
0.000410456
0.00124218
0.00205808
0.00151835
0.00194417
0.00208698
0.00223495
0.00238546
0.00252527
0.00263699
0.00269797
0.00271636
0.00266117
0.00248862
0.00213313
0.00155386
0.000978448
0.000933668
0.000725463
0.000618843
0.00118426
0.00137369
0.00141382
0.0012126
0.000959071
0.000830899
0.00082837
0.000810866
0.000688021
0.000504468
0.000348554
0.000300563
0.000416398
0.000938573
0.00141014
0.00160267
0.00058237
0.00168425
0.00333064
0.00161293
0.00281423
0.00311637
0.00328179
0.00342512
0.00354658
0.00364125
0.00370119
0.00372901
0.00369977
0.00357842
0.00332035
0.00289941
0.0023532
0.00169795
0.00101172
0.000953657
0.00256593
0.00231634
0.00191108
0.00147635
0.000570394
0.00047557
0.000424825
0.000387874
0.000356601
0.000325903
0.000294565
0.000307819
0.000576328
0.00153965
0.00190298
0.00146124
0.000633008
0.00210434
0.00497713
0.0017346
0.00310875
0.00373175
0.00390288
0.00401746
0.00411025
0.00418563
0.00424263
0.00428637
0.00431491
0.00430681
0.00421718
0.00397035
0.00347627
0.00269077
0.00175828
0.00109544
0.00230767
0.00244473
0.00207778
0.00161244
0.00115843
0.000817561
0.000833638
0.000863531
0.000905312
0.000961388
0.00104294
0.00108242
0.00110651
0.00110395
0.00135205
0.00174657
0.00214489
0.00109001
0.00249788
0.00683592
0.00220354
0.00292577
0.00399109
0.00420885
0.00430063
0.00436314
0.00441094
0.00445195
0.00449425
0.00457372
0.00469566
0.00484557
0.00498618
0.00506844
0.00505057
0.00489648
0.0045801
0.00427734
0.00392377
0.00360169
0.00339748
0.00328849
0.00324238
0.00328254
0.00338764
0.00355546
0.00378584
0.00407337
0.00427922
0.00438421
0.00437272
0.00426497
0.0038086
0.00332256
0.00236054
0.00118737
0.00112517
0.00103501
0.00286898
0.00856804
0.00329248
0.00256856
0.0038221
0.00422861
0.00437153
0.00443536
0.00444762
0.00442797
0.00440372
0.0044539
0.00458509
0.00479112
0.00504838
0.00531276
0.00551475
0.00555395
0.00536565
0.00501329
0.00462369
0.00430311
0.00408962
0.00395322
0.00385895
0.00380476
0.00380959
0.00388301
0.00404104
0.00438549
0.0047113
0.00488402
0.00496281
0.00501057
0.00490357
0.00452216
0.00390499
0.00322134
0.00306793
0.00120681
0.00322569
0.00987381
0.00543801
0.00280262
0.00283456
0.00353338
0.00404851
0.00433921
0.00444644
0.00435649
0.00422124
0.00419116
0.00425234
0.00440041
0.00462672
0.00490546
0.00517239
0.00532098
0.00526856
0.00504661
0.00475518
0.00448382
0.00426802
0.00409669
0.00395331
0.00383959
0.00376246
0.0037296
0.00380626
0.00423498
0.00467147
0.00486253
0.00496709
0.00516193
0.00545212
0.00547167
0.00512221
0.00454119
0.00406175
0.00142936
0.00331859
0.0102169
0.00755407
0.00521421
0.00362187
0.00313995
0.003498
0.00398682
0.00430414
0.00416439
0.003988
0.00389115
0.00387503
0.00392971
0.00405024
0.00423507
0.00446374
0.00466715
0.00473897
0.00467812
0.00453929
0.0043794
0.00422965
0.00409702
0.00398603
0.00389828
0.00379594
0.00362876
0.00356231
0.00414765
0.0047042
0.00482808
0.00488023
0.00511608
0.00566029
0.00637036
0.00641553
0.00571195
0.00552324
0.00163821
0.00323642
0.00391222
0.00430025
0.00430186
0.00395437
0.00353553
0.00326606
0.00317595
0.00319294
0.00323999
0.0032917
0.00334069
0.00338846
0.00343999
0.00350277
0.00358744
0.00370193
0.00383481
0.00394972
0.00402234
0.00405279
0.00405425
0.00403704
0.00400885
0.003991
0.00401163
0.00398372
0.00364045
0.00325468
0.00403593
0.00481295
0.0047402
0.00446381
0.00420704
0.00398752
0.00377098
0.00352892
0.00314011
0.00279331
0.00159346
0.00224306
0.003328
0.00364328
0.00356667
0.00340522
0.00326847
0.00317297
0.00310873
0.00307671
0.00306427
0.00305982
0.00305675
0.00305489
0.00306086
0.00308657
0.00314398
0.00323802
0.00336548
0.00351547
0.00366873
0.00380011
0.00389076
0.00395744
0.00408105
0.00425489
0.00378458
0.00274208
0.0035869
0.00496844
0.00490809
0.00458985
0.00427388
0.0039805
0.0036202
0.00315563
0.00261436
0.00209128
0.00133176
0.00235223
0.00376981
0.00393976
0.00380624
0.00362342
0.00344347
0.00328239
0.00314038
0.00300361
0.00285046
0.00269557
0.00255038
0.00242509
0.00233002
0.00227687
0.00227912
0.00234958
0.00249435
0.00270387
0.00294764
0.00318104
0.00336431
0.00349442
0.00364569
0.00386371
0.00361506
0.00216677
0.00269353
0.00440549
0.00441878
0.00431095
0.00418935
0.00417001
0.00409496
0.00386202
0.0034654
0.00268116
0.00135856
0.00210815
0.00219347
0.00227281
0.0024053
0.0022419
0.00204205
0.00189879
0.00177553
0.00166693
0.00156989
0.00148323
0.00140706
0.00133759
0.00127279
0.00121176
0.00115435
0.00110102
0.0010528
0.00101117
0.000977961
0.000954929
0.000943015
0.000941375
0.000947222
0.000957494
0.000971992
0.000990031
0.000988262
0.000941302
0.001029
0.00112199
0.00115167
0.00121747
0.00130323
0.00140883
0.00155347
0.00159515
0.00155279
0.0014228
0.00130043
)
;

boundaryField
{
    floor
    {
        type            nutkWallFunction;
        Cmu             0.09;
        kappa           0.41;
        E               9.8;
        value           nonuniform List<scalar> 
36
(
0.000110177
5.06161e-05
5.87068e-05
6.0013e-05
4.83332e-05
3.59523e-05
3.09007e-05
2.98019e-05
3.03327e-05
3.11357e-05
2.90701e-05
2.58159e-05
2.3057e-05
2.38971e-05
2.82069e-05
3.69525e-05
5.15612e-05
5.35373e-05
4.81651e-05
4.81651e-05
7.01597e-05
7.64744e-05
0.000131245
0.000142529
0.000135333
0.000124822
0.000110177
0.000118174
0.00011288
8.78471e-05
5.0616e-05
8.78471e-05
7.47074e-05
0.00012209
0.000115247
0.000131878
)
;
    }
    ceiling
    {
        type            nutkWallFunction;
        Cmu             0.09;
        kappa           0.41;
        E               9.8;
        value           nonuniform List<scalar> 
43
(
0.000245057
0.000254274
0.000262811
0.000277049
0.000259552
0.000237949
0.000222322
0.000208773
0.000196752
0.000185937
0.000176217
0.000167622
0.000159738
0.000152343
0.00014534
0.000138715
0.000132529
0.000126905
0.000122028
0.000118119
0.0001154
0.000113991
0.000113797
0.00011449
0.000115705
0.000117417
0.000119542
0.000119334
0.000113788
0.000124116
0.00013497
0.000138403
0.000145995
0.000155828
0.000167826
0.000184098
0.000188758
0.000184022
0.000169402
0.000155503
0.000364629
0.000433957
0.000271285
)
;
    }
    sWall
    {
        type            nutkWallFunction;
        Cmu             0.09;
        kappa           0.41;
        E               9.8;
        value           uniform 0.000245122;
    }
    nWall
    {
        type            nutkWallFunction;
        Cmu             0.09;
        kappa           0.41;
        E               9.8;
        value           nonuniform List<scalar> 6(0.000124827 0.000144776 0.000170152 0.000159089 0.000162138 0.000155516);
    }
    sideWalls
    {
        type            empty;
    }
    glass1
    {
        type            nutkWallFunction;
        Cmu             0.09;
        kappa           0.41;
        E               9.8;
        value           nonuniform List<scalar> 9(8.84587e-05 0.00014901 0.000198983 0.000245127 0.000287455 0.000326726 0.000363977 0.000373618 0.000365121);
    }
    glass2
    {
        type            nutkWallFunction;
        Cmu             0.09;
        kappa           0.41;
        E               9.8;
        value           nonuniform List<scalar> 2(0.000193668 0.000188678);
    }
    sun
    {
        type            nutkWallFunction;
        Cmu             0.09;
        kappa           0.41;
        E               9.8;
        value           nonuniform List<scalar> 
14
(
8.84847e-05
9.07136e-05
8.41177e-05
8.72949e-05
9.05167e-05
9.34614e-05
9.61589e-05
9.86908e-05
0.000101164
0.000103727
0.000105935
0.000107624
0.000108802
0.000109653
)
;
    }
    Table_master
    {
        type            nutkWallFunction;
        Cmu             0.09;
        kappa           0.41;
        E               9.8;
        value           nonuniform List<scalar> 9(6.86579e-05 5.66161e-05 5.00523e-05 4.5211e-05 4.10679e-05 3.69553e-05 3.27047e-05 3.45043e-05 6.9404e-05);
    }
    Table_slave
    {
        type            nutkWallFunction;
        Cmu             0.09;
        kappa           0.41;
        E               9.8;
        value           nonuniform List<scalar> 9(9.90131e-05 0.000100946 0.000104529 0.000109513 0.00011616 0.00012575 0.000130361 0.000133165 0.000132868);
    }
    inlet
    {
        type            calculated;
        value           uniform 0.000100623;
    }
    outlet
    {
        type            calculated;
        value           nonuniform List<scalar> 2(0.00210815 0.00219347);
    }
}


// ************************************************************************* //
