/*--------------------------------*- C++ -*----------------------------------*=========                 |
  \      /  F ield         | OpenFOAM: The Open Source CFD Toolbox
   \    /   O peration     | Website:  https://openfoam.org
    \  /    A nd           | Version:  6
     \/     M anipulation  |
\*---------------------------------------------------------------------------*/
FoamFile
{
    version     2.0;
    format      ascii;
    class       volScalarField;
    location    "300";
    object      PMV;
}
// * * * * * * * * * * * * * * * * * * * * * * * * * * * * * * * * * * * * * //

dimensions      [0 0 0 0 0 0 0];

internalField   nonuniform List<scalar> 
458
(
1.4339949948152853
1.2353670518743525
1.2544235434579878
1.2376626796651358
1.2224410335516631
1.2096511096180953
1.2003278672852076
1.1942285989917294
1.1926803811880498
1.194729656512548
1.202969964766692
1.2198845927472428
1.2475442395347331
1.27394856293333
1.2533228846425806
1.122396653811511
1.1152344586114618
1.1061622004082545
1.038832140230494
0.9251713200205691
0.8750249497120557
0.8626077575509804
0.8606974227052121
0.8621301737681804
0.8597422555759758
0.8606974227052121
0.8659508452784115
0.8764577040052643
0.8817111379532132
0.895083519790919
0.9127541514208765
0.9132317354534815
0.9194403236434918
1.4185255445853207
1.2239360500760381
1.2643588177896785
1.2401308984627637
1.2256230314177048
1.2149440368092395
1.207342928066725
1.2022135296240062
1.2006760481561012
1.202051027871059
1.2067897799588934
1.214683432506504
1.2244674288198065
1.2302888244136783
1.2312054661653649
1.274006471260874
1.337673874941388
1.3029081575924626
1.06826666297689
1.1644126430754729
1.1663223633612407
1.167277220119423
1.113802007357918
1.0369219717661147
0.9815253808288364
0.9457073030426933
0.9146644872894466
0.8984266146816903
0.8926955945352308
0.8936507646623929
0.8984266146816903
0.9218282398375459
0.9858234932232868
0.9877337607819144
0.9595570491128718
0.8809719374766826
1.4874152533807816
1.2092804643184702
1.287699811118976
1.257428845736723
1.2477135117004852
1.2405989739804009
1.2362205608583252
1.2342713894760757
1.2331723817148517
1.2340921062594354
1.2354893063558754
1.2361490963000537
1.232927812395575
1.2241398662614298
1.2134851799729214
1.2114306024729975
1.2024100914190934
1.171114909986869
1.2446122711958882
1.2455669112331635
1.2555904463237795
1.2637044834811109
1.2584542503762857
1.1047297242762806
1.0517256549649792
1.0225955692663655
1.0020606701070478
0.9824805181356778
0.9629000758781218
0.9418866673083447
0.9299471432730777
1.0326240763765342
1.1300362135079176
1.0316689854925019
0.9829580865305931
0.7833288674212122
1.5786568909445517
1.2096730258767512
1.3101790791060075
1.279415593711703
1.2769232024507158
1.2768918478442726
1.2782162599535336
1.2806681703504195
1.2836201113941437
1.285596836764082
1.2866616792317203
1.2831728593099734
1.2734108407600033
1.256870170713972
1.2366408788262357
1.2153271502779999
1.188008038008978
1.1582741953409441
1.1546562929437372
1.1937847392372067
1.216627250048913
1.2442797212667536
1.251256988933546
1.246002922650708
1.2576105101515949
1.287257070303211
1.3231653247501276
1.3324251749472955
1.3343338071395694
1.3343338071395694
1.32091010261514
1.2716575496434896
1.234849489474875
1.2072120660597339
1.171222700734473
1.1379724173874541
1.1978313892193115
1.6760572194613088
1.2264554461519894
1.3257298010060128
1.3010511761221406
1.3079789864443667
1.3174455580278106
1.328160744363349
1.3384495350290764
1.3479373532116292
1.3545076593119418
1.3574967749445683
1.3536800758204264
1.340838778408876
1.3216422066201348
1.2980809863105904
1.2722738378716318
1.2461487357413972
1.2279289798850987
1.2271039663487897
1.2394774277127258
1.2593162107575204
1.2761356872761085
1.2840258947379395
1.288510304724971
1.3005773693638103
1.320747205331984
1.3453081292068607
1.3462623925474793
1.3462623925474793
1.3453081292068607
1.3318668724407916
1.3014987467975878
1.2722624499706832
1.2431260663073358
1.204023122568241
1.151515422760939
1.1165377763763122
1.083510405514539
1.0818522505670043
1.0936435392415762
1.7676572048269061
1.2589240675688087
1.3457891948631158
1.3221271397111702
1.3372664460170078
1.3580713732351115
1.3809806675076894
1.4039593770936458
1.42506196336159
1.441184064740217
1.4478967758533934
1.4420574551726566
1.425591285717334
1.4027899274107039
1.3776910783294924
1.3515175244463027
1.3269380314197738
1.3107974575880161
1.3062401893782623
1.310950466013665
1.3201142892478452
1.32752257700479
1.3304771463643346
1.33290282089605
1.3385920566539635
1.3469045070057084
1.3528256587445535
1.3497847845262552
1.3339768287145755
1.320747861029393
1.3181836140750802
1.3134445620364885
1.3071668280062891
1.2930511771339557
1.2510622151616557
1.1996022627605245
1.1628661903163862
1.1596690305083737
1.1494131627017172
1.1147284967702158
1.8435829754780249
1.3405461421484812
1.4409837588177985
1.3640472851652972
1.370624069079421
1.4030435705591424
1.4417988330638607
1.4858048572638023
1.506510776583898
1.5265307981551544
1.5398759017898715
1.5429851553072234
1.514159240421576
1.4873894719699292
1.4615415380564396
1.4370479146940236
1.416053228576529
1.402130112661845
1.3966178234825342
1.3970003994620055
1.3983724019012012
1.3920619641388745
1.3844294165574456
1.3787048129177821
1.3744112533298496
1.3710717555192136
1.3628357563714313
1.340052265724202
1.3131142703091745
1.2993483740094647
1.303612601771815
1.309983178393821
1.32359228689838
1.3505820758539746
1.3510336470043771
1.2900731168361113
1.2391426913887724
1.21328960677511
1.1437915935069218
1.0831478872991878
1.9783916951091813
1.6817580162631305
1.672990346265852
1.5207995715857694
1.4802421871972193
1.4979671768745948
1.5007902640659583
1.5127077471840007
1.5284373200638115
1.5498838742245917
1.5477606852752879
1.5350428615687879
1.5222191667129992
1.5096228646880432
1.4990815931150623
1.4897581976367869
1.482787188811108
1.4769524629489261
1.4583564624685923
1.4421428475016924
1.427835440058402
1.4159117176873663
1.4058951891881626
1.397786178622842
1.3906308840988744
1.3844294165574456
1.3791818694666542
1.3459257166594956
1.308640073297488
1.2933587923173921
1.2997284922825727
1.29961912608347
1.3009932734158125
1.3101109957409516
1.335269830669755
1.347216651753012
1.3319480144105358
1.3200186818566064
1.1852909033109011
1.0215646956344773
2.172619461283311
2.0152142025445072
1.8683528689665239
1.7148847340191695
1.6021105534992794
1.5352302251236591
1.49957753569309
1.4816474964935142
1.4742338776925417
1.471672122787771
1.4670878764024287
1.4615751807795976
1.4571060089909944
1.4542400097450714
1.4534815655847264
1.455448711531035
1.4594733496586036
1.4648603157751874
1.4714328134170966
1.4631248717239114
1.4492961057465212
1.4368969346396283
1.4259276976870983
1.4159117176873663
1.407326154887199
1.3987401978157001
1.3911079119462508
1.3732343389692006
1.325248544096448
1.3093123988122546
1.3131706600029815
1.2878295616508635
1.2582326662416161
1.226485650891228
1.1939118687149324
1.1658915940382621
1.1458755803201799
1.1323492803902586
1.1177617050862183
1.0749470255340003
0.15952622904076294
0.8468257244071933
1.1931505063107541
1.3263102116678673
1.3725428823401984
1.3859275131437125
1.3883980592839902
1.387268784970199
1.3864865539090878
1.3856418530080348
1.386164623414367
1.3879077505481978
1.3916228729449964
1.3974212843229847
1.4043368069526583
1.4117667638354277
1.4194732689935439
1.4264179684765697
1.4329777183481969
1.4385828426904679
1.4392814602689648
1.4302200891767116
1.4216352028862436
1.41304990776403
1.4044642125773743
1.396355140932117
1.3753053537469817
1.3611198935709845
1.3643925977273406
1.3301103385513031
1.2943496272116726
1.2693009987387245
1.2503861571807466
1.2309661631312792
1.2211968384149683
1.232757173820325
1.2564700425641435
1.145473063033967
0.13099480573005576
0.8751331791611944
1.1464926629719314
1.2573725539318306
1.2952390950007988
1.3051580450137819
1.3063765387790849
1.3067888966497978
1.3084915301498694
1.3125061103760154
1.3180452940590544
1.3246204848656769
1.3327656502299203
1.3414048870314634
1.3503883026039962
1.3589861165783264
1.3664849635420742
1.3720002650742935
1.3762602711582574
1.3797287947151842
1.3837451509233656
1.3905791190813912
1.3996913020300485
1.4079084142556533
1.4073681212782208
1.4101880533897913
1.4056303948177087
1.363438414850949
1.3581903318339517
1.3643925977273406
1.3643019289167246
1.3612342539875455
1.3543881083513116
1.3420125707733186
1.3290371665678662
1.3288421418314948
1.2964430501678565
1.198292198898168
0.37609525667857474
0.3516374696949066
0.41389800838276003
0.9514011630586956
1.2853534279391754
1.3474156261987589
1.2939649417962569
1.264213290601537
1.2489839162197456
1.2415521153848688
1.2391340482539
1.2403622214583305
1.2437248060380264
1.2491333449749167
1.2545480402729698
1.2590693333663463
1.262484483192841
1.264358748325259
1.2641538770183065
1.2628492503858948
1.261230572669664
1.2590872008500023
1.2579932054569358
1.257520545112843
1.2568834308542145
1.2557538690377916
1.2534941217425004
1.2461073861654253
1.2279481662248015
1.1680739853085154
1.1849186508647624
1.1962081030321865
1.2264293385709972
1.2690296252567985
1.3224948532285394
1.3877686925915214
1.3550750761009949
1.2885307924582998
1.2138360101171104
1.2248618135342004
)
;

boundaryField
{
    ".*"
    {
        type            zeroGradient;
    }
}


// ************************************************************************* //
