/*--------------------------------*- C++ -*----------------------------------*=========                 |
  \      /  F ield         | OpenFOAM: The Open Source CFD Toolbox
   \    /   O peration     | Website:  https://openfoam.org
    \  /    A nd           | Version:  6
     \/     M anipulation  |
\*---------------------------------------------------------------------------*/
FoamFile
{
    version     2.0;
    format      ascii;
    class       volScalarField;
    location    "300";
    object      PPD;
}
// * * * * * * * * * * * * * * * * * * * * * * * * * * * * * * * * * * * * * //

dimensions      [0 0 0 0 0 0 0];

internalField   nonuniform List<scalar> 
458
(
47.324843806944436
36.98904088964024
37.94363041444547
37.10353010927484
36.34703286528596
35.716305578524086
35.259442666596954
34.96191543035103
34.88656432286824
34.98631667846227
35.388659931408824
36.22059978745375
37.59793794142633
38.93127590442255
37.88823957992556
31.542950152456967
31.21107357961867
30.79314566931275
27.78045314274658
23.07554718319666
21.161743688880875
20.703724199958657
20.633824846737554
20.686235204941596
20.598931816661647
20.633824846737554
20.82641121990271
21.21500086986957
21.4109986251368
21.91500080512563
22.592163230569454
22.610640240028687
22.851677185321748
46.49508423028328
36.42105476161896
38.44501013928746
37.22678296364238
36.5046548463913
35.97676932071691
35.602967977643885
35.3516444065546
35.27645968817029
35.343694661291195
35.57582944956435
35.96392663917743
36.44737937817968
36.736276686315584
36.78185042422817
38.9342190620762
42.2160595749773
40.41296134546463
29.077837513539777
33.52333078944166
33.61466623926911
33.660375859338046
31.14490223862522
27.697342338209566
25.34618743328737
23.88851037060529
22.666126428851413
22.04214107377487
21.82446491414801
21.860651388526634
22.04214107377487
22.944796284782726
25.52445191747283
25.603908020549795
24.446206963349667
21.383351696485846
50.20968404795795
35.69809577835305
39.63242007393661
38.09502960105493
37.606429421090596
37.25017492448415
37.03159132439806
36.93444676046525
36.87971821382256
36.925516580482565
36.99513451475057
37.02802781904983
36.867543520933474
36.43115094469784
35.90490075067021
35.803786078700696
35.3612614157217
33.84437028022907
37.45097484741315
37.49880102940961
38.00238868057774
38.411913377239145
38.1467390833737
30.727409369847805
28.34492059684618
27.078282106040376
26.204264764509006
25.38574044070434
24.58195034188317
23.73599330514503
23.263109981457845
27.510831254189185
31.898810515214464
27.469476374478617
25.4055300951229
17.931072804838664
55.17471846819523
35.717382445758844
40.78795242200796
39.209489971158575
39.08256476297234
39.08096897292391
39.14839530323748
39.273333379770904
39.42393963924811
39.524905535017055
39.57933272473291
39.401107903375696
38.903950352875086
38.06686770764513
37.05255279201055
35.99565274831994
34.65958952340189
33.230513231566434
33.05848049700194
34.94030580292214
36.0597644084239
37.434320127088256
37.784356640119746
37.52065251340823
38.10418870655534
39.60977640313579
41.460529432403455
41.94224709313069
42.041752967970965
42.041752967970965
41.343473702679844
38.814901604363
36.96324804570681
35.59654684628474
33.84954470054514
32.270503798420705
35.13753207788369
60.45668980394459
36.54593465550798
41.59376434710691
40.31737569850491
40.6743628765103
41.16385548881463
41.72018592565534
42.25656991799328
42.75302802602653
43.09781891465097
43.254941343821514
43.05434585469513
42.38142632254363
41.381461484630364
40.164648933566724
38.84619406439013
37.52796129827908
36.61905410789077
36.578108141705265
37.194135592894426
38.19022683929893
39.042491382846315
39.44465850700888
39.67388398814773
40.2929994023479
41.33502272272885
42.61527961984418
42.665259607505114
42.665259607505114
42.61527961984418
41.9131539050672
40.34040679779022
38.84561575221003
37.376565347341916
35.44022264479071
32.90946355787479
31.271339069221455
29.76185159239644
29.687053090036073
30.22102066163484
65.32715781998718
38.17044005301485
42.64047350281791
41.40663006616204
42.19478552542707
43.28516353783349
44.49480309285434
45.71661766528466
46.84532678086985
47.71142683363581
48.072911039398264
47.75843187976264
46.87371321520766
45.6542458863298
44.32056485078127
42.94080612419563
41.6565835086368
40.81989781588874
40.58466425788397
40.82780349465309
41.30219279417861
41.68698629243431
41.84076226566299
41.96714219915409
42.26401466135436
42.6989003419924
43.00947638984495
42.84989501022761
42.02313651953539
41.33505673867504
41.2020986716484
40.95674003719342
40.632458175664446
39.90647000430023
37.77456814308819
35.22399064062722
33.44945158696902
33.296947299668886
32.80989653957617
31.187693118974238
69.2376207320832
42.366127873220435
47.70064774594483
43.59982818708206
43.94685403206828
45.66777210381742
47.74451220682279
50.12236047269816
51.246397853322804
52.3353073483766
53.0619352454206
53.23129052259874
51.66220289821425
50.20828591115462
48.80911698677437
47.48893874067435
46.36275321578575
45.6190637805048
45.32538931379565
45.34575712821581
45.41881845420757
45.083010186904076
44.67765906118382
44.374240089929806
44.147020614459265
43.97050329244832
43.53598345547103
42.34031273991753
40.93965738383031
40.229793695854234
40.44924166227369
40.77783392579684
41.48270245420796
42.89171931919341
42.91541307598483
39.753878550120966
37.177416550973334
35.895270639348325
32.54433632974482
29.74549041752097
75.76493999499375
60.76338654716675
60.29154094220963
52.02341311334805
49.82086852408074
50.782287212392816
50.935599532422344
51.58327195155765
52.43908523566663
53.6071055222498
53.491435825391626
52.79872791802806
52.10065672990219
51.41555104099812
50.84280184840072
50.336761895975805
49.95877730588803
49.642677517071974
48.637103009842555
47.763028064697224
46.99410093239277
46.35518126300337
45.81990561673019
45.387597723935926
45.006939321603014
44.67765906118382
44.3995051023757
42.6476240825898
40.70848338175926
39.92224332719908
40.24933910158992
40.24371523979509
40.31439646575843
40.78443574417125
42.09057863639978
42.715256587853126
41.91738183275431
41.297234279063616
34.52789167183066
27.03402961437105
83.8984518179714
77.4334418902519
70.48091098385754
62.5372890741519
56.45155601328063
52.80893073438858
50.86973468600273
49.89701358721416
49.49548692228512
49.35684235459397
49.108876396951175
48.81093441038978
48.56959701897655
48.41493269277388
48.374016610126944
48.480150764979115
48.69741101950538
48.98845160152121
49.34389348254046
48.894662029257965
48.14832625620821
47.48082101570043
46.89175608376295
46.35518126300337
45.896290758781845
45.43840889322229
45.0322928557823
44.084790549053615
41.56875081065524
40.743193679529064
40.942573687735724
39.6390569368414
38.13556271047424
36.547432876889935
34.946494604134
33.594054198593994
32.6426656944644
32.00693240069127
31.32798504038439
29.37659374502047
5.527390859912657
20.130796229655246
34.90943770748042
41.623937745266694
44.04824018400751
44.75714856246249
44.88831361370871
44.82834687829856
44.78682051863411
44.74198860609804
44.769732957958354
44.862274793018415
45.059666410051285
45.36816696198784
45.736751789003364
46.13351207223487
46.5458324656963
46.9180534106097
47.270189110046225
47.57148174289044
47.60905975367189
47.12209292596084
46.66164191476997
46.202109020126905
45.74354874275886
45.31140571862245
44.194312168981384
43.4456057450844
43.61803006279104
41.82166150114511
39.97306419156918
38.695331414451225
37.740599923342224
36.769950532157594
36.28547659249921
36.859050061172105
38.04670275583641
32.623662823372186
5.35548344603022
21.16576375915919
32.67180821839693
38.09219166583953
40.01870485987323
40.528873504211894
40.59169567253756
40.6129630677643
40.70081583513668
40.908209522262965
41.19493059575508
41.53611430052613
41.95999234132936
42.411026063557735
42.88155327493672
43.33328861008609
43.728365854184005
44.01956309399378
44.24483516958256
44.42847493745279
44.64136353041057
45.004188274781505
45.4890781170567
45.92738004377803
45.89853136333942
46.04914485047397
45.80577401343955
43.56773892588796
43.29142115528863
43.61803006279104
43.61325058956085
43.45162770264012
43.09153811458994
42.44280648786765
41.76579383868857
41.75564365118658
40.08051117943487
35.16002125074699
7.945094191465685
7.572771976642812
8.570795081208317
24.116875183229013
39.512467919099876
42.72568371765902
39.9533306554625
38.437648336558624
37.67018249046876
37.29782578274297
37.17698489241863
37.23834255219266
37.406535371938816
37.67768405760986
37.949897680691265
38.17776943289138
38.350233196535285
38.445006625156516
38.434642924997505
38.36867103531341
38.28687727013889
38.178670972719395
38.12348605792168
38.099652770272385
38.06753603815093
38.01062043561579
37.89685508497437
37.52588862192123
36.62000655866659
33.698538945259244
34.50986586937704
35.0583589018494
36.544639682201286
38.68157077270161
41.42571806753943
44.85489052507295
43.127632615261135
39.674932314100005
35.92217847058966
36.466922278684635
)
;

boundaryField
{
    ".*"
    {
        type            zeroGradient;
    }
}


// ************************************************************************* //
