// -*- C++ -*-
// File generated by PyFoam - sorry for the ugliness

FoamFile
{
 version 2.0;
 format ascii;
 class volVectorField;
 location "300";
 object U;
}

dimensions [ 0 1 -1 0 0 0 0 ];

internalField nonuniform List<vector> 458
(
  (0.105913 0.0692077 0)
  (-0.14052 0.0012771 0)
  (-0.120621 0.00638028 0)
  (-0.136545 0.00759756 0)
  (-0.152335 0.00661196 0)
  (-0.166587 0.00466151 0)
  (-0.178107 0.00207026 0)
  (-0.185998 -0.00110578 0)
  (-0.189431 -0.00491564 0)
  (-0.187489 -0.00949204 0)
  (-0.178436 -0.0152298 0)
  (-0.159739 -0.0225725 0)
  (-0.130449 -0.0330327 0)
  (-0.100849 -0.0497784 0)
  (-0.105256 -0.0728356 0)
  (0.0382974 0.0108613 0)
  (-0.0296229 -0.00890402 0)
  (-0.01355 -0.00965834 0)
  (-0.00706499 -0.000125236 0)
  (-0.00665841 0.0089576 0)
  (-0.0175217 0.0052255 0)
  (-0.0249727 -0.00246029 0)
  (-0.0262725 -0.00565851 0)
  (-0.0224636 -0.00659502 0)
  (-0.0180456 -0.00755135 0)
  (-0.0116731 -0.00931921 0)
  (-0.00188462 -0.0127244 0)
  (0.0139755 -0.0180806 0)
  (0.022849 -0.0125857 0)
  (0.0313446 -0.00831381 0)
  (0.0354436 -0.0106433 0)
  (0.0467165 -0.00496247 0)
  (-0.0198866 0.020362 0)
  (0.314699 0.152208 0)
  (-0.167954 0.0186422 0)
  (-0.114726 0.0239205 0)
  (-0.137891 0.0255039 0)
  (-0.155737 0.024137 0)
  (-0.171376 0.0210481 0)
  (-0.184142 0.0166355 0)
  (-0.193436 0.0109499 0)
  (-0.198572 0.00390534 0)
  (-0.198739 -0.00466632 0)
  (-0.193183 -0.0146534 0)
  (-0.181027 -0.0259851 0)
  (-0.16318 -0.0395438 0)
  (-0.144773 -0.0566372 0)
  (-0.128197 -0.0700859 0)
  (-0.092152 -0.051152 0)
  (-0.0346949 -0.0497318 0)
  (-0.0396499 0.0735493 0)
  (0.122563 0.00829 0)
  (0.0434414 0.00340288 0)
  (0.0196349 -0.00170783 0)
  (0.0195164 -0.00258994 0)
  (0.0294311 0.00727833 0)
  (0.0281417 0.0157066 0)
  (0.0201552 0.0109095 0)
  (0.0151096 0.00368522 0)
  (0.00959861 -0.0026126 0)
  (0.00732669 -0.00619218 0)
  (0.00656962 -0.00895859 0)
  (0.00944139 -0.01359 0)
  (0.0101531 -0.0197388 0)
  (0.00536434 -0.0100615 0)
  (0.014531 -0.00739501 0)
  (0.015241 -0.0161007 0)
  (0.0349276 -0.00458956 0)
  (-0.0838254 0.0464203 0)
  (0.489289 0.234232 0)
  (-0.216114 0.0487484 0)
  (-0.0979346 0.0471564 0)
  (-0.129831 0.0440326 0)
  (-0.1482 0.0399456 0)
  (-0.164343 0.0338776 0)
  (-0.177794 0.0258661 0)
  (-0.188181 0.0159271 0)
  (-0.194952 0.00408758 0)
  (-0.197359 -0.00948922 0)
  (-0.194948 -0.024667 0)
  (-0.188186 -0.0411761 0)
  (-0.178661 -0.0586923 0)
  (-0.169002 -0.0760877 0)
  (-0.157872 -0.0881907 0)
  (-0.140284 -0.0894315 0)
  (-0.130569 -0.0939276 0)
  (-0.163511 -0.0859485 0)
  (0.0412469 0.0150163 0)
  (-0.0518414 0.00551349 0)
  (-0.0458963 -0.00260264 0)
  (-0.0370322 -0.0157078 0)
  (-0.0327933 -0.0247239 0)
  (0.036109 0.0117249 0)
  (0.037897 0.00963881 0)
  (0.0405583 0.00557581 0)
  (0.0427599 0.00226813 0)
  (0.0410223 -0.000657525 0)
  (0.035758 -0.00386993 0)
  (0.0274275 -0.00866688 0)
  (0.00722056 -0.0148707 0)
  (-0.0249995 0.00530444 0)
  (0.0242916 0.00369216 0)
  (-0.00681469 0.011354 0)
  (-0.0585391 0.022027 0)
  (-0.175126 0.0305785 0)
  (0.631836 0.303598 0)
  (-0.265722 0.0848198 0)
  (-0.0735941 0.0718702 0)
  (-0.114864 0.0633385 0)
  (-0.131766 0.0570147 0)
  (-0.1467 0.0488636 0)
  (-0.159452 0.0384817 0)
  (-0.169731 0.0257088 0)
  (-0.177076 0.0104767 0)
  (-0.180781 -0.00700438 0)
  (-0.180159 -0.0260385 0)
  (-0.176793 -0.0455282 0)
  (-0.172403 -0.0640756 0)
  (-0.168867 -0.079643 0)
  (-0.166046 -0.089123 0)
  (-0.16418 -0.091406 0)
  (-0.170655 -0.0866105 0)
  (-0.188494 -0.057358 0)
  (-0.179425 0.0158375 0)
  (-0.129792 0.0121511 0)
  (-0.119979 0.000386169 0)
  (-0.105346 -0.0122544 0)
  (-0.102304 -0.0230452 0)
  (-0.107086 -0.0279127 0)
  (-0.103028 -0.0171676 0)
  (-0.0842667 -0.0165202 0)
  (-0.0643039 -0.0194898 0)
  (-0.0410063 -0.0244886 0)
  (-0.0139425 -0.0312737 0)
  (0.0292274 -0.0351654 0)
  (0.0625594 -0.0318971 0)
  (0.0953308 -0.0270369 0)
  (0.12317 -0.0198533 0)
  (0.135354 -0.006168 0)
  (0.125059 0.0193626 0)
  (0.0997326 0.0385878 0)
  (0.0153455 0.0542916 0)
  (0.747149 0.361469 0)
  (-0.309842 0.122698 0)
  (-0.045817 0.0930805 0)
  (-0.0947161 0.0800543 0)
  (-0.108658 0.0717016 0)
  (-0.12045 0.0616157 0)
  (-0.130556 0.0491329 0)
  (-0.138784 0.0338954 0)
  (-0.144829 0.0157154 0)
  (-0.14794 -0.0051111 0)
  (-0.147033 -0.0271923 0)
  (-0.144544 -0.0483746 0)
  (-0.142078 -0.0667809 0)
  (-0.141022 -0.0808142 0)
  (-0.141659 -0.0892632 0)
  (-0.144444 -0.092465 0)
  (-0.150403 -0.090148 0)
  (-0.155207 -0.0758353 0)
  (-0.150374 -0.0438187 0)
  (-0.134401 -0.0209897 0)
  (-0.115988 -0.0151417 0)
  (-0.102076 -0.0193553 0)
  (-0.0949308 -0.0249406 0)
  (-0.0908087 -0.0274509 0)
  (-0.0835428 -0.0240686 0)
  (-0.0710812 -0.0254933 0)
  (-0.0552827 -0.0305255 0)
  (-0.0358883 -0.03899 0)
  (-0.0126411 -0.0500229 0)
  (0.0182657 -0.0558152 0)
  (0.0462024 -0.0526727 0)
  (0.074311 -0.0462596 0)
  (0.100848 -0.0324957 0)
  (0.123342 -0.00779645 0)
  (0.138458 0.0256161 0)
  (0.147157 0.0536467 0)
  (0.135857 0.0755458 0)
  (0.162143 0.0977859 0)
  (0.149602 0.120747 0)
  (-0.0924263 0.174172 0)
  (0.826622 0.413433 0)
  (-0.347594 0.15715 0)
  (-0.0218699 0.10513 0)
  (-0.0696621 0.0931974 0)
  (-0.0804843 0.0828268 0)
  (-0.0878782 0.0707255 0)
  (-0.0934457 0.0565448 0)
  (-0.0974932 0.0395985 0)
  (-0.100104 0.0193548 0)
  (-0.100197 -0.00416178 0)
  (-0.0972122 -0.0287635 0)
  (-0.0943757 -0.050582 0)
  (-0.0929149 -0.0678148 0)
  (-0.0935957 -0.0796964 0)
  (-0.0964427 -0.0859427 0)
  (-0.101337 -0.0866821 0)
  (-0.107521 -0.0811521 0)
  (-0.111348 -0.0676506 0)
  (-0.108686 -0.0493518 0)
  (-0.0998203 -0.0349441 0)
  (-0.0889159 -0.0288039 0)
  (-0.0801436 -0.0288266 0)
  (-0.0746704 -0.0310602 0)
  (-0.0706199 -0.03277 0)
  (-0.0652094 -0.0336891 0)
  (-0.0572801 -0.0375838 0)
  (-0.0469574 -0.0453444 0)
  (-0.0338368 -0.0573286 0)
  (-0.0168527 -0.0721959 0)
  (0.00329686 -0.0799203 0)
  (0.02331 -0.0783589 0)
  (0.0438599 -0.0736356 0)
  (0.0663195 -0.0602379 0)
  (0.0902265 -0.0326361 0)
  (0.117396 0.00889681 0)
  (0.136245 0.0447791 0)
  (0.1425 0.0605588 0)
  (0.138307 0.0481707 0)
  (0.135405 0.0555468 0)
  (-0.118139 0.140383 0)
  (0.849442 0.460824 0)
  (-0.368183 0.16161 0)
  (-0.00157734 0.0865606 0)
  (-0.0293463 0.103705 0)
  (-0.0430304 0.0926279 0)
  (-0.047968 0.0751325 0)
  (-0.0482502 0.058326 0)
  (-0.0464097 0.0400674 0)
  (-0.0434542 0.0185005 0)
  (-0.0364374 -0.00713266 0)
  (-0.0304539 -0.0328144 0)
  (-0.027779 -0.0531878 0)
  (-0.0282486 -0.0678345 0)
  (-0.0316888 -0.0771041 0)
  (-0.0375805 -0.0814215 0)
  (-0.0451729 -0.0811172 0)
  (-0.0531262 -0.0757917 0)
  (-0.0589733 -0.0651325 0)
  (-0.0602856 -0.0522238 0)
  (-0.0575139 -0.041542 0)
  (-0.0531259 -0.0355341 0)
  (-0.0494524 -0.0336594 0)
  (-0.0472894 -0.0340972 0)
  (-0.0458825 -0.0354929 0)
  (-0.0440371 -0.0380958 0)
  (-0.0412973 -0.0436518 0)
  (-0.0378938 -0.0535128 0)
  (-0.0332597 -0.0688389 0)
  (-0.0237667 -0.0877657 0)
  (-0.0138906 -0.0955039 0)
  (-0.00560152 -0.0941496 0)
  (0.00257529 -0.0926027 0)
  (0.0141781 -0.0837903 0)
  (0.030311 -0.0609205 0)
  (0.0539111 -0.0208949 0)
  (0.083966 0.023911 0)
  (0.0977306 0.0482986 0)
  (0.103651 0.0550431 0)
  (0.140654 0.0881627 0)
  (-0.109494 0.205747 0)
  (0.953614 0.48581 0)
  (-0.15839 0.144484 0)
  (0.0647432 0.0383637 0)
  (0.0825488 0.0655186 0)
  (0.0434877 0.0733841 0)
  (0.0232328 0.0563637 0)
  (0.0223743 0.0380723 0)
  (0.0277638 0.0210537 0)
  (0.0341957 -1.71495e-05 0)
  (0.048979 -0.0215715 0)
  (0.0544039 -0.0396671 0)
  (0.053729 -0.0540522 0)
  (0.048939 -0.0644092 0)
  (0.041045 -0.0706977 0)
  (0.03091 -0.0731451 0)
  (0.0194506 -0.072107 0)
  (0.00788824 -0.0676934 0)
  (-0.00215366 -0.0598251 0)
  (-0.00837181 -0.0505848 0)
  (-0.0112936 -0.0425824 0)
  (-0.0125286 -0.0372919 0)
  (-0.0135805 -0.0348516 0)
  (-0.0151619 -0.034556 0)
  (-0.0171571 -0.035745 0)
  (-0.0192232 -0.038534 0)
  (-0.0216454 -0.0439567 0)
  (-0.0259595 -0.0539745 0)
  (-0.0316742 -0.0714555 0)
  (-0.0294056 -0.0941198 0)
  (-0.0300041 -0.0984319 0)
  (-0.0365458 -0.0932272 0)
  (-0.0472617 -0.0929108 0)
  (-0.0558352 -0.0893011 0)
  (-0.0597167 -0.0776138 0)
  (-0.0532588 -0.0563975 0)
  (-0.0219944 -0.027844 0)
  (-0.00279425 0.000786979 0)
  (0.0159551 0.0123244 0)
  (0.111649 0.101036 0)
  (-0.507052 0.305529 0)
  (1.09034 0.448826 0)
  (0.527798 0.300979 0)
  (0.507195 0.262632 0)
  (0.43894 0.213901 0)
  (0.341899 0.171936 0)
  (0.268258 0.124836 0)
  (0.225915 0.0808891 0)
  (0.202875 0.0453029 0)
  (0.190605 0.0162421 0)
  (0.176268 -0.00890395 0)
  (0.162134 -0.0290708 0)
  (0.147906 -0.0439183 0)
  (0.133044 -0.0537696 0)
  (0.117371 -0.0592693 0)
  (0.101172 -0.0611395 0)
  (0.0850066 -0.0600791 0)
  (0.0696113 -0.0567199 0)
  (0.0559172 -0.0517259 0)
  (0.0448639 -0.0459995 0)
  (0.0364951 -0.0406733 0)
  (0.0300445 -0.0367004 0)
  (0.0245179 -0.0344819 0)
  (0.0192156 -0.0339161 0)
  (0.0139009 -0.0346963 0)
  (0.00858666 -0.0365559 0)
  (0.00241715 -0.0396312 0)
  (-0.00891147 -0.0465612 0)
  (-0.0259978 -0.0634076 0)
  (-0.0270423 -0.0895308 0)
  (-0.0371382 -0.0860201 0)
  (-0.060004 -0.0710994 0)
  (-0.0962054 -0.0659676 0)
  (-0.137104 -0.0560907 0)
  (-0.182849 -0.0348056 0)
  (-0.231988 0.000420877 0)
  (-0.278009 0.0456367 0)
  (-0.315083 0.0898354 0)
  (-0.35747 0.130752 0)
  (-0.42459 0.163748 0)
  (-0.739785 0.183651 0)
  (0.0139699 0.208091 0)
  (0.210097 0.231568 0)
  (0.254912 0.193319 0)
  (0.248873 0.143333 0)
  (0.248256 0.096737 0)
  (0.250168 0.057918 0)
  (0.24933 0.0269531 0)
  (0.243961 0.00252616 0)
  (0.232144 -0.0162315 0)
  (0.216271 -0.0294678 0)
  (0.197886 -0.0379054 0)
  (0.178235 -0.0424029 0)
  (0.158401 -0.0438245 0)
  (0.139277 -0.042962 0)
  (0.121538 -0.0405305 0)
  (0.10567 -0.0372131 0)
  (0.0919473 -0.0336846 0)
  (0.0802972 -0.0304925 0)
  (0.0703088 -0.027952 0)
  (0.061423 -0.0261275 0)
  (0.0531677 -0.0249377 0)
  (0.0453338 -0.0242972 0)
  (0.0379789 -0.0240924 0)
  (0.0301184 -0.0239288 0)
  (0.016443 -0.0246238 0)
  (-0.0100846 -0.0354679 0)
  (-0.00813105 -0.0706642 0)
  (-0.0253458 -0.0589126 0)
  (-0.0454268 -0.0331325 0)
  (-0.0815262 -0.0288457 0)
  (-0.115771 -0.0228551 0)
  (-0.145753 -0.00988419 0)
  (-0.170823 0.0124147 0)
  (-0.194964 0.0425353 0)
  (-0.208685 0.0697869 0)
  (-0.204578 0.0658041 0)
  (-0.191944 -0.0223885 0)
  (-0.292883 -0.248329 0)
  (-0.00887465 0.315544 0)
  (0.0723781 0.234611 0)
  (0.11722 0.169641 0)
  (0.161581 0.122692 0)
  (0.200773 0.0848412 0)
  (0.228094 0.056564 0)
  (0.242232 0.0374271 0)
  (0.245522 0.0262106 0)
  (0.240971 0.0200869 0)
  (0.231206 0.0159074 0)
  (0.218037 0.0134973 0)
  (0.202718 0.0127937 0)
  (0.186342 0.0137663 0)
  (0.16985 0.0163629 0)
  (0.153982 0.020464 0)
  (0.13927 0.0258067 0)
  (0.126036 0.0318802 0)
  (0.114366 0.037884 0)
  (0.104112 0.0428158 0)
  (0.0949226 0.0457377 0)
  (0.0863221 0.0460609 0)
  (0.0778577 0.0436018 0)
  (0.0692958 0.0391776 0)
  (0.0602283 0.0377474 0)
  (0.0479024 0.0470168 0)
  (0.0280346 0.0397388 0)
  (0.0238223 -0.0588664 0)
  (-0.0231181 -0.0417599 0)
  (-0.0262579 0.0426972 0)
  (-0.0418087 0.0410572 0)
  (-0.0521627 0.0419403 0)
  (-0.0601891 0.0408071 0)
  (-0.0648863 0.0478216 0)
  (-0.063208 0.0670953 0)
  (-0.052045 0.0914012 0)
  (-0.0338107 0.10352 0)
  (0.127236 0.0305233 0)
  (-0.205806 -0.166841 0)
  (-0.297299 -0.431755 0)
  (-0.518571 -0.0996611 0)
  (-0.3417 0.22296 0)
  (-0.190846 0.124483 0)
  (-0.036272 0.071165 0)
  (0.081367 0.0295814 0)
  (0.15099 -0.000578181 0)
  (0.199064 -0.0254161 0)
  (0.226894 -0.0463809 0)
  (0.239322 -0.0649064 0)
  (0.241585 -0.0814014 0)
  (0.237132 -0.0950165 0)
  (0.228051 -0.106844 0)
  (0.215943 -0.117684 0)
  (0.202156 -0.128141 0)
  (0.187814 -0.138668 0)
  (0.17379 -0.149543 0)
  (0.160695 -0.160809 0)
  (0.148864 -0.1722 0)
  (0.138337 -0.183109 0)
  (0.128871 -0.192703 0)
  (0.119998 -0.200228 0)
  (0.111115 -0.205388 0)
  (0.101546 -0.208544 0)
  (0.090614 -0.210479 0)
  (0.078525 -0.211536 0)
  (0.0691753 -0.211286 0)
  (0.0664556 -0.214656 0)
  (0.0519472 -0.233864 0)
  (-0.0481034 -0.227687 0)
  (-0.0528541 -0.19848 0)
  (-0.0511084 -0.19115 0)
  (-0.0468589 -0.162923 0)
  (-0.0331145 -0.12964 0)
  (-0.0112489 -0.0959846 0)
  (0.0314141 -0.0413141 0)
  (0.0785385 -0.0241202 0)
  (0.126921 -0.0369503 0)
  (0.188818 -0.0937922 0)
  (-0.128925 -0.176504 0)
)
;

boundaryField
{
  floor
  {
    type noSlip;
  }
  ceiling
  {
    type noSlip;
  }
  sWall
  {
    type noSlip;
  }
  nWall
  {
    type noSlip;
  }
  sideWalls
  {
    type empty;
  }
  glass1
  {
    type noSlip;
  }
  glass2
  {
    type noSlip;
  }
  sun
  {
    type noSlip;
  }
  Table_master
  {
    type noSlip;
  }
  Table_slave
  {
    type noSlip;
  }
  inlet
  {
    type fixedValue;
    value uniform (0.494975 -0.494975 0);
  }
  outlet
  {
    type zeroGradient;
  }
} 	// ************************************************************************* //

