/*--------------------------------*- C++ -*----------------------------------*\
  =========                 |
  \\      /  F ield         | OpenFOAM: The Open Source CFD Toolbox
   \\    /   O peration     | Website:  https://openfoam.org
    \\  /    A nd           | Version:  6
     \\/     M anipulation  |
\*---------------------------------------------------------------------------*/
FoamFile
{
    version     2.0;
    format      ascii;
    class       volScalarField;
    location    "2100";
    object      alphat;
}
// * * * * * * * * * * * * * * * * * * * * * * * * * * * * * * * * * * * * * //

dimensions      [1 -1 -1 0 0 0 0];

internalField   nonuniform List<scalar> 
458
(
0.00133192
0.00146766
0.00150666
0.00158411
0.0016573
0.00172833
0.00180207
0.00185941
0.00189221
0.00189488
0.00186418
0.0017977
0.00169104
0.00152303
0.00120279
0.000584615
0.00070297
0.000819828
0.000864551
0.000851415
0.000793306
0.000729755
0.00067333
0.000624832
0.000583039
0.000546805
0.000515036
0.000487058
0.000461657
0.000437482
0.000412675
0.000388243
0.000347669
0.00177808
0.00458163
0.00451021
0.00528299
0.00606077
0.00679359
0.00733293
0.00780482
0.00820038
0.00848874
0.00864579
0.00864902
0.00846324
0.00797931
0.00657592
0.0015932
0.00130515
0.00102189
0.000583037
0.00152514
0.00230367
0.00287627
0.00301482
0.00211698
0.00175416
0.00151385
0.00133943
0.00120749
0.0011043
0.00102198
0.000943839
0.000862413
0.000785525
0.000720054
0.000778051
0.000409355
0.00214433
0.00625721
0.00568784
0.00694039
0.00761002
0.00811334
0.00848201
0.00885033
0.00923011
0.00959356
0.00990595
0.0101249
0.0101712
0.00996058
0.00927875
0.00752959
0.00567166
0.00134956
0.000989403
0.00182327
0.00274215
0.00355867
0.00369346
0.00110289
0.000950596
0.000826441
0.000727257
0.000648045
0.000584425
0.000532981
0.000492041
0.00046109
0.00050952
0.000591138
0.000879809
0.000453997
0.00249219
0.00785232
0.00581475
0.00731075
0.00778446
0.00799487
0.00817585
0.00845693
0.00881954
0.00923507
0.00966139
0.0100327
0.0102294
0.0102422
0.0100286
0.00944391
0.00810818
0.00456842
0.0015989
0.00206364
0.00296986
0.00405098
0.00493549
0.0048829
0.00125531
0.00113043
0.00103904
0.000967165
0.000905699
0.000852147
0.000801558
0.000750105
0.000693156
0.000638367
0.000620546
0.000975173
0.000502851
0.00284753
0.0098802
0.00644743
0.00723907
0.00772988
0.00774884
0.00783537
0.00806107
0.0084073
0.00885316
0.00933588
0.00974918
0.0100045
0.0100725
0.00997948
0.00973648
0.00917688
0.00786475
0.00699979
0.00694156
0.00718959
0.00748161
0.00761474
0.0073484
0.0060447
0.00532356
0.00487187
0.00453498
0.00422152
0.00382889
0.00335715
0.00281098
0.0022135
0.00163565
0.00119612
0.00110471
0.000796294
0.000648882
0.000738555
0.000814102
0.00322594
0.0121235
0.00875842
0.00770222
0.00802825
0.0079126
0.0078933
0.00798377
0.00826529
0.00872751
0.00926323
0.00972029
0.00997823
0.010006
0.00987365
0.0097032
0.00957387
0.00943887
0.00952718
0.00968525
0.00975696
0.00965601
0.00935956
0.00885716
0.00812813
0.00748024
0.00694298
0.00646577
0.00600158
0.00548447
0.00489801
0.00422765
0.00347497
0.00268862
0.00200652
0.00150911
0.0011297
0.000908865
0.00116612
0.000838524
0.00355484
0.0136149
0.0118687
0.00988571
0.00919768
0.00853803
0.00812723
0.00806913
0.00836309
0.00891165
0.00953333
0.0100259
0.0102528
0.0102042
0.0100142
0.00990773
0.0100785
0.0104931
0.0109201
0.0110999
0.0109778
0.010593
0.0100179
0.00932505
0.00858518
0.0078993
0.00728296
0.00671621
0.00618392
0.00568251
0.0052069
0.00466919
0.00404912
0.0033596
0.00270777
0.00214193
0.00171407
0.0014821
0.00137407
0.000975414
0.00360592
0.0116279
0.0107413
0.00960309
0.00865742
0.00800045
0.00778716
0.00804309
0.00867524
0.00948867
0.010231
0.0106904
0.0107819
0.010588
0.0103671
0.0104235
0.0108454
0.0112914
0.0115117
0.0114138
0.0109997
0.010346
0.00954322
0.0086783
0.00783342
0.00707102
0.00639905
0.0058037
0.0052847
0.0048599
0.00455088
0.00433348
0.00399928
0.00356458
0.00318405
0.00292514
0.00284913
0.00287902
0.00337074
0.00151791
0.00350034
0.00410605
0.00442923
0.00461649
0.00508052
0.00593232
0.00710992
0.00847972
0.00982925
0.0109059
0.0114988
0.011553
0.0112137
0.0108165
0.010784
0.0108968
0.011007
0.0110065
0.0108075
0.010369
0.00970989
0.00887844
0.00796543
0.00706363
0.00624326
0.00553004
0.00490864
0.00435998
0.00388178
0.00347805
0.0031437
0.00288015
0.00268314
0.00252989
0.00243074
0.00237864
0.00232577
0.0022313
0.0021029
0.00146895
0.00145373
0.00542044
0.00906312
0.0112356
0.0125626
0.0132594
0.0133953
0.0130815
0.0124979
0.0116605
0.010859
0.0103296
0.0101044
0.00990092
0.00960298
0.00919556
0.00865314
0.00797343
0.00721012
0.00644473
0.00573432
0.00511097
0.00457468
0.00410365
0.00367981
0.00329684
0.00296599
0.00270582
0.00252507
0.00241175
0.00234948
0.00232349
0.00231831
0.00230678
0.00224803
0.00212007
0.00194109
0.00128936
0.00236994
0.00962315
0.0116984
0.0123532
0.0124425
0.0121162
0.0114611
0.0106488
0.00983409
0.00906976
0.00843047
0.00792681
0.00749912
0.00709526
0.00670846
0.00632259
0.00591989
0.00550967
0.00512199
0.00477987
0.00448533
0.00422537
0.00398218
0.00374147
0.00349756
0.00325472
0.00302328
0.0028163
0.00264664
0.00252343
0.00245103
0.00242516
0.00242765
0.00242656
0.00238896
0.00238379
0.00260052
0.00133369
0.00206544
0.00224255
0.00237073
0.0025939
0.00252757
0.00247932
0.00240856
0.00228441
0.00211999
0.00193227
0.00174053
0.00157181
0.00144246
0.00135141
0.00128909
0.00124506
0.00121099
0.00118108
0.00115222
0.00112389
0.00109687
0.00107167
0.00104811
0.00102572
0.00100443
0.000984953
0.000968807
0.000958179
0.000955123
0.000960855
0.000975917
0.00100041
0.00103433
0.00107761
0.00112921
0.00118687
0.00122217
0.00119781
0.00113387
0.00108032
)
;

boundaryField
{
    floor
    {
        type            compressible::alphatWallFunction;
        Prt             0.85;
        value           nonuniform List<scalar> 
36
(
0.000170593
8.20993e-05
9.96689e-05
0.000116666
0.000123092
0.000121208
0.000112835
0.000103592
9.53045e-05
8.81137e-05
8.18622e-05
7.63974e-05
7.1569e-05
6.72859e-05
6.33703e-05
5.96183e-05
5.57407e-05
5.18924e-05
4.54308e-05
4.54302e-05
5.52211e-05
6.21874e-05
6.97116e-05
9.16998e-05
0.000104896
0.000115859
0.000170591
0.000223502
0.00018461
0.000145397
8.20983e-05
0.000145396
8.18629e-05
0.000190666
0.00014084
0.000224271
)
;
    }
    ceiling
    {
        type            compressible::alphatWallFunction;
        Prt             0.85;
        value           nonuniform List<scalar> 
43
(
0.000285594
0.00030848
0.000324924
0.000353451
0.000345075
0.000338958
0.00032995
0.00031406
0.000292868
0.000268451
0.000243238
0.000220798
0.000203412
0.000191068
0.000182566
0.00017653
0.000171844
0.000167719
0.000163726
0.000159796
0.000156037
0.000152521
0.000149226
0.000146086
0.000143093
0.000140347
0.000138067
0.000136563
0.00013613
0.000136941
0.00013907
0.000142525
0.000147293
0.000153351
0.000160536
0.00016852
0.000173387
0.000170031
0.000161184
0.000153733
0.00046663
0.00054039
0.000324526
)
;
    }
    sWall
    {
        type            compressible::alphatWallFunction;
        Prt             0.85;
        value           uniform 0.000284418;
    }
    nWall
    {
        type            compressible::alphatWallFunction;
        Prt             0.85;
        value           nonuniform List<scalar> 6(0.000115674 0.000119187 0.00013868 0.000182297 0.000188346 0.000153427);
    }
    sideWalls
    {
        type            empty;
    }
    glass1
    {
        type            compressible::alphatWallFunction;
        Prt             0.85;
        value           nonuniform List<scalar> 9(0.000183878 0.000242909 0.00029026 0.000334512 0.000379099 0.000425988 0.000466328 0.00047269 0.000460034);
    }
    glass2
    {
        type            compressible::alphatWallFunction;
        Prt             0.85;
        value           nonuniform List<scalar> 2(0.000212164 0.000205655);
    }
    sun
    {
        type            compressible::alphatWallFunction;
        Prt             0.85;
        value           nonuniform List<scalar> 
14
(
0.00018828
0.00020666
0.00021191
0.000222289
0.000232046
0.00024147
0.000251208
0.00025875
0.000263052
0.000263403
0.000259376
0.000250632
0.000236529
0.000214112
)
;
    }
    Table_master
    {
        type            compressible::alphatWallFunction;
        Prt             0.85;
        value           nonuniform List<scalar> 9(0.000156821 0.000135435 0.000117703 0.000103309 9.16432e-05 8.21475e-05 7.43756e-05 6.81238e-05 6.33538e-05);
    }
    Table_slave
    {
        type            compressible::alphatWallFunction;
        Prt             0.85;
        value           nonuniform List<scalar> 9(0.000177889 0.000160653 0.000147902 0.000137782 0.000129058 0.0001214 0.000114113 0.000106646 9.83079e-05);
    }
    inlet
    {
        type            fixedValue;
        value           uniform 1.94e-05;
    }
    outlet
    {
        type            zeroGradient;
    }
}


// ************************************************************************* //
