/*--------------------------------*- C++ -*----------------------------------*\
  =========                 |
  \\      /  F ield         | OpenFOAM: The Open Source CFD Toolbox
   \\    /   O peration     | Website:  https://openfoam.org
    \\  /    A nd           | Version:  6
     \\/     M anipulation  |
\*---------------------------------------------------------------------------*/
FoamFile
{
    version     2.0;
    format      ascii;
    class       volScalarField;
    location    "2100";
    object      epsilon;
}
// * * * * * * * * * * * * * * * * * * * * * * * * * * * * * * * * * * * * * //

dimensions      [0 2 -3 0 0 0 0];

internalField   nonuniform List<scalar> 
458
(
0.000536499
0.000716025
0.000774509
0.000900118
0.00103067
0.00116886
0.00132483
0.00145523
0.00153343
0.0015398
0.00146606
0.00131472
0.0010944
0.000799717
0.000394266
4.53414e-05
7.88068e-05
0.000124978
0.000146565
0.000139996
0.000113255
8.81695e-05
6.92662e-05
5.53575e-05
4.4981e-05
3.71093e-05
3.10133e-05
2.62317e-05
2.23404e-05
1.90135e-05
1.5961e-05
1.32927e-05
9.54812e-06
0.00127857
0.00172873
0.000674667
0.000666866
0.000712908
0.000788566
0.000897942
0.0010098
0.00108945
0.00111175
0.0010689
0.000967735
0.000829002
0.000668198
0.000558575
0.000915371
0.000503326
0.000241668
4.49837e-05
0.000103576
0.000130378
0.000133018
0.000127953
0.000128435
9.92564e-05
7.40439e-05
5.55696e-05
4.23043e-05
3.27514e-05
2.57672e-05
2.06036e-05
1.67502e-05
1.42671e-05
1.30021e-05
2.01923e-05
1.5586e-05
0.00224653
0.00396826
0.000811582
0.000645332
0.000703254
0.000825791
0.000993906
0.00115238
0.00125169
0.0012736
0.00122092
0.00110317
0.000946795
0.000774301
0.000627478
0.000536455
0.000460808
0.000556625
0.000219687
0.000207813
0.000190592
0.000169926
0.000158087
0.000304267
0.000194849
0.000128056
8.72743e-05
6.17585e-05
4.53027e-05
3.43661e-05
2.7043e-05
2.22568e-05
1.68289e-05
1.38909e-05
3.05815e-05
2.12629e-05
0.00353322
0.00800874
0.0012506
0.000682323
0.000738276
0.000933108
0.00120193
0.00140512
0.00149928
0.00149846
0.00142046
0.00126906
0.00108506
0.000892421
0.000719025
0.000588681
0.000507602
0.000513604
0.000925736
0.000556867
0.000371292
0.00027471
0.000217836
0.000192311
0.000448856
0.000327848
0.000254639
0.000205401
0.000168701
0.00014053
0.000116973
9.58729e-05
7.56602e-05
4.38627e-05
2.60177e-05
4.59946e-05
2.88942e-05
0.00527961
0.0141099
0.00244815
0.000893059
0.000895159
0.00125729
0.00163959
0.00182718
0.0018644
0.00180967
0.00168308
0.001492
0.00125792
0.00101134
0.000787775
0.000612877
0.000494076
0.000439283
0.000429307
0.000373728
0.000318957
0.000270765
0.000227039
0.000189536
0.000174733
0.000153938
0.000136231
0.000120682
0.000106247
9.28635e-05
8.00871e-05
6.79749e-05
5.67051e-05
4.34727e-05
3.12729e-05
3.85246e-05
4.39528e-05
6.21324e-05
9.16916e-05
0.000122805
0.00768912
0.0209315
0.00553856
0.00190121
0.00169966
0.00230293
0.00250797
0.00250124
0.00240432
0.00225716
0.00205514
0.00178961
0.00147426
0.00114627
0.00085215
0.000624998
0.000475616
0.000400434
0.000370898
0.000347447
0.00031583
0.000275528
0.000231239
0.000188954
0.000157359
0.000137054
0.000123648
0.000112565
0.000101657
9.01044e-05
7.78691e-05
6.57371e-05
5.45466e-05
4.43843e-05
3.63957e-05
3.57201e-05
4.23962e-05
5.32142e-05
0.000135877
0.000134144
0.0103051
0.0249943
0.0113482
0.00598301
0.0050869
0.00449429
0.00395774
0.00351975
0.00317572
0.00287556
0.00255334
0.00217024
0.00173519
0.00129524
0.00091399
0.000634788
0.000465387
0.000387985
0.00036111
0.000340531
0.000308353
0.000265957
0.000220661
0.000179757
0.00015004
0.000132939
0.000123506
0.00011697
0.000110985
0.000104299
9.52078e-05
8.49612e-05
7.4833e-05
6.56711e-05
6.01515e-05
6.08554e-05
7.27444e-05
0.000101403
0.00019723
0.000211099
0.0107791
0.0255892
0.0154573
0.0113955
0.00876712
0.00683261
0.00552274
0.00468257
0.00412764
0.00367794
0.00319384
0.00262645
0.00200718
0.00140693
0.000920905
0.000602461
0.000432261
0.0003653
0.00034
0.000315144
0.000279017
0.00023719
0.000197381
0.000165389
0.000144445
0.000133716
0.000129587
0.000129396
0.000132251
0.000138079
0.000146433
0.000153293
0.00016171
0.000177268
0.000206984
0.000284479
0.000457865
0.000760544
0.00240986
0.000796558
0.00989014
0.0159232
0.0129798
0.0100306
0.008001
0.00679782
0.00610921
0.00568191
0.00528897
0.00473824
0.00394509
0.00301377
0.00209145
0.00127053
0.000726811
0.00048225
0.000374826
0.000328304
0.000301667
0.000274625
0.000243222
0.000210793
0.000182109
0.000160286
0.000146278
0.000139076
0.00013707
0.000139682
0.000147505
0.000161876
0.000184652
0.000218759
0.000267821
0.000342576
0.000453378
0.000608473
0.00079851
0.000988744
0.00115027
0.000722865
0.0022455
0.00610218
0.00758233
0.00806288
0.00804698
0.00751697
0.00640008
0.00487043
0.00314841
0.00195174
0.00119387
0.000744601
0.000499781
0.000383267
0.000328866
0.000300252
0.000278689
0.000256899
0.000234707
0.000213902
0.000195816
0.00018072
0.000168067
0.000157236
0.000148222
0.000142489
0.000142096
0.000148863
0.000165034
0.000193378
0.000237592
0.000302642
0.0003926
0.000504015
0.000615184
0.000687567
0.000701342
0.000488928
0.00280057
0.00868326
0.0081288
0.00679618
0.00576373
0.004692
0.0035915
0.00255336
0.0016774
0.00108611
0.000731306
0.00053613
0.000437242
0.00039274
0.00037583
0.000371951
0.0003732
0.000375231
0.000375849
0.000373958
0.000368691
0.000359253
0.000345056
0.00032612
0.000303685
0.000280045
0.000258476
0.000242759
0.000236275
0.000242062
0.000263417
0.000303577
0.000363403
0.000436749
0.000505416
0.000582064
0.000710953
0.000541063
0.00194169
0.00248306
0.0029335
0.00391049
0.00363913
0.0034443
0.00316393
0.00270367
0.00216356
0.00163982
0.00119936
0.000883753
0.000683277
0.000562016
0.000487887
0.00043964
0.000404579
0.000375375
0.000348549
0.000323491
0.000300732
0.000280489
0.000262401
0.000245951
0.000230953
0.000217777
0.000207243
0.000200497
0.000198586
0.000202183
0.000211841
0.000228196
0.000252208
0.000285215
0.000328182
0.000381081
0.000416145
0.00039178
0.000332345
0.000287576
)
;

boundaryField
{
    floor
    {
        Cmu             0.09;
        kappa           0.41;
        E               9.8;
        type            epsilonWallFunction;
        value           nonuniform List<scalar> 
36
(
0.000394266
4.53414e-05
7.88068e-05
0.000124978
0.000146565
0.000139996
0.000113255
8.81695e-05
6.92662e-05
5.53575e-05
4.4981e-05
3.71093e-05
3.10133e-05
2.62317e-05
2.23404e-05
1.90135e-05
1.5961e-05
1.32927e-05
9.54812e-06
9.54812e-06
1.5586e-05
2.12629e-05
2.88942e-05
6.21324e-05
9.16916e-05
0.000122805
0.000394266
0.000915371
0.000503326
0.000241668
4.53414e-05
0.000241668
4.49837e-05
0.000556625
0.000219687
0.000925736
)
;
    }
    ceiling
    {
        Cmu             0.09;
        kappa           0.41;
        E               9.8;
        type            epsilonWallFunction;
        value           nonuniform List<scalar> 
43
(
0.00194169
0.00248306
0.0029335
0.00391049
0.00363913
0.0034443
0.00316393
0.00270367
0.00216356
0.00163982
0.00119936
0.000883753
0.000683277
0.000562016
0.000487887
0.00043964
0.000404579
0.000375375
0.000348549
0.000323491
0.000300732
0.000280489
0.000262401
0.000245951
0.000230953
0.000217777
0.000207243
0.000200497
0.000198586
0.000202183
0.000211841
0.000228196
0.000252208
0.000285215
0.000328182
0.000381081
0.000416145
0.00039178
0.000332345
0.000287576
0.00989014
0.0159232
0.00280057
)
;
    }
    sWall
    {
        Cmu             0.09;
        kappa           0.41;
        E               9.8;
        type            epsilonWallFunction;
        value           uniform 0.00194169;
    }
    nWall
    {
        Cmu             0.09;
        kappa           0.41;
        E               9.8;
        type            epsilonWallFunction;
        value           nonuniform List<scalar> 6(0.000122805 0.000134144 0.000211099 0.000488928 0.000541063 0.000287576);
    }
    sideWalls
    {
        type            empty;
    }
    glass1
    {
        Cmu             0.09;
        kappa           0.41;
        E               9.8;
        type            epsilonWallFunction;
        value           nonuniform List<scalar> 9(0.000536499 0.00127857 0.00224653 0.00353322 0.00527961 0.00768912 0.0103051 0.0107791 0.00989014);
    }
    glass2
    {
        Cmu             0.09;
        kappa           0.41;
        E               9.8;
        type            epsilonWallFunction;
        value           nonuniform List<scalar> 2(0.000796558 0.000722865);
    }
    sun
    {
        Cmu             0.09;
        kappa           0.41;
        E               9.8;
        type            epsilonWallFunction;
        value           nonuniform List<scalar> 
14
(
0.000536499
0.000716025
0.000774509
0.000900118
0.00103067
0.00116886
0.00132483
0.00145523
0.00153343
0.0015398
0.00146606
0.00131472
0.0010944
0.000799717
)
;
    }
    Table_master
    {
        Cmu             0.09;
        kappa           0.41;
        E               9.8;
        type            epsilonWallFunction;
        value           nonuniform List<scalar> 9(0.000304267 0.000194849 0.000128056 8.72743e-05 6.17585e-05 4.53027e-05 3.43661e-05 2.7043e-05 2.22568e-05);
    }
    Table_slave
    {
        Cmu             0.09;
        kappa           0.41;
        E               9.8;
        type            epsilonWallFunction;
        value           nonuniform List<scalar> 9(0.000448856 0.000327848 0.000254639 0.000205401 0.000168701 0.00014053 0.000116973 9.58729e-05 7.56602e-05);
    }
    inlet
    {
        type            turbulentMixingLengthDissipationRateInlet;
        mixingLength    0.01;
        phi             phi;
        k               k;
        value           uniform 0.000101881;
    }
    outlet
    {
        type            zeroGradient;
    }
}


// ************************************************************************* //
