// -*- C++ -*-
// File generated by PyFoam - sorry for the ugliness

FoamFile
{
 version 2.0;
 format ascii;
 class volScalarField;
 location "2100";
 object T;
}

dimensions [ 0 0 0 1 0 0 0 ];

internalField nonuniform List<scalar> 458
(
  303.767
  303.515
  303.497
  303.489
  303.482
  303.475
  303.467
  303.457
  303.446
  303.435
  303.427
  303.424
  303.428
  303.443
  303.487
  303.711
  303.678
  303.659
  303.663
  303.672
  303.682
  303.694
  303.706
  303.717
  303.729
  303.741
  303.752
  303.764
  303.776
  303.788
  303.801
  303.817
  303.845
  303.929
  303.554
  303.525
  303.52
  303.516
  303.51
  303.5
  303.483
  303.458
  303.432
  303.41
  303.398
  303.398
  303.41
  303.428
  303.443
  303.465
  303.501
  303.717
  303.638
  303.625
  303.632
  303.644
  303.655
  303.667
  303.678
  303.69
  303.701
  303.713
  303.724
  303.736
  303.748
  303.761
  303.777
  303.798
  303.835
  304.101
  303.605
  303.561
  303.563
  303.568
  303.568
  303.56
  303.532
  303.488
  303.441
  303.403
  303.38
  303.377
  303.388
  303.406
  303.423
  303.444
  303.479
  303.623
  303.595
  303.597
  303.615
  303.637
  303.646
  303.658
  303.67
  303.683
  303.695
  303.708
  303.721
  303.733
  303.745
  303.758
  303.773
  303.793
  303.832
  304.277
  303.67
  303.603
  303.613
  303.634
  303.648
  303.642
  303.597
  303.525
  303.452
  303.395
  303.363
  303.358
  303.371
  303.391
  303.413
  303.435
  303.46
  303.473
  303.499
  303.535
  303.576
  303.618
  303.655
  303.685
  303.708
  303.728
  303.745
  303.76
  303.774
  303.787
  303.798
  303.808
  303.802
  303.796
  303.801
  303.832
  304.45
  303.752
  303.656
  303.666
  303.703
  303.739
  303.726
  303.652
  303.548
  303.451
  303.38
  303.343
  303.338
  303.357
  303.385
  303.415
  303.44
  303.465
  303.491
  303.528
  303.572
  303.62
  303.667
  303.708
  303.745
  303.773
  303.797
  303.816
  303.831
  303.841
  303.848
  303.851
  303.85
  303.839
  303.824
  303.815
  303.831
  303.9
  303.982
  303.982
  304.609
  303.86
  303.744
  303.742
  303.786
  303.818
  303.769
  303.664
  303.538
  303.425
  303.347
  303.312
  303.317
  303.349
  303.393
  303.437
  303.474
  303.509
  303.548
  303.593
  303.642
  303.692
  303.739
  303.78
  303.815
  303.842
  303.863
  303.879
  303.891
  303.897
  303.898
  303.895
  303.887
  303.872
  303.853
  303.836
  303.837
  303.872
  303.903
  303.939
  304.761
  304.027
  303.92
  303.909
  303.931
  303.883
  303.764
  303.61
  303.459
  303.343
  303.279
  303.267
  303.298
  303.357
  303.426
  303.49
  303.545
  303.592
  303.639
  303.687
  303.735
  303.782
  303.824
  303.859
  303.887
  303.909
  303.925
  303.937
  303.944
  303.945
  303.94
  303.932
  303.92
  303.904
  303.883
  303.864
  303.855
  303.867
  303.883
  303.911
  304.974
  304.431
  304.313
  304.231
  304.075
  303.858
  303.624
  303.417
  303.266
  303.187
  303.177
  303.221
  303.302
  303.403
  303.504
  303.588
  303.654
  303.705
  303.75
  303.794
  303.836
  303.874
  303.907
  303.933
  303.952
  303.967
  303.977
  303.982
  303.984
  303.982
  303.976
  303.965
  303.953
  303.937
  303.92
  303.904
  303.897
  303.904
  303.921
  304.033
  305.281
  305.021
  304.756
  304.258
  303.731
  303.315
  303.048
  302.919
  302.903
  302.972
  303.096
  303.239
  303.384
  303.53
  303.652
  303.727
  303.778
  303.819
  303.858
  303.894
  303.926
  303.953
  303.976
  303.992
  304.004
  304.011
  304.015
  304.016
  304.014
  304.011
  304.007
  304.004
  304.002
  304.004
  304.012
  304.028
  304.054
  304.082
  304.104
  304.155
  294.421
  296.426
  298.807
  300.324
  301.349
  302.074
  302.606
  303.002
  303.311
  303.498
  303.628
  303.724
  303.796
  303.847
  303.886
  303.919
  303.95
  303.976
  303.998
  304.015
  304.027
  304.036
  304.041
  304.043
  304.044
  304.043
  304.042
  304.041
  304.04
  304.039
  304.04
  304.045
  304.053
  304.067
  304.087
  304.11
  304.133
  304.163
  296.081
  299.072
  300.802
  301.812
  302.459
  302.897
  303.2
  303.428
  303.6
  303.719
  303.802
  303.863
  303.908
  303.942
  303.97
  303.994
  304.014
  304.031
  304.043
  304.052
  304.058
  304.061
  304.063
  304.064
  304.064
  304.064
  304.064
  304.063
  304.062
  304.062
  304.063
  304.066
  304.071
  304.08
  304.092
  304.11
  304.116
  304.146
  300.674
  300.585
  300.582
  302.345
  302.927
  303.207
  303.403
  303.559
  303.681
  303.777
  303.851
  303.905
  303.945
  303.974
  303.995
  304.012
  304.025
  304.036
  304.043
  304.049
  304.053
  304.056
  304.057
  304.059
  304.06
  304.061
  304.062
  304.063
  304.064
  304.065
  304.066
  304.068
  304.069
  304.071
  304.074
  304.08
  304.089
  304.096
  304.1
  304.143
)
;

boundaryField
{
  floor
  {
    type wallHeatTransfer;
    Tinf uniform 305.2;
    alphaWall uniform 0.24;
    value nonuniform List<scalar> 36
(
  303.674
  303.982
  303.923
  303.881
  303.876
  303.886
  303.906
  303.93
  303.953
  303.976
  303.997
  304.018
  304.039
  304.059
  304.078
  304.098
  304.119
  304.143
  304.187
  304.187
  304.147
  304.125
  304.107
  304.121
  304.171
  304.158
  303.674
  303.597
  303.642
  303.71
  303.982
  303.71
  303.988
  303.65
  303.822
  303.625
)
;
  }
  ceiling
  {
    type wallHeatTransfer;
    Tinf uniform 303.2;
    alphaWall uniform 0.24;
    value nonuniform List<scalar> 43
(
  300.855
  300.76
  300.749
  302.396
  302.943
  303.206
  303.39
  303.535
  303.647
  303.734
  303.798
  303.843
  303.874
  303.896
  303.913
  303.926
  303.936
  303.943
  303.949
  303.952
  303.953
  303.954
  303.954
  303.953
  303.953
  303.952
  303.952
  303.952
  303.952
  303.954
  303.956
  303.959
  303.963
  303.968
  303.975
  303.983
  303.993
  303.998
  303.997
  304.032
  305.184
  304.947
  296.538
)
;
  }
  sWall
  {
    type wallHeatTransfer;
    Tinf uniform 315.2;
    alphaWall uniform 0.36;
    value uniform 302.185;
  }
  nWall
  {
    type wallHeatTransfer;
    Tinf uniform 307.2;
    alphaWall uniform 0.36;
    value nonuniform List<scalar> 6
(
  304.635
  304.588
  304.502
  304.611
  304.586
  304.654
)
;
  }
  sideWalls
  {
    type empty;
  }
  glass1
  {
    type wallHeatTransfer;
    Tinf uniform 315.2;
    alphaWall uniform 4.3;
    value nonuniform List<scalar> 9
(
  311.453
  310.866
  310.499
  310.221
  309.987
  309.774
  309.629
  309.71
  309.939
)
;
  }
  glass2
  {
    type wallHeatTransfer;
    Tinf uniform 307.2;
    alphaWall uniform 4.3;
    value nonuniform List<scalar> 2
(
  306.072
  306.135
)
;
  }
  sun
  {
    type wallHeatTransfer;
    Tinf uniform 305.2;
    alphaWall uniform 0.24;
    value nonuniform List<scalar> 14
(
  303.911
  303.672
  303.653
  303.64
  303.628
  303.617
  303.605
  303.593
  303.581
  303.57
  303.564
  303.566
  303.577
  303.603
)
;
  }
  Table_master
  {
    type zeroGradient;
  }
  Table_slave
  {
    type zeroGradient;
  }
  inlet
  {
    type fixedValue;
    value uniform 292.15;
  }
  outlet
  {
    type zeroGradient;
  }
} 	// ************************************************************************* //

