// -*- C++ -*-
// File generated by PyFoam - sorry for the ugliness

FoamFile
{
 version 2.0;
 format ascii;
 class volVectorField;
 location "2100";
 object U;
}

dimensions [ 0 1 -1 0 0 0 0 ];

internalField nonuniform List<vector> 458
(
  (0.0238273 0.0870992 0)
  (-0.170197 0.0277331 0)
  (-0.198572 0.0174569 0)
  (-0.228701 0.0102058 0)
  (-0.247865 0.00252537 0)
  (-0.254902 -0.00541315 0)
  (-0.248111 -0.0135493 0)
  (-0.228479 -0.0216151 0)
  (-0.197671 -0.028364 0)
  (-0.159111 -0.0327959 0)
  (-0.116993 -0.0344057 0)
  (-0.0756251 -0.0329004 0)
  (-0.0389698 -0.0278257 0)
  (-0.0100689 -0.017565 0)
  (-0.00736874 0.00314126 0)
  (-0.0167252 0.01004 0)
  (-0.0315104 -0.0146061 0)
  (-0.011046 -0.0271446 0)
  (0.0168508 -0.0245302 0)
  (0.036363 -0.018053 0)
  (0.0514742 -0.0100585 0)
  (0.0608924 -0.00574147 0)
  (0.0654453 -0.00415095 0)
  (0.0675302 -0.00352495 0)
  (0.0687734 -0.00311343 0)
  (0.0696007 -0.00276814 0)
  (0.0699662 -0.0024167 0)
  (0.0696229 -0.00184578 0)
  (0.0680016 -0.000675312 0)
  (0.0638833 0.00162534 0)
  (0.0558052 0.00464868 0)
  (0.0443844 0.0086157 0)
  (0.00379131 0.0218475 0)
  (0.189999 0.177587 0)
  (-0.1542 0.072826 0)
  (-0.157592 0.053466 0)
  (-0.188034 0.038261 0)
  (-0.206804 0.0213345 0)
  (-0.213975 0.00276833 0)
  (-0.207649 -0.0171003 0)
  (-0.189374 -0.0360017 0)
  (-0.161476 -0.0509116 0)
  (-0.127609 -0.0599647 0)
  (-0.0915803 -0.0627094 0)
  (-0.0568384 -0.0593061 0)
  (-0.0261127 -0.049993 0)
  (0.000193989 -0.0338984 0)
  (0.0199747 -0.0148073 0)
  (0.0375381 0.00130708 0)
  (0.0443235 0.0244616 0)
  (-0.00781262 0.054003 0)
  (0.0339995 0.0379745 0)
  (0.0190026 -0.0208324 0)
  (0.0310076 -0.0359986 0)
  (0.0444389 -0.0348885 0)
  (0.0566179 -0.0274536 0)
  (0.0629804 -0.012779 0)
  (0.0647399 -0.00368485 0)
  (0.0648852 -0.000259383 0)
  (0.0651005 0.00100465 0)
  (0.0654612 0.00172565 0)
  (0.0657194 0.00227588 0)
  (0.065833 0.00290675 0)
  (0.0657331 0.00394563 0)
  (0.0649461 0.00624404 0)
  (0.0613329 0.0120588 0)
  (0.0522897 0.018241 0)
  (0.0426039 0.0250833 0)
  (-0.025403 0.0463084 0)
  (0.342799 0.264719 0)
  (-0.16486 0.11376 0)
  (-0.117152 0.0850797 0)
  (-0.145599 0.0590723 0)
  (-0.161864 0.0313374 0)
  (-0.167455 0.00115498 0)
  (-0.159106 -0.0305275 0)
  (-0.140168 -0.0596139 0)
  (-0.114019 -0.081158 0)
  (-0.0845317 -0.0929138 0)
  (-0.0548341 -0.0950314 0)
  (-0.0272375 -0.0883555 0)
  (-0.00333482 -0.0740913 0)
  (0.0169049 -0.0531421 0)
  (0.0323437 -0.0307371 0)
  (0.0425928 -0.0103644 0)
  (0.0447581 0.0147869 0)
  (0.00315779 0.0567146 0)
  (0.0907669 -0.014624 0)
  (0.0687892 -0.0368307 0)
  (0.067614 -0.0442622 0)
  (0.0714385 -0.0427653 0)
  (0.0761607 -0.0386097 0)
  (0.0768341 -0.0289487 0)
  (0.0669225 -0.0186918 0)
  (0.0592524 -0.0131563 0)
  (0.0559896 -0.0100755 0)
  (0.0546832 -0.00809958 0)
  (0.0538955 -0.00675688 0)
  (0.0534633 -0.00572905 0)
  (0.0539889 -0.00442048 0)
  (0.056623 -0.000688049 0)
  (0.0561878 0.015881 0)
  (0.0466362 0.028858 0)
  (0.0437268 0.0412354 0)
  (-0.0523195 0.0717959 0)
  (0.481439 0.33426 0)
  (-0.193533 0.148877 0)
  (-0.0757932 0.111406 0)
  (-0.100832 0.0763734 0)
  (-0.111372 0.0398119 0)
  (-0.111124 -0.00125848 0)
  (-0.0969719 -0.044982 0)
  (-0.0761139 -0.0829152 0)
  (-0.0526385 -0.108716 0)
  (-0.029417 -0.121111 0)
  (-0.00807185 -0.121498 0)
  (0.0108772 -0.110978 0)
  (0.0258748 -0.092862 0)
  (0.0385936 -0.0691299 0)
  (0.0492294 -0.0428633 0)
  (0.0582959 -0.016091 0)
  (0.0697212 0.0130525 0)
  (0.0780659 0.0465182 0)
  (0.115542 0.0381796 0)
  (0.114655 -0.0100976 0)
  (0.100622 -0.0319558 0)
  (0.090582 -0.0389842 0)
  (0.0826957 -0.0385919 0)
  (0.0743394 -0.0333862 0)
  (0.0721053 -0.0195553 0)
  (0.0805793 -0.0123034 0)
  (0.0871148 -0.0084564 0)
  (0.0897721 -0.00616468 0)
  (0.090301 -0.00438374 0)
  (0.0891119 -0.00257791 0)
  (0.0857809 -0.000451511 0)
  (0.0791289 0.00244565 0)
  (0.0671931 0.00671991 0)
  (0.0540067 0.0241155 0)
  (0.0432197 0.0411164 0)
  (0.0490674 0.0582989 0)
  (-0.0693416 0.095804 0)
  (0.601328 0.38751 0)
  (-0.230974 0.176498 0)
  (-0.0364614 0.125609 0)
  (-0.0544225 0.0853521 0)
  (-0.0555094 0.0423799 0)
  (-0.0404845 -0.00889426 0)
  (-0.0182519 -0.062848 0)
  (0.00322665 -0.105222 0)
  (0.0207591 -0.130132 0)
  (0.0343323 -0.139461 0)
  (0.0444674 -0.136447 0)
  (0.0515983 -0.123382 0)
  (0.056561 -0.102981 0)
  (0.06044 -0.0778407 0)
  (0.0641271 -0.0507183 0)
  (0.0688232 -0.0238482 0)
  (0.0775397 0.000929267 0)
  (0.0910419 0.0146064 0)
  (0.103203 -0.00309277 0)
  (0.101775 -0.0203773 0)
  (0.0934819 -0.0285358 0)
  (0.0833058 -0.0309483 0)
  (0.0735262 -0.0295215 0)
  (0.0649588 -0.0239073 0)
  (0.0611117 -0.012267 0)
  (0.0621832 -0.00525607 0)
  (0.063807 -0.00217438 0)
  (0.0646202 -0.000488564 0)
  (0.0650235 0.00131799 0)
  (0.0650343 0.00381276 0)
  (0.0640888 0.00738179 0)
  (0.0616387 0.012524 0)
  (0.0571811 0.0201213 0)
  (0.0516923 0.0338531 0)
  (0.0452705 0.0507381 0)
  (0.0614569 0.0713772 0)
  (0.012459 0.103366 0)
  (0.0575311 0.122436 0)
  (-0.0664832 0.0440722 0)
  (-0.254615 -0.0119022 0)
  (0.689012 0.431035 0)
  (-0.268239 0.193583 0)
  (-0.006477 0.1186 0)
  (-0.00519418 0.0809691 0)
  (0.0105011 0.0305794 0)
  (0.0485304 -0.0322421 0)
  (0.0744086 -0.0842824 0)
  (0.0909329 -0.120268 0)
  (0.09897 -0.139992 0)
  (0.100473 -0.145342 0)
  (0.0972679 -0.138907 0)
  (0.0910198 -0.123452 0)
  (0.0834856 -0.101903 0)
  (0.0762322 -0.0768509 0)
  (0.07052 -0.05088 0)
  (0.0675365 -0.0265827 0)
  (0.06888 -0.00674102 0)
  (0.0747103 0.00330221 0)
  (0.0783996 -0.00200758 0)
  (0.075615 -0.0108916 0)
  (0.068049 -0.0175689 0)
  (0.0587967 -0.0206179 0)
  (0.0498356 -0.0203048 0)
  (0.0422266 -0.0167334 0)
  (0.0376406 -0.0103677 0)
  (0.0364082 -0.00594769 0)
  (0.0367896 -0.00384675 0)
  (0.0378033 -0.00259246 0)
  (0.0392936 -0.000937592 0)
  (0.0413905 0.0019465 0)
  (0.0432674 0.00645884 0)
  (0.0447404 0.0129195 0)
  (0.0458692 0.0219078 0)
  (0.0475414 0.0347259 0)
  (0.049176 0.0507489 0)
  (0.0666442 0.0712063 0)
  (0.0615723 0.0890464 0)
  (0.0916155 0.0897343 0)
  (0.106975 0.0547954 0)
  (-0.122831 -0.0175389 0)
  (0.749372 0.47048 0)
  (-0.284903 0.17614 0)
  (0.0285838 0.0579431 0)
  (0.0685636 0.0361189 0)
  (0.117505 -0.0121535 0)
  (0.15553 -0.0644575 0)
  (0.176792 -0.104084 0)
  (0.183195 -0.128477 0)
  (0.177239 -0.138824 0)
  (0.162446 -0.137345 0)
  (0.142329 -0.126522 0)
  (0.119948 -0.109093 0)
  (0.0979161 -0.0877037 0)
  (0.0781745 -0.0643808 0)
  (0.0620885 -0.0412133 0)
  (0.0506427 -0.0207578 0)
  (0.0444443 -0.00538208 0)
  (0.0428551 0.00218393 0)
  (0.0419889 0.00039809 0)
  (0.038847 -0.00517507 0)
  (0.0328735 -0.0101193 0)
  (0.0256538 -0.0127319 0)
  (0.0184811 -0.0129377 0)
  (0.0123621 -0.0110514 0)
  (0.00846599 -0.00784833 0)
  (0.00711928 -0.00555634 0)
  (0.00745091 -0.00461141 0)
  (0.00878713 -0.00420622 0)
  (0.0109686 -0.00338383 0)
  (0.0141611 -0.0011709 0)
  (0.0188927 0.00328121 0)
  (0.023787 0.00966841 0)
  (0.0292993 0.0180931 0)
  (0.0365165 0.0290573 0)
  (0.0449136 0.0420505 0)
  (0.0625428 0.0581541 0)
  (0.0769069 0.0677827 0)
  (0.105534 0.0622597 0)
  (0.14507 0.0508872 0)
  (-0.0320363 0.0881417 0)
  (0.856039 0.46614 0)
  (-0.0435129 0.150338 0)
  (0.125118 -0.0443408 0)
  (0.237088 -0.0871228 0)
  (0.280537 -0.100384 0)
  (0.29476 -0.112476 0)
  (0.291553 -0.121379 0)
  (0.273163 -0.124142 0)
  (0.242582 -0.120329 0)
  (0.204525 -0.110639 0)
  (0.163656 -0.0961314 0)
  (0.123756 -0.0785358 0)
  (0.0875967 -0.0596019 0)
  (0.0567281 -0.0403531 0)
  (0.0324688 -0.0221975 0)
  (0.0156575 -0.00757627 0)
  (0.00551982 0.00183323 0)
  (0.0021028 0.00509687 0)
  (0.000517155 0.00305634 0)
  (-0.00186372 -0.00109933 0)
  (-0.00595207 -0.00469338 0)
  (-0.0110671 -0.00678903 0)
  (-0.0162429 -0.00740301 0)
  (-0.020627 -0.00691345 0)
  (-0.0234685 -0.00597731 0)
  (-0.0246707 -0.00554949 0)
  (-0.024771 -0.0058136 0)
  (-0.0242125 -0.00639845 0)
  (-0.0230827 -0.00678814 0)
  (-0.0211575 -0.00636511 0)
  (-0.0177152 -0.00435554 0)
  (-0.0108088 -0.000193277 0)
  (-0.00402638 0.00544568 0)
  (0.0058109 0.0120922 0)
  (0.01685 0.0183371 0)
  (0.0334325 0.0249223 0)
  (0.051088 0.0225125 0)
  (0.0751833 0.00781412 0)
  (0.137579 0.0428404 0)
  (-0.370552 0.186513 0)
  (1.00634 0.416066 0)
  (0.472209 0.272448 0)
  (0.499736 0.165932 0)
  (0.52968 0.0771575 0)
  (0.503891 0.0160131 0)
  (0.449585 -0.0257246 0)
  (0.388127 -0.0506292 0)
  (0.323161 -0.061691 0)
  (0.256172 -0.0625226 0)
  (0.191043 -0.0564928 0)
  (0.131355 -0.0459231 0)
  (0.0798463 -0.0332365 0)
  (0.037323 -0.020261 0)
  (0.0026095 -0.00785841 0)
  (-0.0209945 0.00130423 0)
  (-0.0331659 0.00604787 0)
  (-0.0382568 0.00775986 0)
  (-0.0398405 0.00720921 0)
  (-0.0406915 0.00484278 0)
  (-0.0423051 0.00183169 0)
  (-0.0447469 -0.000772407 0)
  (-0.048081 -0.00257208 0)
  (-0.0516501 -0.00368846 0)
  (-0.0548717 -0.00437982 0)
  (-0.0574061 -0.00495305 0)
  (-0.0593539 -0.00569835 0)
  (-0.0611789 -0.00657938 0)
  (-0.0633973 -0.00730959 0)
  (-0.0664535 -0.0074286 0)
  (-0.0708099 -0.00628466 0)
  (-0.0771424 -0.00303562 0)
  (-0.0851731 0.00272803 0)
  (-0.0940239 0.0110017 0)
  (-0.106791 0.0222938 0)
  (-0.12644 0.0371969 0)
  (-0.155582 0.0554631 0)
  (-0.196401 0.0744752 0)
  (-0.244108 0.0914273 0)
  (-0.313538 0.104408 0)
  (-0.574497 0.11136 0)
  (-0.201762 -0.109872 0)
  (0.094498 -0.0983622 0)
  (0.158814 -0.0810673 0)
  (0.14256 -0.0579423 0)
  (0.119038 -0.0367207 0)
  (0.0909117 -0.0201473 0)
  (0.055953 -0.00764966 0)
  (0.0196757 0.000904586 0)
  (-0.0153449 0.00695338 0)
  (-0.0406151 0.0103908 0)
  (-0.058755 0.0127444 0)
  (-0.0695953 0.0137934 0)
  (-0.0753175 0.0137244 0)
  (-0.0778494 0.0131508 0)
  (-0.0785994 0.0125282 0)
  (-0.0786457 0.0117529 0)
  (-0.0789941 0.0107697 0)
  (-0.0802176 0.00992448 0)
  (-0.0822589 0.00960604 0)
  (-0.0847213 0.00987271 0)
  (-0.0873642 0.0105741 0)
  (-0.0899973 0.0114924 0)
  (-0.092566 0.0123948 0)
  (-0.0952037 0.0131073 0)
  (-0.0981072 0.0136822 0)
  (-0.101499 0.0140923 0)
  (-0.105503 0.0143899 0)
  (-0.109949 0.0150534 0)
  (-0.114289 0.0166488 0)
  (-0.118348 0.020285 0)
  (-0.121991 0.0272043 0)
  (-0.125177 0.0382823 0)
  (-0.128128 0.0535749 0)
  (-0.130953 0.0711967 0)
  (-0.130845 0.0838885 0)
  (-0.116148 0.0726191 0)
  (-0.0891653 -0.00231358 0)
  (-0.250216 -0.178406 0)
  (0.0978271 0.123805 0)
  (0.00863881 0.0245366 0)
  (-0.0306153 -0.0143269 0)
  (-0.063113 -0.00903418 0)
  (-0.086181 -0.000516258 0)
  (-0.101657 0.00447759 0)
  (-0.110179 0.0067586 0)
  (-0.115546 0.00661701 0)
  (-0.11878 0.00405099 0)
  (-0.11986 -0.000244044 0)
  (-0.119345 -0.00461729 0)
  (-0.117437 -0.00877749 0)
  (-0.114812 -0.0129091 0)
  (-0.112098 -0.0170873 0)
  (-0.109641 -0.0212378 0)
  (-0.107684 -0.0255994 0)
  (-0.106498 -0.030452 0)
  (-0.106226 -0.0357227 0)
  (-0.106777 -0.0410577 0)
  (-0.107944 -0.0461038 0)
  (-0.109545 -0.0506444 0)
  (-0.111453 -0.0545384 0)
  (-0.113613 -0.0576107 0)
  (-0.115983 -0.0596005 0)
  (-0.118452 -0.0601931 0)
  (-0.120758 -0.0588466 0)
  (-0.122603 -0.055044 0)
  (-0.123659 -0.0485827 0)
  (-0.123421 -0.0393233 0)
  (-0.121114 -0.027221 0)
  (-0.115591 -0.0122093 0)
  (-0.105538 0.00585707 0)
  (-0.0899431 0.0266184 0)
  (-0.0687803 0.0475895 0)
  (-0.043643 0.0621864 0)
  (-0.00882343 0.0534503 0)
  (0.136485 -0.0186695 0)
  (-0.189009 -0.0939181 0)
  (0.0995233 -0.244149 0)
  (-0.343081 -0.120291 0)
  (-0.269567 0.0193513 0)
  (-0.264446 -0.0011224 0)
  (-0.248375 0.00687449 0)
  (-0.246581 0.0181326 0)
  (-0.241753 0.0276096 0)
  (-0.233506 0.0361118 0)
  (-0.222024 0.0445147 0)
  (-0.208535 0.0528843 0)
  (-0.194522 0.0609967 0)
  (-0.181392 0.0688247 0)
  (-0.169823 0.0764602 0)
  (-0.15988 0.0837648 0)
  (-0.151444 0.0907943 0)
  (-0.144293 0.0977799 0)
  (-0.138144 0.104954 0)
  (-0.132796 0.112485 0)
  (-0.128199 0.120391 0)
  (-0.124361 0.128449 0)
  (-0.12124 0.136288 0)
  (-0.11873 0.143582 0)
  (-0.11669 0.150125 0)
  (-0.114982 0.155776 0)
  (-0.113499 0.160341 0)
  (-0.112155 0.163503 0)
  (-0.110889 0.164844 0)
  (-0.109599 0.163841 0)
  (-0.108071 0.160178 0)
  (-0.105905 0.154077 0)
  (-0.102372 0.146194 0)
  (-0.0961429 0.137628 0)
  (-0.0852115 0.129814 0)
  (-0.0675373 0.124366 0)
  (-0.0425225 0.12273 0)
  (-0.00975719 0.124885 0)
  (0.0327677 0.126484 0)
  (0.0675335 0.12062 0)
  (0.153432 0.107958 0)
  (-0.281442 0.077094 0)
)
;

boundaryField
{
  floor
  {
    type noSlip;
  }
  ceiling
  {
    type noSlip;
  }
  sWall
  {
    type noSlip;
  }
  nWall
  {
    type noSlip;
  }
  sideWalls
  {
    type empty;
  }
  glass1
  {
    type noSlip;
  }
  glass2
  {
    type noSlip;
  }
  sun
  {
    type noSlip;
  }
  Table_master
  {
    type noSlip;
  }
  Table_slave
  {
    type noSlip;
  }
  inlet
  {
    type fixedValue;
    value uniform (0.212132 -0.212132 0);
  }
  outlet
  {
    type zeroGradient;
  }
} 	// ************************************************************************* //

