/*--------------------------------*- C++ -*----------------------------------*\
  =========                 |
  \\      /  F ield         | OpenFOAM: The Open Source CFD Toolbox
   \\    /   O peration     | Website:  https://openfoam.org
    \\  /    A nd           | Version:  6
     \\/     M anipulation  |
\*---------------------------------------------------------------------------*/
FoamFile
{
    version     2.0;
    format      ascii;
    class       volScalarField;
    location    "2000";
    object      alphat;
}
// * * * * * * * * * * * * * * * * * * * * * * * * * * * * * * * * * * * * * //

dimensions      [1 -1 -1 0 0 0 0];

internalField   nonuniform List<scalar> 
458
(
0.00155644
0.00172671
0.00178825
0.00189095
0.00199684
0.00210595
0.00218792
0.00222932
0.00222022
0.00212641
0.00196985
0.00181414
0.00163451
0.00146673
0.00129096
0.000731949
0.0008588
0.00100601
0.00109252
0.00109028
0.00102352
0.000948461
0.000881578
0.000824009
0.00077439
0.000731433
0.000693863
0.000660599
0.000630426
0.000601643
0.00057195
0.000541478
0.00049118
0.00202721
0.00536543
0.0053445
0.00620554
0.00700539
0.00757725
0.00806588
0.00844246
0.00869816
0.0087399
0.00842628
0.00787245
0.00711723
0.00563654
0.00371512
0.00153134
0.0013567
0.00114832
0.000703233
0.0019719
0.00315704
0.00401338
0.00415343
0.00279839
0.00230875
0.00199708
0.00177599
0.00161143
0.00148451
0.00138485
0.00129553
0.0011934
0.00108903
0.000993477
0.00103729
0.000554203
0.00241297
0.0073468
0.00666572
0.00755457
0.00799489
0.00830796
0.00860643
0.00895112
0.00936484
0.00968425
0.00969666
0.00944516
0.00895865
0.00801451
0.00648747
0.0045455
0.00342242
0.00129348
0.000892637
0.00206602
0.00353745
0.00485401
0.00497399
0.00135227
0.00117368
0.00102524
0.000905335
0.000808874
0.000730958
0.000667652
0.000617537
0.000582782
0.000674817
0.000813665
0.0011963
0.00059894
0.00277869
0.00916404
0.00709089
0.00791897
0.0080342
0.00809204
0.00819153
0.008497
0.00901553
0.00945708
0.0096602
0.00959266
0.00931162
0.00878743
0.00784949
0.00650528
0.00506585
0.00277931
0.00141682
0.0019785
0.00332485
0.00507803
0.00649784
0.00640244
0.00154389
0.00140624
0.00130074
0.0012135
0.00113834
0.00106764
0.00099665
0.000921731
0.000837391
0.000757967
0.000787459
0.00135502
0.000645369
0.00314909
0.0114076
0.00817133
0.00847941
0.00834646
0.0080859
0.00796926
0.00825889
0.0087963
0.00930659
0.0095657
0.00953145
0.00930438
0.00895857
0.00845097
0.00768787
0.00668991
0.00538167
0.0052819
0.00626619
0.00752931
0.00868386
0.00939511
0.00934295
0.00773435
0.00681443
0.00620336
0.00569661
0.00510337
0.00444013
0.00372089
0.00296389
0.00220673
0.00155541
0.0011749
0.00132526
0.0009645
0.000791338
0.000855426
0.000929664
0.00353545
0.013852
0.0108815
0.00987963
0.00901203
0.00826112
0.00797841
0.00825343
0.00885301
0.00941911
0.00968364
0.00962219
0.00941733
0.00924857
0.00916662
0.00901065
0.00876923
0.00860804
0.00926085
0.0103435
0.0111656
0.0115984
0.0116102
0.0111998
0.0103574
0.00952438
0.00876509
0.00797791
0.00713957
0.00624192
0.00528943
0.00429488
0.00329961
0.00240376
0.00178814
0.00150267
0.0012112
0.00106371
0.00135599
0.000964387
0.00384551
0.0153097
0.0139251
0.0114012
0.00944488
0.0082678
0.00797707
0.00839467
0.00914499
0.00978398
0.01003
0.00995
0.00992671
0.0102672
0.0106707
0.010938
0.0111734
0.0115772
0.0123327
0.012995
0.0132143
0.0130371
0.0125401
0.011815
0.010951
0.0100838
0.00924576
0.00841096
0.00756359
0.00668541
0.00579999
0.00490675
0.00402281
0.00318369
0.00253138
0.00207394
0.00174692
0.00161828
0.0015347
0.00114223
0.00388294
0.0124675
0.0114794
0.00947135
0.00803379
0.00749572
0.0078085
0.00870382
0.00971763
0.0103855
0.0105386
0.0105274
0.011228
0.0118983
0.0123062
0.0125847
0.0128812
0.0132655
0.0136712
0.0138124
0.01352
0.0128837
0.0120165
0.0110244
0.0100013
0.00902758
0.00813625
0.00730612
0.00652777
0.00582504
0.0052122
0.00465637
0.00414564
0.00362826
0.00323254
0.00306561
0.00313321
0.00335933
0.0041266
0.00178126
0.00376185
0.00437852
0.00462983
0.00472891
0.00528762
0.00648096
0.00807804
0.00967524
0.0107451
0.0110254
0.0110566
0.0114872
0.0122223
0.012683
0.0128815
0.0130102
0.0131414
0.0132326
0.0131602
0.0127866
0.0120798
0.0111122
0.00997861
0.00877551
0.00760841
0.00655756
0.00563032
0.00481923
0.00414041
0.00360766
0.00322202
0.00296245
0.00279092
0.00268897
0.00264497
0.00263686
0.00260144
0.00249521
0.00234194
0.00165344
0.00131554
0.00410967
0.0081014
0.0105647
0.0118356
0.012286
0.0117813
0.01106
0.0109227
0.0113715
0.0117348
0.011838
0.011829
0.0117829
0.011668
0.0114028
0.0109014
0.0101248
0.00910617
0.00793069
0.00670916
0.00556603
0.00460391
0.00386038
0.00332063
0.00295504
0.00272871
0.00260332
0.00254583
0.00253261
0.00254793
0.00257939
0.00260776
0.0025979
0.00250354
0.00231092
0.00204506
0.00132412
0.00282824
0.0100511
0.0113095
0.0110332
0.010312
0.00953768
0.00894425
0.00865492
0.00862452
0.00861119
0.00852395
0.008424
0.00832899
0.00819353
0.00794642
0.00752026
0.00688007
0.00604948
0.00511258
0.00419475
0.00341982
0.00285432
0.00248983
0.00227968
0.00217761
0.00214956
0.00217183
0.00222844
0.00230961
0.00240961
0.00252385
0.0026436
0.00274945
0.00281641
0.00279406
0.00278735
0.00258454
0.00134134
0.00233896
0.00252696
0.00259934
0.00268759
0.00232418
0.00210769
0.00194742
0.00178773
0.00163484
0.00150993
0.0014197
0.00135594
0.00130822
0.00126747
0.00122619
0.00117845
0.00112033
0.00105097
0.00097411
0.000898288
0.000833606
0.000787169
0.000760606
0.00075129
0.000755337
0.000769687
0.000792525
0.000822915
0.00086043
0.000904943
0.000956548
0.00101555
0.00108252
0.00115814
0.00124261
0.00134714
0.00138839
0.00135807
0.00126263
0.00116794
)
;

boundaryField
{
    floor
    {
        type            compressible::alphatWallFunction;
        Prt             0.85;
        value           nonuniform List<scalar> 
36
(
0.000182562
0.000103829
0.00012218
0.000143083
0.000155201
0.000154892
0.000145552
0.000134965
0.000125448
0.000117189
0.000110015
0.000103761
9.82543e-05
9.33489e-05
8.88736e-05
8.45801e-05
8.01242e-05
7.55217e-05
6.78534e-05
6.78526e-05
7.74474e-05
8.41754e-05
9.10939e-05
0.000112486
0.000121731
0.000132325
0.00018256
0.000215107
0.000191523
0.000162928
0.000103828
0.000162926
9.96223e-05
0.000182902
0.000127008
0.000199679
)
;
    }
    ceiling
    {
        type            compressible::alphatWallFunction;
        Prt             0.85;
        value           nonuniform List<scalar> 
43
(
0.000320916
0.000344778
0.000353954
0.000365253
0.000319075
0.000291196
0.000270356
0.000249402
0.000229147
0.000212446
0.000200288
0.000191646
0.000185147
0.000179578
0.000173914
0.000167335
0.000159282
0.000149607
0.000138799
0.000128035
0.000118766
0.000112057
0.000108195
0.000106833
0.000107418
0.0001095
0.000112808
0.000117194
0.000122582
0.000128942
0.000136269
0.00014459
0.000153968
0.000164478
0.000176127
0.000190416
0.000196023
0.000191907
0.000178877
0.000165843
0.000498512
0.000573083
0.000382525
)
;
    }
    sWall
    {
        type            compressible::alphatWallFunction;
        Prt             0.85;
        value           uniform 0.000319749;
    }
    nWall
    {
        type            compressible::alphatWallFunction;
        Prt             0.85;
        value           nonuniform List<scalar> 6(0.000132105 0.000137017 0.000161897 0.000186958 0.000189302 0.000165509);
    }
    sideWalls
    {
        type            empty;
    }
    glass1
    {
        type            compressible::alphatWallFunction;
        Prt             0.85;
        value           nonuniform List<scalar> 9(0.000212839 0.000274081 0.000323249 0.000369184 0.000415134 0.000462518 0.000500222 0.000504918 0.00049055);
    }
    glass2
    {
        type            compressible::alphatWallFunction;
        Prt             0.85;
        value           nonuniform List<scalar> 2(0.000246498 0.000229777);
    }
    sun
    {
        type            compressible::alphatWallFunction;
        Prt             0.85;
        value           nonuniform List<scalar> 
14
(
0.000218485
0.000241136
0.000249269
0.000262771
0.000276612
0.000290788
0.000301386
0.000306721
0.000305549
0.000293424
0.000273086
0.000252678
0.000228895
0.000206419
)
;
    }
    Table_master
    {
        type            compressible::alphatWallFunction;
        Prt             0.85;
        value           nonuniform List<scalar> 9(0.000191149 0.000166659 0.000145976 0.000129016 0.000115179 0.000103859 9.45537e-05 8.71115e-05 8.1907e-05);
    }
    Table_slave
    {
        type            compressible::alphatWallFunction;
        Prt             0.85;
        value           nonuniform List<scalar> 9(0.000217029 0.000198481 0.000184127 0.000172158 0.000161767 0.000151921 0.000141957 0.000131352 0.000119291);
    }
    inlet
    {
        type            fixedValue;
        value           uniform 1.94e-05;
    }
    outlet
    {
        type            zeroGradient;
    }
}


// ************************************************************************* //
