/*--------------------------------*- C++ -*----------------------------------*\
  =========                 |
  \\      /  F ield         | OpenFOAM: The Open Source CFD Toolbox
   \\    /   O peration     | Website:  https://openfoam.org
    \\  /    A nd           | Version:  6
     \\/     M anipulation  |
\*---------------------------------------------------------------------------*/
FoamFile
{
    version     2.0;
    format      ascii;
    class       volScalarField;
    location    "2000";
    object      epsilon;
}
// * * * * * * * * * * * * * * * * * * * * * * * * * * * * * * * * * * * * * //

dimensions      [0 2 -3 0 0 0 0];

internalField   nonuniform List<scalar> 
458
(
0.000838526
0.00114167
0.00126799
0.00149919
0.00176541
0.00207081
0.00232202
0.00245622
0.00242633
0.0021317
0.00169531
0.00132449
0.000968874
0.000700219
0.000477567
8.75306e-05
0.000141302
0.000227064
0.000290882
0.000289174
0.000239294
0.000190455
0.00015297
0.000124943
0.000103726
8.74233e-05
7.46488e-05
6.44338e-05
5.60152e-05
4.87001e-05
4.18515e-05
3.55246e-05
2.65328e-05
0.00185607
0.00239517
0.00105478
0.00107588
0.00122548
0.00146251
0.001684
0.00179691
0.00176576
0.00155282
0.00124819
0.000982119
0.000767073
0.000615819
0.000490368
0.000797118
0.000554401
0.000336283
7.76461e-05
0.000122466
0.000184047
0.000210839
0.000222071
0.000241482
0.000192951
0.000148265
0.000114572
8.97947e-05
7.16059e-05
5.80747e-05
4.77729e-05
3.97845e-05
3.4593e-05
3.21257e-05
4.65058e-05
3.81087e-05
0.00313621
0.00515028
0.00125488
0.00110423
0.00131581
0.00164176
0.00188226
0.00196196
0.00189612
0.00166928
0.00137162
0.00108105
0.0008399
0.000653431
0.000511959
0.000474201
0.000439339
0.000480615
0.0001586
0.00019898
0.000223296
0.000234521
0.000249755
0.000551777
0.000360828
0.000240546
0.000165671
0.000118184
8.7237e-05
6.64949e-05
5.26317e-05
4.42486e-05
3.38226e-05
2.9292e-05
6.5821e-05
4.8105e-05
0.00479903
0.0100831
0.00189601
0.00129269
0.00159548
0.00203934
0.00223618
0.00224746
0.00212584
0.00187769
0.00153874
0.00118807
0.000895552
0.000678466
0.000521132
0.000427495
0.000380766
0.000406701
0.000631826
0.000459819
0.000365684
0.000325277
0.000303891
0.000307421
0.000822385
0.00062181
0.000492322
0.000399923
0.000330249
0.000272554
0.000221792
0.000175495
0.000131631
7.13379e-05
4.21634e-05
9.91064e-05
6.01922e-05
0.00699964
0.0174733
0.00356779
0.0018509
0.00236838
0.00279059
0.00280908
0.00271004
0.00251834
0.00219629
0.00175516
0.00130011
0.000929788
0.000672111
0.000504695
0.000405487
0.000358174
0.000375585
0.000462939
0.000443948
0.000422412
0.000402947
0.000372631
0.000334237
0.000325066
0.000298625
0.000274566
0.000250048
0.000223567
0.000194195
0.000163002
0.000131852
0.000102274
7.05195e-05
4.74224e-05
7.55159e-05
9.42441e-05
0.000111247
0.000140772
0.000180661
0.00992398
0.0257877
0.00773867
0.00367314
0.00416554
0.00397525
0.00366878
0.00339685
0.00308274
0.00262712
0.00202275
0.00141358
0.000939108
0.000634693
0.000466841
0.000390083
0.000375474
0.000418306
0.000487289
0.000521411
0.000522318
0.00049005
0.000431914
0.000362471
0.00030556
0.000269475
0.000245324
0.00022218
0.000196473
0.000168297
0.000139477
0.000112213
8.82604e-05
6.71232e-05
5.33077e-05
6.14689e-05
8.41254e-05
0.000102531
0.000205382
0.000201521
0.0127952
0.0307042
0.0152571
0.00932481
0.00703212
0.00565371
0.00483078
0.00430641
0.00381479
0.00316217
0.00231236
0.00149017
0.000895791
0.000564233
0.0004313
0.000400091
0.000426
0.00049384
0.000567272
0.000599162
0.000575684
0.000512998
0.000430315
0.000347192
0.000283357
0.000246575
0.000224359
0.000205081
0.000184673
0.000162807
0.000141558
0.000121948
0.000104777
9.00676e-05
8.345e-05
9.07018e-05
0.000119212
0.00017594
0.000323659
0.0003346
0.0132065
0.0292889
0.0182652
0.0126177
0.00920562
0.00719732
0.00607688
0.00538205
0.00469092
0.00374898
0.00250341
0.00139911
0.000720749
0.000493793
0.000430558
0.000434769
0.000477267
0.000540691
0.000588192
0.000583263
0.000526306
0.000442741
0.000357829
0.000288381
0.000242699
0.000218317
0.000206135
0.000199295
0.000195845
0.000196285
0.000200927
0.000210079
0.000224603
0.000249468
0.000297084
0.000431548
0.000741614
0.00133074
0.00425996
0.00127176
0.0120545
0.0189494
0.0149774
0.0114214
0.00905868
0.00782785
0.00718201
0.00657318
0.00557249
0.00408697
0.00201819
0.000957207
0.000577034
0.000457349
0.000430439
0.000441746
0.00046894
0.000493071
0.000490398
0.000450252
0.000385723
0.000315443
0.000254633
0.000211491
0.000186879
0.000176512
0.000175219
0.000180799
0.000194129
0.000217796
0.000255549
0.000312527
0.000397416
0.000522538
0.000700489
0.000937779
0.00121402
0.00147419
0.00168365
0.00102
0.00262338
0.00520279
0.00746058
0.00816166
0.00781786
0.00603082
0.00360509
0.00195499
0.00102607
0.000618253
0.000458327
0.000401062
0.000383345
0.00037932
0.000374954
0.000359308
0.000325291
0.000276286
0.000224117
0.000179367
0.000147173
0.000127731
0.000118667
0.000117318
0.000122221
0.000133423
0.000151975
0.000179697
0.000219525
0.000275997
0.000355535
0.000465306
0.000607706
0.000768102
0.000902786
0.000951484
0.000877129
0.00052474
0.00470697
0.0112863
0.00810749
0.00524814
0.00346638
0.00223887
0.00139625
0.000861887
0.000574213
0.000434828
0.000367498
0.000331283
0.000306099
0.000282156
0.000254267
0.000220361
0.000182062
0.000144713
0.000114129
9.32062e-05
8.16465e-05
7.75787e-05
7.91579e-05
8.53156e-05
9.58319e-05
0.00011116
0.00013233
0.00016105
0.000199986
0.000253112
0.000325854
0.000423922
0.000548662
0.00069058
0.000801819
0.000917276
0.000719129
0.000545386
0.00284318
0.00351784
0.00382368
0.00431792
0.00281357
0.00210403
0.00166202
0.00128707
0.000985044
0.000776566
0.000645854
0.000562953
0.000505786
0.000460157
0.000416792
0.000370102
0.000318092
0.000262665
0.000209194
0.000164066
0.000131112
0.000110383
9.95583e-05
9.59182e-05
9.74484e-05
0.000103079
0.000112498
0.000125909
0.000143889
0.000167357
0.00019761
0.000236434
0.00028631
0.000350552
0.00043295
0.000551631
0.000603984
0.000565412
0.000454497
0.000359979
)
;

boundaryField
{
    floor
    {
        Cmu             0.09;
        kappa           0.41;
        E               9.8;
        type            epsilonWallFunction;
        value           nonuniform List<scalar> 
36
(
0.000477567
8.75306e-05
0.000141302
0.000227064
0.000290882
0.000289174
0.000239294
0.000190455
0.00015297
0.000124943
0.000103726
8.74233e-05
7.46488e-05
6.44338e-05
5.60152e-05
4.87001e-05
4.18515e-05
3.55246e-05
2.65328e-05
2.65328e-05
3.81087e-05
4.8105e-05
6.01922e-05
0.000111247
0.000140772
0.000180661
0.000477567
0.000797118
0.000554401
0.000336283
8.75306e-05
0.000336283
7.76461e-05
0.000480615
0.0001586
0.000631826
)
;
    }
    ceiling
    {
        Cmu             0.09;
        kappa           0.41;
        E               9.8;
        type            epsilonWallFunction;
        value           nonuniform List<scalar> 
43
(
0.00284318
0.00351784
0.00382368
0.00431792
0.00281357
0.00210403
0.00166202
0.00128707
0.000985044
0.000776566
0.000645854
0.000562953
0.000505786
0.000460157
0.000416792
0.000370102
0.000318092
0.000262665
0.000209194
0.000164066
0.000131112
0.000110383
9.95583e-05
9.59182e-05
9.74484e-05
0.000103079
0.000112498
0.000125909
0.000143889
0.000167357
0.00019761
0.000236434
0.00028631
0.000350552
0.00043295
0.000551631
0.000603984
0.000565412
0.000454497
0.000359979
0.0120545
0.0189494
0.00470697
)
;
    }
    sWall
    {
        Cmu             0.09;
        kappa           0.41;
        E               9.8;
        type            epsilonWallFunction;
        value           uniform 0.00284318;
    }
    nWall
    {
        Cmu             0.09;
        kappa           0.41;
        E               9.8;
        type            epsilonWallFunction;
        value           nonuniform List<scalar> 6(0.000180661 0.000201521 0.0003346 0.00052474 0.000545386 0.000359979);
    }
    sideWalls
    {
        type            empty;
    }
    glass1
    {
        Cmu             0.09;
        kappa           0.41;
        E               9.8;
        type            epsilonWallFunction;
        value           nonuniform List<scalar> 9(0.000838526 0.00185607 0.00313621 0.00479903 0.00699964 0.00992398 0.0127952 0.0132065 0.0120545);
    }
    glass2
    {
        Cmu             0.09;
        kappa           0.41;
        E               9.8;
        type            epsilonWallFunction;
        value           nonuniform List<scalar> 2(0.00127176 0.00102);
    }
    sun
    {
        Cmu             0.09;
        kappa           0.41;
        E               9.8;
        type            epsilonWallFunction;
        value           nonuniform List<scalar> 
14
(
0.000838526
0.00114167
0.00126799
0.00149919
0.00176541
0.00207081
0.00232202
0.00245622
0.00242633
0.0021317
0.00169531
0.00132449
0.000968874
0.000700219
)
;
    }
    Table_master
    {
        Cmu             0.09;
        kappa           0.41;
        E               9.8;
        type            epsilonWallFunction;
        value           nonuniform List<scalar> 9(0.000551777 0.000360828 0.000240546 0.000165671 0.000118184 8.7237e-05 6.64949e-05 5.26317e-05 4.42486e-05);
    }
    Table_slave
    {
        Cmu             0.09;
        kappa           0.41;
        E               9.8;
        type            epsilonWallFunction;
        value           nonuniform List<scalar> 9(0.000822385 0.00062181 0.000492322 0.000399923 0.000330249 0.000272554 0.000221792 0.000175495 0.000131631);
    }
    inlet
    {
        type            turbulentMixingLengthDissipationRateInlet;
        mixingLength    0.01;
        phi             phi;
        k               k;
        value           uniform 0.000101881;
    }
    outlet
    {
        type            zeroGradient;
    }
}


// ************************************************************************* //
