/*--------------------------------*- C++ -*----------------------------------*\
  =========                 |
  \\      /  F ield         | OpenFOAM: The Open Source CFD Toolbox
   \\    /   O peration     | Website:  https://openfoam.org
    \\  /    A nd           | Version:  6
     \\/     M anipulation  |
\*---------------------------------------------------------------------------*/
FoamFile
{
    version     2.0;
    format      ascii;
    class       volScalarField;
    location    "500";
    object      epsilon;
}
// * * * * * * * * * * * * * * * * * * * * * * * * * * * * * * * * * * * * * //

dimensions      [0 2 -3 0 0 0 0];

internalField   nonuniform List<scalar> 
458
(
0.000493761
0.000639805
0.000686617
0.000795677
0.000906582
0.00102063
0.00114273
0.00128151
0.00142151
0.00154374
0.00162053
0.00161653
0.00149801
0.00121632
0.000497166
5.23342e-05
8.67648e-05
0.000124627
0.000132591
0.000122875
0.000100727
8.00698e-05
6.41105e-05
5.2051e-05
4.28359e-05
3.57015e-05
3.01357e-05
2.56789e-05
2.19966e-05
1.88238e-05
1.59388e-05
1.44989e-05
1.13276e-05
0.00121562
0.00181686
0.000600295
0.000587057
0.000606848
0.000640187
0.000693648
0.000778049
0.000887565
0.0010041
0.00109344
0.00111833
0.00106266
0.000941043
0.000782331
0.00111927
0.000615819
0.000329949
5.39154e-05
0.000110812
0.000126075
0.00012207
0.000112544
0.00010967
8.6277e-05
6.59606e-05
5.07074e-05
3.94452e-05
3.11101e-05
2.49248e-05
2.02577e-05
1.67831e-05
1.46235e-05
1.37718e-05
4.29882e-05
2.72416e-05
0.00219227
0.00441456
0.00070474
0.000533975
0.000536044
0.000569524
0.000630061
0.000724743
0.000851714
0.000987334
0.0010894
0.00112576
0.00108715
0.000977368
0.000775202
0.000608384
0.000491203
0.000518062
0.000242665
0.000212721
0.000177842
0.00014908
0.000132411
0.000249558
0.000167231
0.00011498
8.18361e-05
6.03307e-05
4.59712e-05
3.61527e-05
2.93148e-05
2.46231e-05
1.90615e-05
1.69231e-05
9.26102e-05
4.55056e-05
0.00352393
0.00913585
0.00106927
0.000516416
0.000491504
0.000525773
0.000591971
0.000703891
0.000865316
0.0010289
0.00113946
0.00117733
0.00113997
0.00101465
0.000803309
0.000622758
0.000515937
0.000533392
0.000809844
0.000521409
0.000332051
0.000234342
0.00017872
0.000152303
0.000344282
0.000261618
0.000214195
0.000183217
0.000159218
0.000137656
0.000118931
0.000101043
8.24825e-05
4.97293e-05
3.29383e-05
0.000171886
6.7215e-05
0.00535058
0.0163951
0.00211664
0.000584438
0.000469593
0.000490171
0.000563219
0.000721284
0.00096599
0.0011727
0.00128631
0.00131242
0.00125379
0.00107941
0.000826981
0.000603111
0.000462443
0.000420369
0.000415046
0.000339754
0.000271923
0.000219567
0.000177798
0.000145515
0.000134837
0.000124375
0.000117167
0.000110509
0.000102565
9.27607e-05
8.26653e-05
7.30214e-05
6.40449e-05
5.16811e-05
4.04741e-05
0.000106606
0.000169566
0.000160842
0.000183881
0.000230916
0.00791623
0.024579
0.00511124
0.00114422
0.000648861
0.000557545
0.000588227
0.000847406
0.00122494
0.0014521
0.00154496
0.00153827
0.00143431
0.0012005
0.000866765
0.000565445
0.000382068
0.000312391
0.000291863
0.000273924
0.00024566
0.00020996
0.000173959
0.000143725
0.00012658
0.000121285
0.000120965
0.000120236
0.000116408
0.000107841
9.41368e-05
7.98486e-05
6.70006e-05
5.55335e-05
4.83467e-05
7.26809e-05
0.000125262
0.000147176
0.000263919
0.000258651
0.0110343
0.0294841
0.0114065
0.00449293
0.00237189
0.00149549
0.00120869
0.00150166
0.00179563
0.00191921
0.00193276
0.00185687
0.00168539
0.00136668
0.000926468
0.00053774
0.000319005
0.000249424
0.000243848
0.000240658
0.000221948
0.000192849
0.000163546
0.000141507
0.000131981
0.000133846
0.000140474
0.000147395
0.000152334
0.000152619
0.000143178
0.000125152
0.000108046
9.40153e-05
8.82568e-05
0.00010325
0.000150859
0.000232779
0.000441944
0.000444723
0.0117903
0.031792
0.018806
0.0134817
0.00909406
0.00585334
0.00411003
0.00332144
0.00290529
0.00267211
0.00248211
0.00226426
0.00198467
0.00154691
0.000968566
0.0004932
0.000267605
0.000219619
0.000217784
0.000212662
0.00019533
0.000173427
0.000155385
0.000145698
0.000145619
0.000153417
0.00016629
0.000183089
0.000203945
0.000228819
0.000256139
0.000274601
0.000287425
0.000320219
0.000388983
0.000590147
0.00107349
0.00193987
0.00601837
0.00163177
0.0110182
0.0186542
0.015723
0.0123615
0.00967691
0.00746063
0.0058401
0.00468797
0.00396195
0.00350642
0.00309514
0.00268329
0.00226714
0.00166404
0.000898222
0.000408022
0.00025581
0.000219387
0.000210035
0.000200164
0.000186563
0.000173647
0.000165225
0.000162674
0.000165868
0.000174242
0.000187851
0.000208122
0.000237771
0.000280506
0.000340918
0.000423968
0.000537018
0.000704326
0.000947429
0.00126684
0.00161842
0.0019192
0.00215337
0.00126488
0.00424244
0.00500759
0.00553903
0.00562976
0.00544811
0.00519302
0.00488331
0.00436003
0.00357751
0.00288028
0.00233995
0.00148813
0.000736965
0.000422995
0.000320574
0.000286806
0.000272396
0.000262264
0.000252934
0.000244701
0.000238185
0.000233553
0.000230828
0.000230254
0.000232629
0.000239718
0.000254549
0.000281735
0.000328055
0.000400085
0.000504868
0.00065045
0.000837383
0.00103832
0.00118421
0.00119164
0.0010202
0.000666729
0.00613208
0.0186333
0.012568
0.0108715
0.00946821
0.00816633
0.00655805
0.00444707
0.00264589
0.00141499
0.000931488
0.000669263
0.000549852
0.000515325
0.000507209
0.000500399
0.000485869
0.000467955
0.000449245
0.000430479
0.000411765
0.000393225
0.000375413
0.000359625
0.000347967
0.000343094
0.000347976
0.000365944
0.000401879
0.00046192
0.000552673
0.000679982
0.00084366
0.00103267
0.00118688
0.00131557
0.000875733
0.000694627
0.00713574
0.00742692
0.00779352
0.00955231
0.00815048
0.00712534
0.00550213
0.00342124
0.00166809
0.00108421
0.000754833
0.000616923
0.000557183
0.000498976
0.000439967
0.000392869
0.000358214
0.000331967
0.000313105
0.000297346
0.000284543
0.000274615
0.000267462
0.000263152
0.000262021
0.000264676
0.000271968
0.000285035
0.000305543
0.000336317
0.000378049
0.000432686
0.000502748
0.000591427
0.000701993
0.000860212
0.000929028
0.000873648
0.000706967
0.000557802
)
;

boundaryField
{
    floor
    {
        Cmu             0.09;
        kappa           0.41;
        E               9.8;
        type            epsilonWallFunction;
        value           nonuniform List<scalar> 
36
(
0.000497166
5.23342e-05
8.67648e-05
0.000124627
0.000132591
0.000122875
0.000100727
8.00698e-05
6.41105e-05
5.2051e-05
4.28359e-05
3.57015e-05
3.01357e-05
2.56789e-05
2.19966e-05
1.88238e-05
1.59388e-05
1.44989e-05
1.13276e-05
1.13276e-05
2.72416e-05
4.55056e-05
6.7215e-05
0.000160842
0.000183881
0.000230916
0.000497166
0.00111927
0.000615819
0.000329949
5.23342e-05
0.000329949
5.39154e-05
0.000518062
0.000242665
0.000809844
)
;
    }
    ceiling
    {
        Cmu             0.09;
        kappa           0.41;
        E               9.8;
        type            epsilonWallFunction;
        value           nonuniform List<scalar> 
43
(
0.00713574
0.00742692
0.00779352
0.00955231
0.00815048
0.00712534
0.00550213
0.00342124
0.00166809
0.00108421
0.000754833
0.000616923
0.000557183
0.000498976
0.000439967
0.000392869
0.000358214
0.000331967
0.000313105
0.000297346
0.000284543
0.000274615
0.000267462
0.000263152
0.000262021
0.000264676
0.000271968
0.000285035
0.000305543
0.000336317
0.000378049
0.000432686
0.000502748
0.000591427
0.000701993
0.000860212
0.000929028
0.000873648
0.000706967
0.000557802
0.0110182
0.0186542
0.00613208
)
;
    }
    sWall
    {
        Cmu             0.09;
        kappa           0.41;
        E               9.8;
        type            epsilonWallFunction;
        value           uniform 0.00713574;
    }
    nWall
    {
        Cmu             0.09;
        kappa           0.41;
        E               9.8;
        type            epsilonWallFunction;
        value           nonuniform List<scalar> 6(0.000230916 0.000258651 0.000444723 0.000666729 0.000694627 0.000557802);
    }
    sideWalls
    {
        type            empty;
    }
    glass1
    {
        Cmu             0.09;
        kappa           0.41;
        E               9.8;
        type            epsilonWallFunction;
        value           nonuniform List<scalar> 9(0.000493761 0.00121562 0.00219227 0.00352393 0.00535058 0.00791623 0.0110343 0.0117903 0.0110182);
    }
    glass2
    {
        Cmu             0.09;
        kappa           0.41;
        E               9.8;
        type            epsilonWallFunction;
        value           nonuniform List<scalar> 2(0.00163177 0.00126488);
    }
    sun
    {
        Cmu             0.09;
        kappa           0.41;
        E               9.8;
        type            epsilonWallFunction;
        value           nonuniform List<scalar> 
14
(
0.000493761
0.000639805
0.000686617
0.000795677
0.000906582
0.00102063
0.00114273
0.00128151
0.00142151
0.00154374
0.00162053
0.00161653
0.00149801
0.00121632
)
;
    }
    Table_master
    {
        Cmu             0.09;
        kappa           0.41;
        E               9.8;
        type            epsilonWallFunction;
        value           nonuniform List<scalar> 9(0.000249558 0.000167231 0.00011498 8.18361e-05 6.03307e-05 4.59712e-05 3.61527e-05 2.93148e-05 2.46231e-05);
    }
    Table_slave
    {
        Cmu             0.09;
        kappa           0.41;
        E               9.8;
        type            epsilonWallFunction;
        value           nonuniform List<scalar> 9(0.000344282 0.000261618 0.000214195 0.000183217 0.000159218 0.000137656 0.000118931 0.000101043 8.24825e-05);
    }
    inlet
    {
        type            turbulentMixingLengthDissipationRateInlet;
        mixingLength    0.01;
        phi             phi;
        k               k;
        value           uniform 0.00377337;
    }
    outlet
    {
        type            zeroGradient;
    }
}


// ************************************************************************* //
