/*--------------------------------*- C++ -*----------------------------------*\
  =========                 |
  \\      /  F ield         | OpenFOAM: The Open Source CFD Toolbox
   \\    /   O peration     | Website:  https://openfoam.org
    \\  /    A nd           | Version:  6
     \\/     M anipulation  |
\*---------------------------------------------------------------------------*/
FoamFile
{
    version     2.0;
    format      ascii;
    class       volVectorField;
    location    "500";
    object      U;
}
// * * * * * * * * * * * * * * * * * * * * * * * * * * * * * * * * * * * * * //

dimensions      [0 1 -1 0 0 0 0];

internalField   nonuniform List<vector> 
458
(
(0.0388459 0.0908412 0)
(-0.175978 0.0269857 0)
(-0.202878 0.0200238 0)
(-0.238238 0.0145833 0)
(-0.265938 0.00845905 0)
(-0.284955 0.00177617 0)
(-0.293541 -0.00568619 0)
(-0.289044 -0.0142321 0)
(-0.26958 -0.0242561 0)
(-0.234248 -0.0348524 0)
(-0.185066 -0.0440359 0)
(-0.127594 -0.0493194 0)
(-0.069782 -0.0479057 0)
(-0.0185857 -0.0353016 0)
(-0.0106714 0.0107317 0)
(-0.00610481 0.010003 0)
(-0.0364434 -0.0214415 0)
(-0.0097627 -0.0334897 0)
(0.020689 -0.0262384 0)
(0.0410371 -0.0179284 0)
(0.0558411 -0.00969543 0)
(0.0642488 -0.00541238 0)
(0.0677402 -0.00384796 0)
(0.0689489 -0.00324429 0)
(0.0694527 -0.00286729 0)
(0.0696138 -0.00256512 0)
(0.0693754 -0.00223333 0)
(0.0685574 -0.00170442 0)
(0.066644 -0.00060263 0)
(0.0624968 0.00156226 0)
(0.054912 0.00376475 0)
(0.0497982 0.00533933 0)
(-0.0190421 0.024202 0)
(0.224252 0.186589 0)
(-0.166982 0.0718499 0)
(-0.166709 0.0593401 0)
(-0.204104 0.0487817 0)
(-0.23213 0.0366902 0)
(-0.251925 0.0227903 0)
(-0.262034 0.00631225 0)
(-0.259918 -0.0135431 0)
(-0.243839 -0.0365 0)
(-0.2133 -0.0599114 0)
(-0.17051 -0.0788539 0)
(-0.120861 -0.0881915 0)
(-0.0711374 -0.0839592 0)
(-0.026808 -0.0627747 0)
(0.0127472 -0.0228523 0)
(0.044057 0.00366652 0)
(0.0599027 0.0363424 0)
(-0.013112 0.0781688 0)
(0.081838 0.0441777 0)
(0.0189077 -0.0236583 0)
(0.032319 -0.0406212 0)
(0.0475962 -0.0366353 0)
(0.0601401 -0.0265906 0)
(0.0665746 -0.0113869 0)
(0.0680819 -0.00236666 0)
(0.0679969 0.00101966 0)
(0.0680853 0.00226894 0)
(0.0683769 0.00295994 0)
(0.0685852 0.00345583 0)
(0.0686098 0.00389993 0)
(0.0684569 0.00469339 0)
(0.0676177 0.00673058 0)
(0.063681 0.012534 0)
(0.053716 0.0171693 0)
(0.0533961 0.0196923 0)
(-0.0693871 0.0523726 0)
(0.3943 0.280261 0)
(-0.185908 0.115851 0)
(-0.126645 0.0969669 0)
(-0.163863 0.0775921 0)
(-0.189633 0.0574216 0)
(-0.209148 0.0347606 0)
(-0.2208 0.00815505 0)
(-0.221341 -0.0233238 0)
(-0.208172 -0.0594762 0)
(-0.181389 -0.0958202 0)
(-0.14389 -0.12373 0)
(-0.101308 -0.135695 0)
(-0.0595187 -0.128013 0)
(-0.0229741 -0.100078 0)
(0.0101154 -0.0557193 0)
(0.031663 -0.0235965 0)
(0.0412805 0.0108304 0)
(-0.0331594 0.0672171 0)
(0.13566 -0.019461 0)
(0.0778748 -0.0404163 0)
(0.0691597 -0.0465867 0)
(0.0725436 -0.0433346 0)
(0.0770417 -0.0372393 0)
(0.0786178 -0.0273301 0)
(0.0698388 -0.0176402 0)
(0.0632244 -0.0124685 0)
(0.0608348 -0.00958308 0)
(0.0603071 -0.00771745 0)
(0.060247 -0.00643447 0)
(0.060538 -0.00538882 0)
(0.0616386 -0.00414994 0)
(0.0646606 -0.000554108 0)
(0.0629736 0.0173753 0)
(0.0490296 0.0288998 0)
(0.0612805 0.035321 0)
(-0.115774 0.0797401 0)
(0.548533 0.356189 0)
(-0.223152 0.155242 0)
(-0.0819737 0.12951 0)
(-0.11816 0.103214 0)
(-0.138038 0.0783063 0)
(-0.154923 0.0498911 0)
(-0.167075 0.015058 0)
(-0.169878 -0.0277178 0)
(-0.158562 -0.0773667 0)
(-0.135039 -0.126636 0)
(-0.103627 -0.162579 0)
(-0.0696861 -0.17639 0)
(-0.037587 -0.165711 0)
(-0.00979005 -0.131491 0)
(0.0151453 -0.081356 0)
(0.0345068 -0.0361325 0)
(0.0552855 0.00814397 0)
(0.0560246 0.0548148 0)
(0.104471 0.0656129 0)
(0.103973 -0.00718423 0)
(0.0874503 -0.0346336 0)
(0.0799449 -0.0409133 0)
(0.0754871 -0.0395804 0)
(0.069861 -0.0334049 0)
(0.0704558 -0.0203581 0)
(0.0812791 -0.0137013 0)
(0.0903493 -0.0101297 0)
(0.0959998 -0.00786182 0)
(0.0994308 -0.00584294 0)
(0.100656 -0.00355519 0)
(0.0981775 -0.000579703 0)
(0.0906354 0.00346304 0)
(0.0757245 0.009262 0)
(0.0589591 0.0290918 0)
(0.0421237 0.0454758 0)
(0.0692655 0.0571313 0)
(-0.162294 0.101616 0)
(0.683565 0.415148 0)
(-0.26912 0.187326 0)
(-0.0349506 0.14875 0)
(-0.0676361 0.119608 0)
(-0.0785082 0.0934595 0)
(-0.0898163 0.0625462 0)
(-0.100415 0.0224293 0)
(-0.103743 -0.0294979 0)
(-0.0918846 -0.0915573 0)
(-0.0718134 -0.15175 0)
(-0.0490257 -0.192426 0)
(-0.026859 -0.205754 0)
(-0.00748623 -0.191793 0)
(0.00905882 -0.152754 0)
(0.023791 -0.101742 0)
(0.0378478 -0.0519621 0)
(0.0545893 -0.00941838 0)
(0.0731896 0.014178 0)
(0.0895063 -0.00741217 0)
(0.0890565 -0.0282723 0)
(0.0811867 -0.0354115 0)
(0.0717862 -0.035974 0)
(0.0636788 -0.0333933 0)
(0.0574076 -0.0272087 0)
(0.0564042 -0.0158574 0)
(0.0606667 -0.00954093 0)
(0.0656718 -0.00701568 0)
(0.0700884 -0.00537015 0)
(0.073913 -0.00286545 0)
(0.076757 0.00138574 0)
(0.077282 0.00738145 0)
(0.0745764 0.0151686 0)
(0.068352 0.0253659 0)
(0.060065 0.0415289 0)
(0.0465092 0.0592211 0)
(0.0794598 0.0789189 0)
(-0.0216043 0.108499 0)
(0.048813 0.168313 0)
(-0.0992406 0.0852908 0)
(-0.292809 0.0017134 0)
(0.783066 0.464007 0)
(-0.314781 0.207973 0)
(0.00425009 0.143874 0)
(-0.012748 0.125024 0)
(-0.0134309 0.10405 0)
(-0.0184171 0.0733485 0)
(-0.0261267 0.0313304 0)
(-0.0248118 -0.0281696 0)
(-0.00890231 -0.103419 0)
(0.00613421 -0.170897 0)
(0.0170959 -0.211005 0)
(0.0244123 -0.220568 0)
(0.0283169 -0.202879 0)
(0.0302066 -0.163076 0)
(0.0323222 -0.111473 0)
(0.0358367 -0.0615093 0)
(0.0427629 -0.0224782 0)
(0.0542109 -0.00288401 0)
(0.061536 -0.00700051 0)
(0.0605276 -0.0164362 0)
(0.0538291 -0.0233803 0)
(0.0454262 -0.0262096 0)
(0.0379792 -0.0257678 0)
(0.0326237 -0.022428 0)
(0.0309678 -0.0168554 0)
(0.0330847 -0.0136219 0)
(0.036983 -0.0123837 0)
(0.0415671 -0.0111573 0)
(0.0464693 -0.00840233 0)
(0.0512873 -0.00297878 0)
(0.0557245 0.00547985 0)
(0.0579344 0.0161829 0)
(0.0585333 0.0289626 0)
(0.059206 0.0446469 0)
(0.0566305 0.06197 0)
(0.0833426 0.0840724 0)
(0.0633785 0.0952648 0)
(0.10202 0.104061 0)
(0.125266 0.0575971 0)
(-0.150145 -0.0410761 0)
(0.839371 0.508239 0)
(-0.337701 0.188655 0)
(0.0389146 0.0808875 0)
(0.0577314 0.106494 0)
(0.062125 0.110304 0)
(0.0595158 0.0834449 0)
(0.056462 0.0350068 0)
(0.0696501 -0.0388416 0)
(0.0858801 -0.117598 0)
(0.0922753 -0.178796 0)
(0.0894219 -0.213106 0)
(0.0798652 -0.218263 0)
(0.065827 -0.197756 0)
(0.0501274 -0.15724 0)
(0.0360339 -0.106573 0)
(0.0258683 -0.0588022 0)
(0.0214515 -0.0240801 0)
(0.0228472 -0.0072072 0)
(0.024843 -0.00646974 0)
(0.0232655 -0.0118086 0)
(0.0183269 -0.0169423 0)
(0.0120416 -0.0196358 0)
(0.00617726 -0.0201382 0)
(0.00189682 -0.019034 0)
(0.000338029 -0.0171573 0)
(0.0015502 -0.0164175 0)
(0.00440834 -0.0165172 0)
(0.00821185 -0.0161642 0)
(0.0128397 -0.0141292 0)
(0.0183809 -0.00915522 0)
(0.0259001 -3.21518e-05 0)
(0.0337944 0.0120078 0)
(0.0406897 0.0251202 0)
(0.0489304 0.0392847 0)
(0.0565775 0.0535427 0)
(0.0792045 0.0710301 0)
(0.0920319 0.0744566 0)
(0.127633 0.0641518 0)
(0.176006 0.0482998 0)
(-0.00959537 0.0968725 0)
(0.948128 0.508274 0)
(-0.064087 0.167138 0)
(0.132527 -0.0067177 0)
(0.200956 0.00700876 0)
(0.191772 0.0355979 0)
(0.173654 0.0262557 0)
(0.166987 -0.0207069 0)
(0.184708 -0.0777078 0)
(0.193332 -0.13236 0)
(0.184458 -0.175882 0)
(0.162578 -0.198658 0)
(0.131955 -0.196598 0)
(0.0962578 -0.173003 0)
(0.0598808 -0.13302 0)
(0.0279797 -0.0854297 0)
(0.004469 -0.042991 0)
(-0.0084224 -0.0160846 0)
(-0.0120896 -0.00584259 0)
(-0.0129678 -0.00515926 0)
(-0.0148683 -0.00844616 0)
(-0.0185697 -0.0119204 0)
(-0.023191 -0.0142205 0)
(-0.0276536 -0.0154864 0)
(-0.0311251 -0.0161766 0)
(-0.0330541 -0.0167784 0)
(-0.0335867 -0.0177675 0)
(-0.0333007 -0.0188764 0)
(-0.0324874 -0.0194961 0)
(-0.0310349 -0.0189959 0)
(-0.0284928 -0.0167164 0)
(-0.023703 -0.0118512 0)
(-0.0127076 -0.00360867 0)
(-0.000996407 0.00692609 0)
(0.0114627 0.0167955 0)
(0.0232212 0.0241163 0)
(0.0416204 0.0320565 0)
(0.0564133 0.0261107 0)
(0.0803607 0.00698051 0)
(0.15044 0.0540482 0)
(-0.485099 0.230811 0)
(1.09632 0.444525 0)
(0.519375 0.297173 0)
(0.56181 0.332547 0)
(0.575484 0.291897 0)
(0.519858 0.228548 0)
(0.454801 0.155721 0)
(0.412064 0.0785534 0)
(0.372122 -0.00306449 0)
(0.324446 -0.0765167 0)
(0.272462 -0.128397 0)
(0.217706 -0.15293 0)
(0.160589 -0.150161 0)
(0.101785 -0.127447 0)
(0.0451285 -0.0911511 0)
(-0.00124285 -0.0498517 0)
(-0.0297604 -0.0204436 0)
(-0.0420785 -0.00786082 0)
(-0.0467115 -0.0038283 0)
(-0.0486575 -0.00428071 0)
(-0.0506651 -0.00662834 0)
(-0.0535676 -0.00921682 0)
(-0.0571109 -0.0114136 0)
(-0.0608268 -0.0131903 0)
(-0.064411 -0.0146675 0)
(-0.0678183 -0.0159685 0)
(-0.0713157 -0.0171429 0)
(-0.0752893 -0.0179415 0)
(-0.0800347 -0.0179045 0)
(-0.0858075 -0.0164593 0)
(-0.0929853 -0.012917 0)
(-0.102196 -0.00640501 0)
(-0.114025 0.00379824 0)
(-0.126011 0.0173544 0)
(-0.143572 0.0342469 0)
(-0.172612 0.0542027 0)
(-0.21571 0.0751854 0)
(-0.274883 0.0916141 0)
(-0.338436 0.0992995 0)
(-0.416248 0.0973657 0)
(-0.700205 0.0847625 0)
(0.598525 -0.289286 0)
(0.534074 -0.00436605 0)
(0.470304 0.114132 0)
(0.410764 0.121585 0)
(0.36688 0.0745022 0)
(0.330422 0.0125044 0)
(0.28945 -0.0416265 0)
(0.23591 -0.0773359 0)
(0.177134 -0.0930707 0)
(0.11542 -0.0864036 0)
(0.0510196 -0.0657859 0)
(-0.0132211 -0.0364393 0)
(-0.0501958 -0.0168535 0)
(-0.0677332 -0.00927985 0)
(-0.0753127 -0.00790514 0)
(-0.0783793 -0.00883376 0)
(-0.0799156 -0.0104151 0)
(-0.0812894 -0.0122664 0)
(-0.0831081 -0.0141427 0)
(-0.0854779 -0.0158924 0)
(-0.0883902 -0.017474 0)
(-0.0919286 -0.0188725 0)
(-0.0962813 -0.0200512 0)
(-0.101678 -0.0208851 0)
(-0.108257 -0.0210424 0)
(-0.115922 -0.0199527 0)
(-0.124237 -0.0168405 0)
(-0.13235 -0.010843 0)
(-0.139191 -0.00111551 0)
(-0.143826 0.0119089 0)
(-0.14724 0.0288698 0)
(-0.150252 0.0501818 0)
(-0.154652 0.0746564 0)
(-0.161458 0.0975558 0)
(-0.166562 0.107198 0)
(-0.151068 0.0801346 0)
(-0.104904 -0.0308148 0)
(-0.292866 -0.24286 0)
(0.0925466 0.449391 0)
(-0.0791991 0.299214 0)
(-0.00309065 0.246687 0)
(0.0446714 0.18031 0)
(0.0743307 0.112385 0)
(0.0830265 0.0539252 0)
(0.0813531 0.0134955 0)
(0.0634232 -0.0168274 0)
(0.0289023 -0.0250104 0)
(-0.0206625 0.00526228 0)
(-0.0622643 0.0314054 0)
(-0.0881716 0.0439391 0)
(-0.0992052 0.0491766 0)
(-0.102464 0.0514281 0)
(-0.10286 0.0530507 0)
(-0.102578 0.0541261 0)
(-0.10242 0.0536239 0)
(-0.102698 0.0531122 0)
(-0.103534 0.0529709 0)
(-0.104911 0.0530894 0)
(-0.10676 0.0534194 0)
(-0.109012 0.0539135 0)
(-0.11162 0.0544178 0)
(-0.114553 0.054686 0)
(-0.117764 0.0544424 0)
(-0.121158 0.053405 0)
(-0.124573 0.0512546 0)
(-0.127594 0.0474619 0)
(-0.129085 0.043675 0)
(-0.127291 0.0431081 0)
(-0.120333 0.0476772 0)
(-0.106916 0.0587892 0)
(-0.0876243 0.0765226 0)
(-0.0640977 0.0962479 0)
(-0.0389627 0.109404 0)
(0.00266522 0.0965805 0)
(0.144981 0.0151203 0)
(-0.203829 -0.161016 0)
(-0.755204 -0.746057 0)
(-0.915971 -0.18812 0)
(-0.717773 0.247764 0)
(-0.601886 0.128537 0)
(-0.397863 0.0872084 0)
(-0.258502 0.0368067 0)
(-0.156214 -0.0283766 0)
(-0.0983881 -0.0989828 0)
(-0.0826862 -0.143236 0)
(-0.0923167 -0.141533 0)
(-0.117408 -0.135493 0)
(-0.12979 -0.129288 0)
(-0.128817 -0.125704 0)
(-0.123112 -0.127584 0)
(-0.116703 -0.136075 0)
(-0.111568 -0.146859 0)
(-0.108301 -0.156459 0)
(-0.106569 -0.163946 0)
(-0.10632 -0.16886 0)
(-0.107552 -0.17279 0)
(-0.109966 -0.175867 0)
(-0.113274 -0.178065 0)
(-0.117209 -0.179328 0)
(-0.121478 -0.179547 0)
(-0.125779 -0.178522 0)
(-0.129806 -0.175942 0)
(-0.133223 -0.171395 0)
(-0.135631 -0.164357 0)
(-0.136581 -0.154161 0)
(-0.135598 -0.139956 0)
(-0.131868 -0.123008 0)
(-0.123179 -0.104137 0)
(-0.106108 -0.0835249 0)
(-0.0779679 -0.060523 0)
(-0.0397466 -0.0342618 0)
(0.024448 -0.00121377 0)
(0.0819708 0.00125463 0)
(0.136383 -0.0251851 0)
(0.189884 -0.078887 0)
(-0.14601 -0.156497 0)
)
;

boundaryField
{
    floor
    {
        type            noSlip;
    }
    ceiling
    {
        type            noSlip;
    }
    sWall
    {
        type            noSlip;
    }
    nWall
    {
        type            noSlip;
    }
    sideWalls
    {
        type            empty;
    }
    glass1
    {
        type            noSlip;
    }
    glass2
    {
        type            noSlip;
    }
    sun
    {
        type            noSlip;
    }
    Table_master
    {
        type            noSlip;
    }
    Table_slave
    {
        type            noSlip;
    }
    inlet
    {
        type            fixedValue;
        value           uniform (0.707107 -0.707107 0);
    }
    outlet
    {
        type            zeroGradient;
    }
}


// ************************************************************************* //
