/*--------------------------------*- C++ -*----------------------------------*\
  =========                 |
  \\      /  F ield         | OpenFOAM: The Open Source CFD Toolbox
   \\    /   O peration     | Website:  https://openfoam.org
    \\  /    A nd           | Version:  6
     \\/     M anipulation  |
\*---------------------------------------------------------------------------*/
FoamFile
{
    version     2.0;
    format      ascii;
    class       volScalarField;
    location    "2200";
    object      k;
}
// * * * * * * * * * * * * * * * * * * * * * * * * * * * * * * * * * * * * * //

dimensions      [0 2 -2 0 0 0 0];

internalField   nonuniform List<scalar> 
458
(
0.00265584
0.00321337
0.00337437
0.00372722
0.00407912
0.00443833
0.0048257
0.00512265
0.00528071
0.00526288
0.0050542
0.00465442
0.00405621
0.00307241
0.00195557
0.000514455
0.000736411
0.000997786
0.0011163
0.00108598
0.000946157
0.000803948
0.000687183
0.000594021
0.000519146
0.000458343
0.000408228
0.000366503
0.000330659
0.000298366
0.000267132
0.000239422
0.000195034
0.00477278
0.00891861
0.00546571
0.00586616
0.00649753
0.0072404
0.00802682
0.00876061
0.00927814
0.00946359
0.00927478
0.00872631
0.00788638
0.00671374
0.00540617
0.0035029
0.00240336
0.00151511
0.000505769
0.00119935
0.00167868
0.00191299
0.00193156
0.00162906
0.00131034
0.00105698
0.0008657
0.000720623
0.000609141
0.000522094
0.000450886
0.000390482
0.000345362
0.000316798
0.000430474
0.000273169
0.00696944
0.0158322
0.0067581
0.00663324
0.00725647
0.00813452
0.00912272
0.00999823
0.0105778
0.0107966
0.0106425
0.0101174
0.00927155
0.00818819
0.00700881
0.00577025
0.00462002
0.00249674
0.00135701
0.00182237
0.00217429
0.00237404
0.00235468
0.00178853
0.00133135
0.00100907
0.000783912
0.000624507
0.000509475
0.000424836
0.00036282
0.000319572
0.000294904
0.000293371
0.000588065
0.000340667
0.00943826
0.0252099
0.00851924
0.00704165
0.00757853
0.00867239
0.00992713
0.0108493
0.0113714
0.011553
0.0114015
0.0108595
0.0100147
0.00896517
0.00784375
0.0067888
0.00575661
0.00433774
0.00346659
0.00311736
0.00310853
0.00317478
0.00316209
0.00298268
0.00231976
0.00189187
0.00160971
0.0014052
0.00124051
0.00110356
0.000980036
0.000860015
0.000734305
0.000535313
0.000410771
0.000786547
0.000422269
0.0123381
0.0375004
0.0125745
0.00807152
0.00839882
0.0100328
0.0114163
0.0121221
0.0124332
0.0124938
0.0122671
0.0116667
0.0106984
0.00947523
0.0082003
0.0070604
0.00609468
0.00531043
0.00502751
0.00473514
0.00451644
0.00430367
0.00402161
0.00364325
0.00319955
0.00284442
0.00258443
0.00236722
0.00215782
0.00192924
0.0016801
0.00141577
0.00114605
0.000862081
0.000629792
0.000727077
0.000700635
0.000716213
0.000886659
0.00107088
0.0158397
0.0505235
0.0220169
0.012169
0.0118275
0.0136521
0.0141131
0.0141029
0.0140181
0.013888
0.0135378
0.0127795
0.0115626
0.0100244
0.0084462
0.00710016
0.0061495
0.0056565
0.00556208
0.00550727
0.00532797
0.00499282
0.00453553
0.00401528
0.00353638
0.00319331
0.00294726
0.00273422
0.00251902
0.002279
0.0020085
0.00171849
0.00142345
0.00113382
0.000896316
0.000794272
0.000791391
0.000799822
0.00136767
0.00114668
0.0192323
0.0584665
0.0366775
0.0243638
0.0217268
0.0195477
0.017846
0.0167536
0.0161793
0.0158232
0.0152846
0.014255
0.0126584
0.0106826
0.00873197
0.00718591
0.00626301
0.0059518
0.00596836
0.0059137
0.00563617
0.00516821
0.00459901
0.00402439
0.00354893
0.00322751
0.00300923
0.00283218
0.00266629
0.00249837
0.0023056
0.00208018
0.00183529
0.00158269
0.0013794
0.00125865
0.00126724
0.00141466
0.00186902
0.00161453
0.0198004
0.0546091
0.0407558
0.0330094
0.0273881
0.0232074
0.0205863
0.0192661
0.018744
0.018385
0.0175947
0.0160637
0.013821
0.0111831
0.00879608
0.00712264
0.00627918
0.00603952
0.00598055
0.00578384
0.00536685
0.00481193
0.0042253
0.00369839
0.00329667
0.00303
0.00285711
0.00274223
0.00267387
0.0026538
0.00268398
0.00272796
0.0027449
0.00275906
0.00287107
0.00329343
0.00419309
0.00543852
0.0101747
0.00383838
0.0186845
0.0256345
0.0240049
0.0215325
0.0201582
0.0200533
0.0207579
0.0217642
0.0224435
0.0221294
0.0204401
0.0176036
0.0140962
0.0103777
0.00785169
0.00654122
0.00592681
0.0056508
0.00542531
0.0050929
0.00464065
0.00412278
0.00361847
0.00318894
0.00286437
0.00264049
0.00249493
0.00241282
0.00239121
0.00243128
0.00253161
0.00269351
0.00292641
0.00324695
0.00367523
0.0041968
0.00470906
0.00507506
0.00528122
0.00349481
0.00582574
0.0180883
0.0259223
0.0296447
0.031137
0.0306896
0.0280831
0.0236595
0.0181606
0.013574
0.0101164
0.00775439
0.00634095
0.00557275
0.00514469
0.00484211
0.00452553
0.00414496
0.00372442
0.00331249
0.00294492
0.00264014
0.00239879
0.00221173
0.0020728
0.00198449
0.00195526
0.00199298
0.00210532
0.00229706
0.00256667
0.0029133
0.00332115
0.00372934
0.00401215
0.00404906
0.00383915
0.00251559
0.00855053
0.0280303
0.0298009
0.0276308
0.0251919
0.0221161
0.0185464
0.0147753
0.0112795
0.00859277
0.00675665
0.00561437
0.00494984
0.00457135
0.00433868
0.00415923
0.00397868
0.00377912
0.00356902
0.00336455
0.00317514
0.00300147
0.00283922
0.00268452
0.00253892
0.00241127
0.00231539
0.00226824
0.00228605
0.00238255
0.00256795
0.0028439
0.0031881
0.00354127
0.00377081
0.00403283
0.0042788
0.00265366
0.00632246
0.00741434
0.00825856
0.00976131
0.00913387
0.00870556
0.00811505
0.00720694
0.00612002
0.00500486
0.00400607
0.00324778
0.00273843
0.00241299
0.0022014
0.00205228
0.00193204
0.00182024
0.0017085
0.00159881
0.00149765
0.00140975
0.00133624
0.0012762
0.00122892
0.0011954
0.00117827
0.00118111
0.00120766
0.0012603
0.0013409
0.00145153
0.00159512
0.00177494
0.00199124
0.00225125
0.00237572
0.00226462
0.00200296
0.0017782
)
;

boundaryField
{
    floor
    {
        type            kqRWallFunction;
        value           nonuniform List<scalar> 
36
(
0.00195557
0.000514455
0.000736411
0.000997786
0.0011163
0.00108598
0.000946157
0.000803948
0.000687183
0.000594021
0.000519146
0.000458343
0.000408228
0.000366503
0.000330659
0.000298366
0.000267132
0.000239422
0.000195034
0.000195034
0.000273169
0.000340667
0.000422269
0.000716213
0.000886659
0.00107088
0.00195557
0.0035029
0.00240336
0.00151511
0.000514455
0.00151511
0.000505769
0.00249674
0.00135701
0.00346659
)
;
    }
    ceiling
    {
        type            kqRWallFunction;
        value           nonuniform List<scalar> 
43
(
0.00632246
0.00741434
0.00825856
0.00976131
0.00913387
0.00870556
0.00811505
0.00720694
0.00612002
0.00500486
0.00400607
0.00324778
0.00273843
0.00241299
0.0022014
0.00205228
0.00193204
0.00182024
0.0017085
0.00159881
0.00149765
0.00140975
0.00133624
0.0012762
0.00122892
0.0011954
0.00117827
0.00118111
0.00120766
0.0012603
0.0013409
0.00145153
0.00159512
0.00177494
0.00199124
0.00225125
0.00237572
0.00226462
0.00200296
0.0017782
0.0186845
0.0256345
0.00855053
)
;
    }
    sWall
    {
        type            kqRWallFunction;
        value           uniform 0.00632246;
    }
    nWall
    {
        type            kqRWallFunction;
        value           nonuniform List<scalar> 6(0.00107088 0.00114668 0.00161453 0.00251559 0.00265366 0.0017782);
    }
    sideWalls
    {
        type            empty;
    }
    glass1
    {
        type            kqRWallFunction;
        value           nonuniform List<scalar> 9(0.00265584 0.00477278 0.00696944 0.00943826 0.0123381 0.0158397 0.0192323 0.0198004 0.0186845);
    }
    glass2
    {
        type            kqRWallFunction;
        value           nonuniform List<scalar> 2(0.00383838 0.00349481);
    }
    sun
    {
        type            kqRWallFunction;
        value           nonuniform List<scalar> 
14
(
0.00265584
0.00321337
0.00337437
0.00372722
0.00407912
0.00443833
0.0048257
0.00512265
0.00528071
0.00526288
0.0050542
0.00465442
0.00405621
0.00307241
)
;
    }
    Table_master
    {
        type            kqRWallFunction;
        value           nonuniform List<scalar> 9(0.00178853 0.00133135 0.00100907 0.000783912 0.000624507 0.000509475 0.000424836 0.00036282 0.000319572);
    }
    Table_slave
    {
        type            kqRWallFunction;
        value           nonuniform List<scalar> 9(0.00231976 0.00189187 0.00160971 0.0014052 0.00124051 0.00110356 0.000980036 0.000860015 0.000734305);
    }
    inlet
    {
        type            turbulentIntensityKineticEnergyInlet;
        intensity       0.05;
        value           uniform 0.0003375;
    }
    outlet
    {
        type            zeroGradient;
    }
}


// ************************************************************************* //
