/*--------------------------------*- C++ -*----------------------------------*\
  =========                 |
  \\      /  F ield         | OpenFOAM: The Open Source CFD Toolbox
   \\    /   O peration     | Website:  https://openfoam.org
    \\  /    A nd           | Version:  6
     \\/     M anipulation  |
\*---------------------------------------------------------------------------*/
FoamFile
{
    version     2.0;
    format      ascii;
    class       surfaceScalarField;
    location    "2600";
    object      phi;
}
// * * * * * * * * * * * * * * * * * * * * * * * * * * * * * * * * * * * * * //

dimensions      [1 0 -1 0 0 0 0];

internalField   nonuniform List<scalar> 
850
(
-0.00275073
0.00280689
-0.00354961
0.000798898
-0.004216
0.000666401
-0.0047882
0.000572218
-0.00523542
0.000447246
-0.00554156
0.000306151
-0.00568892
0.000147376
-0.00565541
-3.3485e-05
-0.0054155
-0.000239891
-0.00495734
-0.000458146
-0.00429723
-0.000660095
-0.00347584
-0.00082137
-0.00253125
-0.000944576
-0.00143192
-0.00109931
-0.00143075
-0.000360318
0.000362703
0.000112421
-0.000472721
0.000646038
-0.000533598
0.00100479
-0.000358734
0.00122871
-0.000223899
0.00134139
-0.000112663
0.00138503
-4.36205e-05
0.00140179
-1.67413e-05
0.00140654
-4.73162e-06
0.00140293
3.62762e-06
0.00139238
1.05722e-05
0.00137331
1.90859e-05
0.00133786
3.54675e-05
0.00126506
7.28201e-05
0.00112044
0.000144641
0.000892467
0.000227994
0.000628687
0.0002638
0.000631893
-0.00196734
0.00492446
-0.00282635
0.00165793
-0.0035464
0.00138647
-0.00411792
0.00114375
-0.00455907
0.000888414
-0.00486834
0.000615442
-0.0050309
0.000309953
-0.00502331
-4.10585e-05
-0.00482495
-0.000438231
-0.00443386
-0.000849215
-0.00388036
-0.00121359
-0.00321909
-0.00148262
-0.00252047
-0.00164318
-0.00192254
-0.00169722
-0.00185118
-0.00150209
-0.00099091
-0.000858023
-0.000536508
-0.000451813
-0.000529103
0.00070142
-0.000333094
0.000964276
-0.000735559
0.0011248
-0.000694102
0.00129393
-0.000527845
0.00142253
-0.000352477
0.00144194
-0.00013206
0.00144188
-4.35437e-05
0.00144381
-1.86483e-05
0.00144568
-6.58594e-06
0.00144613
3.19971e-06
0.00144513
1.15926e-05
0.00144216
2.20721e-05
0.00143401
4.36333e-05
0.00139342
0.000113432
0.00122904
0.00030904
0.000941567
0.000515489
0.000577728
0.000627659
0.00121781
-0.00139806
0.00655083
-0.00218887
0.00244875
-0.00283786
0.00203547
-0.00332843
0.00163434
-0.0037152
0.0012752
-0.00399943
0.000899691
-0.00416045
0.000470992
-0.00416588
-3.56181e-05
-0.00398432
-0.000619772
-0.00361922
-0.0012143
-0.0031139
-0.00171889
-0.002532
-0.00206451
-0.0019478
-0.00222736
-0.00145151
-0.00219349
-0.00104689
-0.00190669
-0.000516822
-0.00138807
-7.00265e-05
-0.000898592
-0.00059307
0.00100606
-0.0013321
0.0012428
-0.000972273
0.00130394
-0.000755224
0.00137845
-0.000602342
0.00150349
-0.000477498
0.0013716
0.00132823
0.00130975
0.00130334
0.00130671
0.00131847
0.00134072
0.00138452
0.00149813
0.00125915
0.000548033
0.000951107
0.000823555
0.000525428
0.00105336
0.00175569
-0.00100351
0.00784803
-0.00167926
0.00312452
-0.00210881
0.00246504
-0.00244256
0.00196811
-0.00272122
0.00155388
-0.0029405
0.00111899
-0.00307408
0.000604588
-0.00307471
-3.4973e-05
-0.00289177
-0.000802695
-0.00254336
-0.00156269
-0.00209388
-0.00216835
-0.00160976
-0.00254861
-0.0011476
-0.0026895
-0.000743349
-0.00259773
-0.000367074
-0.00228295
6.08503e-05
-0.00181598
0.000497458
-0.00133518
0.000899748
-0.000995342
0.00167423
-0.000767658
0.00127163
-0.000929484
0.00122146
-0.000922077
0.00121745
-0.000751198
0.00121528
-0.000600154
0.00118042
-0.000442621
0.00140941
-0.000229126
0.00157138
-0.0001621
0.00171181
-0.000140572
0.00183321
-0.00012153
0.00192145
-8.83774e-05
0.00195215
-3.08294e-05
0.00189602
5.5997e-05
0.00172017
0.000175712
0.00137152
0.000348516
0.00122107
0.000698502
0.000933391
0.00111125
0.000494575
0.00149219
0.00226645
-0.000726382
0.00892291
-0.00128313
0.00368129
-0.00137367
0.0025556
-0.00148084
0.00207529
-0.00160189
0.00167495
-0.00170734
0.00122446
-0.00176646
0.000663729
-0.0017219
-7.95159e-05
-0.00151145
-0.00101313
-0.00118956
-0.00188456
-0.000833578
-0.00252431
-0.000494058
-0.00288811
-0.000199757
-0.00298379
4.48633e-05
-0.00284233
0.000266178
-0.00250425
0.000499703
-0.00204949
0.000747026
-0.00158249
0.000958976
-0.00120728
0.00114414
-0.000952805
0.00109422
-0.000879548
0.000991237
-0.000819074
0.000937716
-0.00069766
0.000914356
-0.000576775
0.000932465
-0.000460711
0.00105225
-0.000348892
0.00118019
-0.000290018
0.00130414
-0.000264514
0.0014213
-0.00023867
0.00152199
-0.000189044
0.00158762
-9.6446e-05
0.00159304
5.06016e-05
0.00152235
0.000246415
0.00138235
0.000488533
0.00125362
0.00082725
0.00112055
0.00124434
0.000867958
0.00174481
0.00103669
0.00209774
-0.00094655
0.0019979
-0.00159315
0.000659666
-0.00153466
-0.000651431
0.00996883
-0.00107358
0.00410346
-0.000683222
0.00216525
-0.000444006
0.00183609
-0.00037301
0.00160397
-0.000339632
0.0011911
-0.000264006
0.00058812
-9.35505e-05
-0.000249955
0.000156041
-0.00126271
0.000407836
-0.00213634
0.000611297
-0.00272775
0.000747389
-0.00302418
0.000816945
-0.00305332
0.000835963
-0.00286133
0.000836715
-0.00250498
0.000843625
-0.00205638
0.0008601
-0.00159895
0.000862104
-0.00120926
0.000839516
-0.0009302
0.000746129
-0.000786144
0.000624703
-0.00069763
0.000541307
-0.000614246
0.00050476
-0.00054021
0.000519814
-0.000475747
0.000591779
-0.00042084
0.000691867
-0.000390088
0.00080181
-0.000374439
0.00091589
-0.000352732
0.00103055
-0.000303688
0.00113806
-0.000203935
0.00121667
-2.79926e-05
0.00125016
0.000212946
0.00125459
0.000484116
0.00128091
0.000800952
0.00137975
0.00114551
0.00157631
0.00154827
0.00190696
0.0017671
0.00216679
0.00173809
0.00168495
0.00114153
0.000206467
-0.000764175
0.0111687
-0.000717064
0.00405637
0.000338247
0.00110996
0.000905662
0.0012687
0.00110972
0.00139993
0.0012716
0.00102923
0.00152272
0.000337016
0.00182665
-0.000553863
0.00205491
-0.00149095
0.00215753
-0.00223895
0.00213591
-0.00270611
0.00200731
-0.00289556
0.00180118
-0.00284718
0.0015512
-0.00261133
0.00129234
-0.00224611
0.00104983
-0.00181386
0.00083411
-0.0013832
0.000639748
-0.00101488
0.000468337
-0.000758771
0.000302766
-0.000620556
0.000159475
-0.000554321
6.00848e-05
-0.000514838
8.82028e-06
-0.000488928
3.55275e-06
-0.000470462
3.94636e-05
-0.000456733
0.000100814
-0.000451421
0.000175244
-0.000448851
0.000260372
-0.000437843
0.000360312
-0.000403609
0.00048157
-0.000325176
0.000627809
-0.000174214
0.0007752
6.55732e-05
0.000915653
0.00034368
0.00109332
0.000623304
0.00135068
0.000888169
0.0017279
0.00117107
0.0022327
0.00126233
0.00289408
0.00107673
0.00301485
0.00102077
0.00328223
0.00235987
0.00929584
0.0029797
0.00343656
0.00339337
0.000696298
0.00354285
0.00111923
0.00358166
0.00136113
0.00370485
0.000906056
0.00393914
0.000102742
0.00415356
-0.000768258
0.00417337
-0.00151074
0.00397312
-0.00203868
0.00359858
-0.00233156
0.00311118
-0.00240815
0.00256764
-0.00230362
0.00201407
-0.00205774
0.00148746
-0.00171947
0.00101022
-0.00133661
0.000597979
-0.000970951
0.000253594
-0.000670482
-1.34691e-05
-0.000491691
-0.000216578
-0.00041743
-0.000367249
-0.000403632
-0.000473915
-0.000408154
-0.000543769
-0.000419056
-0.000583269
-0.000430944
-0.000598437
-0.000441548
-0.000598783
-0.000451058
-0.000590998
-0.000456618
-0.000575948
-0.000452875
-0.000547517
-0.000432022
-0.000489537
-0.000383139
-0.000371736
-0.000291997
-0.000171629
-0.000134516
7.22257e-05
9.98434e-05
0.000349122
0.000346426
0.000675209
0.0005621
0.00107939
0.000766908
0.00153718
0.000804555
0.00194432
0.000669598
0.00129001
0.00167511
0.00480908
0.00982686
0.0132531
0.0124688
0.00148062
0.0108632
0.00272487
0.00973424
0.0024901
0.00894258
0.00169773
0.00820326
0.000842082
0.00738277
5.22458e-05
0.00646991
-0.000597872
0.00551232
-0.00108106
0.00455118
-0.0013704
0.00361817
-0.00147512
0.00273755
-0.00142297
0.00192711
-0.00124729
0.0012066
-0.000998949
0.000581848
-0.000711837
6.65865e-05
-0.000455673
-0.000314739
-0.000289139
-0.000573887
-0.000232525
-0.000758947
-0.000232353
-0.000906509
-0.000256052
-0.00102767
-0.00028698
-0.0011296
-0.000317101
-0.00121802
-0.000342512
-0.0012982
-0.000361349
-0.00137711
-0.000372132
-0.00146209
-0.000371617
-0.00156061
-0.000354334
-0.00168068
-0.000311936
-0.00183163
-0.000232179
-0.00202238
-0.000101226
-0.00224783
9.09517e-05
-0.00250652
0.000358557
-0.00286731
0.000707225
-0.00344437
0.00113918
-0.00431741
0.00163997
-0.00561693
0.00210409
-0.00720112
0.00225381
-0.00689524
0.00136925
-0.00182522
0.00315678
0.00282349
0.00402527
0.00185639
0.00528631
0.00122907
0.00556466
0.0014194
0.00536097
0.0010458
0.00499727
0.000415959
0.00452454
-0.000125115
0.00391724
-0.000473743
0.00320498
-0.000658126
0.00243735
-0.000707482
0.00166431
-0.000649914
0.000923966
-0.000506929
0.000253748
-0.000328716
-0.000298954
-0.000159119
-0.000690813
-6.37977e-05
-0.000940214
-3.97217e-05
-0.00111495
-5.77674e-05
-0.00125592
-9.13736e-05
-0.00138937
-0.000122581
-0.00152238
-0.000153955
-0.00165738
-0.000182076
-0.00179507
-0.000204804
-0.00193574
-0.000220665
-0.00208005
-0.000227809
-0.00222858
-0.00022307
-0.00238123
-0.000201661
-0.002536
-0.000157145
-0.00268745
-8.07176e-05
-0.00282814
3.94888e-05
-0.00294572
0.000208548
-0.00303781
0.000450657
-0.00311622
0.000785661
-0.00318392
0.00120689
-0.00321711
0.00167318
-0.00318957
0.00207656
-0.0029493
0.00201356
-0.00165892
7.88889e-05
-0.0034156
-0.000328747
0.00320907
0.00064096
0.000886696
0.00104494
0.000825104
0.00153639
0.000927966
0.00185877
0.000723427
0.00193297
0.000341776
0.00179537
1.25019e-05
0.00148788
-0.000166239
0.0010462
-0.000216433
0.000522506
-0.000183773
-1.31927e-05
-0.000114202
-0.000490168
-2.99396e-05
-0.000858431
3.95634e-05
-0.00109583
7.8298e-05
-0.00123921
7.95997e-05
-0.00133554
5.66245e-05
-0.00142048
2.71874e-05
-0.00151254
7.02492e-07
-0.00161655
-1.85535e-05
-0.00173784
-3.26463e-05
-0.00187677
-4.31285e-05
-0.00203077
-5.07907e-05
-0.00219516
-5.62523e-05
-0.00236332
-5.96376e-05
-0.00252632
-6.00526e-05
-0.00267279
-5.51644e-05
-0.0027889
-4.10262e-05
-0.00285684
-1.27577e-05
-0.00286056
4.32296e-05
-0.00279606
0.000144064
-0.00263852
0.000293139
-0.00235876
0.000505918
-0.00193532
0.000783466
-0.00133759
0.00107547
-0.000397441
0.00113643
0.000995854
0.000620284
0.00162883
-0.000554071
-0.001712
-0.00558657
-0.00821781
-0.00497186
-0.00406986
-0.00323504
-0.00230063
-0.00157318
-0.00122961
-0.00121775
-0.00138664
-0.00160742
-0.00179694
-0.0019181
-0.00195612
-0.00192565
-0.00185744
-0.00178881
-0.00174382
-0.00172871
-0.00174042
-0.00177163
-0.00181717
-0.00187343
-0.00193762
-0.00200751
-0.00208099
-0.00215504
-0.00222426
-0.00227928
-0.00230588
-0.00227621
-0.00214534
-0.001865
-0.00137148
-0.000599991
0.000463884
0.00158885
0.00219744
0.00163113
)
;

boundaryField
{
    floor
    {
        type            calculated;
        value           nonuniform List<scalar> 
36
(
0
0
0
0
0
0
0
0
0
0
0
0
0
0
0
0
0
0
0
-3.18537e-06
-8.16716e-06
-1.24376e-05
-1.61585e-05
-1.46454e-05
-1.30424e-05
-1.21893e-05
-1.15e-06
-2.2261e-06
-2.57068e-06
-2.92417e-06
-2.36666e-06
-4.46261e-06
-5.60479e-06
-6.04261e-06
-7.03794e-06
-6.8105e-06
)
;
    }
    ceiling
    {
        type            calculated;
        value           nonuniform List<scalar> 
43
(
-4.0116e-05
-3.85424e-05
-3.68647e-05
-1.53015e-05
-9.70096e-06
-6.43196e-06
-4.00974e-06
-1.78961e-06
6.55133e-07
2.66416e-06
4.36028e-06
5.76449e-06
6.97094e-06
8.09436e-06
9.10986e-06
1.01051e-05
1.09915e-05
1.16468e-05
1.20987e-05
1.24272e-05
1.26707e-05
1.29083e-05
1.31554e-05
1.34096e-05
1.36551e-05
1.38661e-05
1.40128e-05
1.40694e-05
1.40192e-05
1.38552e-05
1.35722e-05
1.32148e-05
1.28218e-05
1.24086e-05
1.1999e-05
1.161e-05
1.14778e-05
1.17091e-05
1.22558e-05
1.36241e-05
1.36976e-05
1.03122e-05
-5.68417e-05
)
;
    }
    sWall
    {
        type            calculated;
        value           uniform -0.000266304;
    }
    nWall
    {
        type            calculated;
        value           nonuniform List<scalar> 6(-4.62899e-05 -5.61533e-05 -6.08918e-05 -6.85276e-05 -7.47484e-05 -9.44719e-05);
    }
    sideWalls
    {
        type            empty;
        value           nonuniform 0();
    }
    glass1
    {
        type            calculated;
        value           nonuniform List<scalar> 9(-5.61341e-05 -0.000150212 -0.000228299 -0.000293667 -0.000348481 -0.000394481 -0.000435699 -0.000486968 -0.000544702);
    }
    glass2
    {
        type            calculated;
        value           nonuniform List<scalar> 2(-0.000236825 -0.000260926);
    }
    sun
    {
        type            calculated;
        value           uniform 0;
    }
    Table_master
    {
        type            calculated;
        value           nonuniform List<scalar> 9(-1.52675e-07 -1.52752e-07 -1.52778e-07 -1.52795e-07 -1.52805e-07 -1.5281e-07 -1.5281e-07 -1.52803e-07 -1.52772e-07);
    }
    Table_slave
    {
        type            calculated;
        value           nonuniform List<scalar> 9(1.52639e-07 1.52624e-07 1.52582e-07 1.52545e-07 1.52519e-07 1.52514e-07 1.52521e-07 1.5255e-07 1.5262e-07);
    }
    inlet
    {
        type            calculated;
        value           uniform -0.00449964;
    }
    outlet
    {
        type            calculated;
        value           nonuniform List<scalar> 2(0.005893 0.00266979);
    }
}


// ************************************************************************* //
