/*--------------------------------*- C++ -*----------------------------------*\
  =========                 |
  \\      /  F ield         | OpenFOAM: The Open Source CFD Toolbox
   \\    /   O peration     | Website:  https://openfoam.org
    \\  /    A nd           | Version:  6
     \\/     M anipulation  |
\*---------------------------------------------------------------------------*/
FoamFile
{
    version     2.0;
    format      ascii;
    class       volScalarField;
    location    "1200";
    object      nut;
}
// * * * * * * * * * * * * * * * * * * * * * * * * * * * * * * * * * * * * * //

dimensions      [0 2 -1 0 0 0 0];

internalField   nonuniform List<scalar> 
458
(
0.00108156
0.00118031
0.00121044
0.00126961
0.00132426
0.00137627
0.00142866
0.00148144
0.00152479
0.00155239
0.0015563
0.0015285
0.00145841
0.00129744
0.000998309
0.000493464
0.000584331
0.00067418
0.000712944
0.000706615
0.00066442
0.000616436
0.000573094
0.000535322
0.000502351
0.00047344
0.000448052
0.000425432
0.000404689
0.000384814
0.000364396
0.00034692
0.000314035
0.00144537
0.00330734
0.0030711
0.00352194
0.00398003
0.00444939
0.00486682
0.00519778
0.00553877
0.00586088
0.00612424
0.0062893
0.00631246
0.00607245
0.004843
0.00131808
0.00109433
0.000884321
0.000486854
0.00119273
0.00180326
0.00227292
0.00241758
0.00174074
0.00146937
0.00128739
0.00115362
0.00105133
0.000970252
0.000899797
0.000832367
0.00076323
0.000700047
0.000648125
0.000742898
0.000386931
0.00174914
0.00444907
0.00372891
0.00451192
0.00486371
0.00511276
0.00530369
0.00548529
0.00573732
0.00604963
0.00639981
0.00674636
0.00702218
0.0071065
0.00668139
0.00545523
0.00408098
0.00107257
0.000771579
0.00138125
0.00207369
0.00273798
0.00290136
0.000892716
0.000780718
0.000687742
0.000612616
0.000552114
0.000503179
0.000463543
0.000431757
0.000407574
0.000456157
0.000535285
0.000850426
0.000441427
0.00204118
0.00564172
0.00365015
0.00467911
0.00486846
0.00485269
0.00483756
0.004923
0.00512511
0.00543676
0.00584802
0.0063046
0.00670107
0.00693414
0.00689679
0.00654829
0.00561012
0.00308093
0.00123402
0.00156427
0.00222307
0.00304898
0.00376278
0.00378618
0.00100087
0.000913124
0.000853227
0.000809508
0.00077374
0.000739463
0.000706162
0.000671509
0.000631395
0.00059636
0.000587383
0.000948466
0.000502023
0.00234004
0.00723787
0.00381961
0.00445644
0.00471552
0.00455489
0.00442622
0.00449316
0.00469415
0.00501541
0.00546568
0.00596638
0.00634635
0.00654587
0.00657109
0.00647247
0.00611737
0.0051123
0.00463274
0.00473053
0.00505715
0.00542117
0.00563951
0.00553082
0.00464936
0.00419708
0.00395111
0.00378431
0.00362705
0.00343396
0.00310843
0.00266705
0.00214645
0.00163346
0.00123161
0.00108815
0.000833703
0.000616356
0.000642061
0.000646657
0.00266108
0.00904053
0.00517001
0.00415474
0.00450366
0.00449963
0.00431037
0.0043735
0.00456469
0.00488612
0.00534331
0.00583001
0.00618678
0.00631569
0.0062619
0.00617908
0.00617114
0.00614182
0.0063678
0.0067153
0.00695943
0.00701401
0.00686691
0.00653551
0.00605134
0.0056537
0.00534681
0.00508264
0.00482941
0.00456673
0.00425663
0.00383647
0.00329821
0.00267687
0.00209096
0.00158708
0.00121157
0.00120767
0.00167432
0.00085434
0.00297524
0.0103913
0.00759169
0.00508184
0.00447747
0.00455287
0.00455247
0.00454283
0.00464519
0.00494286
0.0054093
0.00590008
0.00622576
0.0062813
0.00615805
0.00612176
0.00644152
0.00699527
0.00753354
0.00784473
0.00786158
0.00762093
0.00719338
0.00665613
0.0060994
0.00563117
0.00526328
0.00496059
0.00469598
0.00445888
0.00424925
0.00406197
0.00373518
0.00327141
0.00276318
0.00227185
0.00186561
0.00169096
0.00196608
0.00106575
0.00305257
0.00958712
0.00818336
0.00693534
0.00600472
0.00557875
0.00510017
0.00479174
0.00480732
0.0051335
0.00564659
0.0061386
0.00639863
0.00635489
0.0062237
0.00641799
0.00712853
0.00767976
0.00798084
0.00799711
0.00771584
0.00720047
0.00654101
0.00584325
0.00522556
0.00476208
0.00443235
0.00418808
0.00400224
0.00386808
0.00378994
0.00377655
0.00380081
0.00358572
0.00333058
0.0031404
0.00307577
0.00298901
0.00362672
0.00139792
0.00299183
0.00360382
0.00398194
0.00418982
0.00422285
0.00416293
0.00417824
0.00438792
0.00483168
0.00544776
0.00607989
0.00651189
0.00658117
0.00634848
0.00645892
0.00686841
0.00727449
0.00743451
0.00737524
0.00707964
0.00654531
0.0058459
0.00509922
0.00443658
0.00394291
0.00361313
0.00339129
0.00323055
0.00310535
0.00300099
0.00290531
0.0028059
0.00269623
0.00259935
0.00251162
0.00244283
0.00236385
0.00224811
0.00211295
0.00135072
0.00127711
0.00224202
0.00309211
0.00379355
0.00447059
0.00519853
0.00588114
0.00646974
0.00682631
0.00678048
0.0063862
0.00606271
0.00616312
0.00634305
0.00632943
0.00613717
0.00577432
0.005248
0.00461979
0.00397346
0.00342115
0.00302229
0.00276322
0.00259853
0.00248926
0.00241301
0.00235854
0.0023203
0.00229613
0.00228754
0.00230041
0.00231333
0.00231958
0.00230631
0.00224669
0.00211188
0.00186473
0.00109578
0.00194854
0.00395467
0.00510215
0.00595761
0.00665894
0.00682237
0.00677118
0.00676715
0.00647969
0.0057517
0.00511419
0.00481659
0.00467404
0.00449412
0.00425035
0.00394044
0.00356082
0.00314679
0.00276386
0.00246281
0.00224686
0.00209819
0.00200496
0.00195283
0.00193042
0.00193143
0.00195192
0.00198825
0.0020355
0.00209531
0.00216667
0.00224341
0.00231328
0.00235445
0.00235918
0.00240637
0.00165383
0.00112777
0.00207528
0.00213019
0.00217927
0.00243854
0.00230527
0.0020532
0.00177166
0.00157455
0.00145326
0.00132033
0.00117317
0.00104004
0.000922164
0.000837881
0.000784925
0.000748103
0.000718064
0.00069024
0.000663994
0.000641759
0.00062664
0.000620255
0.000622309
0.000632068
0.000647364
0.000667097
0.000690992
0.000719003
0.000751316
0.00078845
0.000831513
0.000880495
0.000934188
0.000992841
0.00105624
0.00112129
0.00117518
0.00105436
0.000975017
0.00113054
)
;

boundaryField
{
    floor
    {
        type            nutkWallFunction;
        Cmu             0.09;
        kappa           0.41;
        E               9.8;
        value           nonuniform List<scalar> 
36
(
0.000120524
5.88751e-05
7.03847e-05
8.15515e-05
8.63127e-05
8.55376e-05
8.03476e-05
7.43972e-05
6.89739e-05
6.42067e-05
6.00115e-05
5.63047e-05
5.30263e-05
5.00856e-05
4.73715e-05
4.47543e-05
4.20475e-05
3.97151e-05
3.52839e-05
3.52838e-05
4.50328e-05
5.21655e-05
5.99678e-05
7.43851e-05
7.75795e-05
7.81488e-05
0.000120524
0.00015754
0.000131764
0.000107017
5.8875e-05
0.000107017
5.80278e-05
0.000129227
9.34559e-05
0.00014792
)
;
    }
    ceiling
    {
        type            nutkWallFunction;
        Cmu             0.09;
        kappa           0.41;
        E               9.8;
        value           nonuniform List<scalar> 
43
(
0.000241473
0.000247416
0.000252717
0.000280579
0.000266362
0.00023918
0.000208377
0.000186493
0.000172876
0.000157803
0.000140914
0.000125428
0.000111526
0.00010146
9.50759e-05
9.06066e-05
8.69414e-05
8.35299e-05
8.02969e-05
7.75457e-05
7.56683e-05
7.48735e-05
7.51288e-05
7.63414e-05
7.82381e-05
8.06773e-05
8.36193e-05
8.7053e-05
9.09942e-05
9.5499e-05
0.000100692
0.000106561
0.00011295
0.000119882
0.000127322
0.000134904
0.000141146
0.000127102
0.000117781
0.00013598
0.000339249
0.000402569
0.000227616
)
;
    }
    sWall
    {
        type            nutkWallFunction;
        Cmu             0.09;
        kappa           0.41;
        E               9.8;
        value           uniform 0.000241537;
    }
    nWall
    {
        type            nutkWallFunction;
        Cmu             0.09;
        kappa           0.41;
        E               9.8;
        value           nonuniform List<scalar> 6(7.81452e-05 0.000103433 0.000128439 0.000131946 0.000135665 0.000135989);
    }
    sideWalls
    {
        type            empty;
    }
    glass1
    {
        type            nutkWallFunction;
        Cmu             0.09;
        kappa           0.41;
        E               9.8;
        value           nonuniform List<scalar> 9(0.000130383 0.000172198 0.000206199 0.000238278 0.000270599 0.000304832 0.000337916 0.000346012 0.000339678);
    }
    glass2
    {
        type            nutkWallFunction;
        Cmu             0.09;
        kappa           0.41;
        E               9.8;
        value           nonuniform List<scalar> 2(0.000166687 0.000161326);
    }
    sun
    {
        type            nutkWallFunction;
        Cmu             0.09;
        kappa           0.41;
        E               9.8;
        value           nonuniform List<scalar> 
14
(
0.000130278
0.000141733
0.000145206
0.000152001
0.000158244
0.000164159
0.000170093
0.000176046
0.000180918
0.000184012
0.00018445
0.000181334
0.00017345
0.000155183
)
;
    }
    Table_master
    {
        type            nutkWallFunction;
        Cmu             0.09;
        kappa           0.41;
        E               9.8;
        value           nonuniform List<scalar> 9(0.000108018 9.45643e-05 8.32221e-05 7.39237e-05 6.63348e-05 6.01223e-05 5.50356e-05 5.09171e-05 4.77581e-05);
    }
    Table_slave
    {
        type            nutkWallFunction;
        Cmu             0.09;
        kappa           0.41;
        E               9.8;
        value           nonuniform List<scalar> 9(0.000120826 0.000110449 0.000103299 9.80433e-05 9.37186e-05 8.9552e-05 8.54822e-05 8.12226e-05 7.62587e-05);
    }
    inlet
    {
        type            calculated;
        value           uniform 0.000167705;
    }
    outlet
    {
        type            calculated;
        value           nonuniform List<scalar> 2(0.00207528 0.00213019);
    }
}


// ************************************************************************* //
