/*--------------------------------*- C++ -*----------------------------------*\
  =========                 |
  \\      /  F ield         | OpenFOAM: The Open Source CFD Toolbox
   \\    /   O peration     | Website:  https://openfoam.org
    \\  /    A nd           | Version:  6
     \\/     M anipulation  |
\*---------------------------------------------------------------------------*/
FoamFile
{
    version     2.0;
    format      ascii;
    class       surfaceScalarField;
    location    "1200";
    object      phi;
}
// * * * * * * * * * * * * * * * * * * * * * * * * * * * * * * * * * * * * * //

dimensions      [1 0 -1 0 0 0 0];

internalField   nonuniform List<scalar> 
850
(
-0.00302846
0.00308652
-0.00414719
0.00111873
-0.00502468
0.000877477
-0.00571248
0.000687791
-0.00617657
0.000464081
-0.00638337
0.000206788
-0.00629332
-9.00581e-05
-0.00586355
-0.000429775
-0.00508623
-0.000777336
-0.00401756
-0.00106867
-0.00277401
-0.00124356
-0.00151338
-0.00126064
-0.000427605
-0.00108578
0.000189487
-0.000617102
0.000191392
-0.000865274
0.000868173
-0.000632046
-0.000233241
2.26258e-05
-0.000654683
0.000660924
-0.00063831
0.00115497
-0.000494057
0.00143189
-0.000276934
0.00154822
-0.000116339
0.00160516
-5.69574e-05
0.00163831
-3.31667e-05
0.00165485
-1.65493e-05
0.00165852
-3.68391e-06
0.00164988
8.62829e-06
0.00162135
2.85145e-05
0.00155
7.13404e-05
0.00139702
0.000152965
0.00114162
0.000255382
0.000792215
0.000349389
0.000795903
-0.00218993
0.00543377
-0.00328264
0.00221143
-0.00419332
0.00178815
-0.00488557
0.00138003
-0.00535713
0.000935629
-0.00558486
0.000434509
-0.00552809
-0.00014684
-0.00514914
-0.000808729
-0.00445184
-0.00147465
-0.00350976
-0.00201076
-0.00244636
-0.00230697
-0.00140348
-0.00230353
-0.000506872
-0.00198239
0.000200927
-0.00132491
0.000971224
-0.000578914
0.00117892
-0.000204641
0.00092474
0.000257705
0.000935096
7.46063e-05
0.000802345
0.000499095
-0.000657742
0.000875715
-0.00103131
0.00121331
-0.000975921
0.00149206
-0.000772814
0.00155735
-0.000342234
0.00156644
-0.000125446
0.00157778
-6.83142e-05
0.00158743
-4.28263e-05
0.00159308
-2.22156e-05
0.00159558
-6.19573e-06
0.00159483
9.36787e-06
0.00158776
3.55664e-05
0.00154541
0.000113674
0.0013749
0.000323463
0.00107084
0.000559428
0.000668451
0.000751761
0.00147417
-0.00154719
0.00722249
-0.00248716
0.00315139
-0.00331008
0.00261106
-0.00392353
0.00199347
-0.00435931
0.0013714
-0.00459191
0.000667101
-0.00456377
-0.000174987
-0.00421664
-0.00115587
-0.00357397
-0.00211732
-0.00273674
-0.002848
-0.00183099
-0.00321273
-0.000973241
-0.00316129
-0.000237113
-0.00271853
0.000377897
-0.00193993
0.000883614
-0.00108464
0.00102778
-0.000348816
0.000819694
0.00046578
0.0017638
0.00138199
-0.000568743
0.00162013
-0.000895885
0.00162688
-0.00103808
0.00169771
-0.00104676
0.00194478
-0.00101989
0.00160268
0.00147738
0.0014092
0.00136652
0.00134444
0.00133839
0.00134789
0.0013836
0.00149741
0.001279
0.000541864
0.000986767
0.000851642
0.000563339
0.00117517
0.00205257
-0.00108108
0.00861721
-0.00181976
0.00389006
-0.00239137
0.00318266
-0.00282509
0.00242719
-0.00315618
0.00170248
-0.00335254
0.000863454
-0.00332598
-0.000201561
-0.00297919
-0.00150268
-0.00238742
-0.0027091
-0.00168021
-0.00355522
-0.00096655
-0.00392639
-0.000325111
-0.00380274
0.000212525
-0.00325618
0.000675011
-0.00240242
0.00105381
-0.00146345
0.00128438
-0.000579396
0.00150734
0.000242816
0.00250957
0.000761564
0.00240868
0.000110393
0.00222441
-0.000384479
0.00208596
-0.00075745
0.00192718
-0.000879308
0.00175776
-0.000877348
0.00147343
-0.000735577
0.00181184
-0.000338578
0.00198795
-0.000176275
0.002116
-0.000128215
0.00221789
-0.000102062
0.00228661
-6.88861e-05
0.00230143
-1.49849e-05
0.00223161
6.96572e-05
0.00203537
0.000196073
0.00164555
0.000389652
0.00143762
0.000749773
0.00111639
0.00117286
0.000660623
0.00163092
0.00273253
-0.00074396
0.00973625
-0.00129056
0.00443665
-0.00146103
0.00335312
-0.00162381
0.00258996
-0.00177152
0.00185017
-0.00186407
0.000955996
-0.00177368
-0.000291962
-0.0013915
-0.00188487
-0.000884017
-0.00321658
-0.000368775
-0.00407047
8.64224e-05
-0.0043816
0.000453196
-0.00416952
0.000740798
-0.00354379
0.000993048
-0.00265468
0.00121429
-0.00168471
0.00142953
-0.00079465
0.00174886
-7.65188e-05
0.00220098
0.000309433
0.00223602
7.53441e-05
0.00214277
-0.000291239
0.00193531
-0.000550001
0.00171681
-0.000660827
0.0015071
-0.000667641
0.00134641
-0.000574905
0.00139198
-0.00038416
0.00147103
-0.000255345
0.00154765
-0.000204847
0.001626
-0.000180425
0.00170149
-0.000144392
0.00175785
-7.1356e-05
0.00176981
5.76734e-05
0.00171716
0.000248709
0.00160473
0.000502071
0.00150566
0.000848827
0.00142274
0.00125576
0.00132985
0.0017238
0.00218463
0.00187773
0.00154228
0.000661224
0.00149945
6.10972e-05
0.00157384
-0.00062746
0.0107906
-0.000977396
0.00478658
-0.000590553
0.00296627
-0.000385964
0.00238536
-0.000296909
0.00176111
-0.000183329
0.000842406
0.00010749
-0.000582793
0.000505748
-0.00228313
0.000859576
-0.00357042
0.00110654
-0.00431744
0.00123468
-0.00450974
0.0012755
-0.00421034
0.00126274
-0.00353104
0.00123492
-0.00262688
0.00121715
-0.00166695
0.00124912
-0.000826627
0.00138389
-0.000211298
0.0015939
9.94069e-05
0.0016369
3.23362e-05
0.00152569
-0.000180041
0.00133551
-0.000359838
0.00113427
-0.000459595
0.000951797
-0.000485187
0.000821997
-0.00044512
0.000794198
-0.000356377
0.00083196
-0.000293124
0.000899431
-0.000272335
0.000985017
-0.000266027
0.00108447
-0.000243864
0.00119195
-0.000178851
0.00129019
-4.05798e-05
0.00136132
0.000177562
0.00141716
0.000446213
0.00150352
0.000762451
0.00167282
0.00108644
0.00195839
0.00143821
0.00226931
0.0015668
0.00185529
0.00107522
0.00104734
0.00086903
0.00267844
-0.000737276
0.0120002
-0.000581986
0.00463128
0.000528571
0.0018557
0.0010209
0.00189302
0.00131299
0.00146901
0.0017407
0.000414689
0.0022624
-0.00110451
0.00259619
-0.00261693
0.00271686
-0.00369109
0.00262967
-0.00423026
0.00237785
-0.00425792
0.00202757
-0.00386007
0.00164057
-0.00314405
0.0012744
-0.00226072
0.000966031
-0.00135859
0.000771956
-0.000632566
0.000716094
-0.000155448
0.000760669
5.48191e-05
0.000761341
3.16504e-05
0.000676354
-9.50678e-05
0.000536751
-0.00022025
0.000380294
-0.000303152
0.000235798
-0.000340707
0.000131777
-0.000341115
9.60153e-05
-0.000320632
0.000116598
-0.000313723
0.000169813
-0.000325568
0.000244243
-0.000340475
0.000340122
-0.000339761
0.000464813
-0.000303559
0.000629256
-0.000205041
0.000812919
-6.11795e-06
0.001002
0.000257113
0.00122954
0.000534893
0.00152285
0.000793115
0.00189601
0.00106503
0.00229724
0.00116555
0.00244545
0.000926998
0.00190469
0.00140977
0.0046407
0.0027034
0.00982376
0.00336701
0.00396765
0.00345591
0.0017668
0.00359273
0.00175619
0.00388312
0.00117861
0.00441531
-0.000117519
0.00486044
-0.00154964
0.00491932
-0.00267582
0.00460982
-0.00338159
0.00402493
-0.00364537
0.00327146
-0.00350445
0.00245425
-0.00304287
0.00164795
-0.00233776
0.000935404
-0.00154819
0.000358461
-0.000781661
8.86015e-06
-0.00028298
-0.000132054
-1.45495e-05
-0.000150263
7.30136e-05
-0.000162169
4.35415e-05
-0.000219778
-3.74755e-05
-0.000318738
-0.000121306
-0.000435023
-0.000186885
-0.000544754
-0.000230994
-0.000627487
-0.0002584
-0.000669596
-0.000278541
-0.000679515
-0.000303822
-0.000671276
-0.000333824
-0.000651637
-0.000360132
-0.00061865
-0.000372766
-0.000561117
-0.000361111
-0.000452906
-0.00031327
-0.000245703
-0.000213339
3.27529e-05
-2.13607e-05
0.000344943
0.000222685
0.000689614
0.000448426
0.0010754
0.000679231
0.00142903
0.000811907
0.00151418
0.000841832
0.000669838
0.00225409
0.00557271
0.0104021
0.0143635
0.0123972
0.00373307
0.0111743
0.0029791
0.0103687
0.00198423
0.00958371
0.000667448
0.00857493
-0.000540859
0.00738078
-0.00148168
0.00607881
-0.00207961
0.00472428
-0.00229085
0.00337525
-0.00215543
0.00211166
-0.00177928
0.000956012
-0.00118213
5.61293e-06
-0.000597809
-0.000611748
-0.000164318
-0.000905728
1.09828e-05
-0.00100511
8.48142e-05
-0.00102469
9.2578e-05
-0.00104032
5.91519e-05
-0.00108404
6.23377e-06
-0.00115754
-4.78299e-05
-0.00124781
-9.66282e-05
-0.00134045
-0.000138375
-0.00142486
-0.000174007
-0.0014968
-0.000206623
-0.00156284
-0.000237798
-0.00163277
-0.000263916
-0.00171499
-0.00027793
-0.00181757
-0.000270208
-0.00195075
-0.000227943
-0.00212864
-0.000135404
-0.00236392
2.193e-05
-0.00264078
0.000255479
-0.00299799
0.000579879
-0.00356061
0.00101103
-0.00442819
0.00154679
-0.00574981
0.00213351
-0.00752761
0.00261961
-0.00759369
0.00232016
-0.00173318
0.00902575
0.00536561
0.00760144
0.00440343
0.00717826
0.00240743
0.00680972
0.00103601
0.00617189
9.69976e-05
0.00524482
-0.000554596
0.00410894
-0.000943734
0.00284615
-0.00102806
0.00153989
-0.000849187
0.000290457
-0.000529867
-0.000729267
-0.000162432
-0.00136658
3.94905e-05
-0.00165037
0.000119454
-0.00176762
0.000128207
-0.0018043
0.000121479
-0.00181828
0.000106538
-0.00183906
7.99173e-05
-0.00187842
4.55763e-05
-0.00193653
1.02618e-05
-0.00201067
-2.25162e-05
-0.00209567
-5.33901e-05
-0.00218875
-8.09446e-05
-0.00228914
-0.000106256
-0.00239905
-0.000127908
-0.00252113
-0.00014185
-0.00265636
-0.000142721
-0.00280301
-0.000123576
-0.0029553
-7.56672e-05
-0.00310273
1.20064e-05
-0.00323124
0.000150418
-0.00333544
0.000359667
-0.00342426
0.000668678
-0.00350411
0.00109087
-0.00356364
0.0016063
-0.00353611
0.00210597
-0.00311966
0.00220314
-0.00118452
0.000385006
-0.00284134
-0.000643699
0.00605664
0.000833
0.00292674
0.0014098
0.00183064
0.00156299
0.000882835
0.00143286
0.000227123
0.00102095
-0.000142694
0.000318845
-0.000241649
-0.000544129
-0.000165108
-0.00136691
-2.64249e-05
-0.00197852
8.17218e-05
-0.00228522
0.000144246
-0.00239597
0.000150224
-0.00241484
0.000138308
-0.0024089
0.000122251
-0.00239813
0.000110687
-0.00239298
0.000101364
-0.00240193
8.88533e-05
-0.00242762
7.12489e-05
-0.0024671
4.97208e-05
-0.00251749
2.78499e-05
-0.00257707
6.1741e-06
-0.0026446
-1.34293e-05
-0.00272066
-3.022e-05
-0.00280488
-4.37045e-05
-0.00289436
-5.23899e-05
-0.00298331
-5.37898e-05
-0.00306258
-4.43205e-05
-0.00311892
-1.93495e-05
-0.00313614
2.92051e-05
-0.0031004
0.000114665
-0.00298443
0.000243677
-0.00274947
0.000433702
-0.00236649
0.000707873
-0.0018065
0.00104629
-0.000885426
0.00118488
0.00116697
0.000150729
0.00321513
-0.00166317
0.000456892
-0.0115385
-0.0149137
-0.00882314
-0.00587458
-0.00402733
-0.00313227
-0.00289727
-0.00303554
-0.00327524
-0.00344042
-0.00346849
-0.00338961
-0.0032492
-0.00310357
-0.00297037
-0.00285363
-0.00274876
-0.00265351
-0.00257102
-0.00250634
-0.00246333
-0.00244224
-0.0024428
-0.00246287
-0.0024996
-0.00254964
-0.00260819
-0.00266794
-0.002718
-0.00274286
-0.00271893
-0.0026093
-0.00237041
-0.00194127
-0.00123776
-0.000195684
0.000985004
0.00113094
-0.00053849
)
;

boundaryField
{
    floor
    {
        type            calculated;
        value           nonuniform List<scalar> 
36
(
0
0
0
0
0
0
0
0
0
0
0
0
0
0
0
0
0
0
0
-3.70379e-06
-9.83106e-06
-1.50808e-05
-1.93459e-05
-1.88994e-05
-1.82819e-05
-1.7715e-05
-1.91484e-06
-3.06697e-06
-3.53095e-06
-4.11576e-06
-2.91164e-06
-6.25023e-06
-8.79116e-06
-9.02388e-06
-1.09193e-05
-9.51575e-06
)
;
    }
    ceiling
    {
        type            calculated;
        value           nonuniform List<scalar> 
43
(
-3.50925e-05
-3.45714e-05
-3.39589e-05
-2.18238e-05
-1.66225e-05
-1.22487e-05
-7.90664e-06
-4.43734e-06
-1.96934e-06
4.97133e-08
1.62958e-06
2.81859e-06
3.81834e-06
4.57258e-06
5.09374e-06
5.48232e-06
5.8026e-06
6.08921e-06
6.34684e-06
6.55554e-06
6.69034e-06
6.74043e-06
6.71326e-06
6.62054e-06
6.48596e-06
6.32335e-06
6.13928e-06
5.93842e-06
5.72388e-06
5.49698e-06
5.25631e-06
5.00938e-06
4.7712e-06
4.54764e-06
4.34768e-06
4.19306e-06
4.17559e-06
4.77893e-06
6.23608e-06
7.40036e-06
9.32276e-06
6.26326e-06
-4.73228e-05
)
;
    }
    sWall
    {
        type            calculated;
        value           uniform -0.000234785;
    }
    nWall
    {
        type            calculated;
        value           nonuniform List<scalar> 6(-5.66899e-05 -5.72692e-05 -5.75948e-05 -7.63827e-05 -8.31212e-05 -8.90163e-05);
    }
    sideWalls
    {
        type            empty;
        value           nonuniform 0();
    }
    glass1
    {
        type            calculated;
        value           nonuniform List<scalar> 9(-5.8072e-05 -0.000157329 -0.000241546 -0.000313645 -0.000375084 -0.000426855 -0.000472388 -0.000526954 -0.000587714);
    }
    glass2
    {
        type            calculated;
        value           nonuniform List<scalar> 2(-0.00026218 -0.000287821);
    }
    sun
    {
        type            calculated;
        value           uniform 0;
    }
    Table_master
    {
        type            calculated;
        value           nonuniform List<scalar> 9(-1.53078e-07 -1.5324e-07 -1.53292e-07 -1.53322e-07 -1.53341e-07 -1.53352e-07 -1.53353e-07 -1.53342e-07 -1.53304e-07);
    }
    Table_slave
    {
        type            calculated;
        value           nonuniform List<scalar> 9(1.52979e-07 1.52969e-07 1.5292e-07 1.52879e-07 1.52851e-07 1.52843e-07 1.52844e-07 1.52872e-07 1.52945e-07);
    }
    inlet
    {
        type            calculated;
        value           uniform -0.0106583;
    }
    outlet
    {
        type            calculated;
        value           nonuniform List<scalar> 2(0.0118084 0.00340975);
    }
}


// ************************************************************************* //
