/*--------------------------------*- C++ -*----------------------------------*=========                 |
  \      /  F ield         | OpenFOAM: The Open Source CFD Toolbox
   \    /   O peration     | Website:  https://openfoam.org
    \  /    A nd           | Version:  6
     \/     M anipulation  |
\*---------------------------------------------------------------------------*/
FoamFile
{
    version     2.0;
    format      ascii;
    class       volScalarField;
    location    "1200";
    object      PPD;
}
// * * * * * * * * * * * * * * * * * * * * * * * * * * * * * * * * * * * * * //

dimensions      [0 0 0 0 0 0 0];

internalField   nonuniform List<scalar> 
458
(
66.55746276832707
55.723268259957166
54.318745882066295
53.1136832297481
52.2570771360981
51.75908744606729
51.576627513664434
51.76127570577632
52.340466441698275
53.40299837447994
55.11835587348667
57.65927213129963
61.11737215148297
61.716961674646555
62.636457843645665
66.93081301840539
66.36137483806817
66.1377895834267
66.36137483806817
66.55976119528486
66.62121039121794
66.04837691126716
65.91390821241883
65.95093730334705
66.0476589001243
66.17074787989398
66.32469988469249
66.52507434342188
66.83791512102528
67.3080772539171
68.13877372880489
68.52400710979472
69.10584676680534
65.0521697939495
56.55641028878378
55.99821666819833
54.87587583640524
54.18723995904489
53.72935992105265
53.5753644719441
53.656482586403364
53.89355056907918
54.315890691753864
55.12222150659059
56.62309609817356
58.990679001541494
61.30691053815636
61.844933653932365
62.10062769655602
61.78336204038885
62.202751190648954
66.07975259304136
65.73928050758633
65.66441691806286
65.61726773130869
65.39945738156615
65.42339225681269
65.47112561882352
65.57330616699483
65.65925966854164
65.72932782263783
65.80661064826842
65.89780151982339
66.00193871683351
66.17294203135893
66.56322829096919
67.39966211228418
67.96308635396284
68.07641388691911
67.36311083536089
56.56190575688946
57.599580079066314
57.075080849493375
56.88346460989677
56.771903405805695
56.75642082645982
56.76470549533936
56.38821986141945
55.62559312297984
55.03839919941785
55.3156628165217
56.88238308412055
59.88867237257321
61.716961674646555
62.0495159250331
62.27941048692115
61.99361266828581
62.00214148786616
63.30894675945997
63.40583741929568
63.73927113242837
64.13020905868191
64.33205374301119
65.29618287615533
66.05238602980326
66.40769094350198
66.56978587963562
66.67873826730143
66.75318813107926
66.7785051946639
66.62108212721958
66.63856367460625
67.20962118082599
66.916321380529
65.34670054152258
71.20934138377254
56.66387274491817
58.74340776786635
59.246323277972465
60.08378979036223
60.77999403095341
61.20798691497619
61.12903281544871
59.641408460471
57.096436085857526
54.773683986990896
53.96147810109147
55.14723089747607
57.931205928528215
60.90778441727587
62.33045994927399
61.48749097131342
60.06729115171803
58.36712259266344
59.72750573565146
61.18239245444368
62.52921610897526
63.92733481200522
65.4622395024405
66.69695189034732
66.62433374965119
66.54725362119888
66.62603531269411
66.7735278258327
66.92838609571604
67.2035572458357
67.66349253634368
68.4158287389746
68.38204203853704
67.7980973271996
66.08526732962457
64.01310980935307
75.5066403700095
57.43965958838011
59.63896199864324
61.02192409261406
63.189408506747526
65.37070870570047
66.85879602927832
66.11817570916855
62.48948460367738
57.943364374975424
54.23181045665121
52.785618022246815
53.87114316763476
56.63486380504981
59.91756941260367
62.23644917261277
62.173729059793864
61.034693037693025
60.7532323479166
61.45805085267769
62.80370778840535
64.46025765949915
66.17779932801245
67.84109054749723
69.18981385934418
69.67793226429518
69.87957577586114
70.04781981216323
70.12335160764502
70.13395141041488
70.08184680372396
70.02423600121703
69.93011150020948
69.33043725769414
68.18264985427987
65.67794737800743
65.43181284994219
63.55048183418165
62.87610067349422
62.46980873050231
79.5170681231675
59.2419890898908
61.352468833574775
62.450893085634156
65.22202690989786
68.88808068451735
70.71024280822144
68.33723800387368
63.051306380013614
57.5256841573703
53.326102728919516
51.746736929154075
52.96599002075025
56.18684434800526
60.07030946733637
63.282515796245754
64.5585264144899
64.1657945545944
64.33986273753246
65.28898430107512
66.71675451719716
68.3345254743331
69.73201639997518
70.61531663478881
71.34801599223614
71.91046375847027
72.30624982983937
72.60741463180638
72.81514259414985
72.90726168816562
72.76372390880897
72.22818464392259
71.56054808277409
70.47193096975613
69.0389797419775
66.74219488738909
66.07954679393839
66.58218410455247
65.66751639867894
63.28465348100435
82.94122960707267
63.61660098817821
67.11477434879899
65.53900861847674
66.53491941712568
69.34137363194979
69.41367363728202
66.43839497881962
61.40059329157444
55.65201777029752
51.55157995554261
50.50459466179689
52.595265939334354
56.821233234980795
61.77374825365406
65.61448311684454
66.60930475389905
67.25139507626113
67.96308635396284
68.8396186814529
69.80398093155652
70.75766366948844
71.62977356747243
72.3526678519871
72.88424376322878
73.2973483398285
73.54851817907524
73.70784016429288
73.79870062817027
73.7759978738045
73.68510447438003
73.41163811273114
73.06816507504759
72.28885897363553
70.61934434283735
68.57488497364406
67.30045731372815
66.9286814227886
64.76566301731671
64.14237095320765
87.46161014966574
78.69753834333943
76.32278845371557
71.54425857753652
69.92472845698782
69.52472748010362
68.10216638373439
63.86519116545423
57.422407265924626
51.48787271739675
48.50347916723363
49.25969163841544
53.344127632231505
59.34161932909251
65.81409930811472
67.91416100837951
69.05749876716214
69.73201639997518
70.40132385502798
71.15959259679568
71.93380592379681
72.67672778639059
73.27446615738495
73.75328687262848
74.07048730603904
74.27353829397111
74.36356425566535
74.38604959765043
74.34107044590698
74.25101069713504
74.09308207199854
73.88942900557892
73.54851817907524
73.11406581951834
72.65363121395225
72.14354532231906
71.4317520564447
70.69317088085427
66.21441206776541
62.19235230559666
92.61554841324421
88.79520534083878
84.33964295772594
79.40252129770738
75.36667169943507
72.29692459304286
66.21526660406343
56.615805327937544
48.08727910369195
43.969321273248006
44.74107079879571
49.51443030422985
57.233742669801146
65.16420285917138
68.98492902868641
70.61531663478881
71.44205278703029
71.98046764626649
72.53803130051163
73.09111943975715
73.6396084662484
74.05986501698914
74.08280523926773
74.03070708888437
73.93968094350944
73.77178767845416
73.56588632959276
73.30207434373494
72.99140428697689
72.59799349247976
72.14352180305374
71.61382413462222
70.99237421615985
70.41869983635914
69.6480612018254
68.78612122229615
67.94230602721768
67.2933098516759
66.55817759237719
65.00980896694347
18.428775721966147
5.181467411651099
8.19221893364842
12.870853276883466
15.891262815085355
20.09516251615115
26.361254051773486
35.26764063887623
46.09231907253039
57.65022909135026
65.66441691806286
69.92378817726211
70.83074815033493
71.27651809254706
71.6425727355975
72.02237085659107
72.408957255124
72.71006421381412
72.90375208180377
72.98524887641115
72.92660664647474
72.78610512578797
72.58980472552616
72.3588739542857
72.06526033062654
71.77904208124075
71.45523802357141
71.14742049299615
70.83968920900124
70.57583691584844
70.35721753538728
70.20133057643386
70.0818795241212
69.99272304612688
70.16664890423534
70.90779259828068
72.76493983531896
70.757171798455
16.620950831459993
5.196420665736497
12.14024548238443
20.807255001484037
27.40113320253633
35.449144361137414
44.629230771200945
54.98228222124619
63.14527620124866
66.76201522969433
68.83258429871866
70.13024771665383
70.84384760433511
71.3444208329364
71.69518323973891
71.98925377044445
72.20623328802318
72.33807135277156
72.36999540384635
72.31773919056141
72.23505672634536
72.10113552085248
71.95956288268471
71.8073409576736
71.62254782095906
71.46172608242198
71.28832587480096
71.16839978176709
71.09832564509247
71.0975452084754
71.21662449874688
71.48870334755665
71.94274783932426
72.47355890618415
73.15704040027822
74.88060428887353
72.58324115455225
75.40101287883239
5.629928865391122
5.779844519772851
5.241309990120911
9.845963678629346
22.36069727316918
36.708752409532806
49.69287944461501
57.90082861478017
62.40295740038374
65.43521983802441
67.46441832247235
68.76358436237982
69.69403111998648
70.33849864518187
70.77390388284783
71.07795227274666
71.32422239364493
71.49237026415325
71.58521312946795
71.65787068524263
71.67366386678879
71.69445325242492
71.72487215245356
71.73855040673658
71.76729559232734
71.75284689968154
71.74285583193891
71.69337259701814
71.66387626458533
71.62426582051897
71.65348066059494
71.77554449315613
72.0702416560931
72.63881157493888
73.52488157303388
74.26885454327626
74.55866366765957
74.05844211769552
73.05726187046247
69.16212252414252
)
;

boundaryField
{
    ".*"
    {
        type            zeroGradient;
    }
}


// ************************************************************************* //
