/*--------------------------------*- C++ -*----------------------------------*\
  =========                 |
  \\      /  F ield         | OpenFOAM: The Open Source CFD Toolbox
   \\    /   O peration     | Website:  https://openfoam.org
    \\  /    A nd           | Version:  6
     \\/     M anipulation  |
\*---------------------------------------------------------------------------*/
FoamFile
{
    version     2.0;
    format      ascii;
    class       volScalarField;
    location    "600";
    object      epsilon;
}
// * * * * * * * * * * * * * * * * * * * * * * * * * * * * * * * * * * * * * //

dimensions      [0 2 -3 0 0 0 0];

internalField   nonuniform List<scalar> 
458
(
0.000124905
0.000128377
6.06099e-05
5.51097e-05
5.8475e-05
6.32094e-05
6.86278e-05
7.4838e-05
8.21598e-05
9.00335e-05
9.8117e-05
0.000106114
0.000114001
0.000122097
0.00012903
1.14084e-05
1.51891e-05
1.77649e-05
1.27451e-05
7.59915e-06
3.83931e-06
4.105e-06
5.32304e-06
7.23411e-06
9.64479e-06
1.2307e-05
1.43435e-05
1.49274e-05
1.57404e-05
1.70406e-05
2.01609e-05
2.00711e-05
1.46223e-05
0.000832858
0.00188368
0.000166933
4.79314e-05
4.19839e-05
4.44268e-05
4.83229e-05
5.30821e-05
5.8872e-05
6.57638e-05
7.39952e-05
8.39486e-05
9.59544e-05
0.000110269
0.000131504
0.000186486
0.000159832
6.83074e-05
3.2914e-05
4.43438e-05
3.46887e-05
2.16039e-05
1.00305e-05
6.13639e-06
7.83594e-06
1.2239e-05
1.84787e-05
2.55132e-05
3.2094e-05
3.7229e-05
4.10141e-05
4.29311e-05
4.27361e-05
4.6318e-05
6.71295e-05
2.48487e-05
0.00236394
0.00658216
0.000695062
0.00010332
5.69896e-05
5.36597e-05
5.64603e-05
6.12288e-05
6.73285e-05
7.47328e-05
8.35049e-05
9.38634e-05
0.000105866
0.000119081
0.000133589
0.000152785
0.000177786
0.000222927
0.000129942
0.000120101
5.90714e-05
3.97643e-05
2.6632e-05
1.05874e-05
1.31613e-05
1.74059e-05
2.25416e-05
2.87524e-05
3.64757e-05
4.67878e-05
6.18701e-05
8.77911e-05
6.25811e-05
6.53528e-05
8.41706e-05
0.000107276
0.00478017
0.0140307
0.00208072
0.000303469
0.000109355
8.07895e-05
7.63784e-05
7.85657e-05
8.37851e-05
9.10098e-05
9.98997e-05
0.000110517
0.000122781
0.000136044
0.000149599
0.000164844
0.000186966
0.000229828
0.000317012
0.000132672
7.68056e-05
6.65166e-05
6.96183e-05
8.2637e-05
0.000109423
0.000112792
0.000116259
0.000120673
0.000127555
0.000138865
0.00015761
0.000189514
0.000249464
0.000145295
0.000165985
0.000187788
0.000286258
0.00791255
0.0227737
0.00476638
0.000982055
0.00032355
0.000174497
0.000130097
0.00011627
0.000114437
0.000118229
0.000125597
0.000136083
0.000149233
0.000163577
0.000176284
0.000184066
0.000183529
0.000171245
0.000144965
0.00010735
8.8144e-05
8.02881e-05
7.88937e-05
8.05924e-05
8.34424e-05
8.60511e-05
8.98079e-05
9.55079e-05
0.000104195
0.000117234
0.000136312
0.000163248
0.000199012
0.000239414
0.000300416
0.000372723
0.000438708
0.000635448
0.000410927
0.000270615
0.0115875
0.0295566
0.00918648
0.00291701
0.00120847
0.000571224
0.000321146
0.00022241
0.000183949
0.000169802
0.0001674
0.00017308
0.000185354
0.000202355
0.000220771
0.000236047
0.000242324
0.000233208
0.000208394
0.0001784
0.000154322
0.000138164
0.000128945
0.000124441
0.000122785
0.000122947
0.000125008
0.000129572
0.000137884
0.000151913
0.000174424
0.000208883
0.000258994
0.000327913
0.000417679
0.000520726
0.000608946
0.000637121
0.000376623
0.000295122
0.0152276
0.0307311
0.015933
0.00799998
0.00425025
0.00212279
0.00105495
0.00057237
0.0003769
0.000288033
0.000247821
0.000232817
0.000234531
0.000248415
0.000270186
0.000294397
0.000313191
0.000317225
0.000303669
0.000279225
0.00025287
0.000230291
0.000213618
0.000202549
0.000195815
0.000192256
0.000191439
0.000193702
0.000200273
0.000213484
0.00023701
0.000275747
0.000334637
0.000417269
0.000523971
0.000645684
0.000754428
0.000803318
0.000738496
0.000305468
0.0149199
0.0309071
0.0279739
0.020259
0.011881
0.00617768
0.00315028
0.00166841
0.000953612
0.000602792
0.000429086
0.00035074
0.000319628
0.000316562
0.000332094
0.000359386
0.000390217
0.00041038
0.000413359
0.000401121
0.000380329
0.000357538
0.000337114
0.000320963
0.000309178
0.000301176
0.000296606
0.000295758
0.000299877
0.000311622
0.000335784
0.000379983
0.000451887
0.000556376
0.000693907
0.000861537
0.00106132
0.00130937
0.00161283
0.00114787
0.0126542
0.0195312
0.0913849
0.0601755
0.0291838
0.0133609
0.00629995
0.00318934
0.00177316
0.00109487
0.000754262
0.000576449
0.000489002
0.000456494
0.000456853
0.000477387
0.000508009
0.000537274
0.000555982
0.000560497
0.000552779
0.000537533
0.000519504
0.000502017
0.000486545
0.000473588
0.000463386
0.000456299
0.000453146
0.000455621
0.000466947
0.000493546
0.00053999
0.000613893
0.000722876
0.000866094
0.00103862
0.00128137
0.00299145
0.00160478
0.28978
0.184977
0.0361307
0.0117349
0.00574654
0.00325987
0.00205994
0.00144094
0.00111025
0.00093341
0.000842971
0.000801832
0.000791567
0.000801695
0.000823073
0.000848218
0.000870239
0.000883947
0.000887273
0.000881147
0.000868245
0.000851471
0.000832526
0.000813
0.000794249
0.000777193
0.000762384
0.00075008
0.000740024
0.000733655
0.000732691
0.00073792
0.000750415
0.000767949
0.000795828
0.000883976
0.00143057
0.00158304
0.174112
0.0927815
0.0282883
0.0112158
0.00577505
0.00358073
0.00255959
0.00205686
0.00181664
0.00172072
0.00170446
0.00172856
0.00176814
0.00180759
0.00183934
0.00185881
0.00186331
0.00185249
0.00182852
0.00179533
0.0017573
0.00171795
0.00167752
0.00163665
0.00159603
0.00155548
0.00151367
0.00146823
0.00141542
0.00135195
0.00128403
0.0012209
0.00116952
0.0011364
0.00112309
0.0011442
0.00206848
0.00138276
0.00170338
0.006109
0.058436
0.0399917
0.0212642
0.0116863
0.00698587
0.00453995
0.00318026
0.00238436
0.00190419
0.00161341
0.00144179
0.0013462
0.00129837
0.0012794
0.00127629
0.00128035
0.00128559
0.00128774
0.00128415
0.0012737
0.00125668
0.00123438
0.00120998
0.00118402
0.00115702
0.00112978
0.00110298
0.00107691
0.00105241
0.00102819
0.00099848
0.000964414
0.000924968
0.000877285
0.000817437
0.000743926
0.000749925
0.000528958
)
;

boundaryField
{
    floor
    {
        Cmu             0.09;
        kappa           0.41;
        E               9.8;
        type            epsilonWallFunction;
        value           nonuniform List<scalar> 
36
(
0.00012903
1.14084e-05
1.51891e-05
1.77649e-05
1.27451e-05
7.59915e-06
3.83931e-06
4.105e-06
5.32304e-06
7.23411e-06
9.64479e-06
1.2307e-05
1.43435e-05
1.49274e-05
1.57404e-05
1.70406e-05
2.01609e-05
2.00711e-05
1.46223e-05
1.46223e-05
2.48487e-05
0.000107276
0.000286258
0.000635448
0.000410927
0.000270615
0.00012903
0.000186486
0.000159832
6.83074e-05
1.14084e-05
6.83074e-05
3.2914e-05
0.000222927
0.000129942
0.000317012
)
;
    }
    ceiling
    {
        Cmu             0.09;
        kappa           0.41;
        E               9.8;
        type            epsilonWallFunction;
        value           nonuniform List<scalar> 
43
(
0.00170338
0.006109
0.058436
0.0399917
0.0212642
0.0116863
0.00698587
0.00453995
0.00318026
0.00238436
0.00190419
0.00161341
0.00144179
0.0013462
0.00129837
0.0012794
0.00127629
0.00128035
0.00128559
0.00128774
0.00128415
0.0012737
0.00125668
0.00123438
0.00120998
0.00118402
0.00115702
0.00112978
0.00110298
0.00107691
0.00105241
0.00102819
0.00099848
0.000964414
0.000924968
0.000877285
0.000817437
0.000743926
0.000749925
0.000528958
0.0126542
0.0195312
0.174112
)
;
    }
    sWall
    {
        Cmu             0.09;
        kappa           0.41;
        E               9.8;
        type            epsilonWallFunction;
        value           uniform 0.00170338;
    }
    nWall
    {
        Cmu             0.09;
        kappa           0.41;
        E               9.8;
        type            epsilonWallFunction;
        value           nonuniform List<scalar> 6(0.000270615 0.000295122 0.000305468 0.00158304 0.00138276 0.000528958);
    }
    sideWalls
    {
        type            empty;
    }
    glass1
    {
        Cmu             0.09;
        kappa           0.41;
        E               9.8;
        type            epsilonWallFunction;
        value           nonuniform List<scalar> 9(0.000124905 0.000832858 0.00236394 0.00478017 0.00791255 0.0115875 0.0152276 0.0149199 0.0126542);
    }
    glass2
    {
        Cmu             0.09;
        kappa           0.41;
        E               9.8;
        type            epsilonWallFunction;
        value           nonuniform List<scalar> 2(0.00114787 0.00160478);
    }
    sun
    {
        Cmu             0.09;
        kappa           0.41;
        E               9.8;
        type            epsilonWallFunction;
        value           nonuniform List<scalar> 
14
(
0.000124905
0.000128377
6.06099e-05
5.51097e-05
5.8475e-05
6.32094e-05
6.86278e-05
7.4838e-05
8.21598e-05
9.00335e-05
9.8117e-05
0.000106114
0.000114001
0.000122097
)
;
    }
    Table_master
    {
        Cmu             0.09;
        kappa           0.41;
        E               9.8;
        type            epsilonWallFunction;
        value           nonuniform List<scalar> 9(1.05874e-05 1.31613e-05 1.74059e-05 2.25416e-05 2.87524e-05 3.64757e-05 4.67878e-05 6.18701e-05 8.77911e-05);
    }
    Table_slave
    {
        Cmu             0.09;
        kappa           0.41;
        E               9.8;
        type            epsilonWallFunction;
        value           nonuniform List<scalar> 9(0.000109423 0.000112792 0.000116259 0.000120673 0.000127555 0.000138865 0.00015761 0.000189514 0.000249464);
    }
    inlet
    {
        type            turbulentMixingLengthDissipationRateInlet;
        mixingLength    0.01;
        phi             phi;
        k               k;
        value           uniform 0.28978;
    }
    outlet
    {
        type            zeroGradient;
    }
}


// ************************************************************************* //
