/*--------------------------------*- C++ -*----------------------------------*\
  =========                 |
  \\      /  F ield         | OpenFOAM: The Open Source CFD Toolbox
   \\    /   O peration     | Website:  https://openfoam.org
    \\  /    A nd           | Version:  6
     \\/     M anipulation  |
\*---------------------------------------------------------------------------*/
FoamFile
{
    version     2.0;
    format      ascii;
    class       surfaceScalarField;
    location    "600";
    object      phi;
}
// * * * * * * * * * * * * * * * * * * * * * * * * * * * * * * * * * * * * * //

dimensions      [1 0 -1 0 0 0 0];

internalField   nonuniform List<scalar> 
850
(
-0.00221275
0.0022709
-0.00221343
8.52914e-07
-0.00210955
-0.000103716
-0.0020871
-2.22762e-05
-0.00210135
1.44212e-05
-0.00212433
2.31491e-05
-0.00214158
1.74242e-05
-0.00214238
9.78057e-07
-0.00211566
-2.6554e-05
-0.00204799
-6.74936e-05
-0.00192432
-0.000123496
-0.00172742
-0.00019672
-0.00142395
-0.000303295
-0.000914488
-0.000509289
-0.000913148
-0.000649917
0.000654894
-0.000634505
-1.52752e-05
-0.000424732
-0.000209635
-0.000228847
-0.000195745
6.92416e-06
-0.000235631
0.000202127
-0.000195063
0.000349867
-0.000147601
0.000463358
-0.000113353
0.000553067
-8.95718e-05
0.000625336
-7.21328e-05
0.000685029
-5.95599e-05
0.000719772
-3.4614e-05
0.000709142
1.07548e-05
0.000666105
4.31575e-05
0.000630554
3.56653e-05
0.000709838
-7.91546e-05
0.000714373
-4.41318e-06
0.000719002
-0.00160101
0.00401758
-0.00201383
0.000413847
-0.00209091
-2.64538e-05
-0.00212878
1.57631e-05
-0.00216174
4.75576e-05
-0.00219039
5.19809e-05
-0.00221236
3.95664e-05
-0.00222305
1.1843e-05
-0.00221674
-3.26859e-05
-0.00218669
-9.73607e-05
-0.00212319
-0.000186824
-0.00201097
-0.000308763
-0.00183262
-0.00048146
-0.00162395
-0.000717772
-0.00162371
-0.000913212
-0.000708415
-0.000913051
0.000252097
-0.000958096
0.000259864
0.000902983
-0.000237036
0.000776527
0.00011133
0.000366427
0.00020061
7.77295e-05
9.30928e-05
-0.000132667
-2.509e-05
-9.67303e-05
-0.000230852
-7.93867e-05
-0.000164797
-8.00216e-05
-0.000112572
-9.14996e-05
-7.7951e-05
-0.000114037
-4.94576e-05
-0.000155166
-1.82983e-05
-0.00021428
2.46327e-05
-0.000275391
7.19852e-05
-0.000321955
8.98291e-05
-0.000356473
7.02725e-05
-0.000428322
-7.28407e-06
-0.000472456
3.97922e-05
0.000258449
-0.00115021
0.00537946
-0.0016964
0.000960221
-0.00190757
0.000184896
-0.00200971
0.000118084
-0.00206231
0.000100343
-0.00209321
8.30595e-05
-0.00211393
6.04645e-05
-0.00212834
2.64351e-05
-0.00213701
-2.38397e-05
-0.00213866
-9.55333e-05
-0.00213021
-0.000195086
-0.00210737
-0.00033143
-0.00207452
-0.000514123
-0.00206005
-0.00073206
-0.00204824
-0.000924832
-0.00189315
-0.00106795
-0.00162261
-0.00122845
-0.00135722
-0.000543094
0.000316864
-0.000656072
0.000224473
-0.000611072
0.00015577
-0.00058473
6.69107e-05
-0.000541807
-6.78536e-05
-0.000772347
-0.000936831
-0.00104909
-0.00112673
-0.00117589
-0.00119388
-0.00116895
-0.00109667
-0.00100652
-0.00081531
-0.000120736
-0.000824849
2.51711e-06
-0.000756929
-2.78156e-05
-0.000489499
-0.000805962
0.00645045
-0.0013771
0.00153155
-0.00163037
0.000438362
-0.00177435
0.000262253
-0.00184926
0.000175446
-0.00188178
0.000115763
-0.00189358
7.24472e-05
-0.00189844
3.14765e-05
-0.00190502
-1.70813e-05
-0.00191849
-8.18862e-05
-0.00194271
-0.000170676
-0.0019825
-0.000291462
-0.00204893
-0.000447501
-0.00215626
-0.000624543
-0.00229057
-0.000790337
-0.00242704
-0.000931292
-0.00262641
-0.00102889
-0.00311593
-0.000867498
-0.00265465
-0.00045498
-0.00222709
-0.0001105
-0.00206211
5.9699e-05
-0.00198652
8.03825e-05
-0.00196791
4.85134e-05
-0.00201499
-2.05759e-05
-0.00195907
-5.58715e-05
-0.00186896
-9.00594e-05
-0.00175466
-0.000114242
-0.00162611
-0.000128498
-0.00148851
-0.000137552
-0.00134281
-0.000145639
-0.00118444
-0.000158312
-0.00100144
-0.000182946
-0.000773621
-0.000227763
-0.000574213
-0.000319929
-0.000195144
-0.000376324
0.000198966
-0.00042169
-0.000285478
-0.000538363
0.00729956
-0.00108109
0.00207448
-0.001216
0.000573483
-0.00132517
0.000371628
-0.00144901
0.000299486
-0.00152146
0.000188407
-0.00154188
9.3062e-05
-0.00153794
2.77214e-05
-0.00153195
-2.28904e-05
-0.00153722
-7.6429e-05
-0.00156339
-0.000144322
-0.00161939
-0.000235283
-0.00171419
-0.000352515
-0.00185152
-0.000487018
-0.00202087
-0.000620798
-0.00221582
-0.00073615
-0.00245512
-0.000789392
-0.00263996
-0.000682458
-0.00263776
-0.000456975
-0.00250477
-0.000243288
-0.00234135
-0.000103521
-0.00221118
-4.95749e-05
-0.00211175
-5.07099e-05
-0.00204574
-8.63832e-05
-0.00197523
-0.000126179
-0.0019029
-0.000162174
-0.00182665
-0.000190292
-0.00174466
-0.000210275
-0.00165714
-0.000224865
-0.00156339
-0.000239178
-0.00145934
-0.000262157
-0.00133419
-0.000307876
-0.00116815
-0.000393599
-0.00095977
-0.000528092
-0.000623397
-0.00071248
-8.89495e-05
-0.000955919
0.000789661
-0.00116387
0.0017899
-0.000997726
0.0017571
3.57804e-05
0.00178862
-0.000466644
0.00811748
-0.000852782
0.00246082
-0.000595765
0.000316694
-0.000492698
0.000268795
-0.000668727
0.000475739
-0.000869925
0.000389815
-0.000972603
0.000195939
-0.00100418
5.94864e-05
-0.00100868
-1.82023e-05
-0.00101019
-7.47284e-05
-0.00102829
-0.000126035
-0.00107741
-0.000185979
-0.00116692
-0.000262814
-0.00129896
-0.000354784
-0.00146728
-0.00045228
-0.00166475
-0.000538484
-0.00187589
-0.000578053
-0.00203044
-0.000527697
-0.00208329
-0.000403923
-0.00205012
-0.000276249
-0.00197236
-0.000181073
-0.00188966
-0.00013207
-0.00181802
-0.000122141
-0.00176502
-0.000139165
-0.00172445
-0.00016654
-0.00169203
-0.000194378
-0.00166519
-0.000216919
-0.00164316
-0.000232098
-0.001627
-0.000240805
-0.00161824
-0.000247732
-0.00161668
-0.000263506
-0.00161787
-0.000306466
-0.00161098
-0.000400286
-0.00157243
-0.000566426
-0.00145835
-0.000826346
-0.0012155
-0.00119856
-0.000727535
-0.00165162
0.000189567
-0.00191461
0.000827196
-0.000601634
0.00264942
-0.000711304
0.00921823
-0.000287197
0.00203693
0.000576484
-0.000546734
0.000829478
1.60557e-05
0.000551559
0.000753905
0.000225452
0.000716154
-1.54189e-05
0.000437028
-0.000173358
0.000217628
-0.000263401
7.20359e-05
-0.000307622
-3.03176e-05
-0.000337717
-9.57488e-05
-0.000383996
-0.000139508
-0.000461
-0.000185614
-0.000575352
-0.000240232
-0.000725286
-0.000302144
-0.000901791
-0.000361774
-0.00108272
-0.000396914
-0.00122766
-0.00038255
-0.00130693
-0.000324438
-0.00132788
-0.000255087
-0.00131147
-0.00019727
-0.00128092
-0.000162403
-0.00125183
-0.000151013
-0.001233
-0.00015778
-0.00122582
-0.000173501
-0.00122942
-0.000190554
-0.00124327
-0.000202849
-0.00126908
-0.000206068
-0.00131186
-0.000197808
-0.00138001
-0.000179363
-0.00148405
-0.000159255
-0.00163304
-0.000157258
-0.00182856
-0.000204546
-0.00205832
-0.000336453
-0.00230013
-0.000584326
-0.0025267
-0.000971763
-0.00268526
-0.00149284
-0.00261014
-0.00198952
-0.0014298
-0.00178176
0.00125886
0.00189719
0.00776099
0.00301439
0.000919934
0.0033357
-0.000867792
0.00275303
0.000599001
0.00204356
0.00146363
0.00156073
0.00119923
0.00122213
0.000775859
0.000972385
0.000467589
0.000787252
0.000257375
0.000647726
0.000109413
0.000546529
5.65129e-06
0.000469026
-6.18018e-05
0.000388822
-0.000105205
0.00028864
-0.000139841
0.000162569
-0.000175861
1.36317e-05
-0.000212622
-0.000141375
-0.000241689
-0.000275146
-0.000248559
-0.000368248
-0.000231114
-0.000421607
-0.000201505
-0.000446295
-0.000172358
-0.000456366
-0.000152106
-0.00046351
-0.000143643
-0.000475467
-0.000145595
-0.000495388
-0.000153352
-0.000523692
-0.000162021
-0.000559707
-0.000166604
-0.000603629
-0.000161916
-0.000658473
-0.000142734
-0.000732502
-0.000105105
-0.000842321
-4.92089e-05
-0.00101643
1.70754e-05
-0.00129619
7.54291e-05
-0.00171711
8.46953e-05
-0.00228589
-1.53301e-05
-0.00302092
-0.000236513
-0.00402463
-0.000488905
-0.005288
-0.000725936
-0.00531568
-0.00175385
-0.00390824
0.0082433
0.00915015
0.00718704
0.00109559
0.00435046
0.00343588
0.0031181
0.00269626
0.00250321
0.00181436
0.00214762
0.00113169
0.00193028
0.000685157
0.00178393
0.000403941
0.00166885
0.00022471
0.00156283
0.000111897
0.00146023
4.10242e-05
0.00136136
-6.11157e-06
0.00126167
-3.99232e-05
0.00115382
-6.77764e-05
0.00103586
-9.44312e-05
0.00091224
-0.000117839
0.000795994
-0.000132078
0.000699385
-0.000134269
0.000625869
-0.000127751
0.00057194
-0.00011819
0.000530626
-0.000110553
0.000494741
-0.000107519
0.000458611
-0.000109225
0.000418675
-0.000113176
0.000373998
-0.000117103
0.000325871
-0.000118236
0.000277159
-0.000112961
0.000231769
-9.7102e-05
0.000193774
-6.68677e-05
0.000165808
-2.10026e-05
0.000148996
3.41257e-05
0.000142736
8.19254e-05
0.000138797
8.88683e-05
0.000119924
3.77665e-06
7.73906e-05
-0.000193746
5.19962e-05
-0.000463276
0.000128806
-0.000802513
3.18134e-05
-0.00165662
-0.00371702
-0.00283372
0.00272689
-0.0013107
0.00191322
0.000465923
0.000919957
0.00144167
0.000838887
0.00190616
0.000667464
0.00214604
0.000445533
0.0022716
0.000278637
0.00233004
0.000166531
0.002348
9.41927e-05
0.00233848
5.08059e-05
0.00230608
2.65518e-05
0.00225564
1.07723e-05
0.00218973
-1.60559e-06
0.00210986
-1.43042e-05
0.00201847
-2.61869e-05
0.00192208
-3.54303e-05
0.00182876
-4.06943e-05
0.00174413
-4.28655e-05
0.00167015
-4.3954e-05
0.00160568
-4.58223e-05
0.00154786
-4.94496e-05
0.00149356
-5.46631e-05
0.00143958
-5.89423e-05
0.00138474
-6.20097e-05
0.00132968
-6.29224e-05
0.00127691
-5.99429e-05
0.00123113
-5.10635e-05
0.00119903
-3.45193e-05
0.0011871
-8.81939e-06
0.00120364
1.78399e-05
0.00125487
3.09437e-05
0.00133495
9.04226e-06
0.00141808
-7.91095e-05
0.00148081
-0.000256226
0.00153827
-0.000520487
0.00162442
-0.000888423
0.00150139
-0.00153335
-0.00218157
-0.00075405
0.00346372
0.00067032
0.000489253
0.00128636
0.000304296
0.00190209
0.000223506
0.00244385
0.000126032
0.00281325
7.6458e-05
0.003036
5.62003e-05
0.00315671
4.6135e-05
0.00320813
4.30862e-05
0.00321297
4.6274e-05
0.0031877
5.21248e-05
0.00314257
5.6206e-05
0.00308443
5.68271e-05
0.0030157
5.47218e-05
0.00293998
4.98242e-05
0.0028613
4.35325e-05
0.00278415
3.67414e-05
0.00271182
2.97451e-05
0.00264557
2.25657e-05
0.00258478
1.52462e-05
0.00252764
7.96575e-06
0.00247207
1.17746e-06
0.0024175
-4.10739e-06
0.00236368
-7.91825e-06
0.00231096
-9.93531e-06
0.00226113
-9.85058e-06
0.00221781
-7.48754e-06
0.00218644
-2.87939e-06
0.0021746
3.27965e-06
0.0021842
8.49704e-06
0.00221349
1.91222e-06
0.00225105
-2.825e-05
0.00226293
-9.0735e-05
0.00220491
-0.000197951
0.00204153
-0.000356858
0.00171319
-0.000559833
0.00104205
-0.000861976
-0.00110091
0.00392201
-0.000672829
0.00276463
0.00322684
0.00350067
0.00368988
0.00377791
0.00381302
0.00382503
0.00382476
0.00381988
0.00381733
0.00382046
0.00382804
0.003837
0.00384485
0.0038489
0.00384779
0.00384099
0.00382824
0.00380926
0.00378385
0.00375197
0.00371404
0.00367156
0.00362596
0.00357903
0.00353286
0.00348975
0.00345193
0.00342099
0.00339598
0.00336503
0.00330449
0.00318195
0.00295254
0.00256438
0.00197322
0.00108079
)
;

boundaryField
{
    floor
    {
        type            calculated;
        value           nonuniform List<scalar> 
36
(
0
0
0
0
0
0
0
0
0
0
0
0
0
0
0
0
0
0
0
-4.50667e-06
-1.17758e-05
-8.57267e-06
-4.80158e-06
-2.29003e-06
-2.77274e-06
-3.23996e-06
-1.16205e-06
-2.05979e-06
-2.23421e-06
-3.00724e-06
-4.84328e-06
-4.58712e-06
-1.08986e-05
-5.34364e-06
-1.06443e-05
-6.10682e-06
)
;
    }
    ceiling
    {
        type            calculated;
        value           nonuniform List<scalar> 
43
(
7.23723e-05
5.04154e-05
2.67409e-05
2.75212e-05
3.09264e-05
3.47385e-05
3.84435e-05
4.17785e-05
4.45979e-05
4.68143e-05
4.83595e-05
4.91981e-05
4.93666e-05
4.89847e-05
4.82152e-05
4.72123e-05
4.61013e-05
4.49654e-05
4.3858e-05
4.28117e-05
4.18436e-05
4.09574e-05
4.01459e-05
3.93948e-05
3.86699e-05
3.79651e-05
3.72747e-05
3.65895e-05
3.59014e-05
3.52062e-05
3.44935e-05
3.37766e-05
3.31269e-05
3.25484e-05
3.20659e-05
3.17187e-05
3.15513e-05
3.15773e-05
3.06922e-05
3.28937e-05
1.54227e-05
1.32755e-05
1.77115e-05
)
;
    }
    sWall
    {
        type            calculated;
        value           uniform -0.000117257;
    }
    nWall
    {
        type            calculated;
        value           nonuniform List<scalar> 6(-2.80636e-05 -3.34015e-05 -3.90327e-05 -3.38294e-05 -3.83659e-05 -5.27814e-05);
    }
    sideWalls
    {
        type            empty;
        value           nonuniform 0();
    }
    glass1
    {
        type            calculated;
        value           nonuniform List<scalar> 9(-5.79792e-05 -0.000145501 -0.000211519 -0.000264862 -0.000310582 -0.00035111 -0.000389282 -0.000439776 -0.00049757);
    }
    glass2
    {
        type            calculated;
        value           nonuniform List<scalar> 2(-0.000148355 -0.000159191);
    }
    sun
    {
        type            calculated;
        value           uniform 0;
    }
    Table_master
    {
        type            calculated;
        value           nonuniform List<scalar> 9(-1.53776e-07 -1.53669e-07 -1.53562e-07 -1.53467e-07 -1.53379e-07 -1.53298e-07 -1.53219e-07 -1.53132e-07 -1.53009e-07);
    }
    Table_slave
    {
        type            calculated;
        value           nonuniform List<scalar> 9(1.51812e-07 1.51824e-07 1.51845e-07 1.51875e-07 1.51911e-07 1.51949e-07 1.5199e-07 1.52039e-07 1.52075e-07);
    }
    inlet
    {
        type            calculated;
        value           uniform 0.00120296;
    }
    outlet
    {
        type            calculated;
        value           nonuniform List<scalar> 2(-0.00387674 0.00454483);
    }
}


// ************************************************************************* //
