/*--------------------------------*- C++ -*----------------------------------*\
  =========                 |
  \\      /  F ield         | OpenFOAM: The Open Source CFD Toolbox
   \\    /   O peration     | Website:  https://openfoam.org
    \\  /    A nd           | Version:  6
     \\/     M anipulation  |
\*---------------------------------------------------------------------------*/
FoamFile
{
    version     2.0;
    format      ascii;
    class       volScalarField;
    location    "700";
    object      alphat;
}
// * * * * * * * * * * * * * * * * * * * * * * * * * * * * * * * * * * * * * //

dimensions      [1 -1 -1 0 0 0 0];

internalField   nonuniform List<scalar> 
458
(
0.00198565
0.00230921
0.00257462
0.00249991
0.00238897
0.00227903
0.00217722
0.00208309
0.00199498
0.00191467
0.00183753
0.00175961
0.00167608
0.00157816
0.0014601
0.000301756
0.000292631
0.000310024
0.000354086
0.000384867
0.000370642
0.000341288
0.00032462
0.000314377
0.000305601
0.000297027
0.000288555
0.000280434
0.000273652
0.000270177
0.000275364
0.000291883
0.000297443
0.002027
0.00385671
0.00463907
0.00478357
0.00467291
0.00449082
0.00431168
0.0041511
0.00400326
0.00381278
0.00358883
0.00332971
0.00302014
0.0026286
0.00209193
0.00147481
0.00135691
0.00117122
0.000437824
0.00100955
0.00119722
0.00147615
0.00159453
0.00112414
0.000918302
0.000765698
0.000654299
0.000571722
0.000507336
0.000458071
0.000427492
0.000448863
0.000523347
0.000687171
0.000792712
0.000401086
0.0020247
0.0041777
0.00467107
0.00469242
0.00454971
0.00441383
0.00432783
0.00427452
0.00424112
0.00420537
0.00413237
0.00398603
0.00373235
0.00334361
0.00282284
0.00230039
0.00198332
0.00125133
0.000652459
0.00119703
0.00144588
0.00173233
0.00185127
0.000763147
0.000642051
0.000551113
0.00047999
0.000421368
0.000370659
0.000325037
0.000284677
0.000277649
0.000602174
0.00096153
0.00125519
0.00054005
0.00276418
0.00507181
0.0050616
0.00467902
0.00443477
0.00438043
0.00446894
0.00460153
0.00473374
0.00479067
0.00474272
0.00458092
0.00430224
0.00390326
0.00340026
0.00286949
0.00240774
0.00170173
0.00122053
0.00115685
0.00116144
0.00134247
0.00171155
0.00205317
0.000955563
0.000918557
0.000887537
0.00085879
0.000833643
0.000810048
0.000782823
0.00074729
0.000698746
0.000694974
0.000911733
0.00133933
0.000644434
0.00326821
0.0067641
0.00536954
0.0044706
0.00444636
0.00486273
0.00549564
0.00603713
0.00612819
0.00593232
0.00562175
0.0052556
0.00484141
0.00437096
0.00385186
0.00332028
0.00282317
0.00225876
0.00187374
0.00171492
0.00170455
0.00188882
0.00232447
0.00288214
0.00327226
0.00352536
0.00369523
0.00385032
0.003874
0.00370066
0.00333579
0.00280211
0.00216416
0.00166545
0.00150196
0.0015391
0.00136773
0.000796431
0.0009555
0.00100182
0.00332005
0.00786435
0.0045937
0.0041481
0.00565832
0.00712862
0.00766503
0.00769598
0.00717454
0.00664035
0.0061695
0.00570907
0.00523668
0.0047425
0.00423349
0.00373604
0.00327817
0.00283693
0.00256214
0.00251605
0.00273226
0.00325059
0.00400173
0.00474296
0.00531689
0.00572459
0.00600792
0.00606556
0.00590347
0.00552683
0.00494013
0.00417136
0.00331275
0.0026087
0.00224293
0.00205385
0.00166482
0.00186939
0.0026746
0.00109955
0.00330472
0.00647796
0.00358321
0.00500063
0.00719145
0.00803245
0.00811116
0.00782988
0.00735841
0.00687247
0.00643163
0.00600323
0.0055672
0.00511953
0.00464831
0.0042169
0.00385966
0.00360525
0.00364322
0.00407761
0.00493217
0.00592283
0.00675924
0.0073281
0.00763352
0.0077053
0.00757865
0.00731922
0.00692496
0.00638605
0.00570369
0.00490769
0.00408589
0.00342097
0.0030275
0.00276343
0.00238774
0.0024087
0.00271082
0.000997485
0.00321626
0.004855
0.00319074
0.00503088
0.00695896
0.00783055
0.00792455
0.00772888
0.00740262
0.00703983
0.00669407
0.00635588
0.00601776
0.00568393
0.00536828
0.00511362
0.00499445
0.0051395
0.00574611
0.00673138
0.00781666
0.00864856
0.0090427
0.00907465
0.00884642
0.00848084
0.00803975
0.00754651
0.0069965
0.00638474
0.00571951
0.00503211
0.00438484
0.00386355
0.00351853
0.00330128
0.00310565
0.00313276
0.00385737
0.00138551
0.00303627
0.00333449
0.00322565
0.00577793
0.00669523
0.00745499
0.00769661
0.00773482
0.0076377
0.00744765
0.00724158
0.00704792
0.00687509
0.00673946
0.00667033
0.00671337
0.00693778
0.00742347
0.00817386
0.00895992
0.00950965
0.00968363
0.00950007
0.00907078
0.00851508
0.00792273
0.00733618
0.00676319
0.00620317
0.00566008
0.00514798
0.00469241
0.00432733
0.0040839
0.00397329
0.00396714
0.00402968
0.00423118
0.0051409
0.00163622
0.00326964
0.00660507
0.0070403
0.00739368
0.00762989
0.00782303
0.00794435
0.007969
0.00794655
0.00793751
0.00795878
0.00802555
0.00815542
0.00836305
0.0086554
0.00900592
0.00931875
0.00947135
0.00939673
0.009111
0.00868642
0.00820696
0.00773425
0.0072991
0.00690899
0.00656132
0.00625471
0.00599207
0.00578063
0.00563026
0.00554986
0.0055404
0.00558402
0.00563811
0.00566121
0.00568212
0.00591327
0.00157872
0.00280371
0.00753805
0.00776539
0.00757383
0.00747983
0.00742573
0.00736731
0.00728843
0.00722217
0.00721798
0.00727364
0.00738619
0.00755273
0.00776522
0.00800396
0.00823091
0.00839098
0.00844251
0.00838275
0.00824108
0.00805746
0.00786521
0.00768488
0.00752549
0.00738915
0.00727541
0.0071853
0.00712238
0.00709248
0.00710241
0.00715656
0.00724891
0.00735011
0.00740412
0.00734792
0.00710612
0.00613358
0.00161627
0.00129831
0.00159556
0.00185049
0.001865
0.00183034
0.0018098
0.0018046
0.00180815
0.00181916
0.00183843
0.00186238
0.00188681
0.00191206
0.00193811
0.0019643
0.00198929
0.00201113
0.00202727
0.00203541
0.00203517
0.00202814
0.00201705
0.00200479
0.00199355
0.00198452
0.00197807
0.00197413
0.00197262
0.0019736
0.0019773
0.00198404
0.00199401
0.00200676
0.00202052
0.00203217
0.00203942
0.00204279
0.00203281
0.00193892
0.00157451
)
;

boundaryField
{
    floor
    {
        type            compressible::alphatWallFunction;
        Prt             0.85;
        value           nonuniform List<scalar> 
36
(
0.000205792
3.80546e-05
3.65572e-05
3.93983e-05
4.65165e-05
5.14089e-05
4.91652e-05
4.44779e-05
4.17953e-05
4.01383e-05
3.87113e-05
3.73106e-05
3.59204e-05
3.45819e-05
3.34597e-05
3.28846e-05
3.37484e-05
3.64795e-05
3.73924e-05
3.73918e-05
5.40437e-05
7.5528e-05
9.12074e-05
0.000113504
0.000136312
0.000142873
0.00020579
0.000207774
0.000191816
0.000166358
3.80541e-05
0.000166356
5.97336e-05
0.000177392
9.23324e-05
0.00017316
)
;
    }
    ceiling
    {
        type            compressible::alphatWallFunction;
        Prt             0.85;
        value           nonuniform List<scalar> 
43
(
0.000184371
0.00022435
0.000257967
0.000259876
0.00025532
0.000252615
0.000251929
0.000252396
0.000253845
0.000256381
0.00025953
0.000262736
0.000266048
0.000269459
0.000272885
0.000276152
0.000279002
0.00028111
0.000282174
0.000282148
0.000281237
0.000279797
0.000278201
0.000276737
0.000275561
0.000274719
0.000274206
0.000274009
0.000274136
0.000274619
0.000275498
0.000276798
0.000278459
0.000280251
0.000281768
0.000282711
0.00028315
0.000281855
0.000269613
0.00022144
0.00040919
0.000446132
0.000380244
)
;
    }
    sWall
    {
        type            compressible::alphatWallFunction;
        Prt             0.85;
        value           uniform 0.000183649;
    }
    nWall
    {
        type            compressible::alphatWallFunction;
        Prt             0.85;
        value           nonuniform List<scalar> 6(0.000142774 0.000156428 0.000142151 0.000221802 0.000226807 0.000221226);
    }
    sideWalls
    {
        type            empty;
    }
    glass1
    {
        type            compressible::alphatWallFunction;
        Prt             0.85;
        value           nonuniform List<scalar> 9(0.000270775 0.000276177 0.000276016 0.000369706 0.000431712 0.000437933 0.000435913 0.000424898 0.000402516);
    }
    glass2
    {
        type            compressible::alphatWallFunction;
        Prt             0.85;
        value           nonuniform List<scalar> 2(0.000195971 0.000229698);
    }
    sun
    {
        type            compressible::alphatWallFunction;
        Prt             0.85;
        value           nonuniform List<scalar> 
14
(
0.00027544
0.00031728
0.000351107
0.000341614
0.000327466
0.000313379
0.00030027
0.00028809
0.000276636
0.000266148
0.000256028
0.000245758
0.000234694
0.000221645
)
;
    }
    Table_master
    {
        type            compressible::alphatWallFunction;
        Prt             0.85;
        value           nonuniform List<scalar> 9(0.00010854 9.07518e-05 7.71243e-05 6.62709e-05 5.71718e-05 4.91692e-05 4.18471e-05 3.5257e-05 3.41089e-05);
    }
    Table_slave
    {
        type            compressible::alphatWallFunction;
        Prt             0.85;
        value           nonuniform List<scalar> 9(0.000136141 0.00013089 0.000126469 0.000122357 0.000118746 0.000115347 0.000111409 0.000106246 9.91424e-05);
    }
    inlet
    {
        type            fixedValue;
        value           uniform 1.94e-05;
    }
    outlet
    {
        type            zeroGradient;
    }
}


// ************************************************************************* //
