/*--------------------------------*- C++ -*----------------------------------*\
  =========                 |
  \\      /  F ield         | OpenFOAM: The Open Source CFD Toolbox
   \\    /   O peration     | Website:  https://openfoam.org
    \\  /    A nd           | Version:  6
     \\/     M anipulation  |
\*---------------------------------------------------------------------------*/
FoamFile
{
    version     2.0;
    format      ascii;
    class       volScalarField;
    location    "700";
    object      k;
}
// * * * * * * * * * * * * * * * * * * * * * * * * * * * * * * * * * * * * * //

dimensions      [0 2 -2 0 0 0 0];

internalField   nonuniform List<scalar> 
458
(
0.00589581
0.00796409
0.00989158
0.00932429
0.00851538
0.00775041
0.00707423
0.00647645
0.00594085
0.0054728
0.00504126
0.00462334
0.00419538
0.00372012
0.00318503
0.000135559
0.000127442
0.000143036
0.000186686
0.000220595
0.000204737
0.000173658
0.00015718
0.000147478
0.000139405
0.000131727
0.000124346
0.000117459
0.000111845
0.000109029
0.000113277
0.000127318
0.000132263
0.00615041
0.0119634
0.0143307
0.0136571
0.0121014
0.0105408
0.00923304
0.00818158
0.0073316
0.00661047
0.00598964
0.00543394
0.00489814
0.00432905
0.00357447
0.0032501
0.0027519
0.00205118
0.000285748
0.000491276
0.000635533
0.00082959
0.000887501
0.000655362
0.000469966
0.000347455
0.000270664
0.000219082
0.000181383
0.000153164
0.000133137
0.000128273
0.000152753
0.000235481
0.000352591
0.000240804
0.00614702
0.0158303
0.0161582
0.014454
0.0123162
0.010523
0.00918538
0.00819012
0.00742351
0.0068006
0.00625056
0.00571861
0.00516603
0.00456674
0.00390878
0.00347009
0.00303981
0.00234137
0.000636458
0.00101405
0.00113865
0.00123898
0.0012447
0.000872759
0.000617757
0.000455107
0.000345162
0.000265949
0.000205755
0.000158209
0.000121377
0.000115554
0.000232839
0.000389088
0.000713133
0.000437274
0.0114413
0.0225534
0.0194687
0.0152992
0.0121871
0.0101726
0.00895216
0.00820071
0.0076421
0.00712168
0.00657745
0.00599224
0.00537292
0.00473298
0.00410603
0.00358613
0.00308364
0.00247236
0.00222812
0.00178313
0.00147644
0.00136167
0.00142392
0.0015172
0.00136915
0.00126576
0.00118222
0.00110732
0.00104382
0.000985958
0.000921164
0.000839782
0.000734523
0.000563055
0.00054753
0.000795255
0.000623792
0.0159317
0.033933
0.0216618
0.0141722
0.0107688
0.00911804
0.00844305
0.00821888
0.00785203
0.00733031
0.00672229
0.00607616
0.00542012
0.00477401
0.0041774
0.0036516
0.00315199
0.00270172
0.00244561
0.00207281
0.00182099
0.00174506
0.00184155
0.00199968
0.00208793
0.00208961
0.00206304
0.00205576
0.00202747
0.00194137
0.00178009
0.00153728
0.00123196
0.0009179
0.000755595
0.00078125
0.00116306
0.000955707
0.00138076
0.00152252
0.0164192
0.0411102
0.0169393
0.00980591
0.00824499
0.00752718
0.00739708
0.00731792
0.0071426
0.00677631
0.00632902
0.00581185
0.00525735
0.00470212
0.00419374
0.00373794
0.00331741
0.00299692
0.00279315
0.00258147
0.00252121
0.00265204
0.0029147
0.00313995
0.00323974
0.00324861
0.00321915
0.00309491
0.00288577
0.00260653
0.00226799
0.00188608
0.00149701
0.00115648
0.000950749
0.000878074
0.00102266
0.00163536
0.00345406
0.00183011
0.0162455
0.0337749
0.0133445
0.0075715
0.00667763
0.00619807
0.00607971
0.00602852
0.00602539
0.00592926
0.00572754
0.00542477
0.00505231
0.00465551
0.00426834
0.00391845
0.00362277
0.00347478
0.00351418
0.00370714
0.00412992
0.00459746
0.00490983
0.00498629
0.0048458
0.00454711
0.00415193
0.00374071
0.00332391
0.0028998
0.00247072
0.00205097
0.00167327
0.0013766
0.001195
0.00110547
0.00116882
0.0016602
0.0029089
0.00150747
0.0153636
0.0249212
0.0141146
0.00852671
0.00622427
0.00568765
0.00551864
0.00542536
0.00538528
0.00537342
0.0053151
0.00518916
0.00500958
0.00481011
0.0046278
0.00447416
0.00442748
0.00464672
0.00514253
0.00579681
0.0064464
0.0068237
0.00675537
0.00632584
0.00568364
0.00503776
0.00447402
0.00396703
0.00349788
0.00305756
0.00264745
0.00228014
0.00197803
0.00176101
0.00164119
0.00160781
0.00173239
0.00252395
0.00527914
0.00290987
0.013665
0.0163874
0.0185825
0.0128443
0.00726582
0.00622735
0.00596407
0.00579447
0.0056666
0.00560955
0.00559567
0.00559117
0.00559326
0.00561997
0.00570113
0.00586568
0.00618284
0.00672686
0.00739223
0.00795496
0.0081965
0.0080215
0.0075103
0.00683097
0.00613659
0.00551321
0.00497808
0.00450968
0.00409357
0.00372526
0.00340938
0.00315805
0.00298791
0.00291261
0.00293252
0.00302757
0.00326302
0.0042733
0.008324
0.00405882
0.0247991
0.0167814
0.0093909
0.00803596
0.00771378
0.00757125
0.00750022
0.00747509
0.00750748
0.00760617
0.00776895
0.00799875
0.00830178
0.00867626
0.00911251
0.00955796
0.00987426
0.00995933
0.00979132
0.00942781
0.00896562
0.00849179
0.00805794
0.00768087
0.00735783
0.00708138
0.00685025
0.00666958
0.00654983
0.00650404
0.00654246
0.00666188
0.0068295
0.00698322
0.00712668
0.00767079
0.0101754
0.00377993
0.0118402
0.0155737
0.0134148
0.0118649
0.0109925
0.0103531
0.00982544
0.00939986
0.0091362
0.00907022
0.00917268
0.00942768
0.00982645
0.0103559
0.010984
0.0116469
0.0122431
0.0126771
0.0129189
0.0129984
0.01297
0.0128868
0.0127903
0.0127058
0.0126445
0.0126103
0.0126099
0.0126561
0.0127673
0.0129662
0.013271
0.0136718
0.0140876
0.0143627
0.0143624
0.0140411
0.0120676
0.00396511
0.00265876
0.0039248
0.00518169
0.00526131
0.00506756
0.00495445
0.00492604
0.00494557
0.00500622
0.00511318
0.00524782
0.0053873
0.00553383
0.00568745
0.0058445
0.00599694
0.00613232
0.00623426
0.0062873
0.00628822
0.00624667
0.00617981
0.00610568
0.00603787
0.00598357
0.00594486
0.0059213
0.00591227
0.00591813
0.00594034
0.00598095
0.00604126
0.00611883
0.00620308
0.00627473
0.00631929
0.00633973
0.00627753
0.005711
0.00376652
)
;

boundaryField
{
    floor
    {
        type            kqRWallFunction;
        value           nonuniform List<scalar> 
36
(
0.00318503
0.000135559
0.000127442
0.000143036
0.000186686
0.000220595
0.000204737
0.000173658
0.00015718
0.000147478
0.000139405
0.000131727
0.000124346
0.000117459
0.000111845
0.000109029
0.000113277
0.000127318
0.000132263
0.000132263
0.000240804
0.000437274
0.000623792
0.000955707
0.00138076
0.00152252
0.00318503
0.0032501
0.0027519
0.00205118
0.000135559
0.00205118
0.000285748
0.00234137
0.000636458
0.00222812
)
;
    }
    ceiling
    {
        type            kqRWallFunction;
        value           nonuniform List<scalar> 
43
(
0.00265876
0.0039248
0.00518169
0.00526131
0.00506756
0.00495445
0.00492604
0.00494557
0.00500622
0.00511318
0.00524782
0.0053873
0.00553383
0.00568745
0.0058445
0.00599694
0.00613232
0.00623426
0.0062873
0.00628822
0.00624667
0.00617981
0.00610568
0.00603787
0.00598357
0.00594486
0.0059213
0.00591227
0.00591813
0.00594034
0.00598095
0.00604126
0.00611883
0.00620308
0.00627473
0.00631929
0.00633973
0.00627753
0.005711
0.00376652
0.013665
0.0163874
0.0118402
)
;
    }
    sWall
    {
        type            kqRWallFunction;
        value           uniform 0.00265876;
    }
    nWall
    {
        type            kqRWallFunction;
        value           nonuniform List<scalar> 6(0.00152252 0.00183011 0.00150747 0.00377993 0.00396511 0.00376652);
    }
    sideWalls
    {
        type            empty;
    }
    glass1
    {
        type            kqRWallFunction;
        value           nonuniform List<scalar> 9(0.00589581 0.00615041 0.00614702 0.0114413 0.0159317 0.0164192 0.0162455 0.0153636 0.013665);
    }
    glass2
    {
        type            kqRWallFunction;
        value           nonuniform List<scalar> 2(0.00290987 0.00405882);
    }
    sun
    {
        type            kqRWallFunction;
        value           nonuniform List<scalar> 
14
(
0.00589581
0.00796409
0.00989158
0.00932429
0.00851538
0.00775041
0.00707423
0.00647645
0.00594085
0.0054728
0.00504126
0.00462334
0.00419538
0.00372012
)
;
    }
    Table_master
    {
        type            kqRWallFunction;
        value           nonuniform List<scalar> 9(0.000872759 0.000617757 0.000455107 0.000345162 0.000265949 0.000205755 0.000158209 0.000121377 0.000115554);
    }
    Table_slave
    {
        type            kqRWallFunction;
        value           nonuniform List<scalar> 9(0.00136915 0.00126576 0.00118222 0.00110732 0.00104382 0.000985958 0.000921164 0.000839782 0.000734523);
    }
    inlet
    {
        type            turbulentIntensityKineticEnergyInlet;
        intensity       0.05;
        value           uniform 0.0018375;
    }
    outlet
    {
        type            zeroGradient;
    }
}


// ************************************************************************* //
