/*--------------------------------*- C++ -*----------------------------------*\
  =========                 |
  \\      /  F ield         | OpenFOAM: The Open Source CFD Toolbox
   \\    /   O peration     | Website:  https://openfoam.org
    \\  /    A nd           | Version:  6
     \\/     M anipulation  |
\*---------------------------------------------------------------------------*/
FoamFile
{
    version     2.0;
    format      ascii;
    class       volVectorField;
    location    "700";
    object      U;
}
// * * * * * * * * * * * * * * * * * * * * * * * * * * * * * * * * * * * * * //

dimensions      [0 1 -1 0 0 0 0];

internalField   nonuniform List<vector> 
458
(
(-0.0599167 0.0461724 0)
(-0.121455 -0.0795899 0)
(0.00886889 -0.142164 0)
(0.126181 -0.105335 0)
(0.21512 -0.0727303 0)
(0.28213 -0.048974 0)
(0.323694 -0.0321739 0)
(0.344097 -0.0200202 0)
(0.349173 -0.0109534 0)
(0.34267 -0.00330866 0)
(0.326458 0.00392745 0)
(0.30049 0.0119511 0)
(0.26254 0.0232254 0)
(0.203643 0.0462151 0)
(0.157824 0.113715 0)
(0.00747725 -0.00435727 0)
(0.00967798 0.000924261 0)
(0.00449365 0.00520725 0)
(0.00333333 0.00634677 0)
(0.00559263 0.00506389 0)
(0.00745136 0.00220643 0)
(0.00938861 -0.000577504 0)
(0.0119383 -0.00248745 0)
(0.0151763 -0.00351053 0)
(0.0191221 -0.00410559 0)
(0.0235969 -0.00449244 0)
(0.0281643 -0.00448851 0)
(0.0319236 -0.00352758 0)
(0.0337238 -0.00185464 0)
(0.0316332 0.000543047 0)
(0.0256074 0.00309993 0)
(0.00918246 0.0073657 0)
(0.0317414 0.00490778 0)
(0.121725 0.157297 0)
(0.00589374 -0.153248 0)
(0.116971 -0.211385 0)
(0.194643 -0.163984 0)
(0.255095 -0.109883 0)
(0.298759 -0.0676506 0)
(0.325368 -0.0363081 0)
(0.337496 -0.0126147 0)
(0.338355 0.00586279 0)
(0.329713 0.0208061 0)
(0.313293 0.0341438 0)
(0.290031 0.0478566 0)
(0.261607 0.0647706 0)
(0.232537 0.0899776 0)
(0.217901 0.138744 0)
(0.21906 0.115804 0)
(0.136542 0.0903263 0)
(0.0611505 0.0726809 0)
(-0.0310282 0.00542485 0)
(-0.0176505 0.00495335 0)
(-0.015543 -0.000910098 0)
(-0.00321949 -0.00750742 0)
(0.0147947 -0.00872713 0)
(0.0191616 0.000160632 0)
(0.0213639 0.0038199 0)
(0.0210317 0.00242647 0)
(0.0201444 -0.000207412 0)
(0.0197929 -0.0024842 0)
(0.0201403 -0.00416204 0)
(0.0212229 -0.00497333 0)
(0.0227997 -0.00388989 0)
(0.0243013 0.000880281 0)
(0.0214391 0.0079637 0)
(0.0136073 0.0120119 0)
(-0.0111351 0.0153818 0)
(0.0710456 0.00840575 0)
(0.336382 0.248306 0)
(0.161037 -0.207951 0)
(0.214208 -0.26725 0)
(0.265587 -0.213999 0)
(0.287746 -0.149322 0)
(0.299705 -0.0961565 0)
(0.306263 -0.0550431 0)
(0.307368 -0.0229348 0)
(0.30158 0.00345857 0)
(0.289854 0.0265063 0)
(0.273908 0.0472966 0)
(0.255063 0.0672304 0)
(0.235204 0.0880521 0)
(0.216845 0.111163 0)
(0.204945 0.135961 0)
(0.190844 0.11469 0)
(0.141518 0.107265 0)
(0.0955668 0.13399 0)
(-0.0599983 -0.018872 0)
(-0.00770124 -0.0264457 0)
(0.0107638 -0.0285407 0)
(0.0255566 -0.0295729 0)
(0.0416497 -0.0292483 0)
(0.0412738 -0.0233607 0)
(0.0405536 -0.0166416 0)
(0.0387102 -0.0132409 0)
(0.0360459 -0.0114749 0)
(0.0323493 -0.0106158 0)
(0.0275309 -0.0104481 0)
(0.0217255 -0.0107093 0)
(0.015446 -0.0103299 0)
(0.0096922 -0.00220258 0)
(0.0137555 0.0165639 0)
(0.00914659 0.0170876 0)
(-0.0198588 0.0176129 0)
(0.104761 0.0136043 0)
(0.698433 -0.029298 0)
(0.254109 -0.268702 0)
(0.269554 -0.278615 0)
(0.292298 -0.215299 0)
(0.271271 -0.147875 0)
(0.250211 -0.0918733 0)
(0.237269 -0.0482851 0)
(0.229024 -0.0133179 0)
(0.217804 0.0167817 0)
(0.207326 0.0423808 0)
(0.197316 0.0644463 0)
(0.187593 0.0844393 0)
(0.178402 0.103644 0)
(0.170126 0.122508 0)
(0.165714 0.139887 0)
(0.162057 0.137262 0)
(0.15202 0.139439 0)
(0.148891 0.161605 0)
(0.167873 0.11584 0)
(0.0917025 0.0485515 0)
(0.0733602 0.00585299 0)
(0.071915 -0.0221031 0)
(0.0741461 -0.0334132 0)
(0.0750598 -0.0329379 0)
(0.0821388 -0.0236953 0)
(0.095937 -0.0162873 0)
(0.105892 -0.0112698 0)
(0.109896 -0.0076046 0)
(0.109174 -0.00443581 0)
(0.104603 -0.00135017 0)
(0.0962649 0.00194326 0)
(0.0834528 0.006048 0)
(0.0658447 0.0121457 0)
(0.0412159 0.0225146 0)
(0.0299136 0.0238577 0)
(-0.000207725 0.0213876 0)
(0.115111 0.0288137 0)
(0.881351 -0.348007 0)
(0.0695818 -0.346603 0)
(0.184308 -0.269401 0)
(0.208384 -0.18265 0)
(0.158121 -0.114722 0)
(0.121429 -0.0631076 0)
(0.103099 -0.0262035 0)
(0.0955872 0.00358391 0)
(0.0967133 0.0286362 0)
(0.100023 0.0504566 0)
(0.103001 0.0703862 0)
(0.105563 0.0891409 0)
(0.108028 0.107021 0)
(0.110931 0.124029 0)
(0.116973 0.139471 0)
(0.124287 0.143559 0)
(0.130678 0.143998 0)
(0.14059 0.142682 0)
(0.152629 0.0900263 0)
(0.139803 0.0450137 0)
(0.135369 0.0096688 0)
(0.129064 -0.0151491 0)
(0.120744 -0.0275726 0)
(0.112566 -0.028272 0)
(0.108229 -0.0193853 0)
(0.106894 -0.0105565 0)
(0.104698 -0.00381666 0)
(0.0992936 0.00185176 0)
(0.0915104 0.00697282 0)
(0.0824009 0.0118208 0)
(0.0723411 0.016856 0)
(0.0615574 0.0227462 0)
(0.0511392 0.0301113 0)
(0.0407419 0.0359809 0)
(0.0353841 0.033896 0)
(0.0173711 0.0266403 0)
(0.0486321 0.0317597 0)
(0.019711 -0.0842579 0)
(-0.0471835 -0.190235 0)
(0.163667 -0.285736 0)
(0.911031 -0.38955 0)
(-0.320401 -0.317094 0)
(0.0868682 -0.256477 0)
(0.0862518 -0.13447 0)
(0.00986701 -0.073174 0)
(-0.0128175 -0.0384968 0)
(-0.0163398 -0.0187519 0)
(-0.0143465 -9.69243e-05 0)
(-0.00247921 0.0204163 0)
(0.00770235 0.0423422 0)
(0.0175411 0.06302 0)
(0.0274638 0.0823159 0)
(0.0377315 0.100052 0)
(0.0487567 0.116105 0)
(0.0624447 0.129516 0)
(0.0766155 0.133361 0)
(0.0904405 0.130358 0)
(0.107524 0.120145 0)
(0.123959 0.0818234 0)
(0.129958 0.0434072 0)
(0.131588 0.0117383 0)
(0.127263 -0.00957157 0)
(0.117734 -0.0192628 0)
(0.106189 -0.0192129 0)
(0.0951844 -0.0126153 0)
(0.0854396 -0.00439728 0)
(0.0753372 0.00335126 0)
(0.0660096 0.00983733 0)
(0.0574685 0.015286 0)
(0.0496611 0.0202106 0)
(0.0425728 0.0252341 0)
(0.0364141 0.0309256 0)
(0.032051 0.0372 0)
(0.0295703 0.0404582 0)
(0.0302412 0.0370177 0)
(0.0258238 0.0288925 0)
(0.0398858 0.0324754 0)
(0.0391791 0.0284506 0)
(0.0118595 0.0603384 0)
(0.0923913 0.109778 0)
(0.870978 -0.346531 0)
(-0.352669 -0.290325 0)
(-0.0249781 -0.280755 0)
(-0.0218667 -0.0896633 0)
(-0.0877866 -0.0563742 0)
(-0.09052 -0.0399931 0)
(-0.0887971 -0.0260253 0)
(-0.0850425 -0.0102542 0)
(-0.0770348 0.00861951 0)
(-0.0676343 0.0295538 0)
(-0.0563834 0.0500581 0)
(-0.0436187 0.069044 0)
(-0.0294374 0.0860487 0)
(-0.0138084 0.100773 0)
(0.00551046 0.112617 0)
(0.0246843 0.115292 0)
(0.0435758 0.111036 0)
(0.0654449 0.0992305 0)
(0.084139 0.0697215 0)
(0.0944715 0.0374938 0)
(0.0962925 0.0116491 0)
(0.0909252 -0.00357014 0)
(0.080172 -0.00880154 0)
(0.0667883 -0.00669148 0)
(0.0527892 -6.72922e-05 0)
(0.0406464 0.00752331 0)
(0.0318521 0.013645 0)
(0.0250941 0.0183126 0)
(0.0198178 0.0222192 0)
(0.0157434 0.0259202 0)
(0.0128261 0.0297879 0)
(0.0113291 0.0339577 0)
(0.0119399 0.0378345 0)
(0.0146345 0.0386092 0)
(0.0191175 0.0343121 0)
(0.0207632 0.0266396 0)
(0.0273797 0.0249319 0)
(0.0227265 0.0281687 0)
(-0.021332 0.0427268 0)
(0.104099 0.019795 0)
(0.778734 -0.267412 0)
(-0.364666 -0.243269 0)
(-0.192473 -0.292786 0)
(-0.100329 -0.0921853 0)
(-0.151806 -0.0592972 0)
(-0.145447 -0.0437867 0)
(-0.142891 -0.0301979 0)
(-0.140827 -0.0155423 0)
(-0.136551 0.00127646 0)
(-0.129253 0.0196157 0)
(-0.119108 0.0376655 0)
(-0.106172 0.0544587 0)
(-0.0907359 0.0693201 0)
(-0.0728852 0.0816452 0)
(-0.0518974 0.0905847 0)
(-0.0299413 0.0930146 0)
(-0.0076169 0.0890338 0)
(0.0171814 0.0766826 0)
(0.0340909 0.0535301 0)
(0.0421265 0.0305315 0)
(0.0410726 0.0141353 0)
(0.033147 0.00597262 0)
(0.0221459 0.00436089 0)
(0.0103425 0.00711067 0)
(0.00076727 0.0116951 0)
(-0.00606106 0.0161633 0)
(-0.0103645 0.0196253 0)
(-0.0130268 0.0224878 0)
(-0.0144142 0.0251021 0)
(-0.0146863 0.0276747 0)
(-0.0137975 0.0302664 0)
(-0.0114919 0.0327168 0)
(-0.0073788 0.0343858 0)
(-0.00171647 0.0336164 0)
(0.00457263 0.0294108 0)
(0.00811382 0.0236352 0)
(0.0125841 0.0223157 0)
(0.0120784 0.0304221 0)
(-0.0422197 0.0441733 0)
(0.237819 0.0173604 0)
(0.646984 -0.233072 0)
(-0.451657 -0.297897 0)
(-0.408337 -0.369251 0)
(-0.135375 -0.127279 0)
(-0.189461 -0.0642376 0)
(-0.183585 -0.0432719 0)
(-0.184543 -0.0298277 0)
(-0.18602 -0.0173935 0)
(-0.185325 -0.00409466 0)
(-0.180633 0.0106392 0)
(-0.172414 0.0255032 0)
(-0.160535 0.0393862 0)
(-0.145373 0.0515435 0)
(-0.127199 0.0612891 0)
(-0.10623 0.0677641 0)
(-0.0839493 0.0693291 0)
(-0.0617097 0.0656282 0)
(-0.0407036 0.0566562 0)
(-0.0266915 0.0428545 0)
(-0.0208004 0.0300758 0)
(-0.0219582 0.0214481 0)
(-0.0273553 0.017092 0)
(-0.0340704 0.015974 0)
(-0.0400839 0.0169388 0)
(-0.0441923 0.0188328 0)
(-0.0462558 0.0208624 0)
(-0.0466279 0.0226601 0)
(-0.0457481 0.0243374 0)
(-0.0438304 0.0259775 0)
(-0.0409492 0.0275866 0)
(-0.0370647 0.0290716 0)
(-0.0320675 0.0301903 0)
(-0.0259237 0.0304673 0)
(-0.0191489 0.0291761 0)
(-0.0128046 0.0262413 0)
(-0.00810742 0.02291 0)
(-0.00277923 0.0229938 0)
(0.00076211 0.0313193 0)
(-0.0508165 0.0394984 0)
(0.262315 0.0373155 0)
(-0.610485 -0.408498 0)
(-0.0996352 -0.110634 0)
(-0.185932 -0.0452749 0)
(-0.209764 -0.0230688 0)
(-0.220253 -0.00864266 0)
(-0.22552 0.00395401 0)
(-0.226883 0.0154968 0)
(-0.224121 0.0252291 0)
(-0.217614 0.033825 0)
(-0.207347 0.0418041 0)
(-0.193571 0.0487 0)
(-0.176731 0.0539593 0)
(-0.157553 0.0569522 0)
(-0.137439 0.056933 0)
(-0.11807 0.0538938 0)
(-0.101332 0.048461 0)
(-0.0898179 0.041588 0)
(-0.0837776 0.0354305 0)
(-0.0818487 0.03105 0)
(-0.0820897 0.0284815 0)
(-0.0828406 0.0273887 0)
(-0.0830033 0.0273264 0)
(-0.0820399 0.027789 0)
(-0.0798928 0.0283919 0)
(-0.076739 0.0289157 0)
(-0.0727615 0.0293227 0)
(-0.0680539 0.0295783 0)
(-0.0626602 0.0296181 0)
(-0.0566095 0.0293388 0)
(-0.0499675 0.0285908 0)
(-0.0429449 0.0271755 0)
(-0.0360818 0.0249103 0)
(-0.0300845 0.0220307 0)
(-0.0251479 0.0196763 0)
(-0.0207071 0.0206804 0)
(-0.0219945 0.0272422 0)
(-0.0564652 0.0322894 0)
(0.152007 0.0612076 0)
(-0.246131 -0.0762009 0)
(-0.176071 -0.102759 0)
(-0.218695 -0.104548 0)
(-0.241515 -0.103847 0)
(-0.255813 -0.101446 0)
(-0.264891 -0.0971538 0)
(-0.269168 -0.0903604 0)
(-0.268656 -0.080083 0)
(-0.263861 -0.068394 0)
(-0.25515 -0.0582655 0)
(-0.242831 -0.0499928 0)
(-0.227502 -0.0437558 0)
(-0.210043 -0.0398085 0)
(-0.19169 -0.0384025 0)
(-0.173844 -0.0394271 0)
(-0.157875 -0.0425362 0)
(-0.144946 -0.0472656 0)
(-0.135193 -0.0526291 0)
(-0.127975 -0.0579538 0)
(-0.122398 -0.0628853 0)
(-0.117654 -0.0671554 0)
(-0.113129 -0.0705947 0)
(-0.108435 -0.0732184 0)
(-0.103392 -0.0751586 0)
(-0.0979542 -0.0765646 0)
(-0.0921191 -0.0775266 0)
(-0.0858858 -0.0781219 0)
(-0.0792593 -0.078435 0)
(-0.0722662 -0.0785737 0)
(-0.0649887 -0.0786895 0)
(-0.0576278 -0.0789965 0)
(-0.0505272 -0.0797192 0)
(-0.0438898 -0.0807738 0)
(-0.0372841 -0.081251 0)
(-0.0307816 -0.0794244 0)
(-0.0296788 -0.076806 0)
(-0.0411711 -0.087799 0)
(0.131997 -0.137259 0)
(0.454273 0.214162 0)
(-0.0595039 -0.422637 0)
(-0.326264 0.267866 0)
(-0.246955 0.243355 0)
(-0.264155 0.23722 0)
(-0.279016 0.237645 0)
(-0.29175 0.237642 0)
(-0.301753 0.23672 0)
(-0.308398 0.234259 0)
(-0.310848 0.229582 0)
(-0.3086 0.224674 0)
(-0.301921 0.222017 0)
(-0.291299 0.221431 0)
(-0.277415 0.222708 0)
(-0.261129 0.225683 0)
(-0.243468 0.230192 0)
(-0.225493 0.236051 0)
(-0.208165 0.24308 0)
(-0.192233 0.251043 0)
(-0.178007 0.259559 0)
(-0.165432 0.268257 0)
(-0.154289 0.276767 0)
(-0.144299 0.284736 0)
(-0.135155 0.291931 0)
(-0.126575 0.298302 0)
(-0.118339 0.303929 0)
(-0.110297 0.308926 0)
(-0.102349 0.313378 0)
(-0.0944335 0.317339 0)
(-0.086531 0.32084 0)
(-0.0786671 0.323904 0)
(-0.0709362 0.326578 0)
(-0.0635236 0.328975 0)
(-0.056606 0.331288 0)
(-0.0499786 0.333614 0)
(-0.0431893 0.335696 0)
(-0.0387505 0.337679 0)
(-0.0464224 0.345114 0)
(-0.0611231 0.380777 0)
(0.191738 0.496531 0)
)
;

boundaryField
{
    floor
    {
        type            noSlip;
    }
    ceiling
    {
        type            noSlip;
    }
    sWall
    {
        type            noSlip;
    }
    nWall
    {
        type            noSlip;
    }
    sideWalls
    {
        type            empty;
    }
    glass1
    {
        type            noSlip;
    }
    glass2
    {
        type            noSlip;
    }
    sun
    {
        type            noSlip;
    }
    Table_master
    {
        type            noSlip;
    }
    Table_slave
    {
        type            noSlip;
    }
    inlet
    {
        type            fixedValue;
        value           uniform (0.267878 -0.646716 0);
    }
    outlet
    {
        type            zeroGradient;
    }
}


// ************************************************************************* //
