/*--------------------------------*- C++ -*----------------------------------*\
  =========                 |
  \\      /  F ield         | OpenFOAM: The Open Source CFD Toolbox
   \\    /   O peration     | Website:  https://openfoam.org
    \\  /    A nd           | Version:  6
     \\/     M anipulation  |
\*---------------------------------------------------------------------------*/
FoamFile
{
    version     2.0;
    format      ascii;
    class       volScalarField;
    location    "500";
    object      T;
}
// * * * * * * * * * * * * * * * * * * * * * * * * * * * * * * * * * * * * * //

dimensions      [0 0 0 1 0 0 0];

internalField   nonuniform List<scalar> 
458
(
303.986
303.717
303.706
303.704
303.702
303.699
303.697
303.695
303.692
303.688
303.683
303.676
303.668
303.66
303.653
303.709
303.68
303.681
303.683
303.685
303.687
303.688
303.69
303.691
303.693
303.694
303.695
303.696
303.697
303.698
303.699
303.7
303.707
304.175
303.749
303.726
303.727
303.73
303.732
303.733
303.733
303.731
303.726
303.717
303.701
303.682
303.662
303.645
303.639
303.64
303.648
303.671
303.671
303.674
303.679
303.682
303.683
303.682
303.681
303.681
303.68
303.679
303.678
303.678
303.678
303.679
303.68
303.683
303.696
304.367
303.792
303.749
303.756
303.766
303.776
303.784
303.789
303.791
303.787
303.773
303.748
303.714
303.678
303.649
303.633
303.628
303.635
303.662
303.67
303.68
303.689
303.696
303.694
303.691
303.689
303.687
303.684
303.682
303.679
303.677
303.675
303.675
303.675
303.677
303.69
304.553
303.849
303.774
303.782
303.8
303.819
303.837
303.852
303.861
303.86
303.842
303.805
303.753
303.698
303.655
303.63
303.623
303.63
303.645
303.657
303.675
303.692
303.705
303.714
303.721
303.726
303.729
303.732
303.734
303.735
303.735
303.735
303.733
303.713
303.695
303.683
303.689
304.728
303.925
303.807
303.804
303.825
303.852
303.88
303.907
303.927
303.932
303.912
303.861
303.789
303.716
303.658
303.625
303.619
303.63
303.649
303.67
303.692
303.711
303.726
303.736
303.744
303.749
303.753
303.755
303.756
303.756
303.754
303.75
303.745
303.732
303.712
303.694
303.688
303.688
303.688
303.73
304.878
304.028
303.88
303.843
303.851
303.874
303.905
303.939
303.972
303.987
303.965
303.902
303.811
303.723
303.655
303.619
303.614
303.631
303.658
303.687
303.713
303.733
303.748
303.757
303.763
303.767
303.77
303.771
303.771
303.769
303.766
303.76
303.753
303.742
303.725
303.707
303.695
303.691
303.691
303.731
305.008
304.197
304.059
303.986
303.947
303.935
303.945
303.969
304.004
304.018
303.985
303.909
303.809
303.713
303.642
303.607
303.608
303.635
303.672
303.708
303.736
303.755
303.766
303.773
303.778
303.781
303.782
303.782
303.781
303.778
303.774
303.767
303.758
303.748
303.734
303.718
303.706
303.7
303.699
303.729
305.214
304.62
304.474
304.338
304.214
304.13
304.085
304.071
304.07
304.045
303.978
303.878
303.767
303.671
303.608
303.586
303.602
303.644
303.693
303.733
303.756
303.77
303.779
303.784
303.788
303.79
303.791
303.79
303.789
303.786
303.781
303.775
303.766
303.756
303.746
303.735
303.727
303.727
303.732
303.838
305.505
305.238
304.874
304.646
304.466
304.33
304.234
304.168
304.112
304.018
303.896
303.77
303.66
303.586
303.552
303.561
303.604
303.665
303.72
303.751
303.769
303.78
303.787
303.792
303.795
303.798
303.799
303.799
303.798
303.796
303.794
303.793
303.794
303.797
303.805
303.82
303.842
303.868
303.889
303.942
294.269
300.049
302.027
302.87
303.265
303.442
303.499
303.521
303.515
303.49
303.465
303.468
303.497
303.555
303.63
303.701
303.741
303.763
303.776
303.785
303.792
303.797
303.801
303.805
303.808
303.81
303.812
303.814
303.816
303.818
303.821
303.826
303.835
303.848
303.865
303.883
303.899
303.914
299.094
300.581
301.966
302.634
302.983
303.167
303.25
303.286
303.31
303.325
303.355
303.429
303.51
303.607
303.681
303.726
303.751
303.767
303.777
303.785
303.792
303.798
303.803
303.808
303.812
303.816
303.82
303.824
303.827
303.83
303.833
303.838
303.844
303.853
303.864
303.876
303.876
303.898
301.546
301.454
301.45
302.175
302.501
302.783
302.985
303.154
303.2
303.222
303.241
303.265
303.36
303.568
303.644
303.687
303.715
303.732
303.744
303.753
303.761
303.768
303.774
303.781
303.787
303.793
303.798
303.804
303.809
303.814
303.818
303.823
303.828
303.832
303.837
303.843
303.854
303.858
303.856
303.888
)
;

boundaryField
{
    floor
    {
        type            wallHeatTransfer;
        Tinf            uniform 305.2;
        alphaWall       uniform 0.24;
        value           nonuniform List<scalar> 
36
(
303.817
304.01
303.944
303.947
303.954
303.961
303.969
303.978
303.987
303.995
304.004
304.012
304.019
304.027
304.035
304.043
304.054
304.065
304.093
304.093
304.045
304.017
303.995
303.962
303.949
303.976
303.817
303.799
303.817
303.846
304.01
303.846
303.895
303.801
303.858
303.813
)
;
    }
    ceiling
    {
        type            wallHeatTransfer;
        Tinf            uniform 303.2;
        alphaWall       uniform 0.24;
        value           nonuniform List<scalar> 
43
(
301.664
301.569
301.559
302.236
302.542
302.808
302.998
303.157
303.2
303.22
303.238
303.259
303.342
303.524
303.591
303.63
303.652
303.665
303.674
303.68
303.686
303.691
303.696
303.701
303.706
303.71
303.715
303.721
303.726
303.732
303.739
303.745
303.752
303.759
303.767
303.775
303.787
303.79
303.784
303.808
305.397
305.155
299.327
)
;
    }
    sWall
    {
        type            wallHeatTransfer;
        Tinf            uniform 315.2;
        alphaWall       uniform 0.36;
        value           uniform 302.964;
    }
    nWall
    {
        type            wallHeatTransfer;
        Tinf            uniform 307.2;
        alphaWall       uniform 0.36;
        value           nonuniform List<scalar> 6(304.535 304.394 304.306 304.407 304.386 304.432);
    }
    sideWalls
    {
        type            empty;
    }
    glass1
    {
        type            wallHeatTransfer;
        Tinf            uniform 315.2;
        alphaWall       uniform 4.3;
        value           nonuniform List<scalar> 9(312.164 311.469 311.007 310.635 310.321 310.041 309.823 309.88 310.09);
    }
    glass2
    {
        type            wallHeatTransfer;
        Tinf            uniform 307.2;
        alphaWall       uniform 4.3;
        value           nonuniform List<scalar> 2(306.005 306.052);
    }
    sun
    {
        type            wallHeatTransfer;
        Tinf            uniform 305.2;
        alphaWall       uniform 0.24;
        value           nonuniform List<scalar> 
14
(
304.141
303.898
303.889
303.882
303.876
303.87
303.864
303.859
303.854
303.848
303.842
303.835
303.827
303.821
)
;
    }
    Table_master
    {
        type            zeroGradient;
    }
    Table_slave
    {
        type            zeroGradient;
    }
    inlet
    {
        type            fixedValue;
        value           uniform 292.15;
    }
    outlet
    {
        type            zeroGradient;
    }
}


// ************************************************************************* //
