/*--------------------------------*- C++ -*----------------------------------*\
  =========                 |
  \\      /  F ield         | OpenFOAM: The Open Source CFD Toolbox
   \\    /   O peration     | Website:  https://openfoam.org
    \\  /    A nd           | Version:  6
     \\/     M anipulation  |
\*---------------------------------------------------------------------------*/
FoamFile
{
    version     2.0;
    format      ascii;
    class       volScalarField;
    location    "1700";
    object      k;
}
// * * * * * * * * * * * * * * * * * * * * * * * * * * * * * * * * * * * * * //

dimensions      [0 2 -2 0 0 0 0];

internalField   nonuniform List<scalar> 
458
(
0.00279106
0.00335534
0.00360724
0.00397741
0.00433395
0.00469511
0.00509
0.00549237
0.00586033
0.00613163
0.00622031
0.00591394
0.00479992
0.00360144
0.00267795
0.000571503
0.000786261
0.00105338
0.00120087
0.00119135
0.0010665
0.000930643
0.000814953
0.000719646
0.000640758
0.000574934
0.000519598
0.000472303
0.000430495
0.000391775
0.000353248
0.000318131
0.000260391
0.00462008
0.00813224
0.00499291
0.00525954
0.00564389
0.0061626
0.00681068
0.00760394
0.0084524
0.00913212
0.00945178
0.0094204
0.00841012
0.00666174
0.00455863
0.00360141
0.00274572
0.00192996
0.000529196
0.00113583
0.00164907
0.00192734
0.0019943
0.0017314
0.00143065
0.00118704
0.000999349
0.000853275
0.000738039
0.000644509
0.000564875
0.0004951
0.000444235
0.000414116
0.00057176
0.000364164
0.00645182
0.0135727
0.00553401
0.00540126
0.00554874
0.00588847
0.00642838
0.00716391
0.00797549
0.00866437
0.0091348
0.00943895
0.00911222
0.00777765
0.00607117
0.00466798
0.00364419
0.00228697
0.00101073
0.0015384
0.00195421
0.0022349
0.0022895
0.00181522
0.00140415
0.00109843
0.000876784
0.000715447
0.00059643
0.000507836
0.000442705
0.000397933
0.000373732
0.000379137
0.000771137
0.000452623
0.00842568
0.0208152
0.006092
0.00520165
0.00511925
0.00531212
0.00579873
0.00658362
0.00743722
0.00818036
0.00877987
0.00919436
0.00892428
0.00765511
0.00626875
0.0050057
0.00400063
0.00293863
0.00252205
0.00246406
0.00259088
0.00279292
0.00290511
0.00282018
0.00226264
0.00190789
0.0016774
0.00151133
0.00137331
0.00124876
0.00113252
0.00101379
0.00088236
0.000654292
0.000513796
0.000990204
0.000560137
0.010648
0.0308711
0.00764466
0.00501123
0.00467933
0.00481862
0.00541316
0.00647877
0.00746838
0.00829076
0.0089584
0.00931136
0.00876729
0.00727083
0.00586713
0.00487203
0.00412428
0.00360847
0.00376514
0.00375929
0.00379281
0.00381735
0.00370522
0.00342273
0.00305112
0.00279818
0.00265165
0.00253028
0.00238718
0.00219308
0.00194749
0.00166549
0.00136464
0.00103729
0.000772169
0.000881922
0.000873204
0.000824019
0.000938792
0.0009391
0.0133117
0.0425474
0.0123591
0.00551093
0.00451013
0.00446449
0.00534543
0.00692846
0.00803041
0.00889492
0.00955521
0.00973205
0.0088278
0.00690946
0.00522488
0.00435872
0.00404909
0.00408321
0.00441079
0.00468714
0.00477286
0.00461932
0.00425495
0.0037749
0.00335869
0.00314669
0.00304804
0.00295627
0.00282618
0.00263654
0.0023684
0.00205238
0.00171651
0.00137761
0.00109691
0.000966667
0.000922081
0.00120865
0.00287053
0.00159669
0.0164442
0.050532
0.0225998
0.0102451
0.00641715
0.00536137
0.00661267
0.00816947
0.00915935
0.00991525
0.0104208
0.010366
0.00907241
0.00663225
0.00464122
0.00390043
0.00402213
0.00447044
0.00499026
0.00526213
0.00516619
0.00478184
0.00424087
0.00369466
0.00331106
0.00315991
0.0031179
0.00309026
0.00304281
0.00296075
0.00281398
0.00257795
0.00229661
0.0019969
0.001754
0.00161512
0.00160871
0.0019578
0.00425868
0.00251455
0.0174475
0.0529572
0.0357723
0.0236856
0.0152457
0.0112274
0.0105512
0.0106194
0.0109609
0.0113537
0.0115394
0.0111187
0.00928704
0.00620516
0.00418274
0.00381015
0.00411271
0.00461253
0.00501134
0.00505447
0.00473183
0.00421015
0.00366692
0.00323907
0.00300099
0.00293408
0.00295841
0.0030237
0.00311601
0.00323627
0.00338564
0.00352614
0.00359639
0.00364302
0.00383129
0.0044341
0.00573549
0.00736547
0.0147513
0.00449057
0.017059
0.0254799
0.0261822
0.0236293
0.0198177
0.0167698
0.0146363
0.0134855
0.0131784
0.0130493
0.0127003
0.0117024
0.00898276
0.00521934
0.00384988
0.00369081
0.0039009
0.00414442
0.00421736
0.00403437
0.00364489
0.00318918
0.00280164
0.0025565
0.00246063
0.00247481
0.00255506
0.0026792
0.0028419
0.00304448
0.00328846
0.00357074
0.0039081
0.00433679
0.00490325
0.00558764
0.00625373
0.00671661
0.00701213
0.00412986
0.00871749
0.0125618
0.014262
0.0145803
0.0146793
0.0153197
0.0153592
0.0145776
0.0133158
0.0113058
0.00664805
0.00391793
0.00321465
0.00308366
0.00308367
0.00304488
0.00288635
0.0026152
0.00231034
0.00203888
0.00185863
0.00178389
0.00179264
0.00185701
0.00195871
0.00209031
0.00225139
0.00244632
0.00268448
0.00298703
0.00336106
0.00380259
0.00429321
0.00474788
0.00499239
0.00484557
0.00431241
0.00259195
0.00946871
0.0329173
0.0279089
0.0269106
0.0271907
0.0228574
0.0176502
0.0136755
0.00931504
0.00540894
0.00318552
0.00243767
0.00214437
0.00198934
0.00185864
0.00170439
0.0015217
0.0013434
0.00121232
0.00114977
0.00114776
0.0011913
0.00127006
0.00137775
0.00151307
0.00167804
0.00187684
0.00211494
0.00239894
0.00274232
0.00315329
0.00363522
0.00416491
0.00466122
0.004998
0.00519519
0.00411276
0.00264748
0.0159954
0.0160058
0.0162429
0.0221493
0.0181521
0.0145255
0.00930861
0.00491033
0.00335946
0.0024508
0.00181745
0.00139859
0.00118504
0.00104112
0.000949859
0.000879887
0.000816997
0.00075771
0.000707861
0.000677642
0.000673107
0.000693161
0.000733438
0.000788222
0.000854523
0.000932102
0.00102165
0.00112475
0.00124418
0.00138473
0.00155411
0.00175055
0.00197803
0.00224143
0.00254527
0.00289903
0.00316977
0.00304435
0.00256866
0.00216253
)
;

boundaryField
{
    floor
    {
        type            kqRWallFunction;
        value           nonuniform List<scalar> 
36
(
0.00267795
0.000571503
0.000786261
0.00105338
0.00120087
0.00119135
0.0010665
0.000930643
0.000814953
0.000719646
0.000640758
0.000574934
0.000519598
0.000472303
0.000430495
0.000391775
0.000353248
0.000318131
0.000260391
0.000260391
0.000364164
0.000452623
0.000560137
0.000824019
0.000938792
0.0009391
0.00267795
0.00360141
0.00274572
0.00192996
0.000571503
0.00192996
0.000529196
0.00228697
0.00101073
0.00252205
)
;
    }
    ceiling
    {
        type            kqRWallFunction;
        value           nonuniform List<scalar> 
43
(
0.0159954
0.0160058
0.0162429
0.0221493
0.0181521
0.0145255
0.00930861
0.00491033
0.00335946
0.0024508
0.00181745
0.00139859
0.00118504
0.00104112
0.000949859
0.000879887
0.000816997
0.00075771
0.000707861
0.000677642
0.000673107
0.000693161
0.000733438
0.000788222
0.000854523
0.000932102
0.00102165
0.00112475
0.00124418
0.00138473
0.00155411
0.00175055
0.00197803
0.00224143
0.00254527
0.00289903
0.00316977
0.00304435
0.00256866
0.00216253
0.017059
0.0254799
0.00946871
)
;
    }
    sWall
    {
        type            kqRWallFunction;
        value           uniform 0.0159954;
    }
    nWall
    {
        type            kqRWallFunction;
        value           nonuniform List<scalar> 6(0.0009391 0.00159669 0.00251455 0.00259195 0.00264748 0.00216253);
    }
    sideWalls
    {
        type            empty;
    }
    glass1
    {
        type            kqRWallFunction;
        value           nonuniform List<scalar> 9(0.00279106 0.00462008 0.00645182 0.00842568 0.010648 0.0133117 0.0164442 0.0174475 0.017059);
    }
    glass2
    {
        type            kqRWallFunction;
        value           nonuniform List<scalar> 2(0.00449057 0.00412986);
    }
    sun
    {
        type            kqRWallFunction;
        value           nonuniform List<scalar> 
14
(
0.00279106
0.00335534
0.00360724
0.00397741
0.00433395
0.00469511
0.00509
0.00549237
0.00586033
0.00613163
0.00622031
0.00591394
0.00479992
0.00360144
)
;
    }
    Table_master
    {
        type            kqRWallFunction;
        value           nonuniform List<scalar> 9(0.00181522 0.00140415 0.00109843 0.000876784 0.000715447 0.00059643 0.000507836 0.000442705 0.000397933);
    }
    Table_slave
    {
        type            kqRWallFunction;
        value           nonuniform List<scalar> 9(0.00226264 0.00190789 0.0016774 0.00151133 0.00137331 0.00124876 0.00113252 0.00101379 0.00088236);
    }
    inlet
    {
        type            turbulentIntensityKineticEnergyInlet;
        intensity       0.05;
        value           uniform 0.00375;
    }
    outlet
    {
        type            zeroGradient;
    }
}


// ************************************************************************* //
