/*--------------------------------*- C++ -*----------------------------------*\
  =========                 |
  \\      /  F ield         | OpenFOAM: The Open Source CFD Toolbox
   \\    /   O peration     | Website:  https://openfoam.org
    \\  /    A nd           | Version:  6
     \\/     M anipulation  |
\*---------------------------------------------------------------------------*/
FoamFile
{
    version     2.0;
    format      ascii;
    class       volScalarField;
    location    "200";
    object      epsilon;
}
// * * * * * * * * * * * * * * * * * * * * * * * * * * * * * * * * * * * * * //

dimensions      [0 2 -3 0 0 0 0];

internalField   nonuniform List<scalar> 
458
(
0.000862409
0.0011593
0.00129812
0.00153156
0.00178751
0.00208645
0.00242156
0.00274815
0.00300672
0.00311564
0.00263818
0.00201001
0.00143928
0.00101516
0.00067664
9.40121e-05
0.00015471
0.000233915
0.000263754
0.000248548
0.000204915
0.000164042
0.000132318
0.000108234
8.97751e-05
7.54449e-05
6.41774e-05
5.51549e-05
4.76833e-05
4.12217e-05
3.52918e-05
3.12357e-05
2.39227e-05
0.00186528
0.00253088
0.00105779
0.0010586
0.0011431
0.00130985
0.00155747
0.0018308
0.00202843
0.00206193
0.00183184
0.00138151
0.00103053
0.000803708
0.000632046
0.00095174
0.000656676
0.000403876
8.76364e-05
0.000153364
0.000193208
0.000202196
0.000197157
0.000202902
0.000162871
0.000126517
9.8634e-05
7.77551e-05
6.21474e-05
5.03843e-05
4.13852e-05
3.44808e-05
3.01482e-05
2.83e-05
6.46266e-05
4.61143e-05
0.00309497
0.00538939
0.00112509
0.000944478
0.00102324
0.00121054
0.00148576
0.0017766
0.00197987
0.00203811
0.00186981
0.00143588
0.00105362
0.000790408
0.000611577
0.000562564
0.000504047
0.000505814
0.0002499
0.000253157
0.000241015
0.00022783
0.000224344
0.000478268
0.000314965
0.000213183
0.000149711
0.000109139
8.23888e-05
6.42776e-05
5.1949e-05
4.39216e-05
3.35291e-05
2.98901e-05
0.000129082
7.04976e-05
0.00463756
0.0104663
0.00148401
0.00089397
0.000952066
0.00117091
0.00151418
0.00184091
0.00206735
0.00216542
0.00199759
0.00151924
0.00105742
0.000749341
0.00056165
0.000460002
0.000404089
0.000435736
0.000620152
0.000515466
0.000389772
0.00032295
0.000280742
0.000266671
0.000679794
0.000510643
0.000406331
0.000332854
0.000276322
0.000230078
0.000189226
0.000151353
0.000114351
6.21998e-05
4.31593e-05
0.000247564
9.61989e-05
0.00660851
0.0183032
0.00250737
0.000915748
0.000901029
0.0012027
0.00172021
0.00209636
0.0023494
0.002464
0.00223397
0.00164537
0.00105867
0.000686673
0.000493986
0.000399645
0.000359476
0.000387312
0.000500977
0.000461209
0.000414654
0.000372287
0.000324499
0.000277798
0.000265651
0.000245047
0.000226674
0.000206823
0.0001847
0.000160933
0.000136663
0.000113245
9.12365e-05
6.54137e-05
5.02989e-05
0.000158023
0.000240476
0.000217894
0.000244609
0.000305784
0.00924224
0.0274078
0.00525481
0.00130224
0.000973964
0.00146461
0.00221565
0.00258842
0.00283858
0.00291901
0.00258012
0.00180626
0.00104453
0.000596219
0.000409955
0.000352369
0.000356492
0.000409941
0.000479214
0.000497847
0.000477987
0.000426194
0.000357247
0.000290032
0.000246124
0.000224583
0.000211556
0.000196846
0.000177757
0.000154646
0.000130193
0.000107244
8.71825e-05
6.88982e-05
6.08084e-05
0.000105029
0.000185098
0.000217153
0.000352778
0.000349453
0.0123561
0.0330914
0.0107795
0.00378241
0.00230818
0.00276506
0.00318706
0.00340283
0.00356554
0.00354737
0.00301558
0.00196242
0.000986655
0.000490027
0.000349175
0.000338573
0.000382336
0.000455193
0.000521741
0.000536695
0.00049816
0.00042533
0.000342943
0.000273952
0.000236456
0.000222083
0.000216605
0.000211758
0.000204548
0.000191917
0.000171982
0.000151377
0.00013289
0.00011725
0.000114591
0.000144434
0.000222538
0.000359705
0.00069889
0.000670863
0.0132246
0.036128
0.0198032
0.0114261
0.00738311
0.00574643
0.00497806
0.00468463
0.00459257
0.0043529
0.00347742
0.00200617
0.000816979
0.000437271
0.000355946
0.000370197
0.00042111
0.000482807
0.000520615
0.000504858
0.000444291
0.00036798
0.000300508
0.000255233
0.000234476
0.000230818
0.00023666
0.000249063
0.000268361
0.000294824
0.000323903
0.000344318
0.0003739
0.000432205
0.000539755
0.000851603
0.001605
0.00305681
0.0097079
0.00212529
0.0124569
0.0218416
0.0171758
0.0129726
0.00995825
0.00791894
0.00676995
0.00618974
0.00582347
0.00522825
0.00374005
0.00164304
0.000689575
0.00044609
0.000404664
0.000420842
0.000452519
0.000476933
0.000473159
0.00043596
0.000380558
0.000326721
0.00028721
0.000264943
0.000256708
0.000258037
0.00026716
0.000286029
0.000319486
0.000374076
0.000457271
0.000576967
0.00074317
0.000989042
0.00133051
0.00176324
0.00223025
0.00262614
0.00293302
0.00159416
0.00508329
0.00699725
0.0080149
0.00850215
0.00847761
0.00781507
0.00694714
0.00564441
0.00283469
0.00120598
0.000683049
0.000543183
0.000515456
0.000521381
0.000535288
0.000543753
0.000537478
0.000515084
0.000483971
0.000455362
0.000437035
0.000425801
0.000417828
0.000410432
0.000403216
0.000398916
0.000404177
0.000429781
0.000485551
0.000581283
0.000728398
0.000937677
0.00120352
0.00147975
0.00166655
0.00164048
0.00130615
0.000899101
0.00500107
0.0230355
0.0199649
0.0164978
0.0111774
0.00598998
0.00336202
0.00199147
0.00125319
0.000967972
0.0008665
0.000844094
0.000851013
0.000870157
0.000894707
0.000920435
0.000943818
0.000961025
0.000966627
0.000955986
0.000939453
0.000922918
0.000904667
0.000882325
0.00085478
0.000823081
0.000791198
0.000766376
0.000769246
0.000813905
0.000910641
0.00106672
0.00128025
0.00154418
0.00177592
0.00189364
0.00117862
0.000953185
0.00765757
0.00794579
0.00831876
0.0126753
0.00932892
0.00540559
0.00280318
0.00185938
0.00144016
0.00119896
0.00103678
0.000923415
0.000858518
0.000825445
0.000807674
0.000792206
0.000769941
0.000736298
0.0006926
0.000645843
0.000605689
0.000581272
0.000564273
0.000551998
0.000542591
0.000535446
0.000531531
0.000533446
0.000545768
0.000576127
0.000624217
0.000692866
0.000786039
0.000909516
0.00106921
0.00131127
0.00138477
0.00129444
0.00104845
0.00082429
)
;

boundaryField
{
    floor
    {
        Cmu             0.09;
        kappa           0.41;
        E               9.8;
        type            epsilonWallFunction;
        value           nonuniform List<scalar> 
36
(
0.00067664
9.40121e-05
0.00015471
0.000233915
0.000263754
0.000248548
0.000204915
0.000164042
0.000132318
0.000108234
8.97751e-05
7.54449e-05
6.41774e-05
5.51549e-05
4.76833e-05
4.12217e-05
3.52918e-05
3.12357e-05
2.39227e-05
2.39227e-05
4.61143e-05
7.04976e-05
9.61989e-05
0.000217894
0.000244609
0.000305784
0.00067664
0.00095174
0.000656676
0.000403876
9.40121e-05
0.000403876
8.76364e-05
0.000505814
0.0002499
0.000620152
)
;
    }
    ceiling
    {
        Cmu             0.09;
        kappa           0.41;
        E               9.8;
        type            epsilonWallFunction;
        value           nonuniform List<scalar> 
43
(
0.00765757
0.00794579
0.00831876
0.0126753
0.00932892
0.00540559
0.00280318
0.00185938
0.00144016
0.00119896
0.00103678
0.000923415
0.000858518
0.000825445
0.000807674
0.000792206
0.000769941
0.000736298
0.0006926
0.000645843
0.000605689
0.000581272
0.000564273
0.000551998
0.000542591
0.000535446
0.000531531
0.000533446
0.000545768
0.000576127
0.000624217
0.000692866
0.000786039
0.000909516
0.00106921
0.00131127
0.00138477
0.00129444
0.00104845
0.00082429
0.0124569
0.0218416
0.00500107
)
;
    }
    sWall
    {
        Cmu             0.09;
        kappa           0.41;
        E               9.8;
        type            epsilonWallFunction;
        value           uniform 0.00765757;
    }
    nWall
    {
        Cmu             0.09;
        kappa           0.41;
        E               9.8;
        type            epsilonWallFunction;
        value           nonuniform List<scalar> 6(0.000305784 0.000349453 0.000670863 0.000899101 0.000953185 0.00082429);
    }
    sideWalls
    {
        type            empty;
    }
    glass1
    {
        Cmu             0.09;
        kappa           0.41;
        E               9.8;
        type            epsilonWallFunction;
        value           nonuniform List<scalar> 9(0.000862409 0.00186528 0.00309497 0.00463756 0.00660851 0.00924224 0.0123561 0.0132246 0.0124569);
    }
    glass2
    {
        Cmu             0.09;
        kappa           0.41;
        E               9.8;
        type            epsilonWallFunction;
        value           nonuniform List<scalar> 2(0.00212529 0.00159416);
    }
    sun
    {
        Cmu             0.09;
        kappa           0.41;
        E               9.8;
        type            epsilonWallFunction;
        value           nonuniform List<scalar> 
14
(
0.000862409
0.0011593
0.00129812
0.00153156
0.00178751
0.00208645
0.00242156
0.00274815
0.00300672
0.00311564
0.00263818
0.00201001
0.00143928
0.00101516
)
;
    }
    Table_master
    {
        Cmu             0.09;
        kappa           0.41;
        E               9.8;
        type            epsilonWallFunction;
        value           nonuniform List<scalar> 9(0.000478268 0.000314965 0.000213183 0.000149711 0.000109139 8.23888e-05 6.42776e-05 5.1949e-05 4.39216e-05);
    }
    Table_slave
    {
        Cmu             0.09;
        kappa           0.41;
        E               9.8;
        type            epsilonWallFunction;
        value           nonuniform List<scalar> 9(0.000679794 0.000510643 0.000406331 0.000332854 0.000276322 0.000230078 0.000189226 0.000151353 0.000114351);
    }
    inlet
    {
        type            turbulentMixingLengthDissipationRateInlet;
        mixingLength    0.01;
        phi             phi;
        k               k;
        value           uniform 0.00129426;
    }
    outlet
    {
        type            zeroGradient;
    }
}


// ************************************************************************* //
