/*--------------------------------*- C++ -*----------------------------------*=========                 |
  \      /  F ield         | OpenFOAM: The Open Source CFD Toolbox
   \    /   O peration     | Website:  https://openfoam.org
    \  /    A nd           | Version:  6
     \/     M anipulation  |
\*---------------------------------------------------------------------------*/
FoamFile
{
    version     2.0;
    format      ascii;
    class       volScalarField;
    location    "200";
    object      PMV;
}
// * * * * * * * * * * * * * * * * * * * * * * * * * * * * * * * * * * * * * //

dimensions      [0 0 0 0 0 0 0];

internalField   nonuniform List<scalar> 
458
(
0.5542340663580205
0.23189905119828788
0.18060231064941945
0.14155363675346963
0.1217247128472228
0.12146868195640488
0.1448478621611346
0.1971655010505586
0.2853241552494112
0.3934917362005299
0.5096190818182331
0.485941190647666
0.4604646131866496
0.4807383031631956
0.5121307103707384
0.8480390888005576
0.8257142943560224
0.8219143346341796
0.839014168089706
0.8518390553445326
0.8550702676523187
0.840548581782502
0.8383186831756778
0.8418289633203586
0.8465546727953991
0.8525497346942517
0.85905687704243
0.8675637949700841
0.8790090982188556
0.8970537630143336
0.9260501641359209
0.9439870177336696
0.9686856012716903
0.4166680976086266
0.2385565209687526
0.21547022758037884
0.1741663154579908
0.15236680442099737
0.14898898305216396
0.16321007896127285
0.19123188105952219
0.23491038659177013
0.30534806604997783
0.44454604707359663
0.5555628266132138
0.5590849539003419
0.5125017391743936
0.4571404145267929
0.4407086442821269
0.4844675631637675
0.5470332918495011
0.7948230943629139
0.7986396537960195
0.8043395614688444
0.8214269289727918
0.8267431497715242
0.829644782119621
0.8332682260193008
0.8385874745200375
0.8433625410361094
0.8471386025486313
0.851132666118171
0.8555426575111228
0.8608957563843147
0.8687172292252522
0.8839528703666024
0.9131131267135151
0.9268877090052603
0.9126629288912923
0.41483895714398367
0.2165878134649302
0.2524616762824455
0.2281635432404119
0.21500108813761457
0.20800988874470797
0.20290659104540487
0.18186128891825984
0.16474895546600957
0.20893183432992876
0.3562222342717743
0.5331814627422129
0.6238543168232269
0.6076531818894219
0.5468639233010273
0.5386109916734482
0.5548884514241685
0.5627983963943436
0.6399188443997779
0.7122318846125353
0.7352420895753204
0.7690945049265392
0.8023035715910378
0.8115254286608692
0.8432501738977455
0.8684496200611169
0.8789137728391703
0.8827137217056771
0.8865136664311015
0.8907885987541667
0.8950635246605662
0.8945615775413829
0.9007816200344785
0.9150130755793896
0.9078832772497374
0.8169559570086716
0.4764303335146221
0.19649342894851435
0.27886065192859244
0.2953122473307214
0.3127173794110786
0.31204100469439827
0.2782277420367742
0.1848868534932784
0.10572145886571419
0.13348745600750836
0.299378340089837
0.5072720357898319
0.6647991739225325
0.6779963830952325
0.6546995613901768
0.6061764331679089
0.5541119002750554
0.5239074872990134
0.4705705188175679
0.5833027414699049
0.6600377377716907
0.72795030038565
0.8000389295202004
0.8689456239529156
0.9171109604633992
0.9260283458321314
0.9337845571680881
0.9465640706797722
0.9622897958413923
0.9802817950149543
1.0027582413956784
1.0335096034278264
1.0774453010538811
1.0166559897626668
0.9705854687232557
0.8955227278874858
0.7552844369222493
0.5700208324741354
0.19661899281438633
0.29833505342746375
0.3632261358531259
0.447363058100703
0.47831536442978984
0.3829138024459252
0.1972155962579907
0.062486759741626305
0.07951256252299288
0.2657620936375958
0.5008361458426432
0.7003277498683494
0.7364166966708635
0.7202676625747156
0.6954083528367936
0.6254628374264187
0.5927399440838536
0.6100181386219954
0.6555598903466422
0.7307054191210187
0.8211273338508556
0.9112538983403189
0.9920040271985662
1.0522754987064966
1.0826690690377867
1.1007872509163996
1.1136221062416576
1.1216181510432948
1.126034016651838
1.1292417321799273
1.1306299688379038
1.1201834963062653
1.0788699705053097
1.012729147496344
0.8879329567714312
0.8698741342633767
0.9194304678368571
1.031775174187905
0.8902624376013543
0.6743905535061553
0.22442565124108665
0.33650041464886987
0.41249010771852296
0.5602194635061917
0.6143561442735966
0.4461149276852865
0.19447172695652046
0.0313153535082271
0.0477604492621287
0.2485700259524988
0.5221331883249466
0.7616581092522366
0.8057645400243829
0.7905648045951714
0.7663404336655508
0.7497160584001064
0.7471534229758781
0.773016092278489
0.8309828604565125
0.9118581247594453
0.9986080560741725
1.0603489598422342
1.1083121850542699
1.1443998960670634
1.1690895153232481
1.1861812924903514
1.1961510792910046
1.1994742709066952
1.196625823139091
1.1885550797290565
1.1766859695477017
1.1581693174893817
1.1189714340896777
1.0456554007607257
0.922250492500838
0.9103976675175887
0.9184250844288749
0.9574834658807577
0.9711610136201113
0.7822501449330332
0.3251894732356664
0.488871513492825
0.48739666715335933
0.611506720311674
0.6133474290444758
0.4030922095579329
0.161505840539342
-0.002555688237728215
0.02875771914750785
0.2658105252795785
0.5873750402363475
0.8504140679447909
0.8888886295878786
0.8779637850264528
0.8589639905126762
0.8532640426519942
0.8741638315945455
0.9259377414949863
0.9914837556644771
1.0579744246102285
1.117809260779674
1.1671903751776083
1.2032721600759284
1.227007863974099
1.2417229999312658
1.2502669031445133
1.2535894568687065
1.25121620855338
1.2431470029573914
1.2293813262493622
1.2127666732863576
1.1918783521106018
1.1605433025452982
1.1001179915365984
0.9949605417655655
0.9486130750865692
0.9221329325879256
0.8878111085617232
1.0345554512480444
0.9426136912284968
0.7915829997133598
0.7209342414797282
0.5903345713545873
0.5763800906533205
0.5060314679906978
0.3021195216105304
0.05345202596815817
-0.0736423146298722
0.02719372570957877
0.3420334843686604
0.7306861347617807
0.949686738180952
0.9834094751716926
0.982459554898701
0.9781849012846147
0.9881590611289994
1.0209304344106496
1.0745959500340794
1.1311048020394818
1.1828579609143426
1.2246343815863885
1.2554880397964885
1.2758969013024744
1.2868125666580466
1.2915583499996661
1.2910837760406515
1.2877617310798564
1.2806429043996197
1.2711508048044384
1.2578612486681318
1.2412483305687796
1.2222608792387517
1.1952015894166883
1.163866854727343
1.130155135067062
1.113535602910436
1.1074448412605458
1.0006607287487923
0.8713531034574784
1.1880283431643939
1.047905227252372
0.8586028741373042
0.6976145410423864
0.5948519378735658
0.4033783663294318
0.04728742644901466
-0.19583982912105136
-0.1844461092194092
0.08792156050178775
0.5476591118482643
0.9458869274711196
1.060823865654243
1.0826701991283296
1.0844088034612054
1.0984549954064686
1.1277698148118371
1.166715588499444
1.2094436281212775
1.2459853207729858
1.2661682297945487
1.2774940497400615
1.2821824225162592
1.2812154323196152
1.2772821601351527
1.269580192094119
1.2591708625185756
1.2460669879411777
1.2296264044816143
1.2111558202746702
1.1898451351323447
1.1673013920126687
1.1452934999275934
1.1190397717317269
1.0910377659330937
1.0686761427205926
1.0581080937928293
1.05814847812188
1.0499704036469641
1.0241223847487466
3.0
-2.3240395278405046
-1.7634784862970032
-1.5227281265696253
-1.1947785171439573
-0.7196987453576453
-0.165051471919048
0.44436968833592333
0.9359123703134282
1.0711782540311343
1.109565010680353
1.1252733792973815
1.139710999902758
1.1588425891774716
1.1846735807314341
1.2144501007110633
1.242198049234191
1.2619482667729343
1.2730273293068846
1.2764789117830575
1.2744544713350094
1.2691435889320137
1.2607256979643018
1.2499354624244068
1.237289653902042
1.2232771202913992
1.2095084164028826
1.1967093150254855
1.186461571506466
1.177564888124627
1.1704102557939142
1.163621705604519
1.1580923434992099
1.158175473365775
1.1739419984929844
1.2255566870068044
1.3456568395062667
1.146244336629285
3.0
-1.9841424355343487
-1.1719132396239702
-0.6360726514344458
-0.1451177918123455
0.42442965710256175
0.7758849412385106
0.9401470923636264
1.0616631544779556
1.1230347262985856
1.1549434718259661
1.1760116341861175
1.1933790785692477
1.2108664894906516
1.2280313296473377
1.2447550577540205
1.257909520000274
1.2660958315078412
1.2692666693253039
1.2688786924768054
1.2654701799755836
1.2591175880416376
1.2514337645109008
1.2422048676262765
1.23324669189546
1.2245737202359688
1.2179403036760557
1.2142596650759792
1.213035595366505
1.2146251060083546
1.221032958233539
1.2319488832059622
1.2422113290670693
1.2509622514043652
1.265986292212938
1.3111988456244903
1.2713197569508428
1.1985245855528261
-2.445065663299728
-2.4002258602218425
-2.2446373531822985
-1.220510569222825
-0.34400896309298706
0.3332401344572706
0.7626002895764099
0.9587795415397528
1.0600721515986564
1.1248717876544845
1.1686222731339595
1.1961874235963939
1.2134886759786252
1.2262352159820709
1.2363666569511518
1.2445480799475575
1.2505113471805693
1.252419656505967
1.2500022363129362
1.2424895489991223
1.2325432451075558
1.222257073541616
1.2109999098829913
1.200062787936953
1.1889963029727932
1.1791040897698788
1.1709238082840951
1.1647667770689247
1.1617735470372867
1.1634032847013702
1.1699002701496886
1.1832202865515768
1.20650619834575
1.2474169592430835
1.3152501788085258
1.3556163143704436
1.284275951159316
1.2226972380433008
1.1755842803277121
1.2078133950487788
)
;

boundaryField
{
    ".*"
    {
        type            zeroGradient;
    }
}


// ************************************************************************* //
