/*--------------------------------*- C++ -*----------------------------------*\
  =========                 |
  \\      /  F ield         | OpenFOAM: The Open Source CFD Toolbox
   \\    /   O peration     | Website:  https://openfoam.org
    \\  /    A nd           | Version:  6
     \\/     M anipulation  |
\*---------------------------------------------------------------------------*/
FoamFile
{
    version     2.0;
    format      ascii;
    class       volScalarField;
    location    "900";
    object      nut;
}
// * * * * * * * * * * * * * * * * * * * * * * * * * * * * * * * * * * * * * //

dimensions      [0 2 -1 0 0 0 0];

internalField   nonuniform List<scalar> 
458
(
0.000712186
0.00073745
0.000707326
0.000735
0.000761283
0.000784799
0.000805969
0.000825468
0.000844085
0.000862828
0.000880367
0.000894354
0.000904672
0.000912509
0.000917567
0.000432305
0.000550437
0.000570309
0.000549879
0.000512368
0.000461519
0.000412603
0.000363081
0.000310517
0.000233473
0.000156724
0.000164522
0.000184943
0.000197066
0.000220447
0.000277121
0.000386344
0.000343846
0.00115415
0.00189569
0.00148501
0.00178798
0.00190994
0.00203878
0.00216939
0.00229282
0.00239601
0.0024607
0.0024863
0.00244839
0.00230549
0.00199493
0.00147605
0.000970139
0.000932932
0.000661101
0.000571595
0.0014304
0.0017099
0.00162826
0.00137067
0.00102543
0.000765721
0.000575516
0.000441053
0.00036051
0.000357481
0.000396383
0.000427388
0.000411123
0.000331146
0.000445372
0.000878368
0.000475771
0.00154798
0.00299084
0.00163549
0.0026213
0.00286198
0.00301923
0.00315242
0.00326349
0.00335197
0.00341382
0.00344963
0.00343958
0.00335173
0.0031457
0.00279254
0.00230377
0.00166515
0.000992882
0.00080228
0.00232099
0.00210951
0.00164487
0.00118498
0.000429148
0.000345899
0.000306948
0.000283226
0.000264711
0.000253512
0.000246292
0.000240073
0.00023844
0.000335286
0.00065636
0.00145825
0.000553274
0.00193789
0.00452826
0.00173276
0.00299533
0.0034904
0.00366138
0.00377007
0.00384608
0.00390062
0.00393928
0.00396427
0.00397633
0.00395761
0.00388103
0.00369622
0.0033209
0.00266581
0.00176208
0.00100897
0.0022395
0.0025178
0.00209686
0.00154706
0.00102955
0.000661582
0.000667761
0.00068925
0.000724081
0.000783824
0.000844994
0.000892153
0.000918257
0.000913145
0.00103119
0.00113745
0.00151605
0.000812895
0.0023214
0.00643231
0.00230412
0.00287979
0.00380029
0.00404536
0.00414892
0.00420099
0.0042251
0.00423524
0.00423797
0.00425162
0.00428262
0.0043239
0.00435666
0.00435809
0.00431114
0.00417962
0.00388235
0.00357474
0.00324015
0.00295171
0.00277176
0.00266894
0.0026151
0.00265453
0.00276238
0.00293046
0.00314982
0.00337699
0.0035454
0.00363124
0.00360629
0.00341511
0.00291742
0.002421
0.00175026
0.000939981
0.000905171
0.000845374
0.0027038
0.00840891
0.0040088
0.00271393
0.00350831
0.00402939
0.00427772
0.00439806
0.00443771
0.00441518
0.00435442
0.00432018
0.00433512
0.00438218
0.00444329
0.00449973
0.00452043
0.00443389
0.00416836
0.00377279
0.00340185
0.00318355
0.00310696
0.00307031
0.00302417
0.00300822
0.0030687
0.00321048
0.00342058
0.00367102
0.00389561
0.00405334
0.00414908
0.00417984
0.00395842
0.00350221
0.00295063
0.00251688
0.00259964
0.00103474
0.00306891
0.0100363
0.00712797
0.00424529
0.00315962
0.00316281
0.00362875
0.00409224
0.0044082
0.00453999
0.00438304
0.00428724
0.00426004
0.0042691
0.00429642
0.00432626
0.00433029
0.00424734
0.00402339
0.00368293
0.00333704
0.00311303
0.00304532
0.0030433
0.00300706
0.00294934
0.00295423
0.00306141
0.00326179
0.00351938
0.00377812
0.00399144
0.00417923
0.00440035
0.004606
0.00446618
0.00409489
0.00368862
0.00345014
0.00125886
0.00315104
0.00987059
0.00840102
0.00719827
0.00562983
0.00434704
0.0037377
0.00372712
0.00401158
0.00431052
0.00425965
0.00415605
0.00408485
0.00404646
0.00402474
0.00400306
0.00396282
0.00387112
0.0036931
0.00343228
0.0031453
0.00291446
0.00281728
0.00284932
0.00290419
0.00287891
0.00284048
0.00289495
0.00307359
0.00334249
0.00362691
0.00386116
0.00406586
0.00435252
0.0048366
0.00537799
0.00537158
0.00493312
0.00488439
0.00150105
0.00307181
0.003676
0.00395226
0.00428205
0.00444039
0.00428945
0.0040077
0.00378304
0.00368241
0.00367081
0.00367989
0.00368689
0.00368649
0.00367304
0.0036403
0.00358298
0.0034967
0.00337464
0.00320956
0.00300592
0.00278731
0.00259154
0.00247005
0.00248264
0.00264727
0.00277505
0.00274708
0.00272154
0.00283893
0.0031065
0.00341437
0.00360811
0.00362401
0.00352214
0.00338054
0.00322886
0.00305528
0.00275918
0.00249394
0.00145502
0.00103224
0.00204703
0.00295437
0.00347132
0.00364452
0.00364337
0.00358725
0.00352433
0.00346694
0.00341963
0.00336814
0.00330097
0.00321141
0.00309749
0.00296091
0.00280522
0.0026348
0.00245625
0.00228035
0.00212309
0.00201002
0.00198834
0.00212795
0.00240367
0.00255072
0.00246177
0.00245098
0.00268597
0.00310327
0.00348217
0.00365055
0.00361796
0.00345535
0.00318537
0.00282078
0.00239535
0.00197854
0.00121006
0.00203814
0.0032582
0.00378145
0.00400778
0.00400083
0.00390642
0.00375797
0.00359733
0.00344034
0.00326305
0.00306075
0.00285142
0.00264465
0.00244513
0.00225477
0.00207433
0.00190448
0.00174654
0.00160314
0.00147901
0.00138355
0.00133768
0.00138431
0.0015621
0.00177939
0.00184214
0.00174397
0.00181588
0.0022187
0.00279359
0.00328692
0.00352233
0.00361126
0.00356464
0.00334
0.0030111
0.00262521
0.0012353
0.0020744
0.00212662
0.00217716
0.0023408
0.00229949
0.00222718
0.00203837
0.00189589
0.00177008
0.00165473
0.0015467
0.00144935
0.00136183
0.00127916
0.00119853
0.00111834
0.00103784
0.000956974
0.000876386
0.000797321
0.000721515
0.000650974
0.000587767
0.000533962
0.000491798
0.000463631
0.00044991
0.00044653
0.000450397
0.000474765
0.000552532
0.000711326
0.000827743
0.000982155
0.00115588
0.00128238
0.00132762
0.0012861
0.00118582
0.00108315
)
;

boundaryField
{
    floor
    {
        type            nutkWallFunction;
        Cmu             0.09;
        kappa           0.41;
        E               9.8;
        value           nonuniform List<scalar> 
36
(
0.000110978
5.09829e-05
6.6121e-05
6.86255e-05
6.60506e-05
6.12912e-05
5.47699e-05
4.84107e-05
4.18742e-05
3.48086e-05
2.41547e-05
1.30487e-05
1.42083e-05
1.72075e-05
1.89659e-05
2.23159e-05
3.02474e-05
4.49657e-05
3.93126e-05
3.93125e-05
5.66108e-05
6.64821e-05
9.84548e-05
0.000113641
0.000109506
0.00010236
0.000110978
0.000117206
0.000112802
7.99373e-05
5.09828e-05
7.99373e-05
6.87878e-05
0.000119888
9.71736e-05
0.000121782
)
;
    }
    ceiling
    {
        type            nutkWallFunction;
        Cmu             0.09;
        kappa           0.41;
        E               9.8;
        value           nonuniform List<scalar> 
43
(
0.000241465
0.000247121
0.000252584
0.000270212
0.000265802
0.000258038
0.000237613
0.000222061
0.000208222
0.00019544
0.000183381
0.000172435
0.000162523
0.000153097
0.000143837
0.000134558
0.000125166
0.000115649
0.00010607
9.65729e-05
8.73624e-05
7.86878e-05
7.08189e-05
6.40396e-05
5.86688e-05
5.50499e-05
5.32781e-05
5.28418e-05
5.33444e-05
5.64888e-05
6.63867e-05
8.61115e-05
0.00010024
0.000118626
0.000138919
0.000153469
0.000158633
0.000153893
0.000142373
0.000130465
0.000347629
0.000410005
0.000237473
)
;
    }
    sWall
    {
        type            nutkWallFunction;
        Cmu             0.09;
        kappa           0.41;
        E               9.8;
        value           uniform 0.000241527;
    }
    nWall
    {
        type            nutkWallFunction;
        Cmu             0.09;
        kappa           0.41;
        E               9.8;
        value           nonuniform List<scalar> 6(0.000102362 0.000124812 0.000150785 0.000145181 0.000148085 0.000130473);
    }
    sideWalls
    {
        type            empty;
    }
    glass1
    {
        type            nutkWallFunction;
        Cmu             0.09;
        kappa           0.41;
        E               9.8;
        value           nonuniform List<scalar> 9(8.61859e-05 0.000138843 0.000183773 0.000227005 0.00026861 0.000309371 0.000347726 0.000356296 0.000348054);
    }
    glass2
    {
        type            nutkWallFunction;
        Cmu             0.09;
        kappa           0.41;
        E               9.8;
        value           nonuniform List<scalar> 2(0.000178335 0.000173148);
    }
    sun
    {
        type            nutkWallFunction;
        Cmu             0.09;
        kappa           0.41;
        E               9.8;
        value           nonuniform List<scalar> 
14
(
8.62179e-05
8.93055e-05
8.56231e-05
8.90066e-05
9.22059e-05
9.50573e-05
9.76158e-05
9.99653e-05
0.000102202
0.000104449
0.000106546
0.000108215
0.000109444
0.000110376
)
;
    }
    Table_master
    {
        type            nutkWallFunction;
        Cmu             0.09;
        kappa           0.41;
        E               9.8;
        value           nonuniform List<scalar> 9(5.05817e-05 3.95948e-05 3.43403e-05 3.10978e-05 2.85427e-05 2.6986e-05 2.59778e-05 2.51061e-05 2.48772e-05);
    }
    Table_slave
    {
        type            nutkWallFunction;
        Cmu             0.09;
        kappa           0.41;
        E               9.8;
        value           nonuniform List<scalar> 9(8.00051e-05 8.07681e-05 8.34143e-05 8.76826e-05 9.49469e-05 0.000102319 0.000107959 0.000111066 0.000110458);
    }
    inlet
    {
        type            calculated;
        value           uniform 0.000268328;
    }
    outlet
    {
        type            calculated;
        value           nonuniform List<scalar> 2(0.0020744 0.00212662);
    }
}


// ************************************************************************* //
