/*--------------------------------*- C++ -*----------------------------------*\
  =========                 |
  \\      /  F ield         | OpenFOAM: The Open Source CFD Toolbox
   \\    /   O peration     | Website:  https://openfoam.org
    \\  /    A nd           | Version:  6
     \\/     M anipulation  |
\*---------------------------------------------------------------------------*/
FoamFile
{
    version     2.0;
    format      ascii;
    class       volScalarField;
    location    "1400";
    object      alphat;
}
// * * * * * * * * * * * * * * * * * * * * * * * * * * * * * * * * * * * * * //

dimensions      [1 -1 -1 0 0 0 0];

internalField   nonuniform List<scalar> 
458
(
0.000803286
0.000830864
0.000797575
0.000825592
0.000851652
0.000874656
0.00089515
0.000913899
0.000931776
0.000949895
0.000965073
0.000975741
0.000981976
0.000985605
0.000986819
0.000457096
0.000554803
0.00056827
0.000545492
0.000510565
0.000458563
0.000400761
0.000294861
0.000213882
0.000221147
0.000241488
0.000254607
0.000255141
0.000251616
0.000260224
0.000307445
0.000354687
0.000330374
0.00130153
0.00209414
0.00168598
0.00207017
0.00222193
0.00237797
0.00253313
0.0026754
0.00278761
0.00284664
0.00286033
0.00279498
0.00260498
0.00222442
0.00161301
0.00103382
0.000988807
0.000694141
0.000575011
0.00132149
0.00154458
0.00158286
0.00133801
0.00102654
0.000718762
0.000579324
0.000560735
0.000603454
0.000664043
0.000685733
0.000640805
0.000556121
0.000495622
0.000579423
0.000924712
0.000491181
0.0017551
0.00335459
0.00181477
0.0030195
0.00332329
0.00350949
0.00366096
0.00378225
0.003874
0.00393125
0.003957
0.00392706
0.00380715
0.00355389
0.00313015
0.00254425
0.00180179
0.00105112
0.000828439
0.00229972
0.00210961
0.00169459
0.00116075
0.000491816
0.000423366
0.000384913
0.000362691
0.000348248
0.000337175
0.000327029
0.000316643
0.00030818
0.000463055
0.000898965
0.00144609
0.000552938
0.00221051
0.00517336
0.00191145
0.00336304
0.00397813
0.004173
0.00429108
0.00437174
0.00442887
0.00446804
0.00449475
0.00450354
0.00447536
0.00437697
0.00414786
0.0036943
0.00292811
0.00189625
0.00104447
0.0022241
0.00238881
0.00205556
0.00151816
0.000986267
0.000598384
0.000610083
0.000642748
0.000676082
0.000713987
0.00075016
0.00077494
0.000777311
0.000754201
0.00081426
0.000981027
0.0014995
0.000809389
0.00266118
0.00743647
0.00261059
0.00312792
0.00423663
0.00451752
0.00463055
0.00468635
0.00471237
0.00472749
0.00474065
0.00477525
0.00482023
0.00485458
0.00484844
0.00476879
0.00459896
0.00430994
0.00383034
0.00331737
0.0028112
0.00236245
0.00205896
0.00192143
0.00194761
0.00211517
0.00238023
0.00261835
0.00283161
0.00299997
0.00309678
0.00309588
0.00291322
0.00250909
0.00209917
0.00180386
0.00158419
0.000943123
0.000879909
0.000950854
0.00311001
0.00976675
0.00464544
0.00295511
0.00381572
0.0044039
0.00468513
0.00482408
0.00486169
0.00483213
0.00478945
0.00482169
0.00488418
0.00494992
0.00499674
0.00499748
0.00491804
0.00468423
0.00422635
0.00360515
0.0029766
0.0024742
0.00214399
0.00195925
0.00194299
0.00215102
0.00251054
0.00287522
0.00317666
0.00341939
0.00358869
0.00368196
0.00369072
0.00348284
0.00310331
0.00263582
0.00220945
0.00168587
0.00155054
0.000961886
0.00353853
0.0116462
0.00824574
0.00482386
0.0035101
0.00349039
0.00398682
0.00448222
0.00481244
0.00481698
0.00474132
0.00476427
0.00480757
0.00485122
0.00488122
0.00487523
0.0048033
0.00460278
0.00422029
0.0036846
0.00310081
0.00258315
0.00218396
0.00189774
0.00178101
0.00201623
0.00243958
0.0028311
0.00316981
0.00345784
0.00367546
0.00384725
0.00400175
0.00410149
0.00392768
0.00356758
0.00316425
0.00272884
0.00228042
0.00118723
0.00363281
0.0114339
0.00969189
0.00824665
0.00633465
0.00492458
0.00433544
0.00432071
0.00455951
0.00467823
0.004667
0.00464963
0.00464478
0.00464093
0.00462076
0.00456806
0.00446549
0.00428061
0.00397974
0.00356957
0.00310538
0.00264936
0.00223737
0.00187921
0.00165274
0.00190985
0.00239942
0.00279462
0.00311398
0.00337944
0.00360283
0.00381572
0.004071
0.00443953
0.00488087
0.00481402
0.0047456
0.00436781
0.00427047
0.00165067
0.00353807
0.00423562
0.00497668
0.00533493
0.00539834
0.00512383
0.00478008
0.00452945
0.00440588
0.00434895
0.00434246
0.00435583
0.0043614
0.00433911
0.00427686
0.00416938
0.00401488
0.00380901
0.00354583
0.00323028
0.00288498
0.0025407
0.00221736
0.00185003
0.00149737
0.00175475
0.00230965
0.00269464
0.00297034
0.00317743
0.00332638
0.00342276
0.00347124
0.0034698
0.00341057
0.00330416
0.00307302
0.00276832
0.00251681
0.00159905
0.00326893
0.00629551
0.00584571
0.00554283
0.00525103
0.00499684
0.00479833
0.00464397
0.00450773
0.00437711
0.00423872
0.00408183
0.0039008
0.00369519
0.00346828
0.00322455
0.00296827
0.0027048
0.00244266
0.00219336
0.00196102
0.00168436
0.00123649
0.00145323
0.00205816
0.00243321
0.00268556
0.00287961
0.00302552
0.0031208
0.00316705
0.00316961
0.00313038
0.00298835
0.00272798
0.00237365
0.00201286
0.00131841
0.00305229
0.00682152
0.00629457
0.00587548
0.00553396
0.00522943
0.00493725
0.00466374
0.00440741
0.00410601
0.00378911
0.00347449
0.0031715
0.00288454
0.0026153
0.00236424
0.00213139
0.00191685
0.00172115
0.00154535
0.00138338
0.00118096
0.000841182
0.000964907
0.0014829
0.00182119
0.00207524
0.00231617
0.00255934
0.00279764
0.0030056
0.0031502
0.00323829
0.00322435
0.00308453
0.00288382
0.00259871
0.0013389
0.00239806
0.00260408
0.00278019
0.00294443
0.00274843
0.00258011
0.00235564
0.00217298
0.00200534
0.00184989
0.00170422
0.0015805
0.00146889
0.00136375
0.00126193
0.00116176
0.00106251
0.000964281
0.000867921
0.000774976
0.000687564
0.000608173
0.000539161
0.000481168
0.000434675
0.00046174
0.000537078
0.000609267
0.000683624
0.000760635
0.000840806
0.000926639
0.00102539
0.00114233
0.00125887
0.00137585
0.00143841
0.00140993
0.00129852
0.00119479
)
;

boundaryField
{
    floor
    {
        type            compressible::alphatWallFunction;
        Prt             0.85;
        value           nonuniform List<scalar> 
36
(
0.000140451
6.26332e-05
7.7577e-05
7.96095e-05
7.61671e-05
7.0853e-05
6.28557e-05
5.38261e-05
3.68022e-05
2.3267e-05
2.45147e-05
2.79619e-05
3.01601e-05
3.02471e-05
2.96566e-05
3.10971e-05
3.88828e-05
4.6506e-05
4.25983e-05
4.25977e-05
6.78698e-05
7.72736e-05
0.000115122
0.000134259
0.000125263
0.000135362
0.00014045
0.000147062
0.000140729
9.83514e-05
6.26324e-05
9.83503e-05
8.06263e-05
0.000149482
0.000117879
0.000148549
)
;
    }
    ceiling
    {
        type            compressible::alphatWallFunction;
        Prt             0.85;
        value           nonuniform List<scalar> 
43
(
0.000328399
0.000354599
0.000376827
0.000397542
0.000372982
0.000351735
0.000323153
0.000299675
0.000277939
0.000257604
0.00023838
0.000221909
0.000206928
0.000192697
0.000178799
0.000164999
0.000151191
0.000137378
0.000123666
0.000110268
9.74909e-05
8.57144e-05
7.53235e-05
6.64634e-05
5.9262e-05
6.34524e-05
7.49975e-05
8.58693e-05
9.69033e-05
0.000108179
0.000119772
0.000132039
0.000145989
0.000162308
0.000178382
0.000194347
0.000202821
0.000198969
0.000183813
0.000169571
0.00047126
0.000556021
0.000410755
)
;
    }
    sWall
    {
        type            compressible::alphatWallFunction;
        Prt             0.85;
        value           uniform 0.000327187;
    }
    nWall
    {
        type            compressible::alphatWallFunction;
        Prt             0.85;
        value           nonuniform List<scalar> 6(0.00013515 0.000136705 0.000168177 0.000186193 0.000188984 0.000169237);
    }
    sideWalls
    {
        type            empty;
    }
    glass1
    {
        type            compressible::alphatWallFunction;
        Prt             0.85;
        value           nonuniform List<scalar> 9(0.000111095 0.000179826 0.000239971 0.000298791 0.000355826 0.000411693 0.000464299 0.000475916 0.000464583);
    }
    glass2
    {
        type            compressible::alphatWallFunction;
        Prt             0.85;
        value           nonuniform List<scalar> 2(0.000229479 0.000222692);
    }
    sun
    {
        type            compressible::alphatWallFunction;
        Prt             0.85;
        value           nonuniform List<scalar> 
14
(
0.000114279
0.000118239
0.000113435
0.000117479
0.000121225
0.000124522
0.00012745
0.000130121
0.000132663
0.000135233
0.000137381
0.000138889
0.000139769
0.00014028
)
;
    }
    Table_master
    {
        type            compressible::alphatWallFunction;
        Prt             0.85;
        value           nonuniform List<scalar> 9(6.80927e-05 5.74867e-05 5.1435e-05 4.79019e-05 4.55903e-05 4.38092e-05 4.21702e-05 4.04853e-05 3.91073e-05);
    }
    Table_slave
    {
        type            compressible::alphatWallFunction;
        Prt             0.85;
        value           nonuniform List<scalar> 9(8.42474e-05 8.59976e-05 9.08635e-05 9.57976e-05 0.000101373 0.00010666 0.000110265 0.00011061 0.000107251);
    }
    inlet
    {
        type            fixedValue;
        value           uniform 1.94e-05;
    }
    outlet
    {
        type            zeroGradient;
    }
}


// ************************************************************************* //
