/*--------------------------------*- C++ -*----------------------------------*\
  =========                 |
  \\      /  F ield         | OpenFOAM: The Open Source CFD Toolbox
   \\    /   O peration     | Website:  https://openfoam.org
    \\  /    A nd           | Version:  6
     \\/     M anipulation  |
\*---------------------------------------------------------------------------*/
FoamFile
{
    version     2.0;
    format      ascii;
    class       volScalarField;
    location    "100";
    object      alphat;
}
// * * * * * * * * * * * * * * * * * * * * * * * * * * * * * * * * * * * * * //

dimensions      [1 -1 -1 0 0 0 0];

internalField   nonuniform List<scalar> 
458
(
0.000804436
0.000823092
0.00076568
0.000793667
0.000821658
0.000847056
0.000870159
0.000891702
0.000912627
0.000934225
0.000952738
0.000966396
0.000974924
0.000979518
0.000979705
0.000580309
0.000725092
0.000726836
0.000675237
0.000615327
0.000556722
0.00050512
0.000461122
0.000425072
0.000396259
0.000373696
0.000356072
0.000342376
0.000331984
0.000349585
0.000431995
0.000446381
0.00039134
0.00136901
0.00218968
0.00159432
0.00203558
0.00218053
0.00233309
0.00248879
0.00263418
0.00275168
0.00281835
0.00284142
0.00278974
0.00261738
0.00225389
0.00164906
0.0010362
0.000978097
0.00077064
0.000702754
0.0018032
0.00197801
0.00170716
0.00143522
0.00106886
0.000952138
0.000868708
0.000810222
0.000776497
0.000757719
0.000737476
0.000708627
0.000726959
0.000705964
0.00109805
0.00131864
0.000567845
0.0018624
0.00357419
0.00168231
0.00293627
0.0032253
0.0033896
0.00353265
0.00365376
0.00374845
0.00380922
0.00383702
0.00380375
0.00367396
0.00340373
0.00296855
0.00240727
0.00173193
0.00102346
0.00101522
0.00242813
0.00196265
0.00146897
0.0010847
0.000483183
0.000400112
0.000375404
0.00035167
0.000327862
0.00030941
0.000294384
0.000286301
0.000370057
0.00120369
0.00176478
0.00152243
0.000641498
0.00233456
0.00539705
0.00180783
0.00327441
0.00387116
0.00403905
0.00415696
0.00425406
0.00433313
0.00439185
0.00443309
0.00444668
0.00440969
0.00427932
0.00398783
0.00345881
0.00265626
0.00171871
0.00106875
0.0017175
0.00192082
0.00161428
0.00131858
0.00105353
0.000845197
0.00086715
0.000900942
0.000945822
0.00100776
0.00104989
0.00107618
0.00108808
0.00107485
0.00121942
0.00149422
0.00191864
0.00106938
0.00277864
0.00747935
0.0023079
0.00311694
0.00417795
0.0043958
0.00450655
0.00459387
0.00466671
0.00472718
0.00477669
0.00484473
0.0049346
0.00502865
0.00508555
0.00505343
0.00489034
0.00456521
0.00404756
0.00346232
0.00307554
0.0027948
0.00266134
0.00261329
0.00262229
0.00271001
0.00287341
0.00311378
0.00344596
0.00377828
0.00393603
0.00399426
0.00394052
0.00377366
0.00329363
0.00278682
0.00202093
0.00112719
0.00107661
0.00100692
0.00319741
0.00944043
0.00347988
0.00273914
0.00407761
0.00448878
0.00466048
0.00476575
0.00482048
0.0048344
0.00481958
0.00486303
0.00497308
0.00514039
0.00533478
0.00550263
0.00556303
0.00541008
0.00499206
0.00440529
0.00384018
0.00342292
0.00315058
0.00295564
0.00281719
0.00276373
0.00282234
0.00301069
0.00335929
0.00381187
0.00410851
0.00427876
0.00436886
0.00438935
0.00419843
0.00376462
0.00315813
0.00262269
0.00271847
0.00118737
0.00360518
0.0109366
0.00584745
0.00291925
0.00305949
0.00385916
0.00441776
0.00475488
0.00490828
0.00485244
0.00470572
0.00466306
0.00470723
0.00482955
0.00501587
0.00523301
0.00540637
0.00541798
0.00518735
0.0047538
0.00426221
0.00383883
0.00349855
0.00319111
0.00290322
0.00268215
0.00257885
0.00265515
0.00299788
0.00352146
0.00391807
0.00417544
0.00436903
0.00459376
0.00480745
0.00464462
0.0042016
0.00370081
0.00352398
0.00142462
0.00371767
0.0115049
0.00835521
0.0055853
0.00378794
0.00337314
0.0038634
0.00443031
0.00479903
0.00466565
0.00446882
0.00435359
0.00432041
0.0043547
0.00444678
0.00458927
0.00475326
0.00485821
0.00480683
0.00457886
0.00426173
0.00395449
0.0036959
0.00345043
0.00317139
0.00285743
0.00255384
0.00241607
0.00271022
0.00334976
0.00384184
0.0041013
0.00431139
0.00464217
0.00521745
0.00587316
0.00568339
0.00514106
0.00523783
0.0017414
0.0036279
0.00440985
0.00481648
0.00476864
0.00432511
0.0038445
0.00355721
0.00347839
0.00352084
0.00359225
0.00365833
0.0037105
0.00375099
0.00378586
0.0038227
0.00386965
0.00392855
0.00397959
0.00398075
0.00390421
0.00376671
0.00361475
0.00349411
0.00342192
0.0033603
0.00319009
0.00275632
0.00225987
0.00238543
0.00315455
0.00380201
0.00398459
0.00395649
0.0038736
0.00376647
0.00362968
0.0034489
0.00312922
0.00284439
0.00170877
0.00246548
0.00358336
0.00391833
0.00384117
0.00367347
0.00353392
0.00343787
0.00337068
0.00333143
0.00330594
0.00328278
0.00325511
0.0032211
0.00318348
0.00314733
0.00311514
0.0030824
0.00304136
0.00299158
0.00294635
0.00293399
0.00299382
0.00314404
0.00328458
0.0030951
0.00217038
0.00189544
0.00268262
0.00362727
0.00394021
0.00391811
0.0038039
0.00364834
0.00341211
0.00305562
0.00260818
0.00215341
0.00140681
0.00259406
0.00404002
0.00420898
0.0040779
0.003881
0.00368643
0.00351367
0.0033615
0.00321307
0.00305066
0.00288494
0.00272285
0.00256924
0.00242778
0.00230179
0.00219433
0.00210767
0.00204304
0.00200184
0.00198836
0.00201422
0.002104
0.00228331
0.0024911
0.00243754
0.00182785
0.00128816
0.00183354
0.00279494
0.00330508
0.00356578
0.0037044
0.00382524
0.00382423
0.00363708
0.00333128
0.00265099
0.00142583
0.00232972
0.00242706
0.0025176
0.00267854
0.00250927
0.00229749
0.00213957
0.00200429
0.0018853
0.00177841
0.00168229
0.00159605
0.00151582
0.00143936
0.00136547
0.00129361
0.00122381
0.00115649
0.00109237
0.00103227
0.000977003
0.000927274
0.000883838
0.000847802
0.0008208
0.000802709
0.00078569
0.000760749
0.000742783
0.000850471
0.000996364
0.00107182
0.00115853
0.00128298
0.00141735
0.00156574
0.00163953
0.0016053
0.00147037
0.00134581
)
;

boundaryField
{
    floor
    {
        type            compressible::alphatWallFunction;
        Prt             0.85;
        value           nonuniform List<scalar> 
36
(
0.000139405
8.13937e-05
0.000102859
0.000103118
9.55464e-05
8.66627e-05
7.78641e-05
7.00224e-05
6.32563e-05
5.76503e-05
5.3125e-05
4.95502e-05
4.67371e-05
4.45373e-05
4.28579e-05
4.56531e-05
5.86334e-05
6.08939e-05
5.22886e-05
5.22879e-05
7.94923e-05
9.05273e-05
0.00015195
0.000160011
0.000152973
0.000143215
0.000139403
0.000147351
0.000139177
0.00010949
8.13927e-05
0.000109489
9.95675e-05
0.000145566
0.00014441
0.000151918
)
;
    }
    ceiling
    {
        type            compressible::alphatWallFunction;
        Prt             0.85;
        value           nonuniform List<scalar> 
43
(
0.000319781
0.000332227
0.000343757
0.000364179
0.000342743
0.000315694
0.000295349
0.00027779
0.000262241
0.00024818
0.000235457
0.000223973
0.000213227
0.000202927
0.000192914
0.000183119
0.000173544
0.000164251
0.00015534
0.000146935
0.000139153
0.000132108
0.000125919
0.000120757
0.000116874
0.000114263
0.000111795
0.000108168
0.000105566
0.000121251
0.000141895
0.000152475
0.000164537
0.00018166
0.000199939
0.000219894
0.000229747
0.000225186
0.00020709
0.00019022
0.000482229
0.000576925
0.000353436
)
;
    }
    sWall
    {
        type            compressible::alphatWallFunction;
        Prt             0.85;
        value           uniform 0.000318636;
    }
    nWall
    {
        type            compressible::alphatWallFunction;
        Prt             0.85;
        value           nonuniform List<scalar> 6(0.00014298 0.000168122 0.00020053 0.000198142 0.000200711 0.00018986);
    }
    sideWalls
    {
        type            empty;
    }
    glass1
    {
        type            compressible::alphatWallFunction;
        Prt             0.85;
        value           nonuniform List<scalar> 9(0.000111063 0.000188612 0.000253613 0.000314214 0.000370125 0.000422061 0.000471994 0.000485802 0.000475115);
    }
    glass2
    {
        type            compressible::alphatWallFunction;
        Prt             0.85;
        value           nonuniform List<scalar> 2(0.000241139 0.000236904);
    }
    sun
    {
        type            compressible::alphatWallFunction;
        Prt             0.85;
        value           nonuniform List<scalar> 
14
(
0.000114408
0.00011708
0.000108772
0.000112831
0.000116873
0.000120526
0.000123838
0.000126917
0.000129899
0.000132969
0.000135593
0.000137525
0.00013873
0.000139378
)
;
    }
    Table_master
    {
        type            compressible::alphatWallFunction;
        Prt             0.85;
        value           nonuniform List<scalar> 9(6.67878e-05 5.38542e-05 4.99486e-05 4.61617e-05 4.23286e-05 3.93319e-05 3.68722e-05 3.55369e-05 4.90475e-05);
    }
    Table_slave
    {
        type            compressible::alphatWallFunction;
        Prt             0.85;
        value           nonuniform List<scalar> 9(0.000120413 0.000123561 0.000128389 0.000134769 0.000143517 0.000149405 0.000153074 0.000154729 0.000152875);
    }
    inlet
    {
        type            fixedValue;
        value           uniform 1.94e-05;
    }
    outlet
    {
        type            zeroGradient;
    }
}


// ************************************************************************* //
