/*--------------------------------*- C++ -*----------------------------------*\
  =========                 |
  \\      /  F ield         | OpenFOAM: The Open Source CFD Toolbox
   \\    /   O peration     | Website:  https://openfoam.org
    \\  /    A nd           | Version:  6
     \\/     M anipulation  |
\*---------------------------------------------------------------------------*/
FoamFile
{
    version     2.0;
    format      ascii;
    class       surfaceScalarField;
    location    "1100";
    object      phi;
}
// * * * * * * * * * * * * * * * * * * * * * * * * * * * * * * * * * * * * * //

dimensions      [1 0 -1 0 0 0 0];

internalField   nonuniform List<scalar> 
850
(
-0.0025291
0.00259691
-0.0027238
0.000194797
-0.00302302
0.00029933
-0.00337078
0.000347867
-0.00370018
0.000329499
-0.00398063
0.000280553
-0.00419098
0.000210457
-0.00431133
0.000120453
-0.00432084
9.61528e-06
-0.00419519
-0.000125546
-0.00391081
-0.000284273
-0.00345056
-0.000460144
-0.00277927
-0.000671193
-0.00174647
-0.00103269
-0.00174355
-0.000263815
0.000268933
9.26225e-05
-0.000356314
0.000529971
-0.000437219
0.000767919
-0.000237812
0.000686286
8.17688e-05
0.000259739
0.000426677
-0.000157893
0.000417712
-0.000326886
0.000169012
-0.000383545
5.66894e-05
-0.000361713
-2.17896e-05
-0.00027208
-8.95809e-05
-0.000102838
-0.000169182
0.000207552
-0.00031032
0.000533252
-0.00032564
0.00071503
-0.000181721
0.000831093
-0.000116022
0.000796388
3.47283e-05
0.000802712
-0.00185549
0.00462761
-0.00245436
0.000793772
-0.00293344
0.000778511
-0.00333741
0.000751945
-0.00369594
0.000688126
-0.00400145
0.000586171
-0.00424015
0.000449252
-0.00439595
0.000276361
-0.00445222
6.59813e-05
-0.00439611
-0.000181557
-0.00421735
-0.000462925
-0.00390378
-0.000773616
-0.00344966
-0.00112522
-0.00295724
-0.00152501
-0.00293694
-0.00176374
-0.00133532
-0.00159622
0.000299135
-0.00162881
0.000316411
0.000793346
-0.000512898
0.000599783
-0.000162625
0.000401431
-0.000238737
0.00056287
-0.000399115
0.000671122
-2.63393e-05
0.00054232
0.000555615
0.000578982
0.000381161
0.000570647
0.000177442
0.000543903
8.35222e-05
0.000493149
2.90522e-05
0.000444265
-4.0611e-05
0.000412593
-0.000137421
0.000378545
-0.000276177
0.000404834
-0.000351849
0.000413588
-0.000190424
0.000524831
-0.000227239
0.000443377
0.000116209
0.00126044
-0.0013828
0.00627014
-0.00213679
0.00154786
-0.0026643
0.00130612
-0.00307226
0.00116
-0.00342947
0.00104544
-0.00373871
0.000895503
-0.00399038
0.000701022
-0.00417119
0.000457276
-0.00426723
0.000162113
-0.00426799
-0.000180693
-0.00416985
-0.000560974
-0.00398092
-0.000962448
-0.00373914
-0.0013669
-0.00353378
-0.00173027
-0.00335714
-0.00194028
-0.00294547
-0.00200778
-0.00247028
-0.0021039
-0.00214066
-0.000910899
0.000413329
-0.00108054
7.13647e-06
-0.00102457
-0.000294587
-0.000837419
-0.000586143
8.73741e-06
-0.000872379
0.000564648
0.000946093
0.00112381
0.00120761
0.00123694
0.00119661
0.00105948
0.000783591
0.000431998
0.000522155
-0.000280586
-1.05846e-05
0.000305517
-0.000534871
0.000640527
0.000747005
-0.00103899
0.00763742
-0.00182832
0.00233729
-0.00228223
0.00176013
-0.00264346
0.00152133
-0.00296304
0.00136512
-0.00324471
0.00117727
-0.00348225
0.000938659
-0.00366443
0.000639559
-0.00377713
0.000274905
-0.00380724
-0.000150489
-0.00375546
-0.000612666
-0.0036482
-0.00106961
-0.003536
-0.00147901
-0.00347146
-0.00179472
-0.00343895
-0.0019727
-0.00341148
-0.00203515
-0.00352332
-0.00199196
-0.00413635
-0.00152753
-0.00332517
-0.000796206
-0.00259493
-0.000316805
-0.00231566
-0.000272037
-0.00217327
-0.000436871
-0.00215954
-0.000599773
-0.00240823
-0.000623591
-0.0019829
-0.000425395
-0.00160394
-0.000379021
-0.00119102
-0.000412982
-0.000699262
-0.000491816
-9.50937e-05
-0.000604231
0.000617995
-0.00071315
0.00137381
-0.000755883
0.00207264
-0.000698889
0.00254854
-0.000475962
0.00230455
-3.65108e-05
0.00190594
0.000704205
0.00121373
0.0013328
0.00198208
-0.000777498
0.00880089
-0.00154903
0.00310892
-0.00182644
0.00203763
-0.00209521
0.00179019
-0.00234518
0.00161518
-0.00256522
0.0013974
-0.00275152
0.00112505
-0.00289734
0.000785463
-0.00298991
0.000367575
-0.00301167
-0.000128644
-0.00296385
-0.000660395
-0.00288529
-0.00114807
-0.00282341
-0.00154081
-0.00280744
-0.00181059
-0.00283051
-0.00194954
-0.00289368
-0.0019719
-0.00303543
-0.00185012
-0.00308755
-0.00147531
-0.00287883
-0.00100483
-0.00251872
-0.000676819
-0.00222115
-0.000569515
-0.00205046
-0.000607474
-0.00197934
-0.000670798
-0.00192932
-0.000673525
-0.00172355
-0.000631071
-0.00145666
-0.000645821
-0.00114298
-0.000726574
-0.000769867
-0.000864842
-0.000326069
-0.00104794
0.00019707
-0.0012362
0.000788424
-0.00134715
0.00139514
-0.00130552
0.00192293
-0.00100366
0.00220936
-0.000322852
0.00228186
0.000631791
0.00222539
0.00138934
0.0027004
0.00150713
0.00151397
0.00120746
-0.000491992
0.00202843
-0.000414408
-0.000717171
0.00995384
-0.0014116
0.00380344
-0.00132084
0.00194697
-0.00140707
0.00187652
-0.00158348
0.00179168
-0.00172792
0.00154193
-0.00182918
0.00122641
-0.00189515
0.000851523
-0.00192277
0.000395285
-0.00189584
-0.000155494
-0.00182501
-0.00073114
-0.00175855
-0.00121445
-0.0017335
-0.00156576
-0.00176314
-0.00178087
-0.00184084
-0.00187174
-0.00195992
-0.00185273
-0.00209786
-0.0017121
-0.00214006
-0.00143302
-0.00204593
-0.00109888
-0.0018734
-0.000849259
-0.00171538
-0.000727448
-0.00161956
-0.000703214
-0.00157452
-0.000715749
-0.00152556
-0.000722407
-0.00142472
-0.000731823
-0.00128328
-0.000787181
-0.00110861
-0.000901157
-0.000898786
-0.00107458
-0.000650587
-0.00129605
-0.000355041
-0.00153166
1.82757e-05
-0.00172037
0.000474765
-0.00176191
0.000990085
-0.00151888
0.00153756
-0.000870238
0.00198054
0.000188898
0.00236941
0.00100055
0.00267561
0.00120101
0.00265714
0.001226
0.00262227
0.00206338
0.00227433
-0.000937825
0.0113724
-0.00113372
0.00399942
-0.000432889
0.00124624
-0.00029595
0.00173967
-0.000483031
0.00197885
-0.00062191
0.0016809
-0.000648386
0.00125297
-0.000610998
0.000814222
-0.000526482
0.000310855
-0.000418693
-0.000263198
-0.000330826
-0.000818922
-0.00030068
-0.00124451
-0.000341518
-0.00152484
-0.000447129
-0.00167517
-0.000601755
-0.00171703
-0.000785712
-0.00166869
-0.000962136
-0.00153559
-0.00107113
-0.00132395
-0.0010908
-0.00107912
-0.00105908
-0.000880893
-0.0010248
-0.00076165
-0.00101687
-0.00071107
-0.00103277
-0.000699763
-0.00104983
-0.000705277
-0.00105205
-0.00072952
-0.00104592
-0.000793229
-0.00103895
-0.000908051
-0.00103394
-0.00107951
-0.00102687
-0.00130303
-0.00100205
-0.00155638
-0.000929652
-0.00179268
-0.000767312
-0.00192416
-0.000466669
-0.00181943
2.79918e-05
-0.00136481
0.000670708
-0.000453732
0.00130588
0.000365467
0.00188601
0.000620962
0.0025594
0.000552706
0.00273245
0.00189041
0.00507567
0.0020182
0.00989091
0.00247599
0.00354172
0.00254088
0.00118144
0.00220586
0.00207478
0.00174508
0.00243972
0.00143925
0.00198682
0.00131774
0.00137458
0.00132376
0.000808281
0.00142386
0.000210843
0.00153434
-0.00037359
0.00154729
-0.000831788
0.00145538
-0.00115251
0.0012824
-0.00135177
0.00105441
-0.00144711
0.000793261
-0.0014558
0.000519506
-0.00139486
0.000262132
-0.00127814
5.73017e-05
-0.00111904
-7.74737e-05
-0.00094427
-0.000162906
-0.000795384
-0.000231466
-0.000693015
-0.000304689
-0.000637773
-0.000387004
-0.000617375
-0.000474193
-0.000618017
-0.000567742
-0.0006359
-0.000682021
-0.000678879
-0.000835662
-0.000754336
-0.00104566
-0.00086943
-0.00131908
-0.00102954
-0.00164295
-0.00123241
-0.00197894
-0.00145659
-0.00226205
-0.00164096
-0.00241352
-0.00166787
-0.00236551
-0.00141273
-0.00195812
-0.000861031
-0.00146349
-0.000129075
-0.00125051
0.000408081
-0.00136804
0.000670351
-0.00144338
0.00196587
0.00398684
0.010487
0.0140261
0.012179
0.00302862
0.00971004
0.00454384
0.00787845
0.0042714
0.00659322
0.00327213
0.00570373
0.00226415
0.00512745
0.00138464
0.00468535
0.000653036
0.00424936
6.24858e-05
0.00381328
-0.000395629
0.00338324
-0.000722387
0.00296071
-0.000929166
0.00254807
-0.00103439
0.00215102
-0.00105867
0.00177783
-0.0010216
0.00144041
-0.000940643
0.00115372
-0.000832269
0.000925499
-0.000715978
0.00074423
-0.000614043
0.000591561
-0.000540275
0.000451888
-0.000498029
0.0003165
-0.000481919
0.000180373
-0.000481822
3.33238e-05
-0.000488786
-0.000144331
-0.000501161
-0.000382131
-0.000516469
-0.00072369
-0.000527799
-0.00121611
-0.000537032
-0.00188254
-0.000565906
-0.00271025
-0.000628791
-0.0036628
-0.000688306
-0.00471179
-0.000618774
-0.00585642
-0.000267997
-0.00692134
0.000203995
-0.00787477
0.00082445
-0.00899977
0.00153318
-0.0102977
0.00196836
-0.0089721
0.000640393
-0.00460188
0.00326899
0.00406846
0.00399571
0.00381717
0.00515405
0.00311313
0.00550921
0.00291705
0.00552938
0.00224406
0.00547012
0.00144398
0.0053528
0.000770431
0.0051441
0.000271266
0.00482808
-7.95321e-05
0.00443256
-0.000326787
0.00399561
-0.000492133
0.00354814
-0.000586835
0.00311367
-0.000624128
0.00270899
-0.000616841
0.00234535
-0.000576924
0.00202933
-0.000516176
0.00176116
-0.000447743
0.00153315
-0.000385958
0.00133511
-0.000342171
0.00115825
-0.000321094
0.000995856
-0.000319463
0.000842004
-0.000327906
0.000689878
-0.000336597
0.000531217
-0.000342438
0.00035715
-0.000342342
0.000141684
-0.000312269
-0.000165404
-0.000229878
-0.000592661
-0.000138576
-0.00107242
-0.000148953
-0.00145784
-0.000302794
-0.00169784
-0.000378686
-0.00217048
0.000204755
-0.00268213
0.000715753
-0.00305447
0.00119689
-0.00297879
0.00145762
-0.00202375
0.00101343
-0.000481247
-0.000902001
-0.00499431
-0.000772268
0.00487995
0.00110957
0.00193539
0.00229416
0.00192861
0.00323438
0.0019769
0.00399101
0.0014875
0.00448461
0.000950465
0.00472164
0.000533471
0.00475275
0.000240234
0.00463183
4.14575e-05
0.00440868
-0.000103557
0.00411648
-0.000199854
0.00378658
-0.000256869
0.00344501
-0.000282481
0.00311195
-0.00028371
0.00280253
-0.000267425
0.0025269
-0.00024048
0.00228939
-0.000210163
0.00208768
-0.000184176
0.00191427
-0.000168697
0.00175913
-0.000165891
0.00161259
-0.000172854
0.00146775
-0.000183005
0.00132177
-0.000190556
0.00117635
-0.000196955
0.00103753
-0.000203464
0.000906551
-0.000181227
0.00077353
-9.67965e-05
0.000579545
5.54696e-05
0.000326766
0.000103887
0.000163949
-0.000139917
0.000198636
-0.000413302
0.000117564
0.000285924
0.000163885
0.000669541
0.000489272
0.000871613
0.00109741
0.000849589
0.00174855
0.000362391
0.00167393
-0.000827261
-0.00322413
-0.0075394
-0.00980512
-0.00489143
-0.0029373
-0.000993511
0.000996601
0.00249685
0.00346024
0.00400708
0.00426129
0.00431744
0.00422928
0.00404554
0.00380551
0.00354062
0.00327527
0.003027
0.00280642
0.00261684
0.00245379
0.00230659
0.00216238
0.00201123
0.00184987
0.00168089
0.00150543
0.00132335
0.00116332
0.00108741
0.00116336
0.0012876
0.00116848
0.000775999
0.00108089
0.00176786
0.00265601
0.00352185
0.00390097
0.00309143
)
;

boundaryField
{
    floor
    {
        type            calculated;
        value           nonuniform List<scalar> 
36
(
0
0
0
0
0
0
0
0
0
0
0
0
0
0
0
0
0
0
0
-6.30797e-06
-1.433e-05
-2.14058e-05
-2.12988e-05
-2.09722e-05
-2.23946e-05
-2.14892e-05
-2.82064e-06
-5.30654e-06
-5.53655e-06
-6.83643e-06
-5.00386e-06
-1.03317e-05
-1.13916e-05
-1.31059e-05
-1.52033e-05
-1.48627e-05
)
;
    }
    ceiling
    {
        type            calculated;
        value           nonuniform List<scalar> 
43
(
-3.70675e-05
-3.53676e-05
-3.36911e-05
-1.86873e-05
-1.51199e-05
-1.31476e-05
-1.26833e-05
-1.28513e-05
-1.32965e-05
-1.39037e-05
-1.46166e-05
-1.53284e-05
-1.60383e-05
-1.67667e-05
-1.75213e-05
-1.82981e-05
-1.90802e-05
-1.98353e-05
-2.05153e-05
-2.1063e-05
-2.14312e-05
-2.16106e-05
-2.16407e-05
-2.15882e-05
-2.15104e-05
-2.14317e-05
-2.13293e-05
-2.11353e-05
-2.08311e-05
-2.04253e-05
-2.03049e-05
-2.07511e-05
-2.07691e-05
-1.88631e-05
-1.73188e-05
-1.64259e-05
-1.61386e-05
-1.66139e-05
-1.75993e-05
-1.84882e-05
5.05813e-06
2.71767e-06
-3.92138e-05
)
;
    }
    sWall
    {
        type            calculated;
        value           uniform -0.000231827;
    }
    nWall
    {
        type            calculated;
        value           nonuniform List<scalar> 6(-5.60108e-05 -6.63941e-05 -6.88119e-05 -8.87016e-05 -9.61464e-05 -0.000114095);
    }
    sideWalls
    {
        type            empty;
        value           nonuniform 0();
    }
    glass1
    {
        type            calculated;
        value           nonuniform List<scalar> 9(-6.77019e-05 -0.000175116 -0.000259632 -0.000328204 -0.000385875 -0.000435694 -0.000480607 -0.000536665 -0.000601093);
    }
    glass2
    {
        type            calculated;
        value           nonuniform List<scalar> 2(-0.000354479 -0.000383276);
    }
    sun
    {
        type            calculated;
        value           uniform 0;
    }
    Table_master
    {
        type            calculated;
        value           nonuniform List<scalar> 9(-1.55084e-07 -1.5506e-07 -1.55059e-07 -1.55076e-07 -1.55104e-07 -1.55141e-07 -1.55195e-07 -1.55283e-07 -1.55373e-07);
    }
    Table_slave
    {
        type            calculated;
        value           nonuniform List<scalar> 9(1.54057e-07 1.542e-07 1.54315e-07 1.54438e-07 1.54586e-07 1.54563e-07 1.54335e-07 1.54103e-07 1.53951e-07);
    }
    inlet
    {
        type            calculated;
        value           uniform -0.00430883;
    }
    outlet
    {
        type            calculated;
        value           nonuniform List<scalar> 2(0.00780833 0.00230113);
    }
}


// ************************************************************************* //
