/*--------------------------------*- C++ -*----------------------------------*\
  =========                 |
  \\      /  F ield         | OpenFOAM: The Open Source CFD Toolbox
   \\    /   O peration     | Website:  https://openfoam.org
    \\  /    A nd           | Version:  6
     \\/     M anipulation  |
\*---------------------------------------------------------------------------*/
FoamFile
{
    version     2.0;
    format      ascii;
    class       volScalarField;
    location    "800";
    object      k;
}
// * * * * * * * * * * * * * * * * * * * * * * * * * * * * * * * * * * * * * //

dimensions      [0 2 -2 0 0 0 0];

internalField   nonuniform List<scalar> 
458
(
0.00103592
0.00110295
0.000978757
0.0010577
0.00113943
0.0012167
0.00128958
0.00135954
0.00142893
0.00150135
0.00157059
0.00162669
0.00166814
0.00169854
0.00171592
0.000363069
0.000590362
0.000602554
0.000531897
0.000423671
0.00032558
0.000239625
0.000172607
0.000126661
9.6077e-05
7.51466e-05
6.12042e-05
5.65745e-05
5.80403e-05
8.75477e-05
0.000205614
0.000411993
0.000341127
0.00286437
0.00560426
0.00158952
0.00154024
0.00161992
0.00171649
0.00181877
0.00192907
0.00204916
0.00217712
0.00230659
0.00241066
0.00245025
0.00236611
0.00212998
0.00194001
0.00177107
0.000947374
0.000731042
0.00119623
0.00109205
0.000959562
0.000798042
0.000483507
0.000295579
0.000189947
0.00013262
0.000100943
8.29808e-05
7.30865e-05
6.61574e-05
8.66199e-05
0.000255895
0.000622293
0.00155925
0.000676971
0.00521581
0.012798
0.00243489
0.00197835
0.00202384
0.00212418
0.00223417
0.00235569
0.00249138
0.00263905
0.0027933
0.00292031
0.00298427
0.00295313
0.00282817
0.00264742
0.00235579
0.00199764
0.00134748
0.00203415
0.00144437
0.00118115
0.00102645
0.000329714
0.00017251
0.000113477
8.65871e-05
7.28846e-05
6.46329e-05
5.80545e-05
5.73575e-05
0.000151017
0.000995591
0.00139997
0.0031292
0.00093263
0.00815969
0.0234182
0.00389141
0.00236735
0.00235444
0.00247247
0.00260289
0.00274335
0.0028979
0.00306714
0.00324914
0.00341246
0.00351714
0.00353906
0.00346441
0.00327973
0.00297103
0.00252722
0.00208031
0.00195535
0.00148846
0.00123463
0.00111167
0.00105062
0.00105373
0.00110292
0.00120336
0.00134999
0.00154575
0.00183679
0.00211888
0.00227596
0.00228555
0.00214017
0.00209623
0.00280633
0.0017573
0.0116116
0.0366992
0.00687441
0.00282801
0.00263582
0.00275746
0.00291752
0.00309939
0.00330513
0.00353474
0.00377935
0.00400614
0.00416752
0.00425569
0.00427232
0.0042186
0.0040979
0.00386271
0.00332441
0.00246313
0.00189228
0.00160933
0.00152932
0.0015528
0.00162125
0.00174708
0.00198389
0.00233161
0.00278085
0.00332353
0.00387196
0.00420282
0.00425802
0.00397477
0.0033865
0.00304976
0.00257177
0.0022683
0.0020427
0.00172857
0.0155791
0.0494654
0.0136157
0.00424042
0.0031722
0.00311976
0.00325255
0.00346274
0.00372313
0.00402463
0.00436045
0.00462614
0.00477778
0.00484146
0.00484425
0.00479521
0.00466566
0.00435043
0.00375851
0.00300843
0.00237432
0.00198263
0.00179563
0.00172765
0.00174402
0.00187945
0.0021783
0.00264166
0.00323622
0.00389798
0.0045444
0.00507838
0.00536926
0.00541404
0.00493855
0.00420353
0.00367785
0.00357491
0.00416021
0.00249537
0.0198238
0.0577418
0.0272824
0.011281
0.00608371
0.00448874
0.00413825
0.00421977
0.00447013
0.00480298
0.00519363
0.00537196
0.00538394
0.00530732
0.00518954
0.00504923
0.00486071
0.00453006
0.00399134
0.003327
0.00271383
0.00227103
0.00200088
0.00185208
0.00181371
0.00194307
0.00230176
0.00288863
0.00363516
0.00442962
0.00516321
0.0057764
0.00627234
0.00674074
0.00732053
0.00704024
0.00668885
0.00603894
0.00646598
0.00349121
0.0207838
0.0624807
0.0412981
0.0309487
0.020881
0.0132476
0.00905627
0.00729748
0.00673576
0.0066789
0.00655828
0.00628678
0.00597057
0.00565451
0.00535079
0.00505797
0.00475838
0.00439802
0.00392479
0.00336977
0.00283316
0.00240267
0.00210646
0.00192473
0.0018641
0.00199837
0.00242689
0.00315011
0.00405901
0.00498663
0.00579576
0.0064458
0.00702048
0.00774761
0.00893129
0.0105618
0.011258
0.0106254
0.0114426
0.00383585
0.0196466
0.0279047
0.0253367
0.0230513
0.0204137
0.0169898
0.0136512
0.011071
0.00934405
0.00826411
0.0074282
0.00674589
0.00617558
0.00568218
0.00523759
0.00482139
0.00441746
0.00400648
0.00357235
0.00312445
0.00269963
0.00233797
0.0020636
0.00188545
0.00182179
0.00194459
0.00242407
0.00326363
0.00435287
0.00544897
0.00631873
0.00682644
0.00690648
0.0066012
0.00610372
0.00575357
0.00552558
0.00537052
0.00519823
0.00373464
0.0067624
0.0105952
0.0130039
0.0133283
0.0122517
0.010741
0.00933139
0.00817149
0.00723543
0.00648245
0.00585138
0.00529845
0.00479465
0.00432254
0.00387357
0.003445
0.0030382
0.00266011
0.00232345
0.00204299
0.00183202
0.00170337
0.00167839
0.00180513
0.00217358
0.00285457
0.00391121
0.00522729
0.00656826
0.00798259
0.00947828
0.0108963
0.0117063
0.0112073
0.00986456
0.00849077
0.00690539
0.00352779
0.0085758
0.0164437
0.0158996
0.0148915
0.0130773
0.0113243
0.00971634
0.00835624
0.0072331
0.00628165
0.00545665
0.00474384
0.00412382
0.00357903
0.00309682
0.0026703
0.0022975
0.00197964
0.00171953
0.00152072
0.00138763
0.00132668
0.00134854
0.00147096
0.0017176
0.00209934
0.00259931
0.00321976
0.00397226
0.00493693
0.00618249
0.00763003
0.00906212
0.00992218
0.00970879
0.00877505
0.00693109
0.00369989
0.00883862
0.00927962
0.0097225
0.0112262
0.0108093
0.0101084
0.00838044
0.0072436
0.00631016
0.00551785
0.00483155
0.00424956
0.00376171
0.00333261
0.00294422
0.0025876
0.00225926
0.00195907
0.00168885
0.00145099
0.00124732
0.00107839
0.000943428
0.000840964
0.000769985
0.000731497
0.000729985
0.000772815
0.000872487
0.00102888
0.00123026
0.00146101
0.00173932
0.00220179
0.00291643
0.00365477
0.00398001
0.0036669
0.00324341
0.00267969
)
;

boundaryField
{
    floor
    {
        type            kqRWallFunction;
        value           nonuniform List<scalar> 
36
(
0.00171592
0.000363069
0.000590362
0.000602554
0.000531897
0.000423671
0.00032558
0.000239625
0.000172607
0.000126661
9.6077e-05
7.51466e-05
6.12042e-05
5.65745e-05
5.80403e-05
8.75477e-05
0.000205614
0.000411993
0.000341127
0.000341127
0.000676971
0.00093263
0.0017573
0.0022683
0.0020427
0.00172857
0.00171592
0.00194001
0.00177107
0.000947374
0.000363069
0.000947374
0.000731042
0.00199764
0.00134748
0.00208031
)
;
    }
    ceiling
    {
        type            kqRWallFunction;
        value           nonuniform List<scalar> 
43
(
0.00883862
0.00927962
0.0097225
0.0112262
0.0108093
0.0101084
0.00838044
0.0072436
0.00631016
0.00551785
0.00483155
0.00424956
0.00376171
0.00333261
0.00294422
0.0025876
0.00225926
0.00195907
0.00168885
0.00145099
0.00124732
0.00107839
0.000943428
0.000840964
0.000769985
0.000731497
0.000729985
0.000772815
0.000872487
0.00102888
0.00123026
0.00146101
0.00173932
0.00220179
0.00291643
0.00365477
0.00398001
0.0036669
0.00324341
0.00267969
0.0196466
0.0279047
0.0085758
)
;
    }
    sWall
    {
        type            kqRWallFunction;
        value           uniform 0.00883862;
    }
    nWall
    {
        type            kqRWallFunction;
        value           nonuniform List<scalar> 6(0.00172857 0.00249537 0.00349121 0.00352779 0.00369989 0.00267969);
    }
    sideWalls
    {
        type            empty;
    }
    glass1
    {
        type            kqRWallFunction;
        value           nonuniform List<scalar> 9(0.00103592 0.00286437 0.00521581 0.00815969 0.0116116 0.0155791 0.0198238 0.0207838 0.0196466);
    }
    glass2
    {
        type            kqRWallFunction;
        value           nonuniform List<scalar> 2(0.00383585 0.00373464);
    }
    sun
    {
        type            kqRWallFunction;
        value           nonuniform List<scalar> 
14
(
0.00103592
0.00110295
0.000978757
0.0010577
0.00113943
0.0012167
0.00128958
0.00135954
0.00142893
0.00150135
0.00157059
0.00162669
0.00166814
0.00169854
)
;
    }
    Table_master
    {
        type            kqRWallFunction;
        value           nonuniform List<scalar> 9(0.000329714 0.00017251 0.000113477 8.65871e-05 7.28846e-05 6.46329e-05 5.80545e-05 5.73575e-05 0.000151017);
    }
    Table_slave
    {
        type            kqRWallFunction;
        value           nonuniform List<scalar> 9(0.00105373 0.00110292 0.00120336 0.00134999 0.00154575 0.00183679 0.00211888 0.00227596 0.00228555);
    }
    inlet
    {
        type            turbulentIntensityKineticEnergyInlet;
        intensity       0.05;
        value           uniform 0.0024;
    }
    outlet
    {
        type            zeroGradient;
    }
}


// ************************************************************************* //
