/*--------------------------------*- C++ -*----------------------------------*\
  =========                 |
  \\      /  F ield         | OpenFOAM: The Open Source CFD Toolbox
   \\    /   O peration     | Website:  https://openfoam.org
    \\  /    A nd           | Version:  6
     \\/     M anipulation  |
\*---------------------------------------------------------------------------*/
FoamFile
{
    version     2.0;
    format      ascii;
    class       volScalarField;
    location    "800";
    object      nut;
}
// * * * * * * * * * * * * * * * * * * * * * * * * * * * * * * * * * * * * * //

dimensions      [0 2 -1 0 0 0 0];

internalField   nonuniform List<scalar> 
458
(
0.000722784
0.0007458
0.000702562
0.000730346
0.000758038
0.000783319
0.000806436
0.000828022
0.000848887
0.000870132
0.000889969
0.000905724
0.00091719
0.000925512
0.000930236
0.0004279
0.000545688
0.000551306
0.000518008
0.000462337
0.000405302
0.000347705
0.000295087
0.000252758
0.00022012
0.000194659
0.000175663
0.000168883
0.00017106
0.000210012
0.000321747
0.000455543
0.000414644
0.00120186
0.00202975
0.00154726
0.00191606
0.00205291
0.00219545
0.00234066
0.00247811
0.00259294
0.00266444
0.00269225
0.00264914
0.00248877
0.00214075
0.00155951
0.000989117
0.000945079
0.000691196
0.000607231
0.00128592
0.00146299
0.0013855
0.00120755
0.000846336
0.000609667
0.000469434
0.000386704
0.000336345
0.000308227
0.00030247
0.000274119
0.00029082
0.000467237
0.000946171
0.00160752
0.000584223
0.00162181
0.00325412
0.0016933
0.00281393
0.00310549
0.0032773
0.00342431
0.00354868
0.00364809
0.00371678
0.00375577
0.0037429
0.00364224
0.00340726
0.00300479
0.00245345
0.00174725
0.00100373
0.000824378
0.00212581
0.00185219
0.00146748
0.00113202
0.000407885
0.000295106
0.000239323
0.000209017
0.000191742
0.00018055
0.000171113
0.000170066
0.000275823
0.000877821
0.00139713
0.00227742
0.000685734
0.00202851
0.00489641
0.00184495
0.00316569
0.00378235
0.00397348
0.0040947
0.00418435
0.00425241
0.00430266
0.00433587
0.00435491
0.0043401
0.00425779
0.0040458
0.00360863
0.0028513
0.00183167
0.00102432
0.00220887
0.00232
0.00190219
0.00144721
0.00102905
0.000729073
0.000745902
0.000779133
0.000825243
0.00088305
0.000962618
0.00103379
0.00107137
0.00107357
0.00133684
0.00159759
0.0021435
0.000941259
0.00241984
0.0068435
0.00248611
0.00301112
0.0040879
0.00437009
0.00448648
0.00455055
0.00458773
0.00461129
0.00462684
0.00465803
0.00471648
0.00479651
0.00487575
0.00492127
0.00490048
0.00476197
0.00442308
0.00406318
0.00366431
0.00332233
0.0030952
0.00294764
0.00286402
0.00289907
0.00304418
0.00327496
0.00355437
0.00384399
0.00407394
0.00417117
0.00413538
0.00398111
0.00350447
0.00302083
0.00203491
0.00106948
0.00101492
0.000933636
0.00280293
0.0087938
0.00420427
0.00286673
0.0037387
0.00430972
0.00458616
0.00472253
0.00477327
0.00476148
0.00471131
0.00469026
0.00473028
0.00482237
0.00495151
0.00509476
0.00520722
0.00519737
0.00498055
0.00460775
0.00423087
0.00395801
0.0037819
0.00363601
0.00350265
0.00345123
0.00354665
0.00377463
0.00407079
0.00436264
0.00459453
0.00472009
0.00474298
0.00470883
0.00453523
0.0040832
0.0034614
0.00305459
0.00296544
0.00112182
0.0031618
0.0103645
0.00727716
0.00440336
0.00330281
0.00336677
0.00389439
0.00439656
0.00472313
0.00484706
0.00470503
0.00460764
0.00458659
0.004621
0.00469874
0.00480667
0.00491007
0.00493186
0.00480265
0.00454183
0.00425618
0.00404745
0.00392721
0.00383236
0.00371155
0.00361862
0.00367489
0.00390572
0.00421882
0.0045023
0.00469226
0.00478309
0.00481885
0.00488732
0.00507675
0.00511286
0.00474983
0.00423726
0.00388029
0.00132689
0.00323745
0.0101567
0.00859518
0.00736147
0.00575754
0.0044711
0.00390246
0.0039703
0.00431658
0.00462954
0.0045499
0.00442612
0.00434752
0.00431523
0.00431647
0.00434025
0.00437148
0.00437162
0.00429189
0.00412512
0.00392555
0.00376944
0.00369702
0.00369526
0.00371759
0.00372804
0.00380476
0.00404812
0.00437523
0.00463954
0.00476816
0.0047687
0.00471471
0.00472801
0.00492437
0.00524025
0.00513131
0.00436788
0.00384977
0.00139072
0.00314764
0.00375129
0.00403105
0.00437118
0.00453373
0.00438108
0.00410063
0.00388738
0.00380561
0.00381116
0.00383747
0.00385519
0.00386119
0.00385445
0.00383414
0.00380071
0.00375472
0.00369086
0.00359785
0.00347372
0.00333864
0.00322864
0.00317954
0.00321858
0.00337248
0.00364
0.00389012
0.0041775
0.00453626
0.00480786
0.00489095
0.00475339
0.00440789
0.00391142
0.00337046
0.00292511
0.0025572
0.00224984
0.00197851
0.00137236
0.00108175
0.00212773
0.00305073
0.00356922
0.00373661
0.00372992
0.00367082
0.00360613
0.00354836
0.00350336
0.00345601
0.0033953
0.00331578
0.00321758
0.00310501
0.00298398
0.00285983
0.00273854
0.0026302
0.00255072
0.0025216
0.00257108
0.0027415
0.00308757
0.00359891
0.00413489
0.00457515
0.00489866
0.00518168
0.00543419
0.00565943
0.00579517
0.00568206
0.00514406
0.0044307
0.00382131
0.00334067
0.00133404
0.00207959
0.00333341
0.00387483
0.00409465
0.0040743
0.00396836
0.00380895
0.00363792
0.0034704
0.00329045
0.00308551
0.00287386
0.00266611
0.00246839
0.00228453
0.00211753
0.00197042
0.00184683
0.00175182
0.0016931
0.00168224
0.00173604
0.00187842
0.00214157
0.0025493
0.00305755
0.00352848
0.00388777
0.0041955
0.00452656
0.0049089
0.00526317
0.00541978
0.00532442
0.00498244
0.00456627
0.00361262
0.00136618
0.00211122
0.00216325
0.00221427
0.00237935
0.00233475
0.0022578
0.00205578
0.00191127
0.00178387
0.00166813
0.00156094
0.00146391
0.00137732
0.00129639
0.0012185
0.00114232
0.00106739
0.000993945
0.000922847
0.000855387
0.000793077
0.000737411
0.000689717
0.00065118
0.000623092
0.000607325
0.000606717
0.0006243
0.000663388
0.00072045
0.000787886
0.00085874
0.000937136
0.00105437
0.0012133
0.00135804
0.00141705
0.00136009
0.00127912
0.00116261
)
;

boundaryField
{
    floor
    {
        type            nutkWallFunction;
        Cmu             0.09;
        kappa           0.41;
        E               9.8;
        value           nonuniform List<scalar> 
36
(
0.00011248
5.04136e-05
6.55166e-05
6.62248e-05
6.20006e-05
5.48662e-05
4.74469e-05
3.98192e-05
3.27081e-05
2.68667e-05
2.22725e-05
1.86237e-05
1.58586e-05
1.48625e-05
1.51831e-05
2.08477e-05
3.63767e-05
5.40394e-05
4.87012e-05
4.87011e-05
7.03838e-05
8.29837e-05
0.0001138
0.000128869
0.000122478
0.000112884
0.00011248
0.00011944
0.000114237
8.36462e-05
5.04135e-05
8.36462e-05
7.3245e-05
0.000121156
9.98285e-05
0.000123571
)
;
    }
    ceiling
    {
        type            nutkWallFunction;
        Cmu             0.09;
        kappa           0.41;
        E               9.8;
        value           nonuniform List<scalar> 
43
(
0.00024545
0.000251075
0.000256579
0.000274329
0.000269574
0.000261322
0.000239494
0.000223735
0.000209735
0.000196921
0.000184969
0.000174071
0.000164278
0.000155062
0.000146134
0.000137338
0.000128621
0.00012001
0.000111605
0.000103559
9.60624e-05
8.93063e-05
8.34696e-05
7.87183e-05
7.52336e-05
7.32684e-05
7.31901e-05
7.5376e-05
8.02131e-05
8.72153e-05
9.54043e-05
0.000103912
0.000113228
0.000127024
0.000145469
0.000162036
0.000168739
0.000162292
0.000153063
0.00013967
0.0003555
0.000417672
0.000241971
)
;
    }
    sWall
    {
        type            nutkWallFunction;
        Cmu             0.09;
        kappa           0.41;
        E               9.8;
        value           uniform 0.000245512;
    }
    nWall
    {
        type            nutkWallFunction;
        Cmu             0.09;
        kappa           0.41;
        E               9.8;
        value           nonuniform List<scalar> 6(0.000112888 0.00013496 0.000158548 0.000159342 0.000162999 0.00013968);
    }
    sideWalls
    {
        type            empty;
    }
    glass1
    {
        type            nutkWallFunction;
        Cmu             0.09;
        kappa           0.41;
        E               9.8;
        value           nonuniform List<scalar> 9(8.7487e-05 0.000144368 0.000192038 0.000236902 0.000279156 0.000319821 0.000357391 0.000365263 0.000355944);
    }
    glass2
    {
        type            nutkWallFunction;
        Cmu             0.09;
        kappa           0.41;
        E               9.8;
        value           nonuniform List<scalar> 2(0.000165879 0.000163783);
    }
    sun
    {
        type            nutkWallFunction;
        Cmu             0.09;
        kappa           0.41;
        E               9.8;
        value           nonuniform List<scalar> 
14
(
8.75151e-05
9.03233e-05
8.50398e-05
8.8439e-05
9.18116e-05
9.48778e-05
9.76715e-05
0.000100272
0.000102777
0.000105321
0.00010769
0.000109567
0.000110931
0.000111919
)
;
    }
    Table_master
    {
        type            nutkWallFunction;
        Cmu             0.09;
        kappa           0.41;
        E               9.8;
        value           nonuniform List<scalar> 9(4.77943e-05 3.27158e-05 2.49983e-05 2.07094e-05 1.82274e-05 1.66024e-05 1.52203e-05 1.50694e-05 3.01132e-05);
    }
    Table_slave
    {
        type            nutkWallFunction;
        Cmu             0.09;
        kappa           0.41;
        E               9.8;
        value           nonuniform List<scalar> 9(8.82723e-05 9.03228e-05 9.43564e-05 9.99203e-05 0.000106845 0.00011629 0.000124676 0.000129078 0.000129341);
    }
    inlet
    {
        type            calculated;
        value           uniform 0.000268328;
    }
    outlet
    {
        type            calculated;
        value           nonuniform List<scalar> 2(0.00211122 0.00216325);
    }
}


// ************************************************************************* //
