// -*- C++ -*-
// File generated by PyFoam - sorry for the ugliness

FoamFile
{
 version 2.0;
 format ascii;
 class volScalarField;
 location "900";
 object T;
}

dimensions [ 0 0 0 1 0 0 0 ];

internalField nonuniform List<scalar> 458
(
  302.035
  301.751
  301.739
  301.736
  301.734
  301.733
  301.731
  301.732
  301.737
  301.751
  301.781
  301.86
  301.909
  301.927
  301.947
  302.305
  302.276
  302.27
  302.29
  302.306
  302.316
  302.325
  302.333
  302.341
  302.348
  302.356
  302.363
  302.37
  302.378
  302.385
  302.394
  302.405
  302.434
  302.206
  301.747
  301.713
  301.705
  301.699
  301.695
  301.692
  301.69
  301.691
  301.706
  301.756
  301.853
  301.959
  301.977
  301.971
  301.982
  301.994
  302.018
  302.313
  302.241
  302.248
  302.274
  302.301
  302.31
  302.317
  302.322
  302.326
  302.331
  302.335
  302.34
  302.345
  302.35
  302.357
  302.367
  302.381
  302.421
  302.393
  301.763
  301.707
  301.697
  301.693
  301.689
  301.685
  301.676
  301.66
  301.661
  301.719
  301.849
  302.003
  302.052
  302.037
  302.03
  302.024
  302.029
  302.241
  302.216
  302.239
  302.285
  302.33
  302.331
  302.334
  302.336
  302.339
  302.342
  302.346
  302.349
  302.352
  302.355
  302.362
  302.369
  302.38
  302.419
  302.59
  301.796
  301.713
  301.707
  301.711
  301.716
  301.716
  301.699
  301.651
  301.618
  301.673
  301.833
  302.031
  302.125
  302.118
  302.093
  302.068
  302.049
  302.064
  302.104
  302.173
  302.252
  302.329
  302.392
  302.44
  302.472
  302.496
  302.516
  302.532
  302.544
  302.554
  302.562
  302.567
  302.512
  302.456
  302.419
  302.427
  302.795
  301.851
  301.729
  301.725
  301.746
  301.772
  301.787
  301.764
  301.667
  301.586
  301.628
  301.809
  302.05
  302.191
  302.209
  302.171
  302.132
  302.107
  302.124
  302.178
  302.257
  302.344
  302.424
  302.491
  302.543
  302.578
  302.603
  302.622
  302.634
  302.641
  302.641
  302.635
  302.624
  302.587
  302.528
  302.47
  302.442
  302.453
  302.471
  302.53
  302.992
  301.933
  301.761
  301.742
  301.772
  301.824
  301.876
  301.85
  301.694
  301.565
  301.592
  301.788
  302.063
  302.252
  302.298
  302.263
  302.222
  302.205
  302.237
  302.305
  302.388
  302.47
  302.543
  302.6
  302.641
  302.668
  302.686
  302.696
  302.702
  302.702
  302.695
  302.684
  302.666
  302.635
  302.585
  302.527
  302.487
  302.483
  302.493
  302.542
  303.161
  302.085
  301.867
  301.805
  301.805
  301.85
  301.948
  301.906
  301.704
  301.551
  301.575
  301.775
  302.082
  302.32
  302.394
  302.373
  302.342
  302.344
  302.391
  302.46
  302.533
  302.6
  302.655
  302.695
  302.72
  302.734
  302.741
  302.743
  302.741
  302.737
  302.728
  302.713
  302.694
  302.667
  302.628
  302.58
  302.541
  302.529
  302.528
  302.555
  303.41
  302.607
  302.327
  302.119
  302.009
  301.995
  302.051
  301.914
  301.659
  301.508
  301.562
  301.793
  302.139
  302.416
  302.495
  302.495
  302.486
  302.503
  302.552
  302.609
  302.662
  302.706
  302.738
  302.756
  302.765
  302.768
  302.766
  302.762
  302.756
  302.749
  302.739
  302.727
  302.711
  302.688
  302.66
  302.627
  302.602
  302.598
  302.599
  302.723
  303.766
  303.394
  303.111
  302.785
  302.529
  302.386
  302.213
  301.806
  301.485
  301.409
  301.569
  301.87
  302.275
  302.543
  302.603
  302.616
  302.625
  302.648
  302.684
  302.72
  302.75
  302.771
  302.782
  302.786
  302.784
  302.78
  302.775
  302.768
  302.761
  302.753
  302.745
  302.738
  302.733
  302.731
  302.734
  302.746
  302.77
  302.8
  302.825
  302.893
  298.445
  299.656
  300.414
  300.761
  300.809
  300.846
  300.998
  301.297
  301.694
  302.084
  302.538
  302.669
  302.705
  302.72
  302.733
  302.751
  302.771
  302.787
  302.797
  302.802
  302.802
  302.799
  302.795
  302.79
  302.785
  302.78
  302.776
  302.772
  302.769
  302.768
  302.767
  302.77
  302.778
  302.793
  302.815
  302.843
  302.874
  302.913
  298.513
  299.655
  300.222
  300.499
  300.594
  300.76
  301.287
  301.799
  302.347
  302.624
  302.732
  302.768
  302.783
  302.793
  302.802
  302.81
  302.816
  302.819
  302.82
  302.818
  302.815
  302.811
  302.807
  302.804
  302.8
  302.797
  302.795
  302.792
  302.791
  302.789
  302.789
  302.792
  302.797
  302.807
  302.822
  302.842
  302.855
  302.893
  299.382
  299.366
  299.365
  300.012
  300.326
  300.504
  300.642
  300.998
  302.394
  302.709
  302.791
  302.82
  302.834
  302.844
  302.85
  302.853
  302.854
  302.854
  302.853
  302.851
  302.847
  302.843
  302.839
  302.835
  302.831
  302.827
  302.823
  302.82
  302.817
  302.814
  302.811
  302.809
  302.808
  302.807
  302.809
  302.813
  302.824
  302.833
  302.839
  302.882
)
;

boundaryField
{
  floor
  {
    type wallHeatTransfer;
    Tinf uniform 305.2;
    alphaWall uniform 0.24;
    value nonuniform List<scalar> 36
(
  302.288
  302.827
  302.749
  302.7
  302.703
  302.718
  302.742
  302.769
  302.795
  302.821
  302.845
  302.869
  302.892
  302.914
  302.937
  302.96
  302.986
  303.012
  303.072
  303.072
  302.985
  302.938
  302.905
  302.865
  302.861
  302.913
  302.288
  302.29
  302.333
  302.399
  302.827
  302.399
  302.842
  302.392
  302.664
  302.412
)
;
  }
  ceiling
  {
    type wallHeatTransfer;
    Tinf uniform 303.2;
    alphaWall uniform 0.24;
    value nonuniform List<scalar> 43
(
  299.567
  299.552
  299.55
  300.148
  300.459
  300.638
  300.789
  301.153
  302.475
  302.767
  302.842
  302.869
  302.883
  302.893
  302.899
  302.902
  302.905
  302.906
  302.906
  302.904
  302.901
  302.897
  302.892
  302.888
  302.883
  302.879
  302.874
  302.87
  302.865
  302.861
  302.857
  302.853
  302.85
  302.848
  302.847
  302.849
  302.858
  302.867
  302.874
  302.915
  303.739
  303.386
  298.793
)
;
  }
  sWall
  {
    type wallHeatTransfer;
    Tinf uniform 315.2;
    alphaWall uniform 0.36;
    value uniform 300.508;
  }
  nWall
  {
    type wallHeatTransfer;
    Tinf uniform 307.2;
    alphaWall uniform 0.36;
    value nonuniform List<scalar> 6
(
  303.468
  303.332
  303.227
  303.526
  303.505
  303.53
)
;
  }
  sideWalls
  {
    type empty;
  }
  glass1
  {
    type wallHeatTransfer;
    Tinf uniform 315.2;
    alphaWall uniform 4.3;
    value nonuniform List<scalar> 9
(
  310.9
  310.286
  309.898
  309.61
  309.379
  309.169
  308.964
  309.014
  309.227
)
;
  }
  glass2
  {
    type wallHeatTransfer;
    Tinf uniform 307.2;
    alphaWall uniform 4.3;
    value nonuniform List<scalar> 2
(
  305.468
  305.57
)
;
  }
  sun
  {
    type wallHeatTransfer;
    Tinf uniform 305.2;
    alphaWall uniform 0.24;
    value nonuniform List<scalar> 14
(
  302.355
  302.076
  302.057
  302.043
  302.032
  302.022
  302.012
  302.005
  302.003
  302.012
  302.039
  302.12
  302.187
  302.234
)
;
  }
  Table_master
  {
    type zeroGradient;
  }
  Table_slave
  {
    type zeroGradient;
  }
  inlet
  {
    type fixedValue;
    value uniform 292.15;
  }
  outlet
  {
    type zeroGradient;
  }
} 	// ************************************************************************* //

