/*--------------------------------*- C++ -*----------------------------------*\
  =========                 |
  \\      /  F ield         | OpenFOAM: The Open Source CFD Toolbox
   \\    /   O peration     | Website:  https://openfoam.org
    \\  /    A nd           | Version:  6
     \\/     M anipulation  |
\*---------------------------------------------------------------------------*/
FoamFile
{
    version     2.0;
    format      ascii;
    class       volScalarField;
    location    "3000";
    object      alphat;
}
// * * * * * * * * * * * * * * * * * * * * * * * * * * * * * * * * * * * * * //

dimensions      [1 -1 -1 0 0 0 0];

internalField   nonuniform List<scalar> 
458
(
0.00140156
0.00153559
0.00157193
0.00165366
0.00173082
0.00180491
0.00187955
0.00195849
0.00202716
0.00207837
0.00210127
0.00208305
0.00200871
0.00185083
0.001456
0.000711891
0.000858211
0.000976748
0.000996589
0.000977245
0.000921176
0.00085917
0.000802531
0.000752457
0.000708195
0.000669174
0.000634544
0.000603265
0.000574265
0.000546269
0.000517461
0.000496755
0.000453053
0.0018906
0.00454405
0.00427346
0.0049372
0.00561118
0.00630728
0.00695663
0.00746656
0.00799538
0.00851498
0.00896628
0.00927752
0.009359
0.00906712
0.00762271
0.0018541
0.00152019
0.00122869
0.00073022
0.00173427
0.00257
0.0031899
0.00334154
0.00247044
0.00210569
0.00186104
0.0016795
0.00153875
0.00142067
0.00131361
0.00121174
0.00110951
0.00101859
0.000942414
0.00111795
0.000583006
0.00229725
0.00619333
0.00528648
0.00657496
0.00722591
0.00770517
0.00807057
0.00836329
0.00874196
0.00921806
0.00976701
0.0103242
0.010757
0.0108982
0.0102856
0.00824956
0.00628322
0.00147751
0.00127483
0.0022178
0.0031777
0.00401544
0.00411213
0.00123956
0.00108474
0.000958477
0.00085744
0.000776533
0.000711439
0.000658916
0.000616733
0.000584531
0.000651715
0.00076523
0.00127675
0.000675457
0.00268623
0.00792382
0.00528209
0.00697326
0.00754324
0.00767278
0.00767978
0.00775247
0.00799486
0.00843144
0.00905745
0.00980818
0.0104832
0.0109183
0.0108651
0.0102369
0.00871133
0.0047877
0.00177071
0.00255808
0.00370228
0.00483377
0.00561148
0.00535654
0.0013534
0.00122834
0.00114839
0.00109315
0.00104859
0.00100418
0.000958908
0.000911596
0.00085626
0.000807263
0.00081506
0.00143376
0.000763792
0.00308182
0.0101685
0.00580223
0.00667788
0.00749508
0.00748832
0.00724941
0.00714994
0.00734096
0.00777147
0.00845861
0.00933565
0.0100924
0.0105389
0.0106269
0.0104193
0.00979771
0.00823487
0.00757553
0.00752586
0.00774404
0.0079233
0.00788688
0.00745572
0.00608137
0.00548052
0.00519037
0.00499763
0.00480258
0.00454863
0.00411247
0.00351135
0.00280774
0.00211404
0.001589
0.00146198
0.00122461
0.000946763
0.00101419
0.000994635
0.00350239
0.0126196
0.00809695
0.00654176
0.00706173
0.00733262
0.00719627
0.00697004
0.00713438
0.0075507
0.00827002
0.00916755
0.00995419
0.0103605
0.0103586
0.0101748
0.0100349
0.0099066
0.0100106
0.0100872
0.00994762
0.00956786
0.00900767
0.00832032
0.00756468
0.00704731
0.00669432
0.00640323
0.00612046
0.00582093
0.00546259
0.00493549
0.004231
0.00339938
0.00262679
0.00195208
0.00154688
0.0017017
0.0024268
0.00122689
0.00388471
0.014311
0.0114462
0.00855974
0.00765692
0.00752001
0.00748488
0.00729632
0.00728759
0.00764422
0.00839582
0.00935184
0.0101628
0.0105046
0.0103723
0.0101547
0.0103081
0.0107375
0.0110179
0.0109132
0.0104262
0.00967709
0.00881075
0.00794787
0.00725218
0.00678794
0.00645511
0.00617659
0.00591876
0.00567996
0.00547014
0.00526148
0.00481961
0.00416405
0.00346315
0.00280523
0.00232314
0.00221366
0.00273454
0.00153363
0.00395336
0.0125557
0.0113248
0.0105108
0.0096697
0.00900953
0.00826483
0.0076229
0.00747495
0.00792036
0.00882367
0.00987818
0.0106816
0.0108955
0.0106236
0.0104484
0.0107338
0.0109073
0.0107563
0.0102392
0.00942513
0.00847058
0.0075496
0.00679539
0.00627079
0.00592478
0.00566298
0.00543533
0.00524025
0.0050999
0.0050395
0.00506811
0.0050846
0.00469276
0.00430091
0.0040741
0.00414404
0.00430945
0.00549877
0.00194257
0.00384307
0.00456224
0.00493158
0.00526048
0.00552759
0.00562575
0.00577955
0.00625085
0.00714698
0.00836345
0.00967336
0.0107948
0.0114261
0.0113232
0.0109481
0.0105794
0.0102181
0.00976193
0.00915601
0.00837415
0.00751716
0.00673019
0.00611203
0.00567415
0.00536558
0.00511558
0.00487373
0.00462435
0.00437752
0.00415256
0.00396177
0.00380138
0.0036586
0.00353967
0.00345454
0.00340756
0.00332987
0.0031589
0.00293927
0.00190487
0.00110072
0.00227891
0.00369647
0.00519045
0.00685185
0.00846982
0.00984221
0.0108573
0.0115262
0.0118739
0.0119447
0.0113656
0.0104703
0.00947114
0.00858663
0.00787559
0.00724051
0.00664033
0.00614339
0.00576732
0.00549458
0.00528667
0.0051014
0.00490409
0.00467453
0.00441085
0.00412977
0.00386263
0.00364726
0.00351562
0.00345728
0.00343698
0.00343341
0.00341506
0.00334003
0.00318668
0.00292342
0.00171479
0.00318937
0.00665506
0.00805385
0.00939961
0.010576
0.0112804
0.0112624
0.0108356
0.010286
0.00977774
0.00933611
0.00876407
0.00806818
0.00744533
0.0069851
0.00661299
0.00624391
0.00588881
0.00560126
0.00537627
0.00519454
0.00503637
0.00488482
0.00472879
0.00456507
0.0043974
0.00423295
0.00407705
0.00392745
0.00382954
0.00379169
0.0038006
0.00383313
0.00386255
0.00391688
0.00423847
0.00280126
0.00181724
0.00312056
0.00321389
0.00329877
0.00352423
0.00337059
0.00317644
0.00291357
0.00261653
0.00234073
0.00214329
0.00199712
0.00187284
0.00176378
0.00167117
0.00159877
0.00154194
0.00149469
0.00145301
0.00141927
0.00139334
0.00137202
0.00135494
0.00134128
0.00133055
0.00132285
0.00131896
0.00132018
0.00132816
0.00134477
0.00137234
0.00141426
0.00146714
0.00153148
0.00160635
0.00169148
0.00178619
0.00188568
0.00178775
0.00163265
0.00167079
)
;

boundaryField
{
    floor
    {
        type            compressible::alphatWallFunction;
        Prt             0.85;
        value           nonuniform List<scalar> 
36
(
0.000204897
0.000100809
0.00012201
0.000138871
0.00014167
0.000138943
0.000131
0.000122149
0.000113999
0.000106736
0.000100268
9.45256e-05
8.93952e-05
8.47319e-05
8.03818e-05
7.61566e-05
7.17808e-05
6.86172e-05
6.18853e-05
6.18845e-05
8.16965e-05
9.5454e-05
0.000108387
0.000134637
0.000144154
0.000141407
0.000204895
0.000257858
0.000213534
0.000173946
0.000100808
0.000173944
0.000103491
0.000207794
0.000180284
0.000246883
)
;
    }
    ceiling
    {
        type            compressible::alphatWallFunction;
        Prt             0.85;
        value           nonuniform List<scalar> 
43
(
0.000419106
0.000430684
0.000441186
0.000469044
0.000450203
0.000426241
0.000393528
0.000356176
0.000321083
0.000295688
0.000276724
0.000260482
0.00024613
0.000233864
0.000224224
0.000216622
0.000210279
0.000204662
0.000200104
0.000196592
0.000193699
0.000191376
0.000189517
0.000188055
0.000187006
0.000186475
0.000186642
0.000187729
0.000189992
0.00019374
0.000199424
0.000206566
0.000215218
0.000225235
0.000236564
0.000249092
0.000262177
0.000249301
0.000228749
0.000233834
0.00050835
0.000595042
0.00042747
)
;
    }
    sWall
    {
        type            compressible::alphatWallFunction;
        Prt             0.85;
        value           uniform 0.000417717;
    }
    nWall
    {
        type            compressible::alphatWallFunction;
        Prt             0.85;
        value           nonuniform List<scalar> 6(0.000141134 0.000173438 0.000215069 0.000239254 0.000252777 0.00023343);
    }
    sideWalls
    {
        type            empty;
    }
    glass1
    {
        type            compressible::alphatWallFunction;
        Prt             0.85;
        value           nonuniform List<scalar> 9(0.000191911 0.000256013 0.000308102 0.000357124 0.000406299 0.000457923 0.000504359 0.000512823 0.000499813);
    }
    glass2
    {
        type            compressible::alphatWallFunction;
        Prt             0.85;
        value           nonuniform List<scalar> 2(0.00026671 0.000261932);
    }
    sun
    {
        type            compressible::alphatWallFunction;
        Prt             0.85;
        value           nonuniform List<scalar> 
14
(
0.000197556
0.0002156
0.000220466
0.000231367
0.000241603
0.000251387
0.000261197
0.000271526
0.000280476
0.000287128
0.000290097
0.000287734
0.000278073
0.000257426
)
;
    }
    Table_master
    {
        type            compressible::alphatWallFunction;
        Prt             0.85;
        value           nonuniform List<scalar> 9(0.000175729 0.000154297 0.000136555 0.000122162 0.000110491 0.000100995 9.32566e-05 8.69871e-05 8.21655e-05);
    }
    Table_slave
    {
        type            compressible::alphatWallFunction;
        Prt             0.85;
        value           nonuniform List<scalar> 9(0.000191296 0.00017419 0.000163151 0.000155473 0.000149246 0.00014301 0.000136619 0.000129903 0.000121995);
    }
    inlet
    {
        type            fixedValue;
        value           uniform 1.94e-05;
    }
    outlet
    {
        type            zeroGradient;
    }
}


// ************************************************************************* //
