/*--------------------------------*- C++ -*----------------------------------*=========                 |
  \      /  F ield         | OpenFOAM: The Open Source CFD Toolbox
   \    /   O peration     | Website:  https://openfoam.org
    \  /    A nd           | Version:  6
     \/     M anipulation  |
\*---------------------------------------------------------------------------*/
FoamFile
{
    version     2.0;
    format      ascii;
    class       volScalarField;
    location    "3000";
    object      PMV;
}
// * * * * * * * * * * * * * * * * * * * * * * * * * * * * * * * * * * * * * //

dimensions      [0 0 0 0 0 0 0];

internalField   nonuniform List<scalar> 
458
(
1.004358228889486
0.7288612027458748
0.6933671578433349
0.6587800478831725
0.634974352184082
0.6199707351174769
0.6133380114560665
0.6170975562055121
0.6315812386748441
0.6599042323598847
0.7051425861541794
0.7723686725965557
0.8662940619997673
0.8925558142631308
0.9220423365457407
1.0414082819456498
1.0247646172323022
1.0219113771560464
1.0285689194303653
1.033799800689731
1.020012049926275
1.0053939484853156
1.0015729845485828
1.002503702143737
1.00431246756548
1.0073056523261836
1.0107565402028689
1.0156471259089426
1.0233729397714275
1.0375325025307198
1.0620994445938068
1.0685127323266455
1.0842041841142622
0.9141557605673298
0.7459895517601566
0.7366853211236791
0.7032161804408265
0.6817155444862422
0.6676315782810961
0.6610418841814651
0.6635289788280537
0.6716652956194263
0.6871413549530593
0.7129094002334331
0.7550245623408627
0.8190949995004224
0.8816171913883684
0.8963605451511907
0.9053967618267564
0.9085133425813248
0.8859666232975938
0.9782444459057316
1.0124004966496818
1.0128760435304345
1.0094807559584615
1.0015121874533761
0.9974787896021378
0.9969194726610444
0.9981719184050483
0.9982369296427153
0.9981067837946562
0.9976969581345255
0.9981896047930334
0.9990629041876042
1.0018088916907621
1.0118541614860692
1.0370893737888065
1.0494921940090731
1.0285675701598027
0.9423852399009555
0.7368096762920797
0.7776992314282215
0.7584076937423833
0.7487911690698243
0.7423404015008881
0.7390857262124609
0.7399994861865244
0.7378220103440812
0.7297302038394474
0.7218173749183415
0.7302753880740872
0.7683850671477604
0.8425721329206712
0.8944581802527422
0.9053967618267564
0.9125305949431912
0.9042115662592125
0.8612872393299287
0.9355067030229771
0.9557536978945615
0.9711143336566008
0.9841730208927949
0.9847157319695591
1.0070504279655232
1.0241269442131649
1.0293215852343953
1.0295395039084765
1.0278138919496507
1.0255530247174394
1.0210368947716497
1.0116598387378173
1.0093837033040358
1.0286360641281287
1.0104150301730723
0.9401112031689239
1.0187767656311728
0.7298410240044563
0.8074227556763286
0.8138516537538955
0.8304327277941645
0.8436937137362803
0.852334392345948
0.8539945454635125
0.8313641154334183
0.7813676481806995
0.727028810969072
0.7005501263686141
0.7226581158372889
0.7923644997564862
0.8818896212060577
0.9139573589317753
0.9215667505338763
0.903345240142886
0.8290608645492935
0.871313045962832
0.9215360691673207
0.9624186350424397
1.00064793919125
1.0404282801978841
1.0713259150788672
1.0627329967004642
1.054451674255413
1.0510986648592937
1.0496495585108248
1.0496181193135083
1.0533517481533974
1.065541061950661
1.0901549375332378
1.079764630034658
1.0539273598337555
0.9852205988492192
0.8955780320590804
1.1171996790600458
0.7419768064141337
0.8337561358372724
0.8643123955735005
0.9151609373606749
0.9697844857307366
1.0112707065292732
1.0078905354267815
0.9274547546917405
0.8181655813559597
0.721007367515214
0.6708149569244122
0.6884465753604563
0.7570430893499924
0.8507979739118481
0.9310784472302283
0.9453458884741558
0.92382191961355
0.9121092773527625
0.9332078958330634
0.9760534984162433
1.0258020291283776
1.0734550025030805
1.1181332813563196
1.1412596409437665
1.1555222874037911
1.1546040695112645
1.1498316945637486
1.1443095549242974
1.1381659434918476
1.1313692959896373
1.1279100499452377
1.1245253599577805
1.1025717157962203
1.0624448279698184
0.9700969158167654
0.9724554845967748
0.8937868479028134
0.8784900033123306
0.8706006633340789
1.2176420398285486
0.7829625332291881
0.8918765477442766
0.9155882311316715
0.976641019254288
1.0357019292670613
1.0723167631499855
1.0915793400938212
0.9465557253606347
0.8095635188929148
0.6977188572545662
0.6434833973825201
0.662790904245183
0.7414097635027954
0.8503314990519621
0.9564684192045056
0.9838671806307053
1.0024139457682626
1.02538464671815
1.0526311012464455
1.0865816354419093
1.1179628877449002
1.1455384904763803
1.1674074098564424
1.1840459098875935
1.1959300487753044
1.2035356675746272
1.2082890855273285
1.2106657669870398
1.2101904321737766
1.2063877271087164
1.1898588842967297
1.166418862244247
1.1298129058841713
1.0818823127787975
1.0008960570733927
0.9902699246621184
1.0077294780090609
0.9770774720226975
0.8997555910613948
1.3179025799303261
0.8926768729625617
1.0842018927131392
1.0174535386743677
1.0068223282138964
1.0427741095389287
1.0562523854134467
0.9959245806191641
0.8863367343379563
0.7546865591010433
0.6474810317649731
0.6072034969478645
0.649063760089031
0.7548404646746334
0.8929658743650766
1.000036177439967
1.0371285221160316
1.0637576568625018
1.0894345621629047
1.1170119724549408
1.1455384904763803
1.1716859576199656
1.1935532556617103
1.2101904321737766
1.2211229431000579
1.22777731694662
1.2315797474072927
1.2325303470976336
1.2320550476505363
1.2292032342916035
1.223499522644536
1.2144684186905634
1.2030603217784532
1.1817612046462869
1.126029545457833
1.0552390414825892
1.0201283081650767
1.0100065000292393
0.9431685480622573
0.9186146776168579
1.4693640633626657
1.310427681671259
1.2657110480933622
1.1213412013536372
1.066154428180606
1.0401402030739562
1.0001221833395828
0.9117111685952501
0.7755218479663617
0.6384054911024458
0.5563626731897204
0.5633997967543506
0.6615446435369529
0.8189850065926388
0.991951715556851
1.0604290801257101
1.1036989446703498
1.1308000369175772
1.1545714609768338
1.1783413720718061
1.2006835819809507
1.2192216656302215
1.2330056457473644
1.2415608836917469
1.2467889542040438
1.2486900458083685
1.2486900458083685
1.247264228359875
1.2444125709335134
1.240135028973815
1.2349068323480397
1.2273020095930354
1.2158944007158636
1.2025849752595912
1.1878488811569548
1.1712105659922123
1.1602763829199418
1.152491607703101
0.9959238214805127
0.8605620858082937
1.6984220145725217
1.568771570383334
1.4040540231275027
1.241936705202056
1.1091673428482256
1.0049359988333302
0.9015045669784505
0.7089247414037556
0.5182567997379129
0.4130498562350538
0.42710339705878153
0.5513921760365281
0.7603690856550349
0.9619910502575861
1.075169768686862
1.136029872915439
1.170735173719748
1.1935532556617103
1.213042429903552
1.2296785384972526
1.243415849600525
1.2432213013603706
1.2396003607493598
1.2342926978883644
1.2274666738907178
1.2197526157183542
1.210060309644871
1.1991573985169106
1.1870830978234368
1.1736686454293896
1.1586980564679543
1.1418671424016857
1.1245839134339612
1.107537159448982
1.0844281597812155
1.0589894506937667
1.0370762186337092
1.0225095009017313
1.006229155473021
0.9685513387340433
3.0
-2.661583738018934
-1.8006396860651221
-1.2323712087962153
-0.9131831844243006
-0.6047176634364038
-0.2610818854642184
0.09992250014690031
0.4589241065671505
0.750354705862835
0.966746768807901
1.094664884963238
1.1455522055684462
1.1654028477698277
1.1800846850767306
1.1915837747547355
1.2009395560438252
1.207227262828271
1.2096290855925802
1.2089345265110945
1.2051447734476477
1.199574454014767
1.1919524594527142
1.1824400325504847
1.1714024230955205
1.1591034966796434
1.1467041220952534
1.135209048212252
1.1258025897363786
1.1196909734153133
1.1157200373477703
1.112703366466999
1.110109610461773
1.1076455118510053
1.1126713295208064
1.1406325470612957
1.2323382474378117
1.1384243596521213
-2.949628583850937
-1.9864749164377222
-1.1787421460648835
-0.5831970375282497
-0.16786159870133713
0.19090424654163204
0.4802780204518808
0.7108826980589636
0.8566075015601856
0.9583885681673667
1.0374798127593525
1.089177322140295
1.1218177262150655
1.1428109673802478
1.1560141842913796
1.1656019127323465
1.1723723055766693
1.1771462993735524
1.178541357456966
1.1775512440857008
1.174429154816533
1.1694123762878152
1.1642336187396003
1.1581793554885977
1.1520222958681132
1.1465786434190948
1.1422004674242918
1.139302103438521
1.1382379030921486
1.140141419921586
1.1454804777238694
1.155843486643025
1.1711691805154627
1.1846234315563147
1.200712857894897
1.255614534747853
1.1735272038401525
1.320375381228278
-1.9743260840306487
-1.979248551344066
-1.8661990223859353
-1.0482286960016143
-0.48304242472431713
-0.042560160118925924
0.31727450779617683
0.5913201782066251
0.7740617725469522
0.8899119834515153
0.9702494711788481
1.029400796982342
1.0706540781470077
1.0954380793122886
1.108183989922001
1.1130240344643925
1.1128704614210114
1.1099755226291783
1.1065736885646436
1.1034116417535371
1.0994499796950388
1.0951867593254456
1.0905767266285298
1.0861854945528562
1.0821842494486786
1.0788718148586471
1.0766718754035651
1.0761345155366402
1.0779706992540796
1.0831090862048303
1.0928063402528434
1.1067206524871716
1.1285035615892163
1.163249301315821
1.2218935571937655
1.3057161838327629
1.313793781393043
1.1775786026472768
1.12925674055178
1.0921148096260986
)
;

boundaryField
{
    ".*"
    {
        type            zeroGradient;
    }
}


// ************************************************************************* //
