/*--------------------------------*- C++ -*----------------------------------*\
  =========                 |
  \\      /  F ield         | OpenFOAM: The Open Source CFD Toolbox
   \\    /   O peration     | Website:  https://openfoam.org
    \\  /    A nd           | Version:  6
     \\/     M anipulation  |
\*---------------------------------------------------------------------------*/
FoamFile
{
    version     2.0;
    format      ascii;
    class       volScalarField;
    location    "3000";
    object      T;
}
// * * * * * * * * * * * * * * * * * * * * * * * * * * * * * * * * * * * * * //

dimensions      [0 0 0 1 0 0 0];

internalField   nonuniform List<scalar> 
458
(
300.655
300.322
300.306
300.301
300.297
300.293
300.288
300.283
300.276
300.268
300.26
300.257
300.263
300.283
300.345
300.596
300.561
300.555
300.569
300.58
300.588
300.595
300.601
300.607
300.612
300.618
300.623
300.628
300.633
300.639
300.645
300.653
300.686
300.873
300.358
300.323
300.323
300.324
300.323
300.32
300.315
300.301
300.279
300.254
300.238
300.24
300.26
300.291
300.31
300.326
300.362
300.602
300.535
300.536
300.556
300.576
300.581
300.583
300.584
300.584
300.585
300.585
300.586
300.587
300.589
300.594
300.601
300.613
300.665
301.105
300.413
300.354
300.361
300.373
300.383
300.388
300.385
300.363
300.319
300.265
300.228
300.225
300.253
300.287
300.31
300.325
300.355
300.505
300.504
300.532
300.572
300.608
300.605
300.602
300.6
300.597
300.595
300.592
300.59
300.588
300.587
300.591
300.596
300.605
300.66
301.339
300.486
300.391
300.402
300.431
300.46
300.483
300.489
300.457
300.38
300.285
300.218
300.21
300.248
300.295
300.328
300.344
300.358
300.384
300.429
300.495
300.561
300.622
300.671
300.71
300.737
300.759
300.777
300.791
300.801
300.807
300.812
300.813
300.749
300.687
300.645
300.666
301.569
300.583
300.438
300.44
300.479
300.53
300.581
300.607
300.562
300.443
300.302
300.205
300.195
300.244
300.311
300.364
300.394
300.413
300.453
300.511
300.579
300.648
300.711
300.763
300.806
300.836
300.859
300.875
300.886
300.891
300.888
300.881
300.866
300.825
300.761
300.697
300.676
300.689
300.708
300.78
301.775
300.713
300.527
300.496
300.526
300.584
300.661
300.707
300.637
300.474
300.299
300.188
300.177
300.244
300.34
300.422
300.475
300.514
300.564
300.624
300.691
300.757
300.815
300.861
300.896
300.921
300.937
300.947
300.952
300.951
300.943
300.928
300.907
300.872
300.818
300.755
300.716
300.712
300.72
300.788
301.964
300.925
300.74
300.68
300.673
300.703
300.769
300.776
300.657
300.45
300.25
300.141
300.154
300.258
300.394
300.509
300.587
300.643
300.697
300.755
300.815
300.87
300.916
300.951
300.974
300.988
300.996
300.998
300.997
300.991
300.979
300.96
300.936
300.905
300.861
300.809
300.77
300.757
300.759
300.799
302.239
301.478
301.284
301.143
301.044
300.996
300.966
300.834
300.587
300.311
300.11
300.049
300.133
300.303
300.492
300.636
300.727
300.784
300.834
300.884
300.931
300.97
300.999
301.017
301.028
301.032
301.032
301.029
301.023
301.014
301.003
300.987
300.963
300.935
300.904
300.869
300.846
300.848
300.859
301.06
302.638
302.28
301.996
301.711
301.452
301.234
301.012
300.613
300.197
299.915
299.831
299.932
300.168
300.429
300.667
300.795
300.868
300.916
300.957
300.992
301.021
301.042
301.054
301.06
301.061
301.06
301.056
301.051
301.045
301.038
301.031
301.026
301.026
301.029
301.042
301.068
301.11
301.158
301.2
301.306
291.984
294.026
295.741
296.762
297.275
297.798
298.375
298.955
299.495
299.984
300.439
300.708
300.861
300.945
300.993
301.025
301.05
301.069
301.081
301.088
301.09
301.09
301.088
301.085
301.082
301.079
301.077
301.076
301.076
301.078
301.081
301.088
301.103
301.126
301.158
301.193
301.227
301.294
293.462
294.923
296.283
297.272
298.051
298.807
299.416
299.901
300.293
300.593
300.806
300.932
301.007
301.052
301.079
301.098
301.11
301.117
301.12
301.121
301.12
301.117
301.115
301.112
301.109
301.107
301.106
301.106
301.106
301.108
301.111
301.116
301.127
301.143
301.165
301.191
301.23
301.266
296.113
296.073
296.069
297.447
298.301
299.018
299.643
300.149
300.498
300.718
300.867
300.975
301.051
301.101
301.133
301.154
301.167
301.174
301.177
301.178
301.177
301.175
301.172
301.169
301.166
301.163
301.16
301.157
301.154
301.151
301.148
301.145
301.144
301.144
301.146
301.152
301.169
301.184
301.248
301.434
)
;

boundaryField
{
    floor
    {
        type            wallHeatTransfer;
        Tinf            uniform 305.2;
        alphaWall       uniform 0.24;
        value           nonuniform List<scalar> 
36
(
300.802
301.33
301.209
301.146
301.149
301.168
301.201
301.238
301.275
301.311
301.346
301.38
301.413
301.444
301.476
301.508
301.545
301.575
301.656
301.656
301.493
301.41
301.355
301.276
301.264
301.335
300.802
300.691
300.771
300.881
301.33
300.881
301.322
300.806
300.995
300.773
)
;
    }
    ceiling
    {
        type            wallHeatTransfer;
        Tinf            uniform 303.2;
        alphaWall       uniform 0.24;
        value           nonuniform List<scalar> 
43
(
296.475
296.429
296.418
297.713
298.536
299.229
299.836
300.33
300.673
300.89
301.039
301.147
301.225
301.279
301.315
301.338
301.355
301.365
301.372
301.375
301.376
301.376
301.375
301.374
301.372
301.37
301.367
301.363
301.359
301.353
301.345
301.338
301.33
301.323
301.318
301.316
301.326
301.346
301.416
301.584
302.662
302.314
293.951
)
;
    }
    sWall
    {
        type            wallHeatTransfer;
        Tinf            uniform 315.2;
        alphaWall       uniform 0.36;
        value           uniform 297.546;
    }
    nWall
    {
        type            wallHeatTransfer;
        Tinf            uniform 307.2;
        alphaWall       uniform 0.36;
        value           nonuniform List<scalar> 6(301.92 301.769 301.632 302.001 301.946 302.138);
    }
    sideWalls
    {
        type            empty;
    }
    glass1
    {
        type            wallHeatTransfer;
        Tinf            uniform 315.2;
        alphaWall       uniform 4.3;
        value           nonuniform List<scalar> 9(310.312 309.529 309.04 308.672 308.368 308.093 307.892 307.993 308.291);
    }
    glass2
    {
        type            wallHeatTransfer;
        Tinf            uniform 307.2;
        alphaWall       uniform 4.3;
        value           nonuniform List<scalar> 2(304.715 304.838);
    }
    sun
    {
        type            wallHeatTransfer;
        Tinf            uniform 305.2;
        alphaWall       uniform 0.24;
        value           nonuniform List<scalar> 
14
(
301.096
300.764
300.74
300.719
300.701
300.684
300.667
300.651
300.634
300.619
300.609
300.608
300.625
300.667
)
;
    }
    Table_master
    {
        type            zeroGradient;
    }
    Table_slave
    {
        type            zeroGradient;
    }
    inlet
    {
        type            fixedValue;
        value           uniform 290.15;
    }
    outlet
    {
        type            zeroGradient;
    }
}


// ************************************************************************* //
