/*--------------------------------*- C++ -*----------------------------------*\
  =========                 |
  \\      /  F ield         | OpenFOAM: The Open Source CFD Toolbox
   \\    /   O peration     | Website:  https://openfoam.org
    \\  /    A nd           | Version:  6
     \\/     M anipulation  |
\*---------------------------------------------------------------------------*/
FoamFile
{
    version     2.0;
    format      ascii;
    class       volVectorField;
    location    "3000";
    object      U;
}
// * * * * * * * * * * * * * * * * * * * * * * * * * * * * * * * * * * * * * //

dimensions      [0 1 -1 0 0 0 0];

internalField   nonuniform List<vector> 
458
(
(0.0377846 0.0938789 0)
(-0.182251 0.027824 0)
(-0.209176 0.0195137 0)
(-0.243465 0.0135772 0)
(-0.269236 0.00701967 0)
(-0.285554 -1.46372e-05 0)
(-0.290676 -0.00775073 0)
(-0.282093 -0.0164694 0)
(-0.259042 -0.026177 0)
(-0.22163 -0.0355186 0)
(-0.172972 -0.0425858 0)
(-0.118721 -0.0453749 0)
(-0.065875 -0.0419046 0)
(-0.0213172 -0.0296161 0)
(-0.0207507 0.00246627 0)
(-0.00266183 0.00923337 0)
(-0.0336678 -0.0259346 0)
(-1.92889e-05 -0.0388871 0)
(0.0328269 -0.0303983 0)
(0.0579734 -0.0211075 0)
(0.0754619 -0.0116695 0)
(0.084853 -0.00665062 0)
(0.0884217 -0.00476086 0)
(0.0894552 -0.0039936 0)
(0.0897606 -0.00349152 0)
(0.0896788 -0.00305088 0)
(0.0891016 -0.00256179 0)
(0.0877677 -0.00180672 0)
(0.0849766 -0.000301579 0)
(0.079226 0.00260199 0)
(0.0688742 0.00581256 0)
(0.0586226 0.00883118 0)
(-0.0143256 0.0288021 0)
(0.228098 0.192255 0)
(-0.169765 0.0738132 0)
(-0.168159 0.0582296 0)
(-0.203625 0.0463779 0)
(-0.229174 0.0330841 0)
(-0.245928 0.0181068 0)
(-0.252396 0.000683813 0)
(-0.245798 -0.0197468 0)
(-0.22591 -0.0418373 0)
(-0.193139 -0.062209 0)
(-0.150865 -0.0766103 0)
(-0.104409 -0.0814882 0)
(-0.0595501 -0.0746486 0)
(-0.0202868 -0.0551385 0)
(0.0121793 -0.0254285 0)
(0.0414446 0.00360513 0)
(0.0599158 0.0405169 0)
(-0.0255208 0.0868605 0)
(0.092286 0.0429611 0)
(0.0313284 -0.0286315 0)
(0.0434276 -0.0463656 0)
(0.061504 -0.0418658 0)
(0.0766253 -0.0308787 0)
(0.0848538 -0.0128627 0)
(0.0865617 -0.00223078 0)
(0.0861689 0.00169954 0)
(0.0860968 0.00308996 0)
(0.0863746 0.0038303 0)
(0.086563 0.00432547 0)
(0.0865237 0.00481626 0)
(0.0862513 0.00582478 0)
(0.0850921 0.00850563 0)
(0.0800375 0.0160537 0)
(0.0675143 0.0228321 0)
(0.0612987 0.0282226 0)
(-0.0657805 0.0616298 0)
(0.40225 0.287546 0)
(-0.187257 0.117576 0)
(-0.125566 0.0940212 0)
(-0.159756 0.0727011 0)
(-0.182432 0.0508466 0)
(-0.198386 0.0267623 0)
(-0.205822 -0.00112212 0)
(-0.200689 -0.0333249 0)
(-0.182731 -0.0678392 0)
(-0.153301 -0.0986033 0)
(-0.116475 -0.118832 0)
(-0.0773598 -0.124021 0)
(-0.0407673 -0.112809 0)
(-0.0089077 -0.0864056 0)
(0.017318 -0.0518956 0)
(0.034753 -0.0233576 0)
(0.0425104 0.00963084 0)
(-0.0428854 0.0676972 0)
(0.144986 -0.0363865 0)
(0.0842803 -0.0532999 0)
(0.077451 -0.0563717 0)
(0.0830442 -0.0515385 0)
(0.0893298 -0.0449318 0)
(0.0935362 -0.032011 0)
(0.0835709 -0.0200315 0)
(0.0757995 -0.0137258 0)
(0.0732477 -0.0102444 0)
(0.073003 -0.00798698 0)
(0.07332 -0.00637197 0)
(0.0740412 -0.00502071 0)
(0.0758027 -0.00339037 0)
(0.0801237 0.00119168 0)
(0.0789265 0.0228426 0)
(0.0635481 0.0380412 0)
(0.0687874 0.0498121 0)
(-0.111515 0.0961317 0)
(0.55906 0.364049 0)
(-0.22407 0.156345 0)
(-0.0803782 0.124257 0)
(-0.112291 0.0951762 0)
(-0.128585 0.0678661 0)
(-0.141196 0.03746 0)
(-0.14807 0.000611976 0)
(-0.142556 -0.043541 0)
(-0.125087 -0.0906459 0)
(-0.0990569 -0.130918 0)
(-0.0690749 -0.155557 0)
(-0.0391774 -0.16013 0)
(-0.0127982 -0.144777 0)
(0.0105304 -0.111696 0)
(0.0290046 -0.0720843 0)
(0.043945 -0.0325483 0)
(0.0619083 0.00813225 0)
(0.0622627 0.052096 0)
(0.11562 0.0596969 0)
(0.115395 -0.0174045 0)
(0.095366 -0.0446709 0)
(0.0863367 -0.0499158 0)
(0.0813337 -0.0478927 0)
(0.0747525 -0.0411341 0)
(0.0749531 -0.0244235 0)
(0.0884387 -0.0162446 0)
(0.0999791 -0.0120368 0)
(0.107712 -0.00951938 0)
(0.113236 -0.00736627 0)
(0.11665 -0.00487094 0)
(0.116157 -0.00153113 0)
(0.109554 0.0032208 0)
(0.0940986 0.0101258 0)
(0.0763194 0.0345467 0)
(0.060247 0.0559326 0)
(0.0802377 0.0752241 0)
(-0.138796 0.128975 0)
(0.694106 0.423153 0)
(-0.269248 0.187867 0)
(-0.0356295 0.141037 0)
(-0.0621638 0.108 0)
(-0.0691405 0.0784902 0)
(-0.0753627 0.0450901 0)
(-0.0789482 0.00206936 0)
(-0.0687453 -0.0528476 0)
(-0.0506609 -0.110626 0)
(-0.0298637 -0.156703 0)
(-0.00992918 -0.182221 0)
(0.00758396 -0.183932 0)
(0.0209831 -0.164113 0)
(0.0321314 -0.129093 0)
(0.041901 -0.0867521 0)
(0.051383 -0.044664 0)
(0.0652251 -0.00754641 0)
(0.0827888 0.011387 0)
(0.0986606 -0.0116036 0)
(0.0967973 -0.0349874 0)
(0.0867078 -0.0430677 0)
(0.0756634 -0.0436696 0)
(0.0665471 -0.0407047 0)
(0.0594432 -0.0335027 0)
(0.0586018 -0.0196763 0)
(0.064341 -0.0123479 0)
(0.0711111 -0.00981036 0)
(0.0773595 -0.00847191 0)
(0.0831932 -0.00625147 0)
(0.0881005 -0.00193049 0)
(0.0910688 0.00501412 0)
(0.0901463 0.0144917 0)
(0.0850212 0.0269992 0)
(0.0777659 0.0467561 0)
(0.0680703 0.0684055 0)
(0.102098 0.0927382 0)
(0.0187323 0.127246 0)
(0.111835 0.169523 0)
(0.139736 0.183822 0)
(-0.175881 0.231165 0)
(0.791427 0.472147 0)
(-0.313044 0.208434 0)
(-0.00144403 0.134611 0)
(-0.0101063 0.108667 0)
(-0.00544543 0.0832421 0)
(-0.00347546 0.0497113 0)
(0.00200893 0.00151634 0)
(0.0209906 -0.0653506 0)
(0.0381308 -0.128144 0)
(0.0501893 -0.172866 0)
(0.0566138 -0.194348 0)
(0.0580731 -0.192345 0)
(0.0561132 -0.170038 0)
(0.0529065 -0.133704 0)
(0.0500476 -0.091186 0)
(0.0492541 -0.0506356 0)
(0.0532462 -0.0185381 0)
(0.062392 -0.00344497 0)
(0.0682205 -0.0100565 0)
(0.0655372 -0.021753 0)
(0.0569964 -0.0298365 0)
(0.0469733 -0.0328867 0)
(0.0382629 -0.0321676 0)
(0.0319852 -0.0280799 0)
(0.0302416 -0.0213361 0)
(0.0331868 -0.0177463 0)
(0.0383263 -0.0167942 0)
(0.0443161 -0.0160743 0)
(0.050788 -0.0138093 0)
(0.057382 -0.00860442 0)
(0.0639737 0.000748891 0)
(0.0687586 0.0136608 0)
(0.0712132 0.0290873 0)
(0.0737329 0.0476872 0)
(0.0751641 0.0675074 0)
(0.101716 0.0902463 0)
(0.089829 0.0936244 0)
(0.111186 0.0337091 0)
(0.138552 -0.0272785 0)
(-0.229787 0.112137 0)
(0.850305 0.517112 0)
(-0.333359 0.190803 0)
(0.0309851 0.0730491 0)
(0.0580439 0.0819849 0)
(0.0716392 0.0765618 0)
(0.0806405 0.0445653 0)
(0.101676 -0.0129417 0)
(0.123545 -0.081697 0)
(0.135394 -0.139171 0)
(0.135258 -0.176172 0)
(0.124985 -0.190522 0)
(0.107697 -0.183548 0)
(0.0868869 -0.15876 0)
(0.0661333 -0.122424 0)
(0.0478236 -0.0816992 0)
(0.0344061 -0.0449122 0)
(0.0278159 -0.018321 0)
(0.027553 -0.00609403 0)
(0.0280125 -0.00803332 0)
(0.0247885 -0.0152922 0)
(0.0180982 -0.0215613 0)
(0.010182 -0.0247155 0)
(0.00297425 -0.025262 0)
(-0.00227101 -0.0239361 0)
(-0.00401212 -0.0218908 0)
(-0.00249443 -0.0213495 0)
(0.000973135 -0.0219515 0)
(0.00546426 -0.0222334 0)
(0.010818 -0.0208496 0)
(0.0172192 -0.0164718 0)
(0.0250576 -0.00746642 0)
(0.0366481 0.00713577 0)
(0.0460648 0.0232122 0)
(0.0562851 0.0397831 0)
(0.0669569 0.055621 0)
(0.0897248 0.0727826 0)
(0.104046 0.0729007 0)
(0.122139 0.0440839 0)
(0.181865 0.0498544 0)
(-0.161278 0.176139 0)
(0.961396 0.516508 0)
(-0.0592994 0.172556 0)
(0.129963 -0.00860659 0)
(0.205061 -0.0186538 0)
(0.211473 -0.00987918 0)
(0.2109 -0.033749 0)
(0.233321 -0.0732273 0)
(0.247486 -0.112574 0)
(0.242541 -0.144533 0)
(0.220149 -0.163204 0)
(0.185321 -0.166043 0)
(0.143822 -0.153457 0)
(0.100844 -0.127561 0)
(0.0613126 -0.0936553 0)
(0.0277357 -0.0576274 0)
(0.00389296 -0.0279284 0)
(-0.0090793 -0.00979784 0)
(-0.0133957 -0.00350947 0)
(-0.0153137 -0.00528654 0)
(-0.0185177 -0.0103226 0)
(-0.0236238 -0.0149351 0)
(-0.0295399 -0.0179103 0)
(-0.0350339 -0.0195951 0)
(-0.0391919 -0.0205998 0)
(-0.0414377 -0.0215244 0)
(-0.0420939 -0.0229198 0)
(-0.0418934 -0.0245161 0)
(-0.0412074 -0.0256376 0)
(-0.0399386 -0.0255748 0)
(-0.0376388 -0.0236436 0)
(-0.0334158 -0.0190951 0)
(-0.0248903 -0.0109665 0)
(-0.00684136 0.00130703 0)
(0.0082884 0.0142305 0)
(0.0234039 0.0222979 0)
(0.0440257 0.029447 0)
(0.0599712 0.0235603 0)
(0.0702623 0.00407326 0)
(0.166931 0.0820204 0)
(-0.595738 0.296765 0)
(1.11733 0.446244 0)
(0.530442 0.293201 0)
(0.564059 0.259476 0)
(0.588675 0.200825 0)
(0.554397 0.145237 0)
(0.511427 0.0874246 0)
(0.467684 0.0247735 0)
(0.412765 -0.0341144 0)
(0.349258 -0.0782095 0)
(0.280043 -0.102611 0)
(0.208741 -0.10819 0)
(0.13976 -0.0986419 0)
(0.0764728 -0.0773236 0)
(0.0238495 -0.0503968 0)
(-0.0182567 -0.0232245 0)
(-0.0402495 -0.00831803 0)
(-0.0511781 -0.00187661 0)
(-0.0554118 -0.00103524 0)
(-0.0576088 -0.00370825 0)
(-0.0602522 -0.00783141 0)
(-0.0638614 -0.0118 0)
(-0.0680149 -0.0150313 0)
(-0.0721846 -0.0175693 0)
(-0.0761053 -0.0195937 0)
(-0.0798265 -0.0213002 0)
(-0.0837238 -0.0228249 0)
(-0.0882358 -0.0239841 0)
(-0.0936312 -0.0243247 0)
(-0.100059 -0.0232353 0)
(-0.107718 -0.0200306 0)
(-0.117046 -0.0139346 0)
(-0.128791 -0.00398882 0)
(-0.142705 0.0103212 0)
(-0.157174 0.0284093 0)
(-0.182792 0.0506929 0)
(-0.223247 0.0770353 0)
(-0.282706 0.103676 0)
(-0.353298 0.126574 0)
(-0.442445 0.142368 0)
(-0.781309 0.147759 0)
(0.30321 -0.174069 0)
(0.345669 -0.00801587 0)
(0.350006 0.0429277 0)
(0.315111 0.0327326 0)
(0.27238 0.000851639 0)
(0.238201 -0.0275201 0)
(0.196455 -0.0439714 0)
(0.145491 -0.0490709 0)
(0.0898992 -0.0456152 0)
(0.0345752 -0.0358016 0)
(-0.0193607 -0.0205327 0)
(-0.0551779 -0.00877598 0)
(-0.0766312 -0.00320824 0)
(-0.0869761 -0.00308452 0)
(-0.0914693 -0.00522023 0)
(-0.0934235 -0.00832674 0)
(-0.0946113 -0.0115841 0)
(-0.0959613 -0.0143515 0)
(-0.0976911 -0.016943 0)
(-0.099954 -0.0192921 0)
(-0.102792 -0.0214089 0)
(-0.106326 -0.0233312 0)
(-0.110808 -0.0250936 0)
(-0.116577 -0.0266627 0)
(-0.123923 -0.0277915 0)
(-0.132911 -0.0279326 0)
(-0.143243 -0.0262059 0)
(-0.15411 -0.0214765 0)
(-0.164089 -0.0125785 0)
(-0.171626 0.00135913 0)
(-0.176184 0.019317 0)
(-0.179298 0.0419555 0)
(-0.182734 0.0690833 0)
(-0.18806 0.0979213 0)
(-0.192473 0.119146 0)
(-0.180117 0.114584 0)
(-0.126436 0.0473962 0)
(-0.201211 -0.213842 0)
(0.0660908 0.342135 0)
(-0.0828775 0.204158 0)
(-0.0503645 0.144932 0)
(-0.0284211 0.100889 0)
(-0.021441 0.0660288 0)
(-0.0269361 0.044864 0)
(-0.0364373 0.0348534 0)
(-0.0558465 0.0342579 0)
(-0.0796569 0.0399176 0)
(-0.100574 0.047564 0)
(-0.115083 0.0539433 0)
(-0.121367 0.0576541 0)
(-0.123178 0.061262 0)
(-0.122439 0.0645448 0)
(-0.12085 0.0674803 0)
(-0.119403 0.0695165 0)
(-0.11863 0.0693211 0)
(-0.118595 0.0670819 0)
(-0.119474 0.0656286 0)
(-0.121247 0.064998 0)
(-0.123759 0.0650895 0)
(-0.126825 0.065898 0)
(-0.130301 0.0672916 0)
(-0.134102 0.0689762 0)
(-0.138173 0.0705427 0)
(-0.142432 0.0714798 0)
(-0.146763 0.0711916 0)
(-0.150967 0.0689571 0)
(-0.154419 0.0636632 0)
(-0.155386 0.0587599 0)
(-0.151413 0.0585572 0)
(-0.140459 0.0650754 0)
(-0.122111 0.0795278 0)
(-0.098737 0.100334 0)
(-0.0708377 0.116286 0)
(-0.0306277 0.0987823 0)
(0.173681 -0.0914945 0)
(-0.0472786 -0.069894 0)
(-0.522105 -0.593802 0)
(-0.73876 -0.183664 0)
(-0.577083 0.129739 0)
(-0.493185 0.00776948 0)
(-0.357842 -0.0329558 0)
(-0.280741 -0.064687 0)
(-0.230624 -0.0937314 0)
(-0.202051 -0.115603 0)
(-0.188225 -0.128016 0)
(-0.180712 -0.131599 0)
(-0.173587 -0.132703 0)
(-0.164756 -0.136003 0)
(-0.15442 -0.143179 0)
(-0.14395 -0.154797 0)
(-0.134568 -0.168666 0)
(-0.12682 -0.183726 0)
(-0.12108 -0.198155 0)
(-0.117391 -0.210566 0)
(-0.11591 -0.219287 0)
(-0.11692 -0.224727 0)
(-0.120133 -0.228729 0)
(-0.124904 -0.231618 0)
(-0.130771 -0.233642 0)
(-0.137299 -0.23489 0)
(-0.144053 -0.235243 0)
(-0.1506 -0.234355 0)
(-0.156495 -0.231657 0)
(-0.161235 -0.226398 0)
(-0.164251 -0.217643 0)
(-0.16497 -0.204238 0)
(-0.162835 -0.18479 0)
(-0.156661 -0.162107 0)
(-0.143156 -0.136857 0)
(-0.117991 -0.109531 0)
(-0.0793117 -0.0792203 0)
(-0.0317229 -0.0451739 0)
(0.036897 -0.0249059 0)
(0.123287 -0.111958 0)
(0.182139 -0.198252 0)
(-0.590586 -0.0851567 0)
)
;

boundaryField
{
    floor
    {
        type            noSlip;
    }
    ceiling
    {
        type            noSlip;
    }
    sWall
    {
        type            noSlip;
    }
    nWall
    {
        type            noSlip;
    }
    sideWalls
    {
        type            empty;
    }
    glass1
    {
        type            noSlip;
    }
    glass2
    {
        type            noSlip;
    }
    sun
    {
        type            noSlip;
    }
    Table_master
    {
        type            noSlip;
    }
    Table_slave
    {
        type            noSlip;
    }
    inlet
    {
        type            fixedValue;
        value           uniform (0.494975 -0.494975 0);
    }
    outlet
    {
        type            zeroGradient;
    }
}


// ************************************************************************* //
