/*--------------------------------*- C++ -*----------------------------------*\
  =========                 |
  \\      /  F ield         | OpenFOAM: The Open Source CFD Toolbox
   \\    /   O peration     | Website:  https://openfoam.org
    \\  /    A nd           | Version:  6
     \\/     M anipulation  |
\*---------------------------------------------------------------------------*/
FoamFile
{
    version     2.0;
    format      ascii;
    class       volScalarField;
    location    "1800";
    object      epsilon;
}
// * * * * * * * * * * * * * * * * * * * * * * * * * * * * * * * * * * * * * //

dimensions      [0 2 -3 0 0 0 0];

internalField   nonuniform List<scalar> 
458
(
0.000272149
0.000335005
0.000339212
0.000384121
0.000427948
0.000470281
0.000512162
0.00055528
0.000602158
0.000640494
0.000662564
0.000659026
0.000624915
0.000566707
0.000499274
2.79055e-05
4.88551e-05
6.05488e-05
5.69836e-05
5.20887e-05
4.56776e-05
3.94719e-05
3.42206e-05
2.98763e-05
2.62689e-05
2.32802e-05
2.07594e-05
1.85849e-05
1.66477e-05
1.48355e-05
1.3008e-05
1.17577e-05
9.10734e-06
0.000790552
0.00135324
0.000314945
0.000292944
0.000298217
0.000308336
0.000323981
0.000348589
0.000385571
0.000426745
0.000461919
0.0004767
0.000461643
0.00042607
0.000417027
0.000510481
0.000248206
0.00017407
5.02079e-05
7.76342e-05
7.21358e-05
6.23984e-05
5.30919e-05
4.83129e-05
3.9845e-05
3.25322e-05
2.67308e-05
2.2142e-05
1.85506e-05
1.5719e-05
1.34818e-05
1.18539e-05
1.11568e-05
1.13504e-05
3.01108e-05
2.0317e-05
0.00157818
0.00379462
0.000433948
0.000282712
0.000280881
0.000296205
0.000321023
0.000357938
0.000408487
0.0004669
0.00051675
0.00053833
0.000524209
0.000486992
0.000455467
0.00043553
0.000317532
0.000399285
0.000247523
0.000155815
0.000106241
7.68318e-05
6.08939e-05
0.000101476
7.73085e-05
5.98059e-05
4.72724e-05
3.82165e-05
3.15681e-05
2.66101e-05
2.28813e-05
2.01103e-05
1.61469e-05
1.42536e-05
5.2199e-05
3.16042e-05
0.0027666
0.00839357
0.000795035
0.000294299
0.000273354
0.00029326
0.000325336
0.000373568
0.00044368
0.000527111
0.000591581
0.000610679
0.000583672
0.000528481
0.000465537
0.000400295
0.000316324
0.000339942
0.0005271
0.000299317
0.000165583
0.000103445
7.26275e-05
5.87367e-05
0.000123332
0.000105152
9.66011e-05
9.22424e-05
8.86903e-05
8.36274e-05
7.71124e-05
7.00778e-05
6.15551e-05
4.01453e-05
2.69886e-05
7.32366e-05
4.52532e-05
0.00450899
0.0154049
0.00181017
0.000377331
0.000280877
0.000291747
0.000325573
0.000390055
0.000505431
0.00063652
0.00071716
0.000723559
0.000670567
0.000585239
0.000483839
0.000376797
0.000272343
0.000202064
0.000167827
0.000127466
9.40562e-05
7.17241e-05
5.85224e-05
5.15505e-05
5.30473e-05
5.64762e-05
6.08255e-05
6.42729e-05
6.54729e-05
6.34786e-05
5.86722e-05
5.36023e-05
4.887e-05
4.15123e-05
3.33985e-05
5.20918e-05
6.96611e-05
8.07344e-05
9.69501e-05
0.000100448
0.00702901
0.0230431
0.00465604
0.000903651
0.000462709
0.00038151
0.000375134
0.00043443
0.000653573
0.000840268
0.000913789
0.000885147
0.000790082
0.000664652
0.000530636
0.000392262
0.000262474
0.000168583
0.000115571
8.86788e-05
7.23531e-05
6.18592e-05
5.68992e-05
5.66017e-05
6.16596e-05
7.07095e-05
8.03903e-05
8.83153e-05
9.27834e-05
9.19171e-05
8.39199e-05
7.15844e-05
5.95837e-05
4.89239e-05
4.11208e-05
4.38434e-05
5.33801e-05
8.48243e-05
0.000367977
0.000215835
0.0101609
0.0275696
0.0106769
0.00391972
0.0020469
0.00124841
0.000915797
0.00084784
0.00110138
0.00121965
0.00120811
0.00110422
0.000942313
0.000764473
0.000593903
0.000426053
0.000269324
0.000156086
9.56748e-05
7.24858e-05
6.38477e-05
6.09463e-05
6.26549e-05
6.85213e-05
7.87543e-05
9.25345e-05
0.000107375
0.000121499
0.000133297
0.000140322
0.000139068
0.00012255
0.000103587
8.72694e-05
7.75592e-05
7.77891e-05
8.90476e-05
0.000135107
0.000659208
0.000400274
0.0109211
0.0305452
0.0173358
0.0125887
0.00856905
0.00543838
0.00358706
0.0027068
0.0022186
0.00190489
0.00164639
0.00137905
0.00110182
0.00085414
0.000648479
0.000453371
0.000266514
0.000137093
7.74619e-05
6.43039e-05
6.28188e-05
6.58509e-05
7.25281e-05
8.26444e-05
9.62601e-05
0.000113143
0.000132574
0.000154059
0.000177372
0.000202236
0.00022778
0.0002506
0.000254001
0.000266169
0.0003039
0.000405468
0.000634546
0.00103073
0.0044317
0.000960925
0.0101634
0.0171948
0.0134828
0.0104583
0.00824041
0.00637102
0.00488485
0.00384776
0.00309423
0.00254685
0.00206656
0.00160331
0.00118658
0.000877687
0.000661582
0.00044551
0.00022435
0.000105163
7.10351e-05
6.44973e-05
6.60934e-05
7.14893e-05
7.98814e-05
9.11741e-05
0.00010551
0.00012307
0.000144103
0.000169211
0.000199555
0.000236978
0.000284103
0.000344382
0.00042196
0.000529845
0.000699767
0.000949107
0.00126905
0.00160641
0.00190555
0.000898904
0.00310084
0.00492222
0.00528805
0.00501019
0.00447263
0.00391252
0.00337727
0.00280608
0.00212429
0.00150251
0.00101399
0.000737329
0.00059128
0.00035391
0.000175279
0.000101324
7.83906e-05
7.30473e-05
7.38942e-05
7.79533e-05
8.44635e-05
9.32306e-05
0.000104263
0.000117685
0.000133772
0.0001531
0.000176744
0.000206547
0.000245516
0.000298506
0.000373053
0.000476137
0.000618164
0.000800867
0.00100039
0.00115714
0.00119127
0.00053556
0.00337934
0.0062515
0.00608622
0.00537513
0.00460095
0.00374182
0.00291855
0.00221208
0.00144011
0.000896324
0.000507289
0.000276594
0.000208599
0.00015609
0.000119401
9.60823e-05
8.31562e-05
7.67775e-05
7.46247e-05
7.55419e-05
7.90126e-05
8.48628e-05
9.31508e-05
0.000104148
0.00011837
0.000136635
0.000160175
0.000190798
0.000231154
0.000284887
0.000356543
0.000452489
0.000578717
0.000734522
0.000917805
0.00125484
0.000635259
0.000595447
0.00249205
0.00293158
0.00329346
0.00398842
0.0041194
0.00387803
0.00335606
0.00259752
0.0017218
0.00104778
0.000602706
0.000225836
0.000139831
0.000118311
0.000108008
9.25205e-05
7.82151e-05
7.26434e-05
7.21666e-05
7.50017e-05
8.01375e-05
8.71765e-05
9.60086e-05
0.00010666
0.000119243
0.000133946
0.000151049
0.000170965
0.000194332
0.00022219
0.000256341
0.000298619
0.000349925
0.000412511
0.000489353
0.00058263
0.000694252
0.000546268
0.000419353
0.000578061
)
;

boundaryField
{
    floor
    {
        Cmu             0.09;
        kappa           0.41;
        E               9.8;
        type            epsilonWallFunction;
        value           nonuniform List<scalar> 
36
(
0.000499274
2.79055e-05
4.88551e-05
6.05488e-05
5.69836e-05
5.20887e-05
4.56776e-05
3.94719e-05
3.42206e-05
2.98763e-05
2.62689e-05
2.32802e-05
2.07594e-05
1.85849e-05
1.66477e-05
1.48355e-05
1.3008e-05
1.17577e-05
9.10734e-06
9.10734e-06
2.0317e-05
3.16042e-05
4.52532e-05
8.07344e-05
9.69501e-05
0.000100448
0.000499274
0.000510481
0.000248206
0.00017407
2.79055e-05
0.00017407
5.02079e-05
0.000399285
0.000247523
0.0005271
)
;
    }
    ceiling
    {
        Cmu             0.09;
        kappa           0.41;
        E               9.8;
        type            epsilonWallFunction;
        value           nonuniform List<scalar> 
43
(
0.00249205
0.00293158
0.00329346
0.00398842
0.0041194
0.00387803
0.00335606
0.00259752
0.0017218
0.00104778
0.000602706
0.000225836
0.000139831
0.000118311
0.000108008
9.25205e-05
7.82151e-05
7.26434e-05
7.21666e-05
7.50017e-05
8.01375e-05
8.71765e-05
9.60086e-05
0.00010666
0.000119243
0.000133946
0.000151049
0.000170965
0.000194332
0.00022219
0.000256341
0.000298619
0.000349925
0.000412511
0.000489353
0.00058263
0.000694252
0.000546268
0.000419353
0.000578061
0.0101634
0.0171948
0.00337934
)
;
    }
    sWall
    {
        Cmu             0.09;
        kappa           0.41;
        E               9.8;
        type            epsilonWallFunction;
        value           uniform 0.00249205;
    }
    nWall
    {
        Cmu             0.09;
        kappa           0.41;
        E               9.8;
        type            epsilonWallFunction;
        value           nonuniform List<scalar> 6(0.000100448 0.000215835 0.000400274 0.00053556 0.000595447 0.000578061);
    }
    sideWalls
    {
        type            empty;
    }
    glass1
    {
        Cmu             0.09;
        kappa           0.41;
        E               9.8;
        type            epsilonWallFunction;
        value           nonuniform List<scalar> 9(0.000272149 0.000790552 0.00157818 0.0027666 0.00450899 0.00702901 0.0101609 0.0109211 0.0101634);
    }
    glass2
    {
        Cmu             0.09;
        kappa           0.41;
        E               9.8;
        type            epsilonWallFunction;
        value           nonuniform List<scalar> 2(0.000960925 0.000898904);
    }
    sun
    {
        Cmu             0.09;
        kappa           0.41;
        E               9.8;
        type            epsilonWallFunction;
        value           nonuniform List<scalar> 
14
(
0.000272149
0.000335005
0.000339212
0.000384121
0.000427948
0.000470281
0.000512162
0.00055528
0.000602158
0.000640494
0.000662564
0.000659026
0.000624915
0.000566707
)
;
    }
    Table_master
    {
        Cmu             0.09;
        kappa           0.41;
        E               9.8;
        type            epsilonWallFunction;
        value           nonuniform List<scalar> 9(0.000101476 7.73085e-05 5.98059e-05 4.72724e-05 3.82165e-05 3.15681e-05 2.66101e-05 2.28813e-05 2.01103e-05);
    }
    Table_slave
    {
        Cmu             0.09;
        kappa           0.41;
        E               9.8;
        type            epsilonWallFunction;
        value           nonuniform List<scalar> 9(0.000123332 0.000105152 9.66011e-05 9.22424e-05 8.86903e-05 8.36274e-05 7.71124e-05 7.00778e-05 6.15551e-05);
    }
    inlet
    {
        type            turbulentMixingLengthDissipationRateInlet;
        mixingLength    0.01;
        phi             phi;
        k               k;
        value           uniform 0.00129426;
    }
    outlet
    {
        type            zeroGradient;
    }
}


// ************************************************************************* //
