/*--------------------------------*- C++ -*----------------------------------*\
  =========                 |
  \\      /  F ield         | OpenFOAM: The Open Source CFD Toolbox
   \\    /   O peration     | Website:  https://openfoam.org
    \\  /    A nd           | Version:  6
     \\/     M anipulation  |
\*---------------------------------------------------------------------------*/
FoamFile
{
    version     2.0;
    format      ascii;
    class       volScalarField;
    location    "1800";
    object      k;
}
// * * * * * * * * * * * * * * * * * * * * * * * * * * * * * * * * * * * * * //

dimensions      [0 2 -2 0 0 0 0];

internalField   nonuniform List<scalar> 
458
(
0.00166447
0.00191179
0.00192777
0.00209437
0.00225079
0.00239688
0.00253715
0.00267762
0.00282628
0.002945
0.00301227
0.00300153
0.00289704
0.00271422
0.00249439
0.000364637
0.000529674
0.000611141
0.00058691
0.000552798
0.000506453
0.000459475
0.000417761
0.00038161
0.000350238
0.000323141
0.000299372
0.000278082
0.000258406
0.000239296
0.000219217
0.000204935
0.000172847
0.00338863
0.00634743
0.00290419
0.00300886
0.00319894
0.00341776
0.00366285
0.00394108
0.00424708
0.00456649
0.00482713
0.00492672
0.00477797
0.00435593
0.00368354
0.00253157
0.00156533
0.00123561
0.000539384
0.000845248
0.000911036
0.000909658
0.000864373
0.000766325
0.000664058
0.000577217
0.000506017
0.000447293
0.000397941
0.000355894
0.000319625
0.000289834
0.000272964
0.000268342
0.000478717
0.000295102
0.00537246
0.0125387
0.00368707
0.0034414
0.0035841
0.00378574
0.00401864
0.00430463
0.0046509
0.00503883
0.00537153
0.00553689
0.00548897
0.00528983
0.00508671
0.00483123
0.00374794
0.00214911
0.00156249
0.00138661
0.00123648
0.00112301
0.00102896
0.00086228
0.000719267
0.000606133
0.000518175
0.000449681
0.000395885
0.000353265
0.000319441
0.0002931
0.000273492
0.000275035
0.000666326
0.000396184
0.00781088
0.0218403
0.00494279
0.0036408
0.00368319
0.00385821
0.0040637
0.00434669
0.00475172
0.00522876
0.00560939
0.00576211
0.00567756
0.00544453
0.00516497
0.00480386
0.00412942
0.0038751
0.00258626
0.0020985
0.0016992
0.00144904
0.00128976
0.00117298
0.000982028
0.00088298
0.000834433
0.000809139
0.000788229
0.000757938
0.000718043
0.000673682
0.000617889
0.000486216
0.000396042
0.000830132
0.000503306
0.0108174
0.0345857
0.00808548
0.00400163
0.00375696
0.0038661
0.00403946
0.0043593
0.00495036
0.00561347
0.00604786
0.00614238
0.00594389
0.00557024
0.00508466
0.00446788
0.00370344
0.00304105
0.00251244
0.00209204
0.00176618
0.00153907
0.00139573
0.00130733
0.00127358
0.00130615
0.00136358
0.00140942
0.00142145
0.00138435
0.00128746
0.00115567
0.0010021
0.000808228
0.000626912
0.000732937
0.000772386
0.000740351
0.000836432
0.000856431
0.0145433
0.0481963
0.0164314
0.00611481
0.00459585
0.00431673
0.0043132
0.0045992
0.00556714
0.00640415
0.00679174
0.00674921
0.00638165
0.00583479
0.00519127
0.00440401
0.00348864
0.00268347
0.002148
0.00185919
0.00166806
0.00152737
0.00145013
0.00143608
0.00149829
0.00162064
0.001748
0.0018459
0.00189485
0.00187549
0.00176472
0.00157148
0.00134581
0.0011049
0.000893125
0.00079307
0.00077186
0.000989872
0.00249579
0.00142609
0.0185933
0.0572112
0.031476
0.0157467
0.0102426
0.00763705
0.00653711
0.00643753
0.00735455
0.0078297
0.00787415
0.0075585
0.00694553
0.00620199
0.0054279
0.0045271
0.00346827
0.0025241
0.00193343
0.00167869
0.00155956
0.00149657
0.00149615
0.00155925
0.00168574
0.00185503
0.00202629
0.00217593
0.00228944
0.00234874
0.00232842
0.0021584
0.00190835
0.00163518
0.0014079
0.00126479
0.00121632
0.0014283
0.00351712
0.00215264
0.0195094
0.0579019
0.0412425
0.0337398
0.0259442
0.0190728
0.0146426
0.0124696
0.0110272
0.0100878
0.00934991
0.00850658
0.00748718
0.00649616
0.00562836
0.00464809
0.00342058
0.00233609
0.00171538
0.00152331
0.00146657
0.00147485
0.00153833
0.00164881
0.00179889
0.00197633
0.00216477
0.00235472
0.00254361
0.00273201
0.00291984
0.00309068
0.00311089
0.00304939
0.00309685
0.00343271
0.00423651
0.00538192
0.0127503
0.00385946
0.0185963
0.0264038
0.0242432
0.0222138
0.0204481
0.0181994
0.0158827
0.0140371
0.0126329
0.0116197
0.0105404
0.00916503
0.00765143
0.00645246
0.00561918
0.004582
0.00309355
0.00199797
0.00155197
0.0014129
0.00139313
0.00143337
0.00151413
0.00162574
0.00176188
0.00191659
0.00208449
0.00226348
0.00245475
0.00266116
0.00288496
0.00312591
0.00338352
0.0037043
0.00418093
0.00483011
0.00555201
0.00615524
0.00654277
0.00369155
0.00628269
0.011796
0.0144561
0.0152813
0.0151257
0.0146221
0.0139436
0.0128501
0.0108966
0.00869424
0.0067026
0.00562051
0.00517347
0.00400795
0.00264621
0.00184559
0.00150057
0.00137982
0.00135488
0.00137733
0.00142945
0.00150292
0.00159269
0.00169505
0.00180767
0.0019305
0.0020666
0.00222302
0.00241189
0.00265209
0.00296931
0.00336029
0.00383794
0.00437335
0.00485558
0.00510743
0.00494049
0.00261379
0.00892535
0.0169258
0.0181403
0.0175942
0.0165525
0.0149966
0.0131875
0.0111633
0.00810191
0.00576074
0.00391606
0.00296123
0.00268701
0.00227861
0.00186448
0.00152569
0.0013176
0.00120724
0.00115746
0.0011477
0.001168
0.00121335
0.00128141
0.00137167
0.00148524
0.0016246
0.00179338
0.00199613
0.00223785
0.00252865
0.00288122
0.00330573
0.00380249
0.00433938
0.00489573
0.00590856
0.00346049
0.00280518
0.00728515
0.00811838
0.00877345
0.00996785
0.0101849
0.00978307
0.00888426
0.0074894
0.00569358
0.00408854
0.00282752
0.00146974
0.00106776
0.000955187
0.000898875
0.000810737
0.000724849
0.000690006
0.000686986
0.000704866
0.000736689
0.000779222
0.000831003
0.000891383
0.000960178
0.00103757
0.00112411
0.00122087
0.00132972
0.00145394
0.00159935
0.00177069
0.00196811
0.00219629
0.0024612
0.00276478
0.00310749
0.00264851
0.0022205
0.00275031
)
;

boundaryField
{
    floor
    {
        type            kqRWallFunction;
        value           nonuniform List<scalar> 
36
(
0.00249439
0.000364637
0.000529674
0.000611141
0.00058691
0.000552798
0.000506453
0.000459475
0.000417761
0.00038161
0.000350238
0.000323141
0.000299372
0.000278082
0.000258406
0.000239296
0.000219217
0.000204935
0.000172847
0.000172847
0.000295102
0.000396184
0.000503306
0.000740351
0.000836432
0.000856431
0.00249439
0.00253157
0.00156533
0.00123561
0.000364637
0.00123561
0.000539384
0.00214911
0.00156249
0.00258626
)
;
    }
    ceiling
    {
        type            kqRWallFunction;
        value           nonuniform List<scalar> 
43
(
0.00728515
0.00811838
0.00877345
0.00996785
0.0101849
0.00978307
0.00888426
0.0074894
0.00569358
0.00408854
0.00282752
0.00146974
0.00106776
0.000955187
0.000898875
0.000810737
0.000724849
0.000690006
0.000686986
0.000704866
0.000736689
0.000779222
0.000831003
0.000891383
0.000960178
0.00103757
0.00112411
0.00122087
0.00132972
0.00145394
0.00159935
0.00177069
0.00196811
0.00219629
0.0024612
0.00276478
0.00310749
0.00264851
0.0022205
0.00275031
0.0185963
0.0264038
0.00892535
)
;
    }
    sWall
    {
        type            kqRWallFunction;
        value           uniform 0.00728515;
    }
    nWall
    {
        type            kqRWallFunction;
        value           nonuniform List<scalar> 6(0.000856431 0.00142609 0.00215264 0.00261379 0.00280518 0.00275031);
    }
    sideWalls
    {
        type            empty;
    }
    glass1
    {
        type            kqRWallFunction;
        value           nonuniform List<scalar> 9(0.00166447 0.00338863 0.00537246 0.00781088 0.0108174 0.0145433 0.0185933 0.0195094 0.0185963);
    }
    glass2
    {
        type            kqRWallFunction;
        value           nonuniform List<scalar> 2(0.00385946 0.00369155);
    }
    sun
    {
        type            kqRWallFunction;
        value           nonuniform List<scalar> 
14
(
0.00166447
0.00191179
0.00192777
0.00209437
0.00225079
0.00239688
0.00253715
0.00267762
0.00282628
0.002945
0.00301227
0.00300153
0.00289704
0.00271422
)
;
    }
    Table_master
    {
        type            kqRWallFunction;
        value           nonuniform List<scalar> 9(0.00086228 0.000719267 0.000606133 0.000518175 0.000449681 0.000395885 0.000353265 0.000319441 0.0002931);
    }
    Table_slave
    {
        type            kqRWallFunction;
        value           nonuniform List<scalar> 9(0.000982028 0.00088298 0.000834433 0.000809139 0.000788229 0.000757938 0.000718043 0.000673682 0.000617889);
    }
    inlet
    {
        type            turbulentIntensityKineticEnergyInlet;
        intensity       0.05;
        value           uniform 0.0018375;
    }
    outlet
    {
        type            zeroGradient;
    }
}


// ************************************************************************* //
