/*--------------------------------*- C++ -*----------------------------------*=========                 |
  \      /  F ield         | OpenFOAM: The Open Source CFD Toolbox
   \    /   O peration     | Website:  https://openfoam.org
    \  /    A nd           | Version:  6
     \/     M anipulation  |
\*---------------------------------------------------------------------------*/
FoamFile
{
    version     2.0;
    format      ascii;
    class       volScalarField;
    location    "1800";
    object      PPD;
}
// * * * * * * * * * * * * * * * * * * * * * * * * * * * * * * * * * * * * * //

dimensions      [0 0 0 0 0 0 0];

internalField   nonuniform List<scalar> 
458
(
66.39223334373443
55.76263650177299
54.863012609849726
53.71732778958594
52.88006391952482
52.24963402320378
51.839145355353494
51.63078876813291
51.72543725730735
52.049589733967366
52.706505910908675
53.78822246297297
55.43896420677563
57.436074162270025
58.242192920729515
61.88986972269961
61.429437185645035
61.301356524651034
61.301356524651034
61.09860499144605
60.163318361962936
59.730291289330545
59.58828260493104
59.527978153945426
59.52233665989815
59.538511144106536
59.562446962996376
59.66719844251154
59.857660567553445
60.279398452570405
61.108320669938024
61.14755834279264
61.429437185645035
65.3670033555244
56.43552218616947
56.4417349332296
55.35954682496264
54.650342707138556
54.17389355250852
53.8551125314487
53.700967879655295
53.7536588357543
53.91348687449232
54.19202464905486
54.64537174221127
55.39677949305212
56.4080065615913
57.89142354677914
60.47987755206305
60.788278540779395
57.60502983794762
58.97732657874545
61.326978852620314
61.021099336499425
60.23477749670934
59.586598073328055
59.25909963193897
59.122508283355
59.085202686676695
58.990676890417866
58.87093821582928
58.78229566648119
58.6811161353812
58.61872405678172
58.63184626122257
58.8515024143823
59.66198607294808
60.21817585956633
59.820254022428
68.3307800707652
56.22746669661745
57.96388724737751
57.25964000095107
57.01963208523626
56.87769952631903
56.80003416332314
56.781952740779964
56.85036131806301
56.82422474772336
56.58002289945635
56.141646926494715
55.846657915340536
56.00849583831317
57.11766434503446
60.1695723409979
60.27405765260007
60.58272243049021
56.047230233704795
58.56896667820195
59.23396701521854
59.27257380854071
59.180442524713406
59.000759445118135
59.42407823249763
59.73249517904614
59.76268263482443
59.655026367113365
59.50476535928936
59.32200140329533
59.06074874600299
58.60874670039352
58.4086323965169
58.86596496963182
58.45087184239176
56.66906979162805
72.57293483154167
56.286053945382974
59.083836647603505
59.055197050521734
59.54653368016908
60.03968315083432
60.45930862280012
60.78824925601071
60.93284400738614
60.62970301425844
59.53236380704648
57.8929392022658
56.378657803155356
55.69631042675521
56.355822333949874
58.61323211608153
60.27405765260007
60.45415949031073
58.79548055311454
57.85389925890739
58.87181577006736
59.73447548758468
60.26126754997534
60.75680327291947
60.849983202128364
60.07706048663657
59.36407680876704
58.852870586996964
58.45699264688892
58.176919618703664
58.11027604579099
58.341996840281496
59.050281551384906
59.18688208448065
58.72968134941177
56.941367512616466
54.813613622885306
76.9660929641456
57.251528818615526
60.122016884501214
60.569533530071915
61.861372096062695
63.21713848865226
64.51605624464312
65.48159529689207
65.79623356095989
64.82281148308478
62.320316703476
59.201577423265825
56.557464691501444
55.17259676170616
55.403010997073835
57.00607366561326
58.93187223461413
59.77664306167426
59.71192701506409
59.53246967862031
60.28718613804445
61.267498830163944
62.007084906242135
62.374711090209495
62.451150281068706
62.1217630184451
61.49361236587
60.93072898188218
60.43803068784332
60.03089469672553
59.70620690300734
59.589166019129415
59.55551532115963
59.16682263194847
58.27235535532808
55.736847113745355
55.95331605538322
53.50115034697447
52.58930319703764
52.04719318531163
80.78897613270729
59.43228205821326
62.437878726994924
62.26023219282203
63.53496564394868
65.61522132945571
68.02338106081348
69.16406872267174
70.19532156075074
67.61147886508448
63.5890577095072
59.45071842324516
56.219373561632665
54.567550304001664
54.64211076717048
56.13571784253129
58.27402336320994
60.12428804455081
61.28300998784943
61.94096351446663
62.32373394101471
62.6039320675511
62.78201206684216
62.8836907300584
62.90910104456607
62.90910104456607
62.8836907300584
62.83285885778989
62.75658310399159
62.4408665533624
61.843723325947366
61.25510152530845
60.64049750671353
59.68604397876073
58.41802926876693
56.1566782628607
55.95302626221104
56.76740722846142
55.5691710038043
52.64411117279738
83.96559206738624
64.4573274578596
70.13558142019482
66.39609898929481
65.10248075857461
65.92245977564721
68.04171801130622
69.98049568594388
69.2275203574225
66.60214071718633
62.825546255364536
58.592967714228394
55.286545546797704
53.7814836236553
54.1670237274755
56.069979893416956
58.78872363214208
61.48064761187323
62.14520385166492
62.62938305020003
62.934507596859675
63.16299547927938
63.26444548383464
63.31514704624853
63.34049192962635
63.31514704624853
63.26444548383464
63.21372826598996
63.08686729701876
62.95991037609605
62.75658310399159
62.47662289239523
62.19622979259911
61.285025128808485
59.61736276271565
57.53058772206303
56.512189794696056
56.38343876899404
53.82337469391361
53.149832825406705
88.3564523840909
79.90532650273252
77.98425290394601
72.91118144298102
70.06746138777885
68.56765754667273
68.06289754602071
67.87433240289279
66.92025026253171
64.4314464874093
60.37845487046593
56.13207351549294
53.33302542900918
52.741836475821046
54.11715343178061
57.03658507825236
60.712796533979194
62.14520385166492
62.8836907300584
63.26444548383464
63.467156935773346
63.59372193355036
63.669612366723314
63.69490101879334
63.69490101879334
63.669612366723314
63.64431962796867
63.56841699946221
63.467156935773346
63.31514704624853
63.11224721029547
62.8836907300584
62.55301921726724
62.2472419019
61.992043910448245
61.71093721925569
60.638779160323764
60.03153091417119
54.73776689848014
50.78832834529194
93.27214229415976
89.81369662607146
85.27802447390951
79.90428014148688
74.9500984480507
71.25430346263275
68.77223380778545
67.00841746434367
64.60046050810863
60.19575518007524
55.2299914538467
51.71707457737427
50.66987744388027
52.093083867845735
55.32766207896663
59.92363490830149
61.992043910448245
63.01070457203349
63.49247797920444
63.720185573393266
63.871806250576284
63.97280338791556
63.5689933793619
63.210769357291525
62.849918916724725
62.520932181898054
62.18546621843861
61.83607128606904
61.49128542376778
61.10840689092266
60.70045792130864
60.21276449451479
59.74015404037701
59.25178508175069
58.57398484306433
57.715362437579074
56.89380389113415
56.24498802325118
55.423739304143574
53.67632137032528
87.01870219346216
12.686227615398082
7.337947599478312
20.904600342719263
32.11795436160429
38.09343610095115
40.791140207883075
42.700455983127135
43.995651078131736
46.1567313494556
49.69958424721516
54.60798658648077
59.55239512018505
61.864317830654294
63.06148354566086
63.669612366723314
63.75111348708889
63.354834390688666
62.935556784732576
62.540004309684534
62.109635058566866
61.71743072424391
61.309933486486344
60.909630891380935
60.48938389931027
60.10491460658591
59.73788259198377
59.399002623457726
59.129506932575524
58.92444206451153
58.86012290110292
58.85414061792222
58.882104618975625
58.9514030810323
59.20941436167814
60.15120716275551
62.397337026461614
59.526522367802954
33.028066373282925
6.125384821268398
11.156687773498717
23.27777744416227
32.159105124400554
37.59248887856206
40.79193481258355
43.09414439083902
45.639175690633564
51.45783311590514
56.98777478587021
60.60842675320389
62.32373394101471
62.15574411185068
62.1728196897028
62.284299248965894
62.28528265196731
62.16635831128551
61.95995201207458
61.68738036877494
61.41804369222098
61.11364454479319
60.8102064183792
60.48895536419414
60.21016536920373
59.956941642270756
59.74179979528173
59.57992777433963
59.49364434499895
59.547467993423865
59.75438775851666
60.230723861499534
60.9053801823313
61.61691772385273
62.405436067097845
64.24428223987657
61.81051967381915
66.08546397665795
5.284950341257229
5.97712667218569
5.479730798040379
8.887972647337989
17.472675067159727
27.087192540792117
37.05095658838238
41.923237569361056
43.68050347587112
40.84016844517584
43.70725296833993
55.93960813116388
58.47500427529585
58.94745459766366
59.296287663988615
59.525865135092744
59.583492195664356
59.63571636491738
59.72605259658606
59.782149167642054
59.85948875762281
59.88927881573148
59.89188175538646
59.89379185462928
59.845240173498176
59.7807026790539
59.71176411496751
59.65446088719458
59.63043312268794
59.667469290445446
59.80314010715048
60.121876275253875
60.716450675929686
61.80510032639496
63.706895719345695
66.176461744937
66.47403027607439
63.90262550240917
61.85332529852422
56.8917293832529
)
;

boundaryField
{
    ".*"
    {
        type            zeroGradient;
    }
}


// ************************************************************************* //
