// -*- C++ -*-
// File generated by PyFoam - sorry for the ugliness

FoamFile
{
 version 2.0;
 format ascii;
 class volVectorField;
 location "1800";
 object U;
}

dimensions [ 0 1 -1 0 0 0 0 ];

internalField nonuniform List<vector> 458
(
  (0.0525344 0.081982 0)
  (-0.159435 0.0198775 0)
  (-0.174902 0.0164272 0)
  (-0.204192 0.0130546 0)
  (-0.228434 0.00893447 0)
  (-0.247022 0.00445509 0)
  (-0.259062 -0.00048068 0)
  (-0.263264 -0.00606108 0)
  (-0.25774 -0.0124826 0)
  (-0.241566 -0.0199112 0)
  (-0.214129 -0.0276815 0)
  (-0.17625 -0.0349778 0)
  (-0.130626 -0.0416649 0)
  (-0.0856547 -0.0488804 0)
  (-0.0655271 -0.056311 0)
  (0.0119532 0.00738478 0)
  (-0.0150112 -0.0233066 0)
  (0.0177562 -0.0301002 0)
  (0.0387492 -0.021706 0)
  (0.0572995 -0.0143629 0)
  (0.0692405 -0.0082007 0)
  (0.0749243 -0.00504337 0)
  (0.0768188 -0.00390712 0)
  (0.0772913 -0.0034906 0)
  (0.077376 -0.00323248 0)
  (0.0771762 -0.00296552 0)
  (0.076549 -0.00260139 0)
  (0.0752248 -0.00194031 0)
  (0.0725344 -0.000536919 0)
  (0.0671084 0.00221665 0)
  (0.0574024 0.00536557 0)
  (0.0472648 0.00791903 0)
  (-0.0128683 0.0228219 0)
  (0.2403 0.170284 0)
  (-0.158262 0.0549691 0)
  (-0.14426 0.0480882 0)
  (-0.175851 0.0412895 0)
  (-0.200059 0.0333526 0)
  (-0.218789 0.0244583 0)
  (-0.231434 0.0141382 0)
  (-0.236823 0.00183846 0)
  (-0.232939 -0.0128415 0)
  (-0.219269 -0.0291281 0)
  (-0.195628 -0.0449469 0)
  (-0.163713 -0.0575469 0)
  (-0.127298 -0.0650135 0)
  (-0.0929852 -0.0661411 0)
  (-0.068656 -0.0539672 0)
  (-0.0444413 -0.00326436 0)
  (-0.0202171 0.0410499 0)
  (-0.0963606 0.0386578 0)
  (0.0903253 0.0186516 0)
  (0.044293 -0.0244399 0)
  (0.0483256 -0.033568 0)
  (0.0617227 -0.0277399 0)
  (0.072869 -0.0189972 0)
  (0.0785747 -0.00697499 0)
  (0.0793355 5.99018e-05 0)
  (0.0787692 0.00274439 0)
  (0.0786262 0.00374295 0)
  (0.0788249 0.00431411 0)
  (0.0789572 0.00471691 0)
  (0.078912 0.00518033 0)
  (0.0786537 0.00615033 0)
  (0.0775775 0.00866786 0)
  (0.0729562 0.0156921 0)
  (0.0614419 0.0220587 0)
  (0.0531755 0.026594 0)
  (-0.0492701 0.0504448 0)
  (0.410271 0.256441 0)
  (-0.186316 0.0914938 0)
  (-0.109422 0.0793222 0)
  (-0.142026 0.065559 0)
  (-0.163398 0.0520217 0)
  (-0.180674 0.0373542 0)
  (-0.193191 0.0204307 0)
  (-0.199553 0.000426394 0)
  (-0.197064 -0.0229041 0)
  (-0.18497 -0.048643 0)
  (-0.163568 -0.0731479 0)
  (-0.135267 -0.0916064 0)
  (-0.10405 -0.10083 0)
  (-0.0744701 -0.0992642 0)
  (-0.0489745 -0.0842909 0)
  (-0.023745 -0.0525 0)
  (0.00206014 -0.0243077 0)
  (-0.0513598 -0.0185961 0)
  (0.115112 -0.0602717 0)
  (0.0693027 -0.0548078 0)
  (0.0660612 -0.0461322 0)
  (0.0724289 -0.0372229 0)
  (0.0783905 -0.0304623 0)
  (0.0822083 -0.0222636 0)
  (0.076234 -0.0151587 0)
  (0.0713022 -0.0113793 0)
  (0.0696842 -0.00923403 0)
  (0.0696342 -0.00778517 0)
  (0.0700397 -0.00664687 0)
  (0.0708123 -0.00557567 0)
  (0.0725496 -0.00412146 0)
  (0.0767188 1.7745e-06 0)
  (0.0759585 0.0203198 0)
  (0.0626282 0.0354117 0)
  (0.0612752 0.0473336 0)
  (-0.0783076 0.0818417 0)
  (0.559434 0.326567 0)
  (-0.229977 0.12619 0)
  (-0.0704855 0.105842 0)
  (-0.104383 0.0861989 0)
  (-0.119965 0.0694739 0)
  (-0.133591 0.0514473 0)
  (-0.144658 0.0298587 0)
  (-0.151353 0.00327009 0)
  (-0.149715 -0.0287459 0)
  (-0.138477 -0.0641107 0)
  (-0.119082 -0.0969927 0)
  (-0.0947673 -0.120302 0)
  (-0.0691213 -0.130262 0)
  (-0.0451089 -0.125772 0)
  (-0.0235735 -0.10659 0)
  (-0.00144753 -0.0747226 0)
  (0.0254697 -0.0429358 0)
  (0.0465934 -0.025975 0)
  (0.079531 0.00323662 0)
  (0.0875882 -0.0388738 0)
  (0.0722239 -0.0458192 0)
  (0.0657389 -0.0407353 0)
  (0.0646138 -0.0350516 0)
  (0.0626847 -0.0287048 0)
  (0.0658624 -0.0185574 0)
  (0.0773738 -0.0134348 0)
  (0.0878003 -0.0106206 0)
  (0.0956966 -0.00874578 0)
  (0.101695 -0.00697154 0)
  (0.105543 -0.00484475 0)
  (0.105867 -0.00204805 0)
  (0.100819 0.00189747 0)
  (0.0881691 0.00761083 0)
  (0.0738553 0.0303237 0)
  (0.0613422 0.0510229 0)
  (0.0714531 0.0708187 0)
  (-0.0898341 0.115868 0)
  (0.683755 0.382158 0)
  (-0.276731 0.15689 0)
  (-0.0306907 0.120693 0)
  (-0.0634986 0.0987533 0)
  (-0.0714476 0.0810649 0)
  (-0.0793564 0.0617141 0)
  (-0.0871852 0.0373844 0)
  (-0.0928505 0.0059199 0)
  (-0.0902726 -0.0336374 0)
  (-0.0787194 -0.0778831 0)
  (-0.0619694 -0.117536 0)
  (-0.0435718 -0.143446 0)
  (-0.0257571 -0.152833 0)
  (-0.0101774 -0.146146 0)
  (0.00361993 -0.124834 0)
  (0.017147 -0.0948683 0)
  (0.0330512 -0.0654403 0)
  (0.0480564 -0.046469 0)
  (0.0600388 -0.0388724 0)
  (0.0628484 -0.0467211 0)
  (0.0576282 -0.0451066 0)
  (0.0517348 -0.0392998 0)
  (0.0486561 -0.0336348 0)
  (0.0477014 -0.0272775 0)
  (0.0511802 -0.0177261 0)
  (0.0587068 -0.0126961 0)
  (0.066464 -0.010702 0)
  (0.0734318 -0.00921363 0)
  (0.0795537 -0.00682129 0)
  (0.0843772 -0.00269303 0)
  (0.0871474 0.00356564 0)
  (0.0862455 0.0118162 0)
  (0.0815277 0.0226146 0)
  (0.0750922 0.0406066 0)
  (0.0678308 0.0614511 0)
  (0.0923397 0.0852161 0)
  (0.0343246 0.117242 0)
  (0.102394 0.14127 0)
  (0.126605 0.154997 0)
  (-0.17793 0.189307 0)
  (0.768199 0.429835 0)
  (-0.317222 0.179442 0)
  (-0.00116685 0.114803 0)
  (-0.0186106 0.102046 0)
  (-0.0180832 0.0882721 0)
  (-0.020328 0.0688456 0)
  (-0.0243122 0.0430744 0)
  (-0.0278822 0.00873585 0)
  (-0.0193942 -0.0382736 0)
  (-0.00661222 -0.0904267 0)
  (0.00554483 -0.133898 0)
  (0.0152911 -0.158732 0)
  (0.0227091 -0.165218 0)
  (0.0273795 -0.155521 0)
  (0.0300686 -0.133487 0)
  (0.0325429 -0.104349 0)
  (0.0361969 -0.0752187 0)
  (0.0400346 -0.0536004 0)
  (0.0419958 -0.0417559 0)
  (0.0400928 -0.0390889 0)
  (0.0348308 -0.0376298 0)
  (0.0294525 -0.0346706 0)
  (0.026364 -0.031321 0)
  (0.0257849 -0.0274781 0)
  (0.028361 -0.0227842 0)
  (0.0336034 -0.0201367 0)
  (0.0397724 -0.0187908 0)
  (0.046052 -0.0171734 0)
  (0.0522229 -0.0141683 0)
  (0.0580566 -0.00881387 0)
  (0.0634895 -0.000183815 0)
  (0.0671424 0.0112681 0)
  (0.0685299 0.0247842 0)
  (0.0699673 0.0415705 0)
  (0.0714101 0.0605194 0)
  (0.092001 0.0821427 0)
  (0.0851469 0.0889645 0)
  (0.0993047 0.0414417 0)
  (0.127933 -0.0149204 0)
  (-0.219102 0.0949624 0)
  (0.807282 0.473247 0)
  (-0.333855 0.165875 0)
  (0.0226 0.0576863 0)
  (0.0430989 0.0842057 0)
  (0.0488873 0.0933163 0)
  (0.0482128 0.077273 0)
  (0.0473119 0.0475496 0)
  (0.0482359 0.00587351 0)
  (0.0639345 -0.0501887 0)
  (0.074327 -0.102189 0)
  (0.078076 -0.140901 0)
  (0.0768511 -0.162027 0)
  (0.0719319 -0.165407 0)
  (0.0637998 -0.153082 0)
  (0.053554 -0.12975 0)
  (0.0430425 -0.100705 0)
  (0.0339339 -0.0720993 0)
  (0.0265726 -0.0501431 0)
  (0.0202702 -0.0374305 0)
  (0.0144197 -0.0330586 0)
  (0.00858077 -0.0319217 0)
  (0.0036764 -0.0307799 0)
  (0.000585286 -0.0294856 0)
  (-0.000537678 -0.0279979 0)
  (0.000536318 -0.0262522 0)
  (0.0034342 -0.0251422 0)
  (0.00726189 -0.0243385 0)
  (0.01157 -0.0230043 0)
  (0.0163345 -0.0202965 0)
  (0.0217236 -0.0152295 0)
  (0.0280487 -0.00651175 0)
  (0.03732 0.00650831 0)
  (0.0445319 0.0206727 0)
  (0.0523881 0.0355863 0)
  (0.0612421 0.050778 0)
  (0.0799266 0.0674828 0)
  (0.0926552 0.0713264 0)
  (0.105959 0.049268 0)
  (0.162275 0.0508213 0)
  (-0.155804 0.154614 0)
  (0.908881 0.48004 0)
  (-0.0866505 0.147181 0)
  (0.10921 -0.0313524 0)
  (0.177221 -0.00954232 0)
  (0.171348 0.0305574 0)
  (0.15586 0.0351372 0)
  (0.149363 0.0119202 0)
  (0.152996 -0.0299277 0)
  (0.163787 -0.070654 0)
  (0.162971 -0.108044 0)
  (0.152023 -0.137054 0)
  (0.135499 -0.152195 0)
  (0.115427 -0.151761 0)
  (0.0924749 -0.136762 0)
  (0.0677148 -0.112536 0)
  (0.0434452 -0.0842367 0)
  (0.0224595 -0.0574101 0)
  (0.00629239 -0.0379794 0)
  (-0.00528833 -0.0281703 0)
  (-0.0126192 -0.026294 0)
  (-0.0185718 -0.0265298 0)
  (-0.0234246 -0.026898 0)
  (-0.027151 -0.0271386 0)
  (-0.0297471 -0.027213 0)
  (-0.0311711 -0.0271329 0)
  (-0.0316193 -0.0270653 0)
  (-0.0314449 -0.0268754 0)
  (-0.0308155 -0.0261838 0)
  (-0.0296456 -0.0245123 0)
  (-0.0276231 -0.0213372 0)
  (-0.0240805 -0.0160709 0)
  (-0.0167192 -0.00790126 0)
  (-0.0016894 0.00381427 0)
  (0.0107204 0.0153611 0)
  (0.0243305 0.0231485 0)
  (0.0438692 0.0298971 0)
  (0.061858 0.0258809 0)
  (0.0746704 0.00839283 0)
  (0.163078 0.0698756 0)
  (-0.490349 0.254043 0)
  (1.04874 0.433054 0)
  (0.492966 0.28709 0)
  (0.530089 0.242785 0)
  (0.548883 0.20412 0)
  (0.492915 0.173087 0)
  (0.423577 0.134447 0)
  (0.374196 0.0877662 0)
  (0.342165 0.0375478 0)
  (0.302793 -0.0161252 0)
  (0.257286 -0.0639435 0)
  (0.212806 -0.100225 0)
  (0.173313 -0.119233 0)
  (0.136512 -0.120626 0)
  (0.0998161 -0.105943 0)
  (0.062191 -0.0828868 0)
  (0.0260973 -0.0572464 0)
  (-0.00286626 -0.0346266 0)
  (-0.0212451 -0.0231287 0)
  (-0.031461 -0.0205035 0)
  (-0.0386718 -0.0211475 0)
  (-0.0448958 -0.0223553 0)
  (-0.05061 -0.0234213 0)
  (-0.0559396 -0.0242709 0)
  (-0.0609293 -0.0249071 0)
  (-0.0656135 -0.0253421 0)
  (-0.0701189 -0.0255831 0)
  (-0.0746367 -0.0254774 0)
  (-0.0793352 -0.0246996 0)
  (-0.0843803 -0.0227815 0)
  (-0.0900445 -0.0191382 0)
  (-0.0968179 -0.013089 0)
  (-0.10531 -0.00392601 0)
  (-0.115321 0.00864 0)
  (-0.125818 0.0239183 0)
  (-0.145073 0.0427739 0)
  (-0.176082 0.0663055 0)
  (-0.222911 0.0930198 0)
  (-0.282363 0.120542 0)
  (-0.366209 0.143958 0)
  (-0.679695 0.154988 0)
  (-0.0523914 -0.243787 0)
  (0.209738 0.00998653 0)
  (0.290502 0.101637 0)
  (0.284251 0.111975 0)
  (0.268748 0.0850746 0)
  (0.250942 0.0436069 0)
  (0.227531 0.00160927 0)
  (0.198633 -0.0344461 0)
  (0.165692 -0.0640141 0)
  (0.134791 -0.0794544 0)
  (0.101082 -0.0797418 0)
  (0.0640557 -0.0637559 0)
  (0.0241977 -0.0432232 0)
  (-0.01639 -0.0234406 0)
  (-0.0366069 -0.0156553 0)
  (-0.0483837 -0.0143986 0)
  (-0.0559742 -0.015468 0)
  (-0.0624184 -0.0169333 0)
  (-0.0687944 -0.0182087 0)
  (-0.075386 -0.0192382 0)
  (-0.0822594 -0.0200428 0)
  (-0.0894362 -0.0206174 0)
  (-0.0969428 -0.0209288 0)
  (-0.104832 -0.0208945 0)
  (-0.113147 -0.0203153 0)
  (-0.121853 -0.0188479 0)
  (-0.130788 -0.0160108 0)
  (-0.139625 -0.0112319 0)
  (-0.1478 -0.00394199 0)
  (-0.154339 0.00634691 0)
  (-0.15803 0.019663 0)
  (-0.160553 0.0369848 0)
  (-0.162899 0.0586473 0)
  (-0.165609 0.0833299 0)
  (-0.16623 0.104364 0)
  (-0.156591 0.105821 0)
  (-0.136741 0.0537909 0)
  (-0.196387 -0.183878 0)
  (0.00146676 0.23888 0)
  (-0.0286645 0.138377 0)
  (0.0229337 0.124277 0)
  (0.0579979 0.11542 0)
  (0.0842027 0.0907427 0)
  (0.0983884 0.0588807 0)
  (0.0975871 0.0297348 0)
  (0.0914777 0.00215288 0)
  (0.0788351 -0.0370702 0)
  (0.0556315 -0.0477072 0)
  (0.023947 -0.039682 0)
  (-0.0154849 0.000604108 0)
  (-0.0441796 0.0268155 0)
  (-0.060835 0.0345239 0)
  (-0.0680166 0.0352633 0)
  (-0.0724748 0.0320611 0)
  (-0.0766403 0.0284335 0)
  (-0.0815375 0.0251645 0)
  (-0.0872059 0.0222699 0)
  (-0.0934826 0.0196879 0)
  (-0.100214 0.0173932 0)
  (-0.107271 0.0153859 0)
  (-0.114541 0.0136711 0)
  (-0.121913 0.0122671 0)
  (-0.129245 0.0112264 0)
  (-0.136315 0.0106427 0)
  (-0.142797 0.0106517 0)
  (-0.148247 0.0114346 0)
  (-0.152005 0.0132237 0)
  (-0.152948 0.0168088 0)
  (-0.149626 0.0240555 0)
  (-0.140366 0.0360301 0)
  (-0.12425 0.0535852 0)
  (-0.101886 0.0758266 0)
  (-0.0731953 0.0945165 0)
  (-0.0339592 0.0875211 0)
  (0.148212 -0.041994 0)
  (-0.0541827 -0.0614466 0)
  (-0.117083 -0.353424 0)
  (-0.44725 -0.124687 0)
  (-0.366133 0.06216 0)
  (-0.315984 0.012923 0)
  (-0.225042 0.02152 0)
  (-0.148352 0.023576 0)
  (-0.0774972 0.0105656 0)
  (-0.0185128 -0.0168701 0)
  (0.0172648 -0.0628568 0)
  (0.0285915 -0.10934 0)
  (0.017393 -0.138378 0)
  (-0.0437756 -0.110708 0)
  (-0.0754517 -0.0996326 0)
  (-0.0894926 -0.0971106 0)
  (-0.0906042 -0.0975653 0)
  (-0.0884242 -0.101354 0)
  (-0.0872472 -0.106707 0)
  (-0.0879987 -0.10763 0)
  (-0.0907931 -0.105774 0)
  (-0.0948971 -0.102038 0)
  (-0.09982 -0.0973287 0)
  (-0.105281 -0.0921888 0)
  (-0.111112 -0.086905 0)
  (-0.117184 -0.0816196 0)
  (-0.123372 -0.0763846 0)
  (-0.129531 -0.0711822 0)
  (-0.135452 -0.0659297 0)
  (-0.140826 -0.0604766 0)
  (-0.145199 -0.0545952 0)
  (-0.147959 -0.0479572 0)
  (-0.148268 -0.0400966 0)
  (-0.144769 -0.030887 0)
  (-0.134974 -0.0204373 0)
  (-0.115633 -0.00798666 0)
  (-0.0850932 0.00760162 0)
  (-0.046851 0.0267428 0)
  (0.00563959 0.0440634 0)
  (0.0912617 -0.0143392 0)
  (0.141625 -0.0753894 0)
  (-0.530911 0.0101159 0)
)
;

boundaryField
{
  floor
  {
    type noSlip;
  }
  ceiling
  {
    type noSlip;
  }
  sWall
  {
    type noSlip;
  }
  nWall
  {
    type noSlip;
  }
  sideWalls
  {
    type empty;
  }
  glass1
  {
    type noSlip;
  }
  glass2
  {
    type noSlip;
  }
  sun
  {
    type noSlip;
  }
  Table_master
  {
    type noSlip;
  }
  Table_slave
  {
    type noSlip;
  }
  inlet
  {
    type fixedValue;
    value uniform (0.114805 -0.277164 0);
  }
  outlet
  {
    type zeroGradient;
  }
} 	// ************************************************************************* //

