/*--------------------------------*- C++ -*----------------------------------*\
  =========                 |
  \\      /  F ield         | OpenFOAM: The Open Source CFD Toolbox
   \\    /   O peration     | Website:  https://openfoam.org
    \\  /    A nd           | Version:  6
     \\/     M anipulation  |
\*---------------------------------------------------------------------------*/
FoamFile
{
    version     2.0;
    format      ascii;
    class       volScalarField;
    location    "1400";
    object      k;
}
// * * * * * * * * * * * * * * * * * * * * * * * * * * * * * * * * * * * * * //

dimensions      [0 2 -2 0 0 0 0];

internalField   nonuniform List<scalar> 
458
(
0.00340135
0.00417757
0.00449091
0.00501994
0.00559137
0.00622138
0.00672432
0.00699404
0.00695282
0.00645711
0.0055302
0.00470099
0.00382523
0.00307453
0.00237901
0.000744936
0.0010293
0.00142326
0.0017006
0.00170956
0.00151197
0.0013003
0.00112432
0.000982626
0.000867768
0.000773769
0.000695698
0.000629975
0.000572915
0.000520786
0.000469384
0.000417881
0.000341459
0.00573899
0.0105552
0.00701572
0.00764438
0.00866517
0.00985358
0.010949
0.011618
0.0117237
0.0110891
0.00979864
0.00843414
0.00711852
0.00570013
0.00413318
0.00338271
0.0026519
0.00189109
0.000683174
0.0014552
0.00227558
0.00276558
0.00291178
0.00250139
0.00203285
0.00165865
0.001376
0.00116081
0.000994889
0.000864901
0.00075706
0.000661353
0.000587564
0.000540152
0.000641065
0.000427933
0.00810988
0.0180268
0.00844787
0.00846217
0.00949949
0.0108518
0.0118972
0.0124412
0.0125454
0.0120204
0.0109556
0.00965381
0.00833469
0.00699634
0.00559469
0.00451416
0.00376123
0.00242498
0.00108897
0.00190417
0.00266643
0.00321484
0.00337591
0.00262567
0.00198096
0.00151198
0.00117881
0.00094067
0.000767892
0.000640436
0.000548305
0.000488533
0.00046068
0.00046812
0.00078461
0.000494077
0.0107392
0.0281276
0.0105543
0.00923048
0.0103349
0.0118538
0.0125979
0.0129126
0.012969
0.012527
0.0115243
0.0101578
0.00874502
0.00744384
0.00620016
0.00513148
0.00428201
0.00326161
0.00289991
0.00285724
0.00329817
0.00386195
0.00424191
0.00424693
0.00340431
0.0028296
0.00243355
0.00213309
0.00189093
0.00168295
0.00148935
0.00129825
0.00109811
0.000789767
0.00060599
0.000980135
0.000583114
0.0137898
0.0413856
0.0153615
0.0112002
0.0126653
0.0138269
0.0138993
0.0139383
0.0138922
0.0133876
0.0122045
0.0105625
0.00888771
0.00746053
0.00631108
0.00541317
0.00475178
0.0043519
0.00473582
0.00503641
0.00538303
0.00565022
0.00565556
0.00533948
0.00478193
0.00430527
0.0039591
0.0036568
0.00333457
0.00296668
0.00255628
0.00211554
0.00166568
0.00121282
0.000874516
0.000923295
0.000849267
0.000805287
0.000891203
0.000893995
0.0174143
0.0555836
0.0260923
0.016795
0.0175514
0.0167135
0.0158885
0.0155777
0.0153817
0.0146872
0.0131512
0.0110538
0.00898393
0.0073604
0.00629721
0.00570591
0.00551284
0.00575097
0.00642086
0.00701667
0.00729692
0.0072034
0.00676271
0.00607915
0.00536961
0.00486116
0.00450272
0.00417246
0.00380499
0.00339269
0.00294189
0.00246879
0.00199896
0.00155594
0.00121112
0.00103572
0.000945611
0.00122495
0.00281926
0.00155354
0.0207352
0.0641292
0.0419704
0.0294129
0.0237055
0.0200839
0.0182847
0.0176844
0.0173512
0.0163756
0.0142893
0.0115512
0.00902411
0.00730688
0.00649433
0.00631758
0.00658088
0.00721396
0.00798583
0.00843654
0.00834386
0.00782615
0.00703322
0.00614148
0.0053693
0.00485581
0.00451226
0.00421102
0.00389881
0.00356629
0.0032118
0.00284378
0.00247525
0.00211949
0.00183676
0.00165421
0.00157644
0.00184193
0.00406055
0.00240692
0.0212795
0.05777
0.0436076
0.0329412
0.0258054
0.0219175
0.0203919
0.0201041
0.0197585
0.0182988
0.0152365
0.0115681
0.00861521
0.0073207
0.00693397
0.00704276
0.00747476
0.00809453
0.00859652
0.00863078
0.00812869
0.00729631
0.00635461
0.00548946
0.00483426
0.00440895
0.00412699
0.00391213
0.00374185
0.00362027
0.00355177
0.00352341
0.00350283
0.00350003
0.00359592
0.00401028
0.00490095
0.00618992
0.0139349
0.00405384
0.0200885
0.0275464
0.0255136
0.0226598
0.0211748
0.0213936
0.0224287
0.023196
0.022448
0.0195763
0.0141833
0.0100223
0.00801113
0.00725657
0.00710022
0.00724775
0.00753647
0.00779689
0.00780372
0.00742368
0.00673386
0.0058906
0.00505932
0.0043694
0.00387106
0.00354004
0.00331888
0.00317044
0.00308695
0.00307327
0.00313406
0.00328311
0.00353307
0.00390065
0.00440759
0.00505437
0.00575302
0.00634465
0.00673045
0.00373813
0.00740652
0.0148128
0.0234056
0.0268398
0.027342
0.0248646
0.0191533
0.0137736
0.00997378
0.00795251
0.00699314
0.00660716
0.00649692
0.00649509
0.00647586
0.00631958
0.00593251
0.00532169
0.00459768
0.00388982
0.00328975
0.0028313
0.00251226
0.00230573
0.00218531
0.00213791
0.00216039
0.00225405
0.00242405
0.00267127
0.0030023
0.00342541
0.00393719
0.00449284
0.00497652
0.00520311
0.00490155
0.0024319
0.00929107
0.0293075
0.0287884
0.0231032
0.0180325
0.0137387
0.0104194
0.00808112
0.0066225
0.00581437
0.00537988
0.00514255
0.00498431
0.00482338
0.00459667
0.00426065
0.003808
0.00328371
0.00276523
0.00232189
0.00198992
0.00177054
0.00164564
0.00159385
0.00160005
0.00165641
0.00176034
0.00191305
0.00211916
0.00238652
0.00272598
0.00314596
0.00363602
0.00414119
0.00461091
0.00529357
0.00318416
0.00257967
0.00725143
0.00807052
0.00868737
0.00970387
0.00756361
0.00621317
0.00527113
0.00443801
0.00374102
0.00323052
0.00289334
0.0026748
0.00252391
0.00240224
0.00228164
0.00214167
0.00197041
0.00176781
0.00154888
0.00134051
0.00116869
0.00104697
0.00097449
0.000942235
0.000940412
0.000962344
0.00100481
0.001067
0.00114955
0.00125408
0.00138295
0.00153931
0.00172724
0.0019519
0.00221731
0.00251367
0.00277631
0.00219316
0.00188697
0.00255036
)
;

boundaryField
{
    floor
    {
        type            kqRWallFunction;
        value           nonuniform List<scalar> 
36
(
0.00237901
0.000744936
0.0010293
0.00142326
0.0017006
0.00170956
0.00151197
0.0013003
0.00112432
0.000982626
0.000867768
0.000773769
0.000695698
0.000629975
0.000572915
0.000520786
0.000469384
0.000417881
0.000341459
0.000341459
0.000427933
0.000494077
0.000583114
0.000805287
0.000891203
0.000893995
0.00237901
0.00338271
0.0026519
0.00189109
0.000744936
0.00189109
0.000683174
0.00242498
0.00108897
0.00289991
)
;
    }
    ceiling
    {
        type            kqRWallFunction;
        value           nonuniform List<scalar> 
43
(
0.00725143
0.00807052
0.00868737
0.00970387
0.00756361
0.00621317
0.00527113
0.00443801
0.00374102
0.00323052
0.00289334
0.0026748
0.00252391
0.00240224
0.00228164
0.00214167
0.00197041
0.00176781
0.00154888
0.00134051
0.00116869
0.00104697
0.00097449
0.000942235
0.000940412
0.000962344
0.00100481
0.001067
0.00114955
0.00125408
0.00138295
0.00153931
0.00172724
0.0019519
0.00221731
0.00251367
0.00277631
0.00219316
0.00188697
0.00255036
0.0200885
0.0275464
0.00929107
)
;
    }
    sWall
    {
        type            kqRWallFunction;
        value           uniform 0.00725143;
    }
    nWall
    {
        type            kqRWallFunction;
        value           nonuniform List<scalar> 6(0.000893995 0.00155354 0.00240692 0.0024319 0.00257967 0.00255036);
    }
    sideWalls
    {
        type            empty;
    }
    glass1
    {
        type            kqRWallFunction;
        value           nonuniform List<scalar> 9(0.00340135 0.00573899 0.00810988 0.0107392 0.0137898 0.0174143 0.0207352 0.0212795 0.0200885);
    }
    glass2
    {
        type            kqRWallFunction;
        value           nonuniform List<scalar> 2(0.00405384 0.00373813);
    }
    sun
    {
        type            kqRWallFunction;
        value           nonuniform List<scalar> 
14
(
0.00340135
0.00417757
0.00449091
0.00501994
0.00559137
0.00622138
0.00672432
0.00699404
0.00695282
0.00645711
0.0055302
0.00470099
0.00382523
0.00307453
)
;
    }
    Table_master
    {
        type            kqRWallFunction;
        value           nonuniform List<scalar> 9(0.00262567 0.00198096 0.00151198 0.00117881 0.00094067 0.000767892 0.000640436 0.000548305 0.000488533);
    }
    Table_slave
    {
        type            kqRWallFunction;
        value           nonuniform List<scalar> 9(0.00340431 0.0028296 0.00243355 0.00213309 0.00189093 0.00168295 0.00148935 0.00129825 0.00109811);
    }
    inlet
    {
        type            turbulentIntensityKineticEnergyInlet;
        intensity       0.05;
        value           uniform 0.0003375;
    }
    outlet
    {
        type            zeroGradient;
    }
}


// ************************************************************************* //
