/*--------------------------------*- C++ -*----------------------------------*\
  =========                 |
  \\      /  F ield         | OpenFOAM: The Open Source CFD Toolbox
   \\    /   O peration     | Website:  https://openfoam.org
    \\  /    A nd           | Version:  6
     \\/     M anipulation  |
\*---------------------------------------------------------------------------*/
FoamFile
{
    version     2.0;
    format      ascii;
    class       surfaceScalarField;
    location    "400";
    object      phi;
}
// * * * * * * * * * * * * * * * * * * * * * * * * * * * * * * * * * * * * * //

dimensions      [1 0 -1 0 0 0 0];

internalField   nonuniform List<scalar> 
850
(
-0.00318377
0.00324836
-0.00435489
0.0011712
-0.00526794
0.00091311
-0.00600055
0.000732685
-0.00652029
0.000519801
-0.00679596
0.000275736
-0.0067891
-6.80104e-06
-0.00644776
-0.000341284
-0.00572949
-0.000718208
-0.00464298
-0.00108645
-0.00327773
-0.00136519
-0.0018078
-0.00146988
-0.000491895
-0.00131584
0.000261589
-0.000753424
0.000264499
-0.000992459
0.000997118
-0.000742782
-0.000249629
-0.000104235
-0.000638498
0.000475543
-0.00057973
0.000888982
-0.000413395
0.00111463
-0.000225608
0.00120718
-9.25056e-05
0.00124958
-4.23625e-05
0.00127207
-2.24432e-05
0.00128178
-9.67252e-06
0.00128292
-1.1015e-06
0.00127763
5.32699e-06
0.0012626
1.50731e-05
0.00122216
4.0475e-05
0.00112866
9.35403e-05
0.000985091
0.000143603
0.000811031
0.000174087
0.000817301
-0.00229484
0.00571744
-0.00344523
0.00232166
-0.00439231
0.00186025
-0.00512875
0.00146919
-0.00565737
0.00104848
-0.00596054
0.000578967
-0.0060006
3.33151e-05
-0.0057316
-0.000610221
-0.00511667
-0.00133309
-0.00417664
-0.00202642
-0.00301679
-0.002525
-0.00180536
-0.00268126
-0.000727281
-0.00239388
0.000147214
-0.00162787
0.0010846
-0.000672827
0.00132685
-0.000237644
0.00104888
0.000283329
0.00106461
3.85429e-05
0.000972439
0.000422075
-0.000633107
0.000785457
-0.00100183
0.00106953
-0.000863757
0.00127626
-0.000620079
0.00132154
-0.00027084
0.00132963
-0.000100559
0.00134044
-5.31343e-05
0.00134947
-3.14332e-05
0.00135505
-1.52106e-05
0.00135807
-4.08893e-06
0.00135892
4.51081e-06
0.00135613
1.79028e-05
0.00132507
7.15625e-05
0.00117635
0.000242302
0.000930903
0.000389078
0.000644769
0.000460245
0.0014777
-0.00161159
0.00759585
-0.00260435
0.00331449
-0.00345248
0.00270844
-0.00410256
0.00211934
-0.00459383
0.00153981
-0.00490866
0.000893855
-0.00500098
0.000125688
-0.00480733
-0.000803825
-0.00428217
-0.00185819
-0.00346251
-0.00284604
-0.00246928
-0.00351818
-0.00145252
-0.00369798
-0.000541434
-0.00330492
0.000222791
-0.00239206
0.000855892
-0.00130588
0.00103865
-0.000420345
0.000818478
0.000503558
0.00189677
0.00156411
-0.000574531
0.00175654
-0.000825477
0.00166199
-0.00090723
0.00165631
-0.000858027
0.0017754
-0.000739128
0.00150476
0.0014044
0.00135146
0.00132022
0.0013052
0.0013013
0.001306
0.00132409
0.00139585
0.00111011
0.000528069
0.000794733
0.000704487
0.000460705
0.000794296
0.00196148
-0.00111471
0.00905651
-0.00189105
0.0040909
-0.00245947
0.00327693
-0.00291347
0.00257341
-0.00329485
0.00192125
-0.00357812
0.00117718
-0.00370267
0.000250298
-0.00357311
-0.000933337
-0.00312373
-0.00230752
-0.00243141
-0.0035383
-0.00163034
-0.00431919
-0.000838186
-0.00449009
-0.000139094
-0.00400399
0.000461928
-0.00299307
0.000954718
-0.00179864
0.00123942
-0.000705008
0.00147832
0.000264711
0.00253841
0.000836738
0.00240603
0.000146754
0.00217972
-0.000348154
0.00205081
-0.000696511
0.00190651
-0.000762875
0.00176439
-0.000715866
0.00158337
-0.000558077
0.00182975
-0.000246497
0.00195562
-0.000125999
0.00204384
-8.83579e-05
0.0021105
-6.67899e-05
0.00214601
-3.56415e-05
0.00212695
1.89316e-05
0.00201984
0.00010697
0.00177932
0.000240378
0.00133716
0.000442013
0.00110095
0.000764294
0.0007159
0.00108956
0.000160957
0.00134926
0.00215191
-0.000759018
0.0102288
-0.00131982
0.00465177
-0.00143814
0.00339532
-0.00158614
0.00272147
-0.00177974
0.00211492
-0.00196433
0.00136182
-0.00206902
0.000355049
-0.00196154
-0.00104076
-0.00157571
-0.00269328
-0.00105354
-0.0040604
-0.000512536
-0.00486014
-2.13053e-05
-0.00498128
0.000395552
-0.00442082
0.000764966
-0.00336247
0.00108206
-0.00211573
0.00135336
-0.00097629
0.00171009
-9.19794e-05
0.00218719
0.000359677
0.00220501
0.000128978
0.00209336
-0.000236472
0.00186765
-0.000470763
0.00164749
-0.00054269
0.00144923
-0.000517588
0.00130562
-0.000414453
0.00131581
-0.000256676
0.00135331
-0.000163487
0.00139787
-0.000132914
0.00145322
-0.00012214
0.0015148
-9.72169e-05
0.001563
-2.92609e-05
0.00156759
0.000102382
0.00150422
0.000303754
0.00137695
0.000569279
0.0012395
0.000901758
0.00107718
0.00125189
0.000727817
0.00169864
0.00102404
0.0018557
-0.000991968
0.00204187
-0.00179059
0.000823717
-0.00170621
-0.000638168
0.011337
-0.0009669
0.00498058
-0.000456034
0.00288453
-0.000161631
0.00242713
-0.00012542
0.00207878
-0.000174794
0.00141126
-0.000167964
0.000348281
2.04134e-05
-0.00122908
0.000321069
-0.00299387
0.000608437
-0.00434769
0.000815946
-0.00506759
0.000930936
-0.00509622
0.000996626
-0.0044865
0.00104535
-0.0034112
0.00108587
-0.00215625
0.00114983
-0.00104026
0.0013061
-0.000248239
0.00152582
0.00013997
0.00156159
9.32181e-05
0.00143116
-0.000106035
0.00122159
-0.000261187
0.00101021
-0.000331307
0.000826323
-0.000333704
0.000697479
-0.000285619
0.000654504
-0.000213713
0.000668592
-0.00017759
0.000717212
-0.00018155
0.000794994
-0.000199938
0.000900354
-0.000202594
0.00102794
-0.000156864
0.00115388
-2.35637e-05
0.00125041
0.00020721
0.00132416
0.000495524
0.00140987
0.000816046
0.00155127
0.0011105
0.00179659
0.00145333
0.00212714
0.00152516
0.00246916
0.00169984
0.0019964
0.00129644
0.000362468
-0.000680462
0.0125385
-0.00045228
0.00475247
0.00093757
0.00149474
0.00154398
0.00182078
0.00169678
0.00192604
0.00178152
0.00132658
0.0020056
0.000124256
0.00230311
-0.00152654
0.0024631
-0.00315378
0.00244666
-0.00433117
0.00225253
-0.00487337
0.00192929
-0.00477295
0.00155481
-0.00411201
0.00119139
-0.0030478
0.000874881
-0.00183978
0.000665342
-0.000830749
0.000604888
-0.000187809
0.000647194
9.76455e-05
0.000637992
0.000102402
0.000535362
-3.42664e-06
0.000379152
-0.000105001
0.000213604
-0.000165788
6.80771e-05
-0.000188209
-3.23982e-05
-0.000185177
-6.95197e-05
-0.000176628
-5.51463e-05
-0.000192
-4.47702e-06
-0.000232257
7.7598e-05
-0.000282051
0.000194709
-0.000319741
0.000356257
-0.000318446
0.000571776
-0.000239114
0.000811506
-3.25451e-05
0.00105052
0.000256484
0.00131424
0.000552317
0.00162787
0.000796849
0.00204672
0.00103448
0.00254533
0.00102654
0.00335343
0.000891735
0.00355096
0.00109888
0.00398571
0.00305742
0.0100636
0.00384958
0.00396037
0.00456974
0.000774652
0.0046609
0.00172968
0.00457349
0.0020135
0.00457922
0.00132089
0.00480544
-0.000101927
0.00496943
-0.00169047
0.00483049
-0.00301475
0.00435372
-0.0038543
0.00361388
-0.00413346
0.00273273
-0.00389176
0.00183279
-0.00321209
0.00100964
-0.00222471
0.00032936
-0.00115957
-8.97626e-05
-0.000411689
-0.000263974
-1.36535e-05
-0.000300663
0.000134284
-0.000329349
0.000131037
-0.000398584
6.57542e-05
-0.000500906
-2.73609e-06
-0.000613893
-5.28595e-05
-0.000713744
-8.84181e-05
-0.000782564
-0.000116417
-0.000812425
-0.000146827
-0.000812694
-0.000191791
-0.000795125
-0.000249886
-0.000765711
-0.000311523
-0.000721781
-0.000363728
-0.000649628
-0.000390653
-0.000518074
-0.000370719
-0.000275478
-0.000275186
4.34205e-05
-6.24518e-05
0.00036768
0.000228025
0.000663206
0.000501297
0.000953034
0.000744634
0.00120735
0.00077221
0.00149275
0.000606321
0.0008188
0.00177281
0.00513678
0.0107143
0.0146761
0.0141092
0.00134163
0.0128777
0.00296123
0.0117321
0.00315916
0.0107851
0.00226788
0.00981171
0.000871556
0.00866943
-0.000548072
0.00735138
-0.00169657
0.00589954
-0.00240234
0.00436039
-0.00259423
0.00283284
-0.0023642
0.00142205
-0.00180136
0.000208106
-0.00101086
-0.000610544
-0.000341025
-0.00101033
-1.19991e-05
-0.00115299
0.000128925
-0.00118709
0.000168298
-0.00120861
0.000152479
-0.00125252
0.000109572
-0.00131706
6.17199e-05
-0.00138898
1.89728e-05
-0.00145805
-1.94282e-05
-0.00151549
-5.90616e-05
-0.00156218
-0.000100219
-0.00160993
-0.000144125
-0.00167437
-0.000185522
-0.00177069
-0.000215275
-0.0019138
-0.000220686
-0.00211942
-0.000185099
-0.00240541
-8.47878e-05
-0.00278034
9.96843e-05
-0.00323551
0.000392673
-0.00382152
0.00081398
-0.00467033
0.00135007
-0.00585872
0.00193298
-0.00748979
0.00240323
-0.00932786
0.00244433
-0.00862849
0.00107339
-0.00312571
0.0141475
0.00396503
0.012175
0.00493394
0.0105816
0.00475276
0.00938433
0.00346549
0.00836612
0.0018901
0.00729035
0.000527985
0.00597325
-0.000379258
0.00445816
-0.000887163
0.00281828
-0.000954335
0.0011802
-0.000726193
-0.000265589
-0.000355726
-0.00126705
-9.52998e-06
-0.00173654
0.000128337
-0.00191161
0.000162948
-0.00195176
0.000168961
-0.00194643
0.000162863
-0.00193927
0.000145209
-0.0019492
0.000119384
-0.00197802
9.04294e-05
-0.00201966
6.05017e-05
-0.00206837
2.91781e-05
-0.0021201
-7.43578e-06
-0.002175
-4.54293e-05
-0.00224425
-7.49701e-05
-0.00233966
-9.02097e-05
-0.00246709
-8.79413e-05
-0.002624
-6.38584e-05
-0.00279501
-1.41655e-05
-0.00295861
7.87295e-05
-0.00311025
0.000251253
-0.00325524
0.000537605
-0.00340558
0.000964257
-0.003568
0.00151242
-0.00369307
0.00205797
-0.00366158
0.00237168
-0.00323339
0.00201606
-0.00179121
-0.000368892
-0.00482492
-0.00317747
0.00719306
-0.0016864
0.00344298
-7.36087e-05
0.00314014
0.000875635
0.00251648
0.00119634
0.00156955
0.00106888
0.000655462
0.000602703
8.67948e-05
-0.00017438
-0.000110337
-0.00110733
-2.15605e-05
-0.00192034
8.66409e-05
-0.00243814
0.000161903
-0.0026404
0.000192582
-0.00267626
0.000164057
-0.00265267
0.000139213
-0.00260692
0.000123074
-0.00255589
0.0001117
-0.00250959
9.87732e-05
-0.00247194
8.15919e-05
-0.00244185
6.02024e-05
-0.00241677
3.52915e-05
-0.00239627
8.54855e-06
-0.00238426
-1.95781e-05
-0.00237935
-5.04668e-05
-0.00238501
-6.94361e-05
-0.00240315
-7.21965e-05
-0.00243219
-5.90151e-05
-0.00246777
-2.83877e-05
-0.00250262
2.05847e-05
-0.00251005
8.60687e-05
-0.0024559
0.000197014
-0.0022961
0.000377716
-0.00199358
0.000661661
-0.00155529
0.00107406
-0.000974479
0.00147708
2.58089e-05
0.00137131
0.0013562
0.000685569
0.00163823
-0.000651033
-0.0030856
-0.0175933
-0.0224875
-0.0152543
-0.0117789
-0.00860916
-0.00606657
-0.00447395
-0.00379846
-0.003694
-0.00378813
-0.00379429
-0.00369259
-0.00351569
-0.003308
-0.00312866
-0.002974
-0.0028353
-0.00270774
-0.00259281
-0.00249466
-0.00241741
-0.00236452
-0.00233781
-0.0023387
-0.00237002
-0.00241996
-0.00247242
-0.00251159
-0.00252018
-0.00248
-0.00237471
-0.00215898
-0.00176317
-0.00108411
6.59955e-06
0.00149925
0.00288569
0.00358644
0.00295123
)
;

boundaryField
{
    floor
    {
        type            calculated;
        value           nonuniform List<scalar> 
36
(
0
0
0
0
0
0
0
0
0
0
0
0
0
0
0
0
0
0
0
-6.24992e-06
-1.56105e-05
-2.30652e-05
-2.94603e-05
-2.59041e-05
-2.51697e-05
-2.3645e-05
-2.83381e-06
-4.54168e-06
-5.28202e-06
-6.22914e-06
-4.61125e-06
-9.42096e-06
-1.38174e-05
-1.36124e-05
-1.70909e-05
-1.4313e-05
)
;
    }
    ceiling
    {
        type            calculated;
        value           nonuniform List<scalar> 
43
(
-4.16706e-05
-4.08735e-05
-4.02283e-05
-3.24521e-05
-2.96518e-05
-2.62018e-05
-2.32383e-05
-2.02255e-05
-1.78446e-05
-1.6397e-05
-1.55835e-05
-1.52279e-05
-1.51684e-05
-1.52753e-05
-1.54475e-05
-1.56166e-05
-1.57933e-05
-1.60167e-05
-1.63219e-05
-1.67231e-05
-1.72114e-05
-1.77617e-05
-1.83323e-05
-1.88559e-05
-1.93027e-05
-1.96545e-05
-1.98878e-05
-1.99874e-05
-1.9939e-05
-1.97219e-05
-1.93399e-05
-1.88247e-05
-1.82003e-05
-1.7496e-05
-1.67461e-05
-1.56599e-05
-1.52225e-05
-1.52783e-05
-1.59264e-05
-1.60631e-05
4.364e-07
-1.37837e-06
-5.05261e-05
)
;
    }
    sWall
    {
        type            calculated;
        value           uniform -0.000200842;
    }
    nWall
    {
        type            calculated;
        value           nonuniform List<scalar> 6(-6.07971e-05 -7.23202e-05 -7.23003e-05 -9.21249e-05 -0.000101201 -0.000118431);
    }
    sideWalls
    {
        type            empty;
        value           nonuniform 0();
    }
    glass1
    {
        type            calculated;
        value           nonuniform List<scalar> 9(-6.45193e-05 -0.000174157 -0.000266746 -0.000345873 -0.000413239 -0.000469931 -0.00052092 -0.000582472 -0.000651022);
    }
    glass2
    {
        type            calculated;
        value           nonuniform List<scalar> 2(-0.000332299 -0.000366059);
    }
    sun
    {
        type            calculated;
        value           uniform 0;
    }
    Table_master
    {
        type            calculated;
        value           nonuniform List<scalar> 9(-1.54656e-07 -1.54817e-07 -1.54876e-07 -1.54916e-07 -1.54945e-07 -1.54966e-07 -1.54981e-07 -1.54988e-07 -1.54975e-07);
    }
    Table_slave
    {
        type            calculated;
        value           nonuniform List<scalar> 9(1.54403e-07 1.54412e-07 1.54372e-07 1.54339e-07 1.54319e-07 1.54317e-07 1.54326e-07 1.5437e-07 1.54465e-07);
    }
    inlet
    {
        type            calculated;
        value           uniform -0.0167708;
    }
    outlet
    {
        type            calculated;
        value           nonuniform List<scalar> 2(0.0178358 0.00493505);
    }
}


// ************************************************************************* //
