/*--------------------------------*- C++ -*----------------------------------*\
  =========                 |
  \\      /  F ield         | OpenFOAM: The Open Source CFD Toolbox
   \\    /   O peration     | Website:  https://openfoam.org
    \\  /    A nd           | Version:  6
     \\/     M anipulation  |
\*---------------------------------------------------------------------------*/
FoamFile
{
    version     2.0;
    format      ascii;
    class       volVectorField;
    location    "1400";
    object      U;
}
// * * * * * * * * * * * * * * * * * * * * * * * * * * * * * * * * * * * * * //

dimensions      [0 1 -1 0 0 0 0];

internalField   nonuniform List<vector> 
458
(
(0.0811585 0.0629263 0)
(-0.12662 0.00450733 0)
(-0.115531 0.0066244 0)
(-0.130267 0.0067895 0)
(-0.144099 0.00543294 0)
(-0.156122 0.00346745 0)
(-0.165574 0.00105996 0)
(-0.171851 -0.0018082 0)
(-0.174339 -0.0052178 0)
(-0.172248 -0.00929958 0)
(-0.164324 -0.0144411 0)
(-0.148238 -0.0210938 0)
(-0.122407 -0.0307173 0)
(-0.0940325 -0.0464112 0)
(-0.0906081 -0.0692262 0)
(0.0226101 0.00683447 0)
(-0.0201237 -0.00327232 0)
(-0.013183 -0.00425634 0)
(-0.00827845 -0.00362264 0)
(-0.00334513 -0.00375789 0)
(0.00121613 -0.0051731 0)
(0.00630669 -0.00425316 0)
(0.0102116 -0.00348636 0)
(0.0133356 -0.00309704 0)
(0.0158842 -0.00301268 0)
(0.0178217 -0.00280803 0)
(0.0192287 -0.00229065 0)
(0.0183053 -0.00083369 0)
(0.0159497 0.00123364 0)
(0.0136456 0.0020181 0)
(0.0133782 0.000126375 0)
(0.019734 -0.000500982 0)
(-0.023597 0.00885668 0)
(0.263261 0.136212 0)
(-0.144278 0.0221145 0)
(-0.102458 0.0227674 0)
(-0.121611 0.022657 0)
(-0.136238 0.0206096 0)
(-0.148781 0.0175103 0)
(-0.158862 0.0135447 0)
(-0.166104 0.00865406 0)
(-0.170001 0.0027017 0)
(-0.169875 -0.00446748 0)
(-0.165258 -0.0127531 0)
(-0.155529 -0.0222744 0)
(-0.141469 -0.0342447 0)
(-0.128026 -0.0508476 0)
(-0.118836 -0.068097 0)
(-0.093317 -0.0621803 0)
(-0.0556157 -0.0662829 0)
(0.0312168 0.0215738 0)
(0.0747048 0.00571492 0)
(0.0200298 0.00600067 0)
(-0.00226962 0.00417195 0)
(-0.00676494 0.000731045 0)
(-0.00833348 -0.00248809 0)
(-0.0102828 -0.0062063 0)
(-0.00963401 -0.0047195 0)
(-0.00910995 -0.00316606 0)
(-0.00981206 -0.00188144 0)
(-0.011214 -0.000248684 0)
(-0.0138444 0.00214193 0)
(-0.0170041 0.0047493 0)
(-0.0193209 0.00658184 0)
(-0.0209383 0.00660281 0)
(-0.0196602 0.00361812 0)
(-0.0169165 0.00315664 0)
(-0.0247061 0.0038822 0)
(-0.0642049 0.00466344 0)
(0.418088 0.20757 0)
(-0.184008 0.0473444 0)
(-0.082944 0.0413876 0)
(-0.107242 0.0371635 0)
(-0.120931 0.0326952 0)
(-0.132652 0.0271069 0)
(-0.142232 0.020273 0)
(-0.149436 0.0120691 0)
(-0.153824 0.00240348 0)
(-0.154761 -0.0086125 0)
(-0.15193 -0.0207539 0)
(-0.14578 -0.0337699 0)
(-0.137802 -0.0477859 0)
(-0.130739 -0.0623457 0)
(-0.124029 -0.0728913 0)
(-0.1113 -0.0735896 0)
(-0.0989674 -0.0803325 0)
(-0.105528 -0.0776595 0)
(-0.00731717 0.0230366 0)
(-0.0365582 0.0117244 0)
(-0.0373647 0.00791021 0)
(-0.034973 0.0016928 0)
(-0.0334775 -0.00433407 0)
(-0.0286965 -0.00709687 0)
(-0.0370556 -0.00669934 0)
(-0.0407999 -0.00543467 0)
(-0.0431996 -0.00448268 0)
(-0.0443257 -0.00369276 0)
(-0.0438035 -0.00299599 0)
(-0.0421423 -0.00263028 0)
(-0.0396669 -0.00319442 0)
(-0.0342853 -0.00586136 0)
(-0.0227277 -0.0101495 0)
(-0.00968625 -0.00483797 0)
(0.00426048 -0.00153516 0)
(-0.0346554 -0.00394619 0)
(0.544798 0.266746 0)
(-0.2271 0.0762593 0)
(-0.0594925 0.0594619 0)
(-0.089908 0.050942 0)
(-0.101707 0.0446273 0)
(-0.111472 0.0373624 0)
(-0.119607 0.0286914 0)
(-0.125949 0.0183104 0)
(-0.130077 0.0059846 0)
(-0.131233 -0.00817662 0)
(-0.129184 -0.0233317 0)
(-0.125264 -0.0384635 0)
(-0.12128 -0.0529766 0)
(-0.119166 -0.0658143 0)
(-0.118941 -0.0743595 0)
(-0.120109 -0.0771848 0)
(-0.128191 -0.0756728 0)
(-0.146449 -0.0572472 0)
(-0.142935 -0.00701458 0)
(-0.103243 0.0147361 0)
(-0.0918934 0.00787584 0)
(-0.0836838 0.00297151 0)
(-0.0816463 -0.00200717 0)
(-0.0812422 -0.00617442 0)
(-0.0794775 -0.00609934 0)
(-0.0742773 -0.00580978 0)
(-0.0690085 -0.00618166 0)
(-0.0635076 -0.00655433 0)
(-0.0577707 -0.00700357 0)
(-0.0516448 -0.00763614 0)
(-0.0445349 -0.00864598 0)
(-0.0354387 -0.010444 0)
(-0.0245359 -0.0137172 0)
(-0.0187587 -0.0182224 0)
(-0.011778 -0.01619 0)
(0.00030939 -0.0108307 0)
(-0.00337297 0.0106525 0)
(0.645314 0.315342 0)
(-0.264836 0.106079 0)
(-0.0358577 0.0734034 0)
(-0.0702962 0.0618711 0)
(-0.0800334 0.0539248 0)
(-0.0868102 0.0451386 0)
(-0.0922427 0.0349362 0)
(-0.0963698 0.0228131 0)
(-0.0988436 0.00831792 0)
(-0.0984784 -0.00846753 0)
(-0.0954909 -0.0257775 0)
(-0.0918365 -0.0414551 0)
(-0.0892997 -0.054648 0)
(-0.0892087 -0.0647743 0)
(-0.0916872 -0.0709621 0)
(-0.0966797 -0.0731999 0)
(-0.105159 -0.0712205 0)
(-0.11408 -0.0594991 0)
(-0.114307 -0.0330307 0)
(-0.104047 -0.0117293 0)
(-0.0916255 -0.00341472 0)
(-0.0822698 -0.00255532 0)
(-0.0767581 -0.00418631 0)
(-0.0736555 -0.00604797 0)
(-0.0710621 -0.00632513 0)
(-0.0679713 -0.00676312 0)
(-0.0647966 -0.00714631 0)
(-0.0615927 -0.0075254 0)
(-0.0583322 -0.00800796 0)
(-0.0549312 -0.00878031 0)
(-0.0511298 -0.010169 0)
(-0.0465679 -0.0127381 0)
(-0.0413426 -0.0172039 0)
(-0.0358776 -0.0234643 0)
(-0.0285691 -0.0275457 0)
(-0.0149499 -0.0298701 0)
(0.0138383 -0.0264652 0)
(0.0461051 -0.0350101 0)
(0.0847927 -0.0160198 0)
(-0.0449543 0.0295356 0)
(0.710575 0.358669 0)
(-0.295018 0.132567 0)
(-0.0189901 0.0783503 0)
(-0.0468902 0.0699877 0)
(-0.0552461 0.0606351 0)
(-0.0588238 0.0497425 0)
(-0.0604122 0.0379818 0)
(-0.0608443 0.0245237 0)
(-0.0601123 0.00832553 0)
(-0.0557435 -0.010778 0)
(-0.0507683 -0.0295413 0)
(-0.0468899 -0.0445765 0)
(-0.0452919 -0.0555091 0)
(-0.0466495 -0.0626248 0)
(-0.0509242 -0.0660804 0)
(-0.0577517 -0.0660374 0)
(-0.0665398 -0.0617572 0)
(-0.07433 -0.0507471 0)
(-0.0767172 -0.033828 0)
(-0.0730752 -0.0194698 0)
(-0.0668796 -0.0117215 0)
(-0.0615504 -0.00871473 0)
(-0.0580804 -0.00828149 0)
(-0.0561266 -0.00873728 0)
(-0.0548679 -0.00893317 0)
(-0.0537632 -0.00918413 0)
(-0.052798 -0.00947086 0)
(-0.0520366 -0.00976042 0)
(-0.0515754 -0.0101214 0)
(-0.0515288 -0.0107664 0)
(-0.0519619 -0.0121264 0)
(-0.0528855 -0.0149026 0)
(-0.0543345 -0.0198226 0)
(-0.0558697 -0.0268922 0)
(-0.0555686 -0.0351073 0)
(-0.0502999 -0.0448538 0)
(-0.0377524 -0.0551776 0)
(-0.0228423 -0.062514 0)
(0.0495041 -0.0155516 0)
(-0.0906184 0.0764479 0)
(0.729679 0.398052 0)
(-0.308375 0.132203 0)
(-0.0041838 0.0525279 0)
(-0.00614295 0.0739857 0)
(-0.0178158 0.069019 0)
(-0.021585 0.0513758 0)
(-0.0193601 0.0364443 0)
(-0.015324 0.0219568 0)
(-0.0104644 0.0038756 0)
(0.00112487 -0.0179726 0)
(0.00671454 -0.0357639 0)
(0.00905073 -0.0479411 0)
(0.00845039 -0.0555786 0)
(0.0049232 -0.059478 0)
(-0.00144093 -0.0602828 0)
(-0.00992674 -0.0583737 0)
(-0.0195104 -0.0534612 0)
(-0.0280261 -0.0445249 0)
(-0.0329329 -0.0327779 0)
(-0.0338599 -0.0221879 0)
(-0.0326913 -0.0151602 0)
(-0.031366 -0.0113898 0)
(-0.0307217 -0.00982065 0)
(-0.0308244 -0.00937823 0)
(-0.031373 -0.00927061 0)
(-0.0321185 -0.00929933 0)
(-0.0330523 -0.00931226 0)
(-0.0342816 -0.00918796 0)
(-0.036039 -0.00889766 0)
(-0.0387156 -0.00859395 0)
(-0.0428788 -0.00874284 0)
(-0.0491629 -0.0102106 0)
(-0.0580897 -0.0139283 0)
(-0.0694795 -0.020294 0)
(-0.0823225 -0.0293648 0)
(-0.0946869 -0.041361 0)
(-0.102686 -0.0541929 0)
(-0.102262 -0.0564334 0)
(-0.0979053 -0.0142198 0)
(-0.152556 0.133434 0)
(0.822864 0.417795 0)
(-0.129538 0.108432 0)
(0.0632462 -0.0170345 0)
(0.0983115 0.0293533 0)
(0.0717323 0.0465144 0)
(0.0550735 0.0314801 0)
(0.0549277 0.0155293 0)
(0.0595113 0.00172356 0)
(0.0693567 -0.0142373 0)
(0.0762759 -0.0287753 0)
(0.0774471 -0.0402188 0)
(0.0746347 -0.0479948 0)
(0.0690879 -0.0523047 0)
(0.0614956 -0.053578 0)
(0.0523429 -0.0523357 0)
(0.0420749 -0.0490707 0)
(0.0312965 -0.0439702 0)
(0.0212591 -0.0368852 0)
(0.0136151 -0.0284425 0)
(0.00892331 -0.0205196 0)
(0.00622062 -0.0145949 0)
(0.00428035 -0.0108715 0)
(0.00240429 -0.00890266 0)
(0.000354951 -0.00805221 0)
(-0.00183113 -0.00773948 0)
(-0.00404387 -0.0076167 0)
(-0.00629557 -0.00741415 0)
(-0.00864431 -0.00689367 0)
(-0.0112351 -0.00586039 0)
(-0.0143573 -0.00423276 0)
(-0.0185744 -0.00212614 0)
(-0.0246454 3.1541e-05 0)
(-0.0347092 0.00096687 0)
(-0.0510505 -0.00152171 0)
(-0.0754574 -0.0099044 0)
(-0.107133 -0.0252871 0)
(-0.140394 -0.0458678 0)
(-0.17413 -0.0696519 0)
(-0.22425 -0.0914852 0)
(-0.41946 -0.107637 0)
(0.949466 0.405565 0)
(0.450627 0.268652 0)
(0.423628 0.184715 0)
(0.397963 0.163035 0)
(0.313315 0.132305 0)
(0.253453 0.0918775 0)
(0.224251 0.0567998 0)
(0.207805 0.029189 0)
(0.193663 0.00608812 0)
(0.177179 -0.0130483 0)
(0.161087 -0.0267285 0)
(0.145799 -0.0351337 0)
(0.131196 -0.0392663 0)
(0.117169 -0.0401295 0)
(0.103693 -0.0385204 0)
(0.0907833 -0.0350878 0)
(0.078558 -0.0303589 0)
(0.0674406 -0.0247617 0)
(0.0581526 -0.0188627 0)
(0.0510329 -0.0134511 0)
(0.0456725 -0.00919533 0)
(0.0413957 -0.00629808 0)
(0.0376958 -0.00459587 0)
(0.0343018 -0.00375543 0)
(0.0310916 -0.00340425 0)
(0.0280332 -0.0032444 0)
(0.0251099 -0.0030208 0)
(0.0223237 -0.00249767 0)
(0.0197003 -0.00144707 0)
(0.0173437 0.00030938 0)
(0.0155802 0.00297221 0)
(0.0140385 0.00652256 0)
(0.0128303 0.0105142 0)
(0.0118609 0.0136652 0)
(0.0109285 0.014381 0)
(0.0107398 0.0114887 0)
(0.0100822 0.00507419 0)
(0.014443 -0.00488429 0)
(0.0475249 -0.0577745 0)
(-0.297544 -0.17437 0)
(-0.711252 0.0963254 0)
(0.185363 0.152485 0)
(0.194068 0.12422 0)
(0.194351 0.0907183 0)
(0.205976 0.0612607 0)
(0.212013 0.037142 0)
(0.210285 0.018824 0)
(0.203549 0.00586994 0)
(0.19363 -0.00426 0)
(0.181599 -0.0115204 0)
(0.168033 -0.015992 0)
(0.153641 -0.0178343 0)
(0.139144 -0.01735 0)
(0.12518 -0.0149867 0)
(0.112274 -0.0112956 0)
(0.100871 -0.00689503 0)
(0.0913408 -0.00246281 0)
(0.0837514 0.00147942 0)
(0.0777924 0.00446166 0)
(0.0730332 0.0062999 0)
(0.06908 0.00709886 0)
(0.0656365 0.00710307 0)
(0.0624768 0.00672297 0)
(0.0595187 0.00618139 0)
(0.0567237 0.00574642 0)
(0.0541299 0.00563443 0)
(0.0518478 0.00600338 0)
(0.0501375 0.00680295 0)
(0.0491092 0.00822222 0)
(0.0491108 0.0102215 0)
(0.050669 0.0121306 0)
(0.0540786 0.01234 0)
(0.0590649 0.00880402 0)
(0.0658203 -0.000801679 0)
(0.071777 -0.014095 0)
(0.0769742 -0.0290397 0)
(0.0931848 -0.0588502 0)
(-0.034173 -0.121443 0)
(-0.415761 0.13846 0)
(0.191974 0.0825847 0)
(0.123954 0.0540939 0)
(0.140363 0.0421152 0)
(0.170583 0.0225542 0)
(0.190396 -0.00061851 0)
(0.19918 -0.0231678 0)
(0.200743 -0.0437054 0)
(0.196695 -0.0583268 0)
(0.188052 -0.0681995 0)
(0.176225 -0.0746456 0)
(0.162583 -0.0785808 0)
(0.148326 -0.080638 0)
(0.134492 -0.0812476 0)
(0.121947 -0.0807434 0)
(0.111295 -0.0794639 0)
(0.102811 -0.0777442 0)
(0.096503 -0.0751689 0)
(0.0921473 -0.0724867 0)
(0.0892701 -0.070331 0)
(0.0872877 -0.0688713 0)
(0.0856757 -0.0679908 0)
(0.0841328 -0.0675674 0)
(0.0825066 -0.0673274 0)
(0.0807893 -0.067087 0)
(0.079094 -0.0666956 0)
(0.0776393 -0.0660069 0)
(0.0766172 -0.0646811 0)
(0.0763075 -0.0626561 0)
(0.0770317 -0.0602346 0)
(0.0789958 -0.0584551 0)
(0.0820527 -0.0590697 0)
(0.0857433 -0.0614476 0)
(0.0884333 -0.0642496 0)
(0.0892257 -0.0673199 0)
(0.0868717 -0.0692549 0)
(0.108951 -0.077171 0)
(-0.0172706 -0.115465 0)
(0.751807 0.151073 0)
(0.00055397 -0.290908 0)
(-0.340791 0.154828 0)
(0.146458 0.0823104 0)
(0.0405267 0.0982341 0)
(0.0733928 0.114123 0)
(0.113501 0.121569 0)
(0.139861 0.129526 0)
(0.152574 0.141887 0)
(0.155258 0.159005 0)
(0.152209 0.174871 0)
(0.145954 0.188932 0)
(0.138158 0.201584 0)
(0.130056 0.212747 0)
(0.122542 0.222009 0)
(0.116161 0.228955 0)
(0.111141 0.233465 0)
(0.107487 0.235798 0)
(0.105069 0.236456 0)
(0.103686 0.234722 0)
(0.103107 0.231865 0)
(0.10304 0.229057 0)
(0.103204 0.226757 0)
(0.103395 0.224994 0)
(0.103485 0.223709 0)
(0.10341 0.222675 0)
(0.103182 0.221724 0)
(0.102854 0.220713 0)
(0.102517 0.21949 0)
(0.102304 0.217714 0)
(0.102391 0.215255 0)
(0.102858 0.212187 0)
(0.103528 0.209091 0)
(0.103697 0.207227 0)
(0.101706 0.204186 0)
(0.0955356 0.198288 0)
(0.0825829 0.189776 0)
(0.05924 0.177452 0)
(0.117406 0.167644 0)
(-0.372281 0.299814 0)
)
;

boundaryField
{
    floor
    {
        type            noSlip;
    }
    ceiling
    {
        type            noSlip;
    }
    sWall
    {
        type            noSlip;
    }
    nWall
    {
        type            noSlip;
    }
    sideWalls
    {
        type            empty;
    }
    glass1
    {
        type            noSlip;
    }
    glass2
    {
        type            noSlip;
    }
    sun
    {
        type            noSlip;
    }
    Table_master
    {
        type            noSlip;
    }
    Table_slave
    {
        type            noSlip;
    }
    inlet
    {
        type            fixedValue;
        value           uniform (0.1 0 0);
    }
    outlet
    {
        type            zeroGradient;
    }
}


// ************************************************************************* //
