/*--------------------------------*- C++ -*----------------------------------*\
  =========                 |
  \\      /  F ield         | OpenFOAM: The Open Source CFD Toolbox
   \\    /   O peration     | Website:  https://openfoam.org
    \\  /    A nd           | Version:  6
     \\/     M anipulation  |
\*---------------------------------------------------------------------------*/
FoamFile
{
    version     2.0;
    format      ascii;
    class       volScalarField;
    location    "1500";
    object      nut;
}
// * * * * * * * * * * * * * * * * * * * * * * * * * * * * * * * * * * * * * //

dimensions      [0 2 -1 0 0 0 0];

internalField   nonuniform List<scalar> 
458
(
0.00119762
0.0013155
0.00134791
0.00141713
0.00148386
0.00155056
0.00161595
0.00166251
0.00168251
0.00167019
0.00162295
0.00153749
0.00136219
0.00115826
0.000962608
0.000557113
0.000665175
0.000768975
0.000805255
0.000796358
0.000750096
0.000698066
0.000650803
0.000609352
0.000573014
0.000541053
0.000512947
0.000487827
0.00046474
0.000442597
0.000419861
0.000400752
0.000364042
0.00160552
0.00405157
0.00393347
0.00457843
0.00521799
0.00579163
0.0062205
0.00660235
0.00690449
0.00709153
0.00713699
0.00701846
0.00669385
0.00602945
0.00423353
0.00126356
0.00107918
0.000890152
0.000552494
0.00146088
0.00226315
0.00284598
0.00295156
0.00208109
0.00174648
0.00152797
0.00136862
0.00124678
0.00114999
0.00106478
0.000983566
0.000900068
0.000822992
0.000758349
0.00086758
0.000446437
0.00193884
0.00549789
0.00485505
0.00582166
0.00628594
0.00663942
0.00693176
0.00724548
0.00756918
0.00786473
0.00808574
0.00817099
0.00805113
0.00765802
0.00685805
0.00537048
0.00393654
0.0010622
0.000866543
0.00172571
0.00269595
0.00354335
0.00359436
0.00100071
0.000872633
0.000768036
0.000684402
0.000617492
0.00056356
0.000520031
0.000485266
0.000459264
0.000518401
0.000617201
0.000999512
0.000507558
0.00225349
0.00690007
0.00492078
0.00603666
0.00628866
0.00643122
0.00661624
0.00687876
0.0072219
0.00759945
0.0079417
0.00814086
0.00814454
0.00795324
0.00754992
0.00684495
0.00561499
0.00303125
0.00123518
0.00185541
0.00290679
0.00405185
0.0048722
0.00464742
0.0011134
0.00101263
0.000944237
0.000893823
0.000851533
0.000810237
0.00077084
0.00072915
0.00068054
0.000637332
0.000645983
0.00111986
0.000570475
0.00257097
0.00867888
0.00539717
0.00600747
0.00625042
0.00626475
0.00638435
0.00659485
0.00694809
0.00737141
0.00775422
0.00798241
0.00800311
0.00784715
0.00758518
0.00722762
0.00660423
0.00548825
0.00524722
0.00563387
0.0061938
0.00666228
0.0068538
0.00658366
0.00533332
0.00473916
0.00442053
0.00420122
0.00399267
0.00373421
0.00331528
0.00278823
0.00219874
0.00164361
0.00124202
0.00116665
0.000929358
0.00070453
0.000752135
0.000743916
0.00290614
0.0106308
0.00724582
0.00636583
0.00664485
0.00647447
0.00644991
0.00656579
0.00688402
0.00733497
0.0077567
0.00799038
0.00796868
0.00776242
0.00753177
0.00740485
0.00738174
0.00737322
0.00775
0.00817668
0.00839725
0.0083555
0.00806934
0.00756806
0.00687936
0.00633555
0.00593049
0.00559139
0.00527336
0.00494662
0.00455218
0.00403404
0.00340033
0.00270558
0.00209568
0.00159808
0.00125065
0.00134288
0.00191093
0.000948543
0.00320437
0.0119602
0.00990555
0.0080596
0.00754596
0.00695805
0.00663267
0.00666129
0.00700689
0.00752156
0.00798458
0.00820148
0.00810952
0.00785059
0.00771795
0.00794544
0.00841468
0.00887676
0.00931548
0.00948916
0.00933238
0.00889678
0.00826944
0.00753756
0.00679811
0.00620848
0.00575385
0.00537823
0.00505602
0.00477263
0.00452649
0.00429196
0.00389852
0.00336285
0.00281521
0.00231516
0.001931
0.00182033
0.00220132
0.00119025
0.00325752
0.01037
0.00934674
0.00835401
0.00736989
0.00668796
0.00648
0.00673083
0.00730597
0.00797108
0.00845772
0.00858398
0.00836191
0.008103
0.00832239
0.0089412
0.00937971
0.00965605
0.00976255
0.00956734
0.00904798
0.00828443
0.00738835
0.00648543
0.00571218
0.00514834
0.00475079
0.00445774
0.00423993
0.00409024
0.00401195
0.00400774
0.00402825
0.00376794
0.00350888
0.00335673
0.00338408
0.00341271
0.00422257
0.00152413
0.00317011
0.00374105
0.00414674
0.00425179
0.00452021
0.00511512
0.00600634
0.00707947
0.00813235
0.00889637
0.00915405
0.00890956
0.00852297
0.00859829
0.00895809
0.00926357
0.00936322
0.00928775
0.00900815
0.00846257
0.00765238
0.00667258
0.00568089
0.00484168
0.00424285
0.00385458
0.00359692
0.00341284
0.00327344
0.00316258
0.0030678
0.0029773
0.00288538
0.00280876
0.00274446
0.00269439
0.00261676
0.00247979
0.00231496
0.00147245
0.00167944
0.00369057
0.00660974
0.00840505
0.00953833
0.0101859
0.0103584
0.0100898
0.00940812
0.00868011
0.00829766
0.00836357
0.00844959
0.00836755
0.00813396
0.00775547
0.00719176
0.00643256
0.00555402
0.00467766
0.00394073
0.0034327
0.00312146
0.00293324
0.00281164
0.00272659
0.0026641
0.00261858
0.00258995
0.00258318
0.00259911
0.0026182
0.00263047
0.00261661
0.00254788
0.00240508
0.00215175
0.00124156
0.00226272
0.0064753
0.00899297
0.00940172
0.00928541
0.00884976
0.00822914
0.0076107
0.00709142
0.00673601
0.00654617
0.0063939
0.00618177
0.0059158
0.00558825
0.0051673
0.00464201
0.00405854
0.00350397
0.00305041
0.00271871
0.00250332
0.00237499
0.00230496
0.00227632
0.00227986
0.00230884
0.00235579
0.00241017
0.00248355
0.0025706
0.00266286
0.00274615
0.00279869
0.00282829
0.00298554
0.00196469
0.00129354
0.00197798
0.00208052
0.00215594
0.00225581
0.00207759
0.00193837
0.00183279
0.00171023
0.00156936
0.0014195
0.00127589
0.00115839
0.00107155
0.00100822
0.000959318
0.000917225
0.000876605
0.000835262
0.000794847
0.000760076
0.000735689
0.000723906
0.000724579
0.000733565
0.000748673
0.000768868
0.000793699
0.00082312
0.000857477
0.000897658
0.000945499
0.000999842
0.0010607
0.00112796
0.00120136
0.00127956
0.00135429
0.00122636
0.00112618
0.0012337
)
;

boundaryField
{
    floor
    {
        type            nutkWallFunction;
        Cmu             0.09;
        kappa           0.41;
        E               9.8;
        value           nonuniform List<scalar> 
36
(
0.000116306
6.69727e-05
8.04469e-05
9.31431e-05
9.75328e-05
9.64593e-05
9.08517e-05
8.44956e-05
7.86727e-05
7.35238e-05
6.8975e-05
6.49448e-05
6.13766e-05
5.81668e-05
5.51987e-05
5.23345e-05
4.93747e-05
4.68711e-05
4.20177e-05
4.20177e-05
5.28296e-05
6.06856e-05
6.86508e-05
8.52824e-05
9.10942e-05
9.00941e-05
0.000116306
0.000151285
0.000129985
0.000107709
6.69727e-05
0.000107709
6.63885e-05
0.000128003
0.000104883
0.000148029
)
;
    }
    ceiling
    {
        type            nutkWallFunction;
        Cmu             0.09;
        kappa           0.41;
        E               9.8;
        value           nonuniform List<scalar> 
43
(
0.000230797
0.000241932
0.000250086
0.000260985
0.000241796
0.000226654
0.000215087
0.000201563
0.000185885
0.000169034
0.0001527
0.000139185
0.000129096
0.000121681
0.000115918
0.00011093
0.00010609
0.000101138
9.62682e-05
9.20556e-05
8.90876e-05
8.76494e-05
8.77315e-05
8.88287e-05
9.06697e-05
9.31236e-05
9.61302e-05
9.96783e-05
0.000103803
0.000108602
0.000114283
0.000120697
0.000127832
0.000135664
0.000144152
0.000153129
0.000161652
0.000147028
0.000135459
0.000147876
0.00035775
0.000416519
0.000261371
)
;
    }
    sWall
    {
        type            nutkWallFunction;
        Cmu             0.09;
        kappa           0.41;
        E               9.8;
        value           uniform 0.000230863;
    }
    nWall
    {
        type            nutkWallFunction;
        Cmu             0.09;
        kappa           0.41;
        E               9.8;
        value           nonuniform List<scalar> 6(9.00931e-05 0.000114649 0.000142877 0.000148788 0.000154741 0.000147888);
    }
    sideWalls
    {
        type            empty;
    }
    glass1
    {
        type            nutkWallFunction;
        Cmu             0.09;
        kappa           0.41;
        E               9.8;
        value           nonuniform List<scalar> 9(0.000143872 0.000190201 0.000227076 0.000261258 0.000295233 0.000330626 0.000361763 0.000367292 0.000358233);
    }
    glass2
    {
        type            nutkWallFunction;
        Cmu             0.09;
        kappa           0.41;
        E               9.8;
        value           nonuniform List<scalar> 2(0.000180919 0.000175106);
    }
    sun
    {
        type            nutkWallFunction;
        Cmu             0.09;
        kappa           0.41;
        E               9.8;
        value           nonuniform List<scalar> 
14
(
0.000143721
0.000157227
0.000160917
0.000168767
0.000176295
0.000183782
0.000191087
0.000196268
0.000198487
0.000197118
0.000191862
0.000182313
0.000162528
0.000139163
)
;
    }
    Table_master
    {
        type            nutkWallFunction;
        Cmu             0.09;
        kappa           0.41;
        E               9.8;
        value           nonuniform List<scalar> 9(0.0001208 0.00010562 9.30303e-05 8.28183e-05 7.45408e-05 6.77901e-05 6.22838e-05 5.78455e-05 5.45002e-05);
    }
    Table_slave
    {
        type            nutkWallFunction;
        Cmu             0.09;
        kappa           0.41;
        E               9.8;
        value           nonuniform List<scalar> 9(0.000133975 0.000122204 0.000114139 0.00010815 0.000103096 9.81328e-05 9.33698e-05 8.82981e-05 8.2341e-05);
    }
    inlet
    {
        type            calculated;
        value           uniform 0.000100623;
    }
    outlet
    {
        type            calculated;
        value           nonuniform List<scalar> 2(0.00197798 0.00208052);
    }
}


// ************************************************************************* //
