/*--------------------------------*- C++ -*----------------------------------*=========                 |
  \      /  F ield         | OpenFOAM: The Open Source CFD Toolbox
   \    /   O peration     | Website:  https://openfoam.org
    \  /    A nd           | Version:  6
     \/     M anipulation  |
\*---------------------------------------------------------------------------*/
FoamFile
{
    version     2.0;
    format      ascii;
    class       volScalarField;
    location    "1500";
    object      PMV;
}
// * * * * * * * * * * * * * * * * * * * * * * * * * * * * * * * * * * * * * //

dimensions      [0 0 0 0 0 0 0];

internalField   nonuniform List<scalar> 
458
(
1.4613156036377035
1.229742219778323
1.2011549394695733
1.1784189667507035
1.1655671918244217
1.162731049739642
1.1696196912036911
1.1867450798984258
1.214435729609993
1.257014676656735
1.3152015767080472
1.3588533420901168
1.360764378984618
1.3626753990606417
1.3703193093882786
1.4639329771992409
1.4510400871476943
1.4496074833933215
1.4577254123789043
1.4644104726222622
1.4571674887164152
1.4444459118634954
1.4415772470462624
1.4423663869279488
1.444308760034663
1.4472346588187754
1.4503649141090413
1.4550410191181231
1.4618578681725156
1.4736752867435938
1.4943088769123927
1.507379238384743
1.5231314294140879
1.404719788615464
1.2498539323139655
1.2423269153008847
1.221761608796866
1.2120400226039212
1.2105111742524401
1.2167272820678194
1.2267531864003145
1.2426067233657803
1.2672064594945303
1.3033361243521717
1.3496617255905246
1.3598088626340967
1.3617198911305322
1.3636309027638045
1.3521894751970802
1.3363927512649303
1.340313078597691
1.431549405172793
1.4391013607579795
1.4424442865372944
1.443907894160051
1.4411480561826517
1.4399337424334542
1.4400455467255198
1.44135221281395
1.4421935447265477
1.4430349415887458
1.4435374219841561
1.445305008261016
1.446912311415987
1.450527155893801
1.4599704400096833
1.4806277532872711
1.4949672516147787
1.4922026327454794
1.437239700581329
1.250177680317998
1.281639120989404
1.2748551079059507
1.2757842389968204
1.2795699343180151
1.2834991317387043
1.2788521695106734
1.2704970954598718
1.268079563087741
1.2798400141610162
1.3093273984775322
1.3570022837270506
1.3660196434550917
1.3674528750824344
1.3674528750824344
1.366975132275557
1.3553163160258683
1.3349308241473143
1.3835779552251073
1.396138600232419
1.4114268933926284
1.4261273989850014
1.4280575545824543
1.4474641299406485
1.4620479856264375
1.4681425650388427
1.4697753822447102
1.4702995114610007
1.4710240930227394
1.4700054288860347
1.4653246527292443
1.4664333989067635
1.4815018811522804
1.4721980437656395
1.4244296031524144
1.508528431892368
1.2523028776228775
1.3125685355762375
1.3324903824281527
1.3576678521653824
1.3777093174072337
1.3730932701692486
1.334573108738496
1.28709518574601
1.2567033361397724
1.2526658842066383
1.2762579886535117
1.3186318240542718
1.3626386299931441
1.3765297833584025
1.3765297833584025
1.3454452956319827
1.323689755782931
1.2776374422937657
1.3195709905609614
1.358703616900806
1.39436573077641
1.4323310918279535
1.471466226082761
1.5034238053431466
1.5035495822412186
1.5033483941525227
1.5070130694571235
1.5122872645605006
1.5174266598526072
1.525677101497669
1.5396077863365993
1.5611564857847855
1.54564052377454
1.516537142279753
1.4610685792317066
1.3917207225461636
1.5970524083163067
1.2691224426251728
1.3396852388566498
1.3885894633121934
1.4610494203755915
1.5154942141281529
1.4512033093350585
1.3583544054041303
1.280765862336574
1.2366295757982202
1.2273694163098376
1.2504643861049192
1.2955607396079292
1.3472663281922836
1.3834891018377182
1.3883043490631861
1.3661253127033424
1.344799147271366
1.3428654303564316
1.3639063439920533
1.4015749279663292
1.4480976511184667
1.495449327042723
1.5417728435833857
1.579459930079841
1.5944994635420386
1.601711019205319
1.6071320208992579
1.609977769564631
1.6108219985812497
1.6086395881035687
1.6070466300197128
1.6027658009703243
1.5792433339752998
1.537695272046788
1.459603214890127
1.4487845907615944
1.3960652432305705
1.3855953040123523
1.3809172320776972
1.6879484326286023
1.3085573799252235
1.3897886979601304
1.4480904884004435
1.5298136618908365
1.5442011222096756
1.4314673609261135
1.3329880539938428
1.252662223198401
1.2073038683047075
1.2023030607304168
1.2338505149038468
1.2913467899555249
1.357508891336739
1.41243349139868
1.4233410099820554
1.4271618272602564
1.42150269628494
1.431751779503487
1.460008405907443
1.501340599195339
1.5488052926724325
1.582304214946598
1.6099732026603226
1.6323899339918224
1.6490803866138513
1.6614773719860596
1.6700590617043798
1.6753030837843437
1.6772099355351622
1.6743496447970974
1.6671119656736302
1.6458895755944838
1.6115329104026903
1.5661588209456192
1.4957339823207
1.475779940861264
1.4872682164059716
1.4650264115930378
1.4043556096630576
1.780845805373859
1.4041562144864845
1.5435229414346852
1.5491284547240165
1.53457445879614
1.4649733137604593
1.3683809213134805
1.2685867086534668
1.1936532984042163
1.1632312864228194
1.1789304096436075
1.233929803315826
1.3161943620874241
1.4083410606978561
1.4515176190745156
1.4691853510157247
1.4801670411789232
1.4935350344649034
1.5164488878756324
1.546040624960037
1.57896443813212
1.6109271933799463
1.6390664137507258
1.661954150684947
1.6791167522080888
1.6905569079728007
1.6977063484017176
1.7019957663557883
1.7034255309354938
1.7019957663557883
1.6977063484017176
1.6891269588400213
1.6776866429972674
1.6580835944493832
1.6096106190225774
1.5492415768722536
1.5128803173772334
1.500572088983329
1.4487889149878206
1.4276097012114703
1.916563777807925
1.7453614022146866
1.7048030376160896
1.6048962975431977
1.5180088643194474
1.391502961205212
1.2550313169717218
1.147888976617552
1.0968826621439556
1.1096959455588202
1.1737953776819574
1.2742354228608732
1.4022053400387156
1.470617787501323
1.5097660419534593
1.5326773800306426
1.546040624960037
1.56322002168595
1.5885064234112236
1.6161740052709381
1.6443119407926299
1.6695823194179895
1.6896036107996562
1.7039021145091244
1.7129567603244111
1.7181985359834924
1.7196280613015904
1.71867504680621
1.7162924689114216
1.7120036794935107
1.706761567290589
1.699612779325539
1.6896036107996562
1.6753030837843437
1.65909344668536
1.6409739066528473
1.6266268088494522
1.6087572013172102
1.493557106309351
1.383053212540998
2.120718707563484
1.9926576214367446
1.8319857716337757
1.6540370859841256
1.3587909329230885
1.106311106814808
0.9569581845062387
0.9174060108141993
0.9718709907043962
1.0968753345781865
1.2536834162181338
1.4047134024528978
1.4935350344649034
1.5527217617078828
1.5827813187439377
1.600432878377532
1.6161740052709381
1.6347744363180283
1.6567094685636592
1.6786400513358126
1.6981829595655475
1.708270110556284
1.7094388309247561
1.7081748578974534
1.7044491625830196
1.6988803370494918
1.691509615077039
1.6822852457010251
1.6718877373409906
1.6600404991495983
1.6466787573663655
1.6313987083541377
1.6139433775499001
1.59753356118202
1.5764634074510775
1.5532064351461845
1.5323811191393077
1.5173923265108453
1.501140581237509
1.4681818636416966
-2.6948107219042163
-1.8382178871539654
-1.0768494070026846
-0.2611476007040228
0.3452052963217882
0.8093382345199946
1.1251284178849594
1.3555089873233845
1.4796895919439899
1.5272895890595923
1.5561623645279061
1.5819435106123168
1.601274200705333
1.6184857258268137
1.6360843349446867
1.654342812185827
1.670472654882572
1.6828661416824389
1.6891938664312773
1.6900983109750687
1.6878973966739452
1.682211191562809
1.6752524709062433
1.6670825662261444
1.6578729532947996
1.648048948454494
1.637756254249634
1.6277933872199697
1.6186195076961187
1.6112393333041344
1.6046729472865062
1.5994506444719596
1.5944749633674054
1.5906239260177624
1.5932258676702964
1.6130916338432402
1.667052878774285
1.624333885966324
-2.4620977498685246
-1.0460822504156655
0.15480787722341482
0.7463967273711524
1.032486927728644
1.2158040548387838
1.3443904835417506
1.4378165798901463
1.5013312088530446
1.5441973286509973
1.5755196538024345
1.599924067931389
1.618972637155213
1.6348561867973974
1.6490838404761416
1.6611427842687554
1.6704133360237436
1.676398310022409
1.6783998015937194
1.67781595192757
1.6755040778433326
1.6718987489487724
1.667240441087205
1.661966120303499
1.6561329357359464
1.6498967169238004
1.643993628924395
1.6387564866303068
1.6342851363428026
1.6317773690706279
1.6323365256780933
1.6372004562411935
1.6460169470109902
1.655120741535761
1.6671637132587362
1.7119400030894665
1.6550175598635335
1.7523569972163928
-0.9224664664061121
-1.0375503453615949
-0.9138816157972893
0.4635782544189409
1.0416398860987455
1.2463917681405379
1.3554303181605054
1.4319775940408788
1.491465450351953
1.5376123070324184
1.573914749685563
1.6021455763279466
1.6238842536660716
1.6404581910641651
1.6530221472668154
1.6628126748239611
1.6693492564740333
1.6729489396951764
1.673033228979374
1.6704953120647454
1.6656664139569215
1.6609043290896304
1.6557154177960929
1.651635694640426
1.6474315580860002
1.6435390295842007
1.640489178019916
1.6379291369439453
1.6361779976713382
1.636261059843305
1.6384573373173308
1.6435373986406518
1.6547466000834337
1.6780091534018433
1.722535791622506
1.7401155333166365
1.7448794097029525
1.6771084235714466
1.6586416535973922
1.5953865055563916
)
;

boundaryField
{
    ".*"
    {
        type            zeroGradient;
    }
}


// ************************************************************************* //
