// -*- C++ -*-
// File generated by PyFoam - sorry for the ugliness

FoamFile
{
 version 2.0;
 format ascii;
 class volVectorField;
 location "900";
 object U;
}

dimensions [ 0 1 -1 0 0 0 0 ];

internalField nonuniform List<vector> 458
(
  (0.0426586 0.0918357 0)
  (-0.178348 0.0256997 0)
  (-0.200341 0.0175624 0)
  (-0.230805 0.0123118 0)
  (-0.253207 0.00637985 0)
  (-0.26686 0.0001792 0)
  (-0.270684 -0.00635487 0)
  (-0.263325 -0.013331 0)
  (-0.244955 -0.0205899 0)
  (-0.216102 -0.0272624 0)
  (-0.178884 -0.0323764 0)
  (-0.136435 -0.0351261 0)
  (-0.092584 -0.0352273 0)
  (-0.0537482 -0.0331468 0)
  (-0.0388258 -0.0289347 0)
  (0.0052768 0.00823519 0)
  (-0.0290617 -0.0250858 0)
  (0.00272423 -0.0349892 0)
  (0.0300599 -0.0252241 0)
  (0.0499811 -0.016348 0)
  (0.0629362 -0.00905271 0)
  (0.0696535 -0.00529329 0)
  (0.0722931 -0.00385132 0)
  (0.0732566 -0.00326344 0)
  (0.0737612 -0.00290629 0)
  (0.0740413 -0.00263056 0)
  (0.0740247 -0.00233897 0)
  (0.0735023 -0.00183993 0)
  (0.0718981 -0.000725951 0)
  (0.0679429 0.0015476 0)
  (0.0603374 0.00380989 0)
  (0.0550289 0.00582879 0)
  (-0.0195255 0.0271328 0)
  (0.232134 0.188147 0)
  (-0.167167 0.0688009 0)
  (-0.160958 0.052096 0)
  (-0.192434 0.0408654 0)
  (-0.214401 0.02832 0)
  (-0.22813 0.014705 0)
  (-0.232757 -0.000282805 0)
  (-0.226741 -0.0166836 0)
  (-0.210748 -0.033218 0)
  (-0.185517 -0.0478532 0)
  (-0.153289 -0.0585249 0)
  (-0.117171 -0.0636698 0)
  (-0.0806109 -0.0627554 0)
  (-0.0475773 -0.056238 0)
  (-0.0235123 -0.0443868 0)
  (0.00561463 -0.00489141 0)
  (0.0406892 0.039561 0)
  (-0.0616275 0.0913565 0)
  (0.104464 0.0365588 0)
  (0.0377689 -0.0233155 0)
  (0.0442041 -0.0380135 0)
  (0.0584149 -0.0320852 0)
  (0.0689969 -0.0214149 0)
  (0.0738363 -0.00871264 0)
  (0.074584 -0.00144509 0)
  (0.0742188 0.00127672 0)
  (0.074173 0.00223742 0)
  (0.07437 0.00269912 0)
  (0.0745214 0.00299424 0)
  (0.0745435 0.0033288 0)
  (0.074404 0.00409619 0)
  (0.0735342 0.00627015 0)
  (0.0692449 0.0126723 0)
  (0.0584586 0.0176772 0)
  (0.058039 0.0210408 0)
  (-0.0758204 0.0581132 0)
  (0.403573 0.281304 0)
  (-0.185209 0.110389 0)
  (-0.120856 0.0843391 0)
  (-0.15075 0.0638227 0)
  (-0.169658 0.043224 0)
  (-0.181904 0.0214684 0)
  (-0.186335 -0.00243275 0)
  (-0.18048 -0.0281902 0)
  (-0.165728 -0.0536396 0)
  (-0.143231 -0.0754499 0)
  (-0.115433 -0.0905595 0)
  (-0.0853362 -0.0968894 0)
  (-0.0558053 -0.0940247 0)
  (-0.0295582 -0.0827798 0)
  (-0.00974876 -0.064718 0)
  (0.00712547 -0.037836 0)
  (0.0195283 -0.00817877 0)
  (-0.0830582 0.0406198 0)
  (0.141504 -0.0467838 0)
  (0.0805942 -0.0515913 0)
  (0.0736089 -0.0476499 0)
  (0.0778857 -0.0390854 0)
  (0.08165 -0.0303217 0)
  (0.0824907 -0.0224943 0)
  (0.0754033 -0.0146988 0)
  (0.0701929 -0.0105729 0)
  (0.0683119 -0.00827968 0)
  (0.0678519 -0.00681023 0)
  (0.0676979 -0.00580313 0)
  (0.0677621 -0.00498663 0)
  (0.0685749 -0.00390893 0)
  (0.0713882 -0.000278885 0)
  (0.0685399 0.0186908 0)
  (0.0523115 0.030605 0)
  (0.0658717 0.0376689 0)
  (-0.128771 0.0878172 0)
  (0.555266 0.356203 0)
  (-0.220655 0.148096 0)
  (-0.0789935 0.111282 0)
  (-0.105514 0.0825332 0)
  (-0.11784 0.0561146 0)
  (-0.125488 0.0282968 0)
  (-0.126996 -0.00347528 0)
  (-0.119346 -0.0383688 0)
  (-0.104979 -0.072008 0)
  (-0.0856397 -0.0997924 0)
  (-0.0636226 -0.118118 0)
  (-0.0413633 -0.124768 0)
  (-0.0205667 -0.11982 0)
  (-0.00226305 -0.104143 0)
  (0.0122444 -0.0794865 0)
  (0.0250104 -0.0479391 0)
  (0.0428097 -0.0139648 0)
  (0.0456332 0.0164576 0)
  (0.0962279 0.0317154 0)
  (0.101462 -0.0301109 0)
  (0.0834755 -0.0442803 0)
  (0.0764992 -0.0419849 0)
  (0.0742759 -0.0360291 0)
  (0.0717945 -0.0271129 0)
  (0.0740169 -0.0164748 0)
  (0.0835544 -0.0115901 0)
  (0.0914587 -0.00883181 0)
  (0.0965132 -0.00694618 0)
  (0.0995451 -0.00509112 0)
  (0.100193 -0.00280699 0)
  (0.0969692 0.000273875 0)
  (0.088434 0.00452844 0)
  (0.071444 0.0107005 0)
  (0.0550936 0.0323066 0)
  (0.0383552 0.0486941 0)
  (0.0729638 0.0599012 0)
  (-0.188522 0.110029 0)
  (0.682484 0.414523 0)
  (-0.262045 0.179655 0)
  (-0.0392605 0.125422 0)
  (-0.0571512 0.0917702 0)
  (-0.0591496 0.0622709 0)
  (-0.0581778 0.0309349 0)
  (-0.0514619 -0.00667922 0)
  (-0.0398124 -0.048743 0)
  (-0.0259913 -0.0876419 0)
  (-0.0117737 -0.118202 0)
  (0.00155462 -0.137084 0)
  (0.0127675 -0.142181 0)
  (0.0218104 -0.134784 0)
  (0.029096 -0.116927 0)
  (0.035291 -0.090946 0)
  (0.0423726 -0.0597821 0)
  (0.0544823 -0.0297245 0)
  (0.0701512 -0.0154581 0)
  (0.0832643 -0.0249271 0)
  (0.0820752 -0.0399278 0)
  (0.0732544 -0.0418168 0)
  (0.0644236 -0.0378372 0)
  (0.05826 -0.0320801 0)
  (0.0543176 -0.0243403 0)
  (0.0544895 -0.0142475 0)
  (0.0587515 -0.00891318 0)
  (0.0634615 -0.00668333 0)
  (0.0677111 -0.00503654 0)
  (0.0714575 -0.00239547 0)
  (0.0743416 0.00208192 0)
  (0.0747054 0.00838134 0)
  (0.0718231 0.0165718 0)
  (0.0651404 0.0271817 0)
  (0.0566044 0.0439803 0)
  (0.0422252 0.0619406 0)
  (0.0834627 0.0820129 0)
  (-0.0322162 0.114448 0)
  (0.0523626 0.18971 0)
  (-0.107576 0.103763 0)
  (-0.310849 0.00982918 0)
  (0.771668 0.463177 0)
  (-0.300382 0.200543 0)
  (-0.0097979 0.116065 0)
  (-0.00454271 0.0857685 0)
  (0.00918921 0.05851 0)
  (0.0222297 0.0258347 0)
  (0.0429611 -0.0160239 0)
  (0.0582387 -0.0595657 0)
  (0.0690121 -0.0978507 0)
  (0.0748098 -0.126407 0)
  (0.0757244 -0.142558 0)
  (0.0726459 -0.145504 0)
  (0.0670738 -0.136534 0)
  (0.0605632 -0.117995 0)
  (0.0547129 -0.0926448 0)
  (0.0513333 -0.0640287 0)
  (0.0525557 -0.0380009 0)
  (0.0573089 -0.0232836 0)
  (0.059677 -0.0233611 0)
  (0.0555773 -0.0286722 0)
  (0.0471977 -0.0310751 0)
  (0.0384546 -0.0296801 0)
  (0.0316821 -0.0261735 0)
  (0.0274883 -0.0211754 0)
  (0.0266826 -0.0155817 0)
  (0.0290791 -0.0127327 0)
  (0.0329981 -0.0116896 0)
  (0.0376666 -0.0105512 0)
  (0.0427982 -0.00781603 0)
  (0.0480227 -0.00226386 0)
  (0.0530301 0.0064893 0)
  (0.055871 0.0176177 0)
  (0.0570543 0.0308207 0)
  (0.058322 0.0466883 0)
  (0.0555901 0.0638368 0)
  (0.0871144 0.0864993 0)
  (0.064088 0.0970594 0)
  (0.108718 0.109551 0)
  (0.133171 0.0595464 0)
  (-0.15724 -0.0449692 0)
  (0.831845 0.508158 0)
  (-0.315705 0.182959 0)
  (0.0284877 0.0468183 0)
  (0.0744554 0.0430238 0)
  (0.103945 0.0371547 0)
  (0.13376 0.00898599 0)
  (0.159317 -0.0305187 0)
  (0.172925 -0.0688746 0)
  (0.175768 -0.100703 0)
  (0.16868 -0.122815 0)
  (0.15334 -0.133516 0)
  (0.132308 -0.132725 0)
  (0.108632 -0.122029 0)
  (0.0852002 -0.103863 0)
  (0.0643996 -0.0807784 0)
  (0.0480036 -0.0559006 0)
  (0.0373826 -0.0343518 0)
  (0.031648 -0.021603 0)
  (0.0272268 -0.0189494 0)
  (0.0210303 -0.0210136 0)
  (0.0131717 -0.0227228 0)
  (0.00545314 -0.0224106 0)
  (-0.000729563 -0.0207087 0)
  (-0.00452092 -0.0183718 0)
  (-0.00547149 -0.0162729 0)
  (-0.00393677 -0.0156648 0)
  (-0.000866564 -0.0159546 0)
  (0.0033051 -0.0158669 0)
  (0.00846443 -0.0141076 0)
  (0.0148239 -0.00931175 0)
  (0.0235156 -0.000116975 0)
  (0.0327697 0.0123963 0)
  (0.0410291 0.0259689 0)
  (0.0504977 0.0402766 0)
  (0.0587557 0.0541629 0)
  (0.0834694 0.0717179 0)
  (0.0967876 0.0738255 0)
  (0.136367 0.0629817 0)
  (0.189104 0.0474343 0)
  (-0.00200442 0.101447 0)
  (0.946646 0.50539 0)
  (-0.0466953 0.159673 0)
  (0.154477 -0.0494541 0)
  (0.260268 -0.082279 0)
  (0.293923 -0.0782194 0)
  (0.309441 -0.0781912 0)
  (0.315791 -0.0844424 0)
  (0.310594 -0.0934001 0)
  (0.292098 -0.10171 0)
  (0.261299 -0.10665 0)
  (0.221394 -0.106369 0)
  (0.176689 -0.100141 0)
  (0.131734 -0.0885229 0)
  (0.0902545 -0.0728216 0)
  (0.0548261 -0.0544649 0)
  (0.0268975 -0.0355668 0)
  (0.00796624 -0.0206428 0)
  (-0.00356135 -0.0128652 0)
  (-0.0108238 -0.0118054 0)
  (-0.0174545 -0.0135756 0)
  (-0.0241924 -0.0152383 0)
  (-0.0303847 -0.0159121 0)
  (-0.0353229 -0.0159849 0)
  (-0.0385812 -0.0159738 0)
  (-0.0400591 -0.0163252 0)
  (-0.0401652 -0.0173601 0)
  (-0.0395046 -0.0187144 0)
  (-0.0383195 -0.0197284 0)
  (-0.0364425 -0.019729 0)
  (-0.0333344 -0.0180156 0)
  (-0.0277708 -0.0137013 0)
  (-0.0161812 -0.00592501 0)
  (-0.0020123 0.0045139 0)
  (0.0115056 0.0147699 0)
  (0.0231321 0.0222566 0)
  (0.0407933 0.0311231 0)
  (0.0532445 0.0259629 0)
  (0.0762096 0.00866072 0)
  (0.151676 0.06518 0)
  (-0.552402 0.252785 0)
  (1.10705 0.433147 0)
  (0.513267 0.27741 0)
  (0.546932 0.216037 0)
  (0.606988 0.153427 0)
  (0.610629 0.103743 0)
  (0.577638 0.0612507 0)
  (0.528096 0.0243743 0)
  (0.467578 -0.00557416 0)
  (0.397858 -0.0269186 0)
  (0.321536 -0.0391511 0)
  (0.244216 -0.0434359 0)
  (0.171356 -0.0415124 0)
  (0.107536 -0.0355222 0)
  (0.0546546 -0.0272469 0)
  (0.0130355 -0.0179046 0)
  (-0.0175496 -0.00926777 0)
  (-0.0339538 -0.0050857 0)
  (-0.0436312 -0.00427682 0)
  (-0.0501168 -0.00586832 0)
  (-0.0556386 -0.00842891 0)
  (-0.0607817 -0.0108092 0)
  (-0.0653762 -0.0126613 0)
  (-0.0692428 -0.0141212 0)
  (-0.0724301 -0.0153693 0)
  (-0.0752395 -0.0165332 0)
  (-0.0782009 -0.0176375 0)
  (-0.0818713 -0.0184222 0)
  (-0.0866639 -0.0184235 0)
  (-0.0929068 -0.0170704 0)
  (-0.101009 -0.0136597 0)
  (-0.111649 -0.00718117 0)
  (-0.125469 0.0033734 0)
  (-0.140397 0.0180657 0)
  (-0.160876 0.0366417 0)
  (-0.194304 0.0583108 0)
  (-0.243126 0.0801191 0)
  (-0.309053 0.0953585 0)
  (-0.378773 0.0989624 0)
  (-0.460728 0.0900599 0)
  (-0.756042 0.066739 0)
  (0.221238 -0.400122 0)
  (0.236285 -0.199712 0)
  (0.225777 -0.0982989 0)
  (0.189571 -0.0399396 0)
  (0.150573 -0.00780743 0)
  (0.114064 0.0083501 0)
  (0.0798653 0.0162783 0)
  (0.0486707 0.0192499 0)
  (0.0194464 0.0186011 0)
  (-0.00822095 0.015672 0)
  (-0.0310216 0.0121033 0)
  (-0.0496883 0.0088459 0)
  (-0.0635905 0.00588621 0)
  (-0.0725758 0.00241767 0)
  (-0.0781835 -0.00168688 0)
  (-0.0822571 -0.00575889 0)
  (-0.0855942 -0.00958879 0)
  (-0.088791 -0.0125641 0)
  (-0.0916075 -0.0149003 0)
  (-0.0940738 -0.0168511 0)
  (-0.0964252 -0.0185502 0)
  (-0.0989655 -0.0200971 0)
  (-0.102097 -0.0215451 0)
  (-0.106306 -0.022837 0)
  (-0.112029 -0.0236592 0)
  (-0.119443 -0.0233331 0)
  (-0.128201 -0.0207894 0)
  (-0.137165 -0.0147384 0)
  (-0.144772 -0.00398763 0)
  (-0.15009 0.0106272 0)
  (-0.154087 0.0297955 0)
  (-0.157717 0.0539337 0)
  (-0.16327 0.0814489 0)
  (-0.171798 0.106578 0)
  (-0.17854 0.116612 0)
  (-0.162457 0.08769 0)
  (-0.103747 -0.0318759 0)
  (-0.294284 -0.271292 0)
  (-0.128107 0.305497 0)
  (-0.160376 0.136684 0)
  (-0.155128 0.0947546 0)
  (-0.142668 0.0766937 0)
  (-0.131208 0.0682129 0)
  (-0.123763 0.0620165 0)
  (-0.119611 0.0572218 0)
  (-0.117385 0.0541096 0)
  (-0.116303 0.0523271 0)
  (-0.115924 0.0512782 0)
  (-0.115578 0.0510676 0)
  (-0.115059 0.0521687 0)
  (-0.114035 0.0544828 0)
  (-0.112587 0.0575891 0)
  (-0.111196 0.0610865 0)
  (-0.110202 0.064503 0)
  (-0.109784 0.0667878 0)
  (-0.109871 0.0661153 0)
  (-0.110493 0.064831 0)
  (-0.11167 0.0643486 0)
  (-0.113308 0.0647093 0)
  (-0.115255 0.0658938 0)
  (-0.117372 0.0678899 0)
  (-0.11957 0.0705078 0)
  (-0.121793 0.0732738 0)
  (-0.124025 0.0753522 0)
  (-0.126279 0.0754846 0)
  (-0.128349 0.0718164 0)
  (-0.129154 0.0656023 0)
  (-0.126692 0.0618618 0)
  (-0.118854 0.0633008 0)
  (-0.104241 0.0722554 0)
  (-0.0839641 0.0893554 0)
  (-0.0596791 0.108914 0)
  (-0.0334561 0.121158 0)
  (0.010422 0.106391 0)
  (0.144268 0.0190569 0)
  (-0.194723 -0.188347 0)
  (-0.305117 -0.439226 0)
  (-0.549375 -0.158827 0)
  (-0.469791 0.0405578 0)
  (-0.420053 -0.0588502 0)
  (-0.378804 -0.0551095 0)
  (-0.3487 -0.0481243 0)
  (-0.316234 -0.046331 0)
  (-0.28314 -0.0499867 0)
  (-0.251708 -0.057886 0)
  (-0.22313 -0.0687033 0)
  (-0.197972 -0.0817964 0)
  (-0.176478 -0.0968458 0)
  (-0.158539 -0.113274 0)
  (-0.143774 -0.130372 0)
  (-0.131734 -0.147825 0)
  (-0.122133 -0.165315 0)
  (-0.11482 -0.182227 0)
  (-0.109669 -0.197787 0)
  (-0.106632 -0.210697 0)
  (-0.105986 -0.218892 0)
  (-0.107748 -0.224387 0)
  (-0.111332 -0.228416 0)
  (-0.116139 -0.231471 0)
  (-0.121697 -0.23388 0)
  (-0.127548 -0.235667 0)
  (-0.13317 -0.236496 0)
  (-0.137953 -0.235628 0)
  (-0.141225 -0.231893 0)
  (-0.142397 -0.223693 0)
  (-0.141109 -0.209078 0)
  (-0.136811 -0.189115 0)
  (-0.127143 -0.165194 0)
  (-0.108149 -0.138347 0)
  (-0.0769755 -0.108287 0)
  (-0.0361209 -0.0744264 0)
  (0.0389623 -0.030872 0)
  (0.100625 -0.0328338 0)
  (0.159465 -0.0654587 0)
  (0.20954 -0.12988 0)
  (-0.110997 -0.214464 0)
)
;

boundaryField
{
  floor
  {
    type noSlip;
  }
  ceiling
  {
    type noSlip;
  }
  sWall
  {
    type noSlip;
  }
  nWall
  {
    type noSlip;
  }
  sideWalls
  {
    type empty;
  }
  glass1
  {
    type noSlip;
  }
  glass2
  {
    type noSlip;
  }
  sun
  {
    type noSlip;
  }
  Table_master
  {
    type noSlip;
  }
  Table_slave
  {
    type noSlip;
  }
  inlet
  {
    type fixedValue;
    value uniform (0.212132 -0.212132 0);
  }
  outlet
  {
    type zeroGradient;
  }
} 	// ************************************************************************* //

