/*--------------------------------*- C++ -*----------------------------------*\
  =========                 |
  \\      /  F ield         | OpenFOAM: The Open Source CFD Toolbox
   \\    /   O peration     | Website:  https://openfoam.org
    \\  /    A nd           | Version:  6
     \\/     M anipulation  |
\*---------------------------------------------------------------------------*/
FoamFile
{
    version     2.0;
    format      ascii;
    class       volScalarField;
    location    "700";
    object      nut;
}
// * * * * * * * * * * * * * * * * * * * * * * * * * * * * * * * * * * * * * //

dimensions      [0 2 -1 0 0 0 0];

internalField   nonuniform List<scalar> 
458
(
0.00123361
0.0013585
0.00141566
0.00148941
0.00155766
0.00162461
0.00169567
0.00176581
0.00182942
0.00187773
0.00189842
0.00184789
0.00166567
0.0014476
0.00125097
0.000557589
0.000651356
0.000764177
0.000835715
0.00084244
0.000792687
0.000734724
0.000683
0.000638555
0.000600267
0.000567121
0.000538133
0.000512469
0.000489163
0.000466871
0.000443772
0.000419463
0.000379919
0.00156094
0.0034984
0.0032568
0.00368027
0.00413506
0.00458731
0.00493831
0.0052933
0.00568719
0.00608085
0.00645233
0.00678125
0.0067043
0.00566912
0.00363339
0.0014721
0.00128406
0.00107032
0.000539362
0.00130958
0.00210295
0.00272611
0.00292173
0.00203373
0.00169832
0.00147783
0.00131903
0.00119987
0.00110755
0.00103484
0.000969468
0.000894646
0.00081825
0.000749494
0.000779024
0.000426273
0.00182781
0.00466706
0.00395689
0.00441963
0.00462994
0.00477013
0.00489346
0.00509642
0.0054081
0.00583528
0.00640085
0.00709671
0.00767133
0.0073691
0.00611876
0.00431212
0.00314164
0.0011913
0.000666164
0.00139184
0.0022944
0.00318975
0.00344546
0.00104402
0.000911214
0.000798658
0.000706633
0.000631929
0.000571168
0.000521538
0.000481979
0.000454085
0.000521733
0.000619217
0.000883822
0.000460658
0.00207551
0.005682
0.00395596
0.00447016
0.00439555
0.00425907
0.00423059
0.00436676
0.00464665
0.00511375
0.00579669
0.00663245
0.0073629
0.00743283
0.00695855
0.00585379
0.00454203
0.00245397
0.00126049
0.001487
0.00219546
0.00325619
0.00426968
0.00445214
0.00119139
0.00109158
0.00101756
0.000958122
0.000906236
0.000859759
0.000814066
0.000765644
0.000710306
0.000657104
0.000640964
0.00097267
0.000507574
0.00232301
0.00702445
0.00393997
0.00433841
0.00414671
0.0038548
0.00376492
0.00390698
0.00418819
0.00469641
0.00544146
0.00628159
0.0068871
0.00703539
0.00687198
0.00637057
0.0055259
0.00428478
0.00387395
0.00430822
0.0050368
0.00583872
0.00643373
0.00656324
0.0056714
0.00514114
0.0048122
0.00455798
0.00428606
0.0039112
0.00343865
0.00287696
0.00225507
0.00166823
0.00123348
0.0011164
0.000800624
0.000604738
0.000631931
0.000638227
0.00259062
0.00865358
0.00481202
0.00414592
0.0040713
0.00374972
0.0035832
0.00373484
0.0040156
0.0045545
0.00532306
0.00609917
0.00657089
0.00665618
0.00660454
0.0065374
0.006339
0.00602679
0.00627547
0.00701088
0.00767037
0.00809523
0.00822125
0.00805122
0.00761878
0.00721169
0.00686058
0.00651294
0.00611487
0.00562346
0.00503579
0.00434746
0.00357315
0.00277795
0.00209796
0.00159175
0.00118746
0.00119745
0.00166841
0.000849175
0.0028701
0.0099101
0.00680932
0.00450766
0.00384959
0.00376965
0.00370336
0.00381058
0.00406693
0.0045844
0.00533945
0.0060686
0.00644382
0.00648321
0.0066602
0.00714366
0.00749234
0.00780651
0.00842148
0.00906038
0.00936506
0.00935854
0.00909887
0.0086727
0.00817971
0.00771868
0.00729086
0.00686639
0.00642181
0.00594919
0.00544906
0.00488005
0.00424523
0.00355253
0.00289847
0.00232384
0.00186096
0.00170459
0.00198378
0.00105631
0.00295394
0.00910512
0.00772183
0.00620188
0.00496579
0.00445543
0.00420205
0.00407777
0.00425154
0.00475716
0.00550183
0.00616743
0.00643446
0.00654775
0.00733554
0.0081834
0.00866022
0.0090962
0.0095807
0.00988043
0.00980964
0.00944738
0.00889093
0.00823934
0.00758535
0.0069952
0.00646978
0.0059818
0.00552096
0.00510321
0.00475587
0.00448493
0.00418999
0.00378054
0.00341066
0.0031493
0.0030568
0.00304264
0.0036272
0.00142075
0.00291903
0.0035624
0.00428591
0.00456224
0.00446978
0.00432145
0.00416494
0.00415289
0.00444817
0.0050346
0.00578494
0.00632159
0.0064159
0.00694649
0.00795956
0.00864907
0.00900718
0.00927989
0.00943325
0.009342
0.00895481
0.00833059
0.00756963
0.00677187
0.00602975
0.00538997
0.00484081
0.00435684
0.00392828
0.00355548
0.00323513
0.00296719
0.00276379
0.002611
0.00250155
0.00242929
0.00235369
0.00223981
0.00211129
0.00137501
0.0011179
0.00201712
0.00267808
0.00309906
0.00349766
0.00413276
0.00480634
0.00550639
0.00617191
0.00631991
0.00640026
0.00703636
0.00772172
0.00800855
0.00813207
0.00813002
0.00793682
0.00751103
0.00688629
0.0061462
0.00538096
0.0046757
0.00408125
0.00359664
0.00320263
0.00288681
0.00264393
0.00247206
0.00236484
0.00230882
0.0022816
0.00227072
0.00226072
0.00222581
0.00212748
0.00194093
0.0016915
0.00110963
0.00214827
0.00391697
0.00435109
0.00517024
0.00616256
0.00618175
0.00590894
0.00600024
0.00625938
0.00581118
0.00565819
0.00576125
0.00578585
0.00576505
0.0057029
0.00554361
0.00524363
0.00481051
0.00430479
0.00380343
0.00336202
0.00300205
0.00271696
0.00249562
0.00232852
0.00220941
0.00213395
0.00209581
0.00209021
0.00211248
0.00215742
0.0022173
0.00227516
0.0023004
0.00227545
0.00220763
0.00210703
0.00112731
0.00283424
0.00283873
0.0028622
0.00334951
0.00303596
0.00270023
0.00217731
0.00173436
0.00155855
0.00142094
0.00127985
0.00115282
0.00107419
0.00102412
0.000995915
0.000975361
0.000953779
0.000926272
0.000891855
0.000853547
0.000816482
0.000785165
0.000761953
0.000747283
0.000740592
0.000741349
0.000749192
0.000763907
0.00078536
0.000813377
0.000847894
0.000888937
0.000936663
0.000991307
0.00105257
0.00111758
0.0011788
0.00115649
0.00106308
0.000980639
)
;

boundaryField
{
    floor
    {
        type            nutkWallFunction;
        Cmu             0.09;
        kappa           0.41;
        E               9.8;
        value           nonuniform List<scalar> 
36
(
0.000149855
6.70239e-05
7.87342e-05
9.25592e-05
0.000101199
0.000102007
9.60147e-05
8.89766e-05
8.26402e-05
7.71495e-05
7.23824e-05
6.82256e-05
6.45658e-05
6.13053e-05
5.83268e-05
5.54612e-05
5.24738e-05
4.93082e-05
4.41082e-05
4.41081e-05
5.01947e-05
5.4655e-05
6.06753e-05
7.29326e-05
7.63182e-05
7.71e-05
0.000149855
0.000174983
0.000153647
0.000128962
6.70239e-05
0.000128962
6.472e-05
0.000142998
8.05574e-05
0.000150953
)
;
    }
    ceiling
    {
        type            nutkWallFunction;
        Cmu             0.09;
        kappa           0.41;
        E               9.8;
        value           nonuniform List<scalar> 
43
(
0.000322321
0.00032279
0.000325251
0.000375988
0.000343518
0.000308358
0.000252624
0.00020427
0.000184717
0.000169239
0.000153191
0.00013857
0.000129429
0.000123569
0.000120254
0.000117832
0.000115282
0.000112022
0.000107927
0.000103347
9.88931e-05
9.51109e-05
9.22959e-05
9.05113e-05
8.96953e-05
8.97866e-05
9.07407e-05
9.25285e-05
9.51279e-05
9.85106e-05
0.00010266
0.000107568
0.000113242
0.000119699
0.00012689
0.000134467
0.000141561
0.000138982
0.00012812
0.000118443
0.000331564
0.000398231
0.00024928
)
;
    }
    sWall
    {
        type            nutkWallFunction;
        Cmu             0.09;
        kappa           0.41;
        E               9.8;
        value           uniform 0.000322398;
    }
    nWall
    {
        type            nutkWallFunction;
        Cmu             0.09;
        kappa           0.41;
        E               9.8;
        value           nonuniform List<scalar> 6(7.70962e-05 0.000102809 0.000127328 0.000133557 0.000135612 0.000118448);
    }
    sideWalls
    {
        type            empty;
    }
    glass1
    {
        type            nutkWallFunction;
        Cmu             0.09;
        kappa           0.41;
        E               9.8;
        value           nonuniform List<scalar> 9(0.000148021 0.000185207 0.000214875 0.000241991 0.000268741 0.000297326 0.00032685 0.000335657 0.000332014);
    }
    glass2
    {
        type            nutkWallFunction;
        Cmu             0.09;
        kappa           0.41;
        E               9.8;
        value           nonuniform List<scalar> 2(0.000169266 0.000164082);
    }
    sun
    {
        type            nutkWallFunction;
        Cmu             0.09;
        kappa           0.41;
        E               9.8;
        value           nonuniform List<scalar> 
14
(
0.00014786
0.000162121
0.000168601
0.000176919
0.000184577
0.000192052
0.000199949
0.000207711
0.00021472
0.000220027
0.000222296
0.000216757
0.000196629
0.000172217
)
;
    }
    Table_master
    {
        type            nutkWallFunction;
        Cmu             0.09;
        kappa           0.41;
        E               9.8;
        value           nonuniform List<scalar> 9(0.000125889 0.000110222 9.67354e-05 8.55428e-05 7.63288e-05 6.87375e-05 6.24636e-05 5.741e-05 5.38157e-05);
    }
    Table_slave
    {
        type            nutkWallFunction;
        Cmu             0.09;
        kappa           0.41;
        E               9.8;
        value           nonuniform List<scalar> 9(0.000143012 0.000131445 0.000122788 0.000115785 0.000109631 0.000104083 9.85939e-05 9.27379e-05 8.59913e-05);
    }
    inlet
    {
        type            calculated;
        value           uniform 0.00033541;
    }
    outlet
    {
        type            calculated;
        value           nonuniform List<scalar> 2(0.00283424 0.00283873);
    }
}


// ************************************************************************* //
