/*--------------------------------*- C++ -*----------------------------------*\
  =========                 |
  \\      /  F ield         | OpenFOAM: The Open Source CFD Toolbox
   \\    /   O peration     | Website:  https://openfoam.org
    \\  /    A nd           | Version:  6
     \\/     M anipulation  |
\*---------------------------------------------------------------------------*/
FoamFile
{
    version     2.0;
    format      ascii;
    class       volScalarField;
    location    "700";
    object      T;
}
// * * * * * * * * * * * * * * * * * * * * * * * * * * * * * * * * * * * * * //

dimensions      [0 0 0 1 0 0 0];

internalField   nonuniform List<scalar> 
458
(
302.347
302.078
302.063
302.059
302.055
302.052
302.05
302.049
302.054
302.069
302.105
302.197
302.262
302.29
302.317
302.939
302.889
302.853
302.853
302.871
302.888
302.905
302.923
302.94
302.958
302.976
302.995
303.014
303.034
303.055
303.079
303.109
303.161
302.504
302.076
302.04
302.028
302.019
302.012
302.006
302.001
301.999
302.013
302.07
302.185
302.311
302.347
302.348
302.364
302.382
302.412
302.954
302.841
302.802
302.812
302.838
302.855
302.872
302.889
302.907
302.925
302.944
302.963
302.983
303.005
303.029
303.058
303.094
303.156
302.679
302.094
302.037
302.024
302.017
302.01
302.002
301.988
301.963
301.958
302.024
302.175
302.361
302.427
302.426
302.427
302.425
302.431
302.892
302.778
302.758
302.791
302.84
302.851
302.867
302.884
302.903
302.923
302.946
302.969
302.994
303.018
303.043
303.069
303.102
303.161
302.868
302.13
302.048
302.04
302.043
302.048
302.045
302.019
301.954
301.909
301.972
302.161
302.396
302.508
302.529
302.513
302.489
302.467
302.485
302.531
302.606
302.702
302.801
302.888
302.956
303.001
303.038
303.069
303.097
303.122
303.145
303.166
303.184
303.162
303.139
303.134
303.17
303.065
302.188
302.069
302.064
302.086
302.115
302.131
302.095
301.971
301.871
301.924
302.145
302.42
302.591
302.643
302.622
302.585
302.556
302.574
302.629
302.717
302.822
302.927
303.019
303.095
303.149
303.191
303.223
303.249
303.267
303.277
303.28
303.275
303.249
303.211
303.179
303.181
303.203
303.238
303.316
303.257
302.274
302.108
302.087
302.116
302.172
302.229
302.181
301.992
301.846
301.891
302.129
302.449
302.684
302.774
302.761
302.721
302.698
302.729
302.804
302.901
303.005
303.102
303.183
303.248
303.295
303.329
303.354
303.37
303.378
303.378
303.37
303.353
303.323
303.281
303.238
303.218
303.229
303.255
303.326
303.428
302.427
302.223
302.166
302.167
302.212
302.291
302.21
301.987
301.824
301.869
302.131
302.504
302.802
302.928
302.93
302.897
302.891
302.94
303.023
303.115
303.205
303.284
303.347
303.393
303.425
303.447
303.462
303.469
303.467
303.458
303.442
303.42
303.388
303.348
303.305
303.276
303.275
303.286
303.332
303.671
302.925
302.669
302.486
302.392
302.382
302.388
302.19
301.908
301.758
301.853
302.176
302.614
302.965
303.101
303.114
303.1
303.113
303.17
303.248
303.323
303.39
303.444
303.483
303.51
303.526
303.535
303.538
303.536
303.528
303.515
303.496
303.473
303.442
303.409
303.374
303.352
303.353
303.359
303.469
304.021
303.667
303.397
303.1
302.871
302.734
302.447
301.994
301.672
301.631
301.873
302.309
302.828
303.182
303.274
303.296
303.306
303.334
303.384
303.441
303.491
303.532
303.561
303.58
303.59
303.593
303.59
303.583
303.573
303.559
303.544
303.529
303.514
303.503
303.499
303.506
303.525
303.55
303.572
303.634
298.418
299.595
300.325
300.624
300.698
300.829
301.096
301.527
302.074
302.652
303.203
303.388
303.443
303.464
303.484
303.513
303.549
303.584
303.611
303.629
303.639
303.642
303.64
303.634
303.625
303.614
303.603
303.592
303.581
303.571
303.563
303.558
303.56
303.57
303.592
303.626
303.672
303.753
298.492
299.612
300.166
300.463
300.724
301.188
301.757
302.398
303.028
303.333
303.493
303.553
303.58
303.599
303.619
303.639
303.659
303.676
303.686
303.689
303.688
303.683
303.676
303.668
303.658
303.649
303.639
303.629
303.619
303.611
303.603
303.599
303.598
303.603
303.616
303.64
303.68
303.733
299.565
299.548
299.546
300.297
300.792
301.384
302.252
302.949
303.273
303.466
303.58
303.636
303.664
303.682
303.694
303.704
303.712
303.719
303.723
303.725
303.724
303.72
303.715
303.709
303.703
303.696
303.688
303.68
303.672
303.664
303.656
303.648
303.641
303.634
303.63
303.628
303.637
303.651
303.668
303.725
)
;

boundaryField
{
    floor
    {
        type            wallHeatTransfer;
        Tinf            uniform 305.2;
        alphaWall       uniform 0.24;
        value           nonuniform List<scalar> 
36
(
302.588
303.323
303.242
303.173
303.153
303.166
303.194
303.227
303.259
303.29
303.32
303.35
303.379
303.408
303.436
303.466
303.499
303.538
303.607
303.607
303.571
303.555
303.537
303.524
303.544
303.608
302.588
302.599
302.642
302.708
303.323
302.708
303.344
302.702
303.239
302.739
)
;
    }
    ceiling
    {
        type            wallHeatTransfer;
        Tinf            uniform 303.2;
        alphaWall       uniform 0.24;
        value           nonuniform List<scalar> 
43
(
299.741
299.724
299.722
300.42
300.903
301.476
302.31
302.967
303.267
303.444
303.545
303.592
303.615
303.629
303.639
303.647
303.653
303.657
303.659
303.659
303.656
303.651
303.645
303.639
303.633
303.627
303.621
303.615
303.609
303.604
303.598
303.593
303.589
303.585
303.583
303.584
303.594
303.606
303.618
303.665
303.981
303.648
298.777
)
;
    }
    sWall
    {
        type            wallHeatTransfer;
        Tinf            uniform 315.2;
        alphaWall       uniform 0.36;
        value           uniform 300.677;
    }
    nWall
    {
        type            wallHeatTransfer;
        Tinf            uniform 307.2;
        alphaWall       uniform 0.36;
        value           nonuniform List<scalar> 6(304.155 304.017 303.924 304.263 304.24 304.286);
    }
    sideWalls
    {
        type            empty;
    }
    glass1
    {
        type            wallHeatTransfer;
        Tinf            uniform 315.2;
        alphaWall       uniform 4.3;
        value           nonuniform List<scalar> 9(310.81 310.269 309.926 309.671 309.464 309.27 309.091 309.146 309.36);
    }
    glass2
    {
        type            wallHeatTransfer;
        Tinf            uniform 307.2;
        alphaWall       uniform 4.3;
        value           nonuniform List<scalar> 2(305.811 305.896);
    }
    sun
    {
        type            wallHeatTransfer;
        Tinf            uniform 305.2;
        alphaWall       uniform 0.24;
        value           nonuniform List<scalar> 
14
(
302.618
302.354
302.331
302.317
302.305
302.294
302.283
302.276
302.274
302.283
302.315
302.405
302.483
302.534
)
;
    }
    Table_master
    {
        type            zeroGradient;
    }
    Table_slave
    {
        type            zeroGradient;
    }
    inlet
    {
        type            fixedValue;
        value           uniform 297.15;
    }
    outlet
    {
        type            zeroGradient;
    }
}


// ************************************************************************* //
