/*--------------------------------*- C++ -*----------------------------------*\
  =========                 |
  \\      /  F ield         | OpenFOAM: The Open Source CFD Toolbox
   \\    /   O peration     | Website:  https://openfoam.org
    \\  /    A nd           | Version:  6
     \\/     M anipulation  |
\*---------------------------------------------------------------------------*/
FoamFile
{
    version     2.0;
    format      ascii;
    class       volScalarField;
    location    "2000";
    object      nut;
}
// * * * * * * * * * * * * * * * * * * * * * * * * * * * * * * * * * * * * * //

dimensions      [0 2 -1 0 0 0 0];

internalField   nonuniform List<scalar> 
458
(
0.00103271
0.00112792
0.00114699
0.00120311
0.001255
0.00130304
0.00134919
0.00139603
0.00143515
0.00145995
0.00146627
0.001451
0.00141396
0.00135976
0.00129611
0.000447153
0.000563936
0.00063121
0.000620197
0.000594179
0.000555539
0.000516316
0.000481124
0.000450301
0.000423298
0.000399523
0.000378578
0.000359867
0.000342654
0.000326031
0.000308614
0.000293145
0.000263757
0.00142167
0.00346233
0.00332402
0.00389025
0.00443508
0.0049824
0.0054869
0.00588089
0.00620772
0.00647636
0.0066519
0.00668218
0.00647905
0.00582898
0.0041399
0.00135651
0.00105921
0.000757276
0.000498495
0.00106283
0.00143948
0.00168135
0.0017404
0.001391
0.00120288
0.00106738
0.000963347
0.000881065
0.000814419
0.00075613
0.00070106
0.00064685
0.000599047
0.000559354
0.000636131
0.000332108
0.00174971
0.00476492
0.00414791
0.00535803
0.00599753
0.00648161
0.00685446
0.00713232
0.00737968
0.00762519
0.00785093
0.00802004
0.00808888
0.00800163
0.00764178
0.00673638
0.00543055
0.00118001
0.00103711
0.00147562
0.00186384
0.00216351
0.00219722
0.000797056
0.000698655
0.000619117
0.000555159
0.000503452
0.000461296
0.000426695
0.000398324
0.000375528
0.000402357
0.000459551
0.000707237
0.000377284
0.00206902
0.00617969
0.00420199
0.00577241
0.00648646
0.006804
0.00697628
0.00708933
0.00724475
0.00746236
0.00772436
0.00799094
0.00822321
0.00838432
0.00842569
0.00819933
0.00753459
0.00571434
0.00145733
0.00183109
0.00236347
0.00282521
0.00312192
0.00301464
0.000890075
0.00080338
0.00074177
0.00069531
0.000656889
0.000622528
0.000590519
0.000557805
0.000520668
0.000485792
0.000482475
0.000774556
0.000417337
0.00239773
0.00800309
0.00478049
0.00555762
0.00650011
0.00678959
0.00683716
0.00680325
0.00692301
0.0071309
0.00742167
0.00774655
0.0080524
0.0082759
0.00835924
0.00824882
0.00789312
0.00717785
0.00579692
0.00531166
0.005085
0.00492346
0.00475907
0.0045017
0.00378763
0.00342714
0.00322375
0.00307844
0.00293393
0.00272803
0.0024397
0.00207804
0.00166488
0.00124091
0.000913388
0.000852336
0.000647041
0.000545269
0.000626505
0.000688944
0.00274586
0.00998454
0.00680566
0.00571096
0.00622809
0.00661594
0.0066536
0.00669116
0.00679635
0.0069795
0.0072636
0.00762238
0.00797518
0.00822241
0.0082835
0.00813066
0.00780685
0.00739738
0.00693534
0.00659026
0.00627978
0.00595708
0.00563018
0.0053022
0.00494143
0.00466128
0.00443869
0.00423393
0.00402197
0.00378301
0.0034674
0.00306544
0.00257602
0.00202443
0.00152289
0.00114558
0.000878778
0.000722917
0.000949086
0.000706068
0.00305487
0.0113603
0.00956969
0.00768291
0.00726918
0.00718172
0.00703022
0.00689156
0.00686697
0.00701064
0.00732283
0.00773759
0.00813671
0.00839045
0.00840946
0.00818572
0.00781206
0.00744445
0.007168
0.0069333
0.00662315
0.00622185
0.00578657
0.00537225
0.0050116
0.00472678
0.00448736
0.00426095
0.00403595
0.0038171
0.00360888
0.00333894
0.00296238
0.00249463
0.00202653
0.00160972
0.00130077
0.00113913
0.00107422
0.000805725
0.00310811
0.0100067
0.00909566
0.00856289
0.00809311
0.00754975
0.00707963
0.00683247
0.00686522
0.00716323
0.00764535
0.00817867
0.0086079
0.00879928
0.00869551
0.00833818
0.00787119
0.00747742
0.00719642
0.00687299
0.00637845
0.00579671
0.00524309
0.00478787
0.00444546
0.0041852
0.0039604
0.00374667
0.00354785
0.00338351
0.00327447
0.00321415
0.00304207
0.00274114
0.0024577
0.00227
0.00223823
0.0022953
0.0027456
0.00127723
0.00301915
0.00355531
0.00390279
0.00401614
0.0042198
0.00458989
0.00516297
0.00593845
0.0068532
0.00778793
0.0086065
0.00918622
0.00943458
0.00930952
0.0088778
0.00828709
0.00774642
0.00727926
0.00675426
0.00612393
0.00544147
0.00481904
0.00433339
0.00398262
0.00372174
0.00349991
0.00328082
0.00305217
0.00282289
0.00261
0.00242336
0.00226124
0.00213384
0.00203137
0.00196791
0.00194269
0.00191602
0.00185026
0.00175153
0.00124388
0.00129982
0.00415929
0.00666021
0.00834291
0.00954452
0.0103645
0.0108146
0.0109329
0.0107877
0.0104386
0.00991
0.00922728
0.00839759
0.00756719
0.00680049
0.00605256
0.00534698
0.00475022
0.00428444
0.00393065
0.00366717
0.00345097
0.00324827
0.00304021
0.00282071
0.00259409
0.00237427
0.00218354
0.00204439
0.00196243
0.00191939
0.00190473
0.00190797
0.00190851
0.00187242
0.00177993
0.00164549
0.00110924
0.00188302
0.00682766
0.00897575
0.00974396
0.010193
0.0103474
0.0102165
0.00984733
0.00931221
0.00867501
0.00798259
0.00726601
0.0065234
0.00578401
0.0051132
0.0045967
0.00426161
0.00406588
0.00395175
0.0038706
0.00378651
0.00367718
0.00353092
0.00334548
0.00312781
0.00289287
0.00266007
0.00244777
0.00227121
0.00214211
0.00206312
0.00203006
0.00202671
0.00202564
0.00199835
0.00200789
0.00222695
0.00114916
0.0016985
0.00184047
0.00194107
0.00215312
0.00216709
0.00216829
0.00215173
0.00209591
0.00200292
0.00188005
0.00173712
0.00158408
0.00143113
0.00128942
0.00117215
0.00108525
0.00102653
0.000989465
0.000966462
0.000951
0.000938514
0.000926275
0.000912142
0.0008955
0.000876853
0.000857771
0.0008407
0.000828394
0.00082313
0.000826267
0.000837966
0.000857676
0.000885338
0.000920826
0.000963294
0.001011
0.00104002
0.00102035
0.000969636
0.000927452
)
;

boundaryField
{
    floor
    {
        type            nutkWallFunction;
        Cmu             0.09;
        kappa           0.41;
        E               9.8;
        value           nonuniform List<scalar> 
36
(
0.000155048
5.28958e-05
6.78105e-05
7.62252e-05
7.4855e-05
7.16072e-05
6.67515e-05
6.17801e-05
5.72796e-05
5.33042e-05
4.97933e-05
4.66785e-05
4.39149e-05
4.14295e-05
3.91284e-05
3.68917e-05
3.45324e-05
3.24221e-05
2.83715e-05
2.83714e-05
3.77113e-05
4.37441e-05
4.90153e-05
6.54565e-05
7.56432e-05
8.33638e-05
0.000155048
0.000161931
0.000127675
9.17212e-05
5.28957e-05
9.17212e-05
5.95061e-05
0.000141707
0.000125086
0.000173348
)
;
    }
    ceiling
    {
        type            nutkWallFunction;
        Cmu             0.09;
        kappa           0.41;
        E               9.8;
        value           nonuniform List<scalar> 
43
(
0.000200191
0.000215847
0.000226863
0.000249991
0.000251533
0.000251677
0.0002499
0.000243866
0.000233767
0.000220341
0.0002046
0.000187585
0.000170397
0.000154287
0.000140805
0.000130717
0.000123847
0.000119489
0.000116775
0.000114946
0.000113467
0.000112015
0.000110335
0.000108354
0.000106128
0.000103845
0.000101797
0.000100318
9.96844e-05
0.000100062
0.000101469
0.000103833
0.000107142
0.000111368
0.000116401
0.000122025
0.000125432
0.000123124
0.000117151
0.000112156
0.000342174
0.000397684
0.000220335
)
;
    }
    sWall
    {
        type            nutkWallFunction;
        Cmu             0.09;
        kappa           0.41;
        E               9.8;
        value           uniform 0.000200246;
    }
    nWall
    {
        type            nutkWallFunction;
        Cmu             0.09;
        kappa           0.41;
        E               9.8;
        value           nonuniform List<scalar> 6(8.33617e-05 8.54647e-05 9.75868e-05 0.000133521 0.000138156 0.00011216);
    }
    sideWalls
    {
        type            empty;
    }
    glass1
    {
        type            nutkWallFunction;
        Cmu             0.09;
        kappa           0.41;
        E               9.8;
        value           nonuniform List<scalar> 9(0.000124652 0.000169517 0.000206272 0.000241327 0.000276809 0.00031383 0.000346283 0.000351848 0.000342575);
    }
    glass2
    {
        type            nutkWallFunction;
        Cmu             0.09;
        kappa           0.41;
        E               9.8;
        value           nonuniform List<scalar> 2(0.000152938 0.000149113);
    }
    sun
    {
        type            nutkWallFunction;
        Cmu             0.09;
        kappa           0.41;
        E               9.8;
        value           nonuniform List<scalar> 
14
(
0.00012457
0.000135674
0.000137885
0.000144369
0.000150334
0.000155833
0.000161093
0.000166413
0.00017084
0.00017364
0.000174354
0.000172633
0.000168448
0.000162302
)
;
    }
    Table_master
    {
        type            nutkWallFunction;
        Cmu             0.09;
        kappa           0.41;
        E               9.8;
        value           nonuniform List<scalar> 9(9.65339e-05 8.45536e-05 7.47226e-05 6.67064e-05 6.01431e-05 5.47302e-05 5.02412e-05 4.65262e-05 4.35168e-05);
    }
    Table_slave
    {
        type            nutkWallFunction;
        Cmu             0.09;
        kappa           0.41;
        E               9.8;
        value           nonuniform List<scalar> 9(0.000107699 9.72976e-05 8.98261e-05 8.41432e-05 7.94094e-05 7.51475e-05 7.11517e-05 6.70404e-05 6.23372e-05);
    }
    inlet
    {
        type            calculated;
        value           uniform 0.000100623;
    }
    outlet
    {
        type            calculated;
        value           nonuniform List<scalar> 2(0.0016985 0.00184047);
    }
}


// ************************************************************************* //
