/*--------------------------------*- C++ -*----------------------------------*\
  =========                 |
  \\      /  F ield         | OpenFOAM: The Open Source CFD Toolbox
   \\    /   O peration     | Website:  https://openfoam.org
    \\  /    A nd           | Version:  6
     \\/     M anipulation  |
\*---------------------------------------------------------------------------*/
FoamFile
{
    version     2.0;
    format      ascii;
    class       volScalarField;
    location    "800";
    object      T;
}
// * * * * * * * * * * * * * * * * * * * * * * * * * * * * * * * * * * * * * //

dimensions      [0 0 0 1 0 0 0];

internalField   nonuniform List<scalar> 
458
(
303.219
302.889
302.88
302.883
302.886
302.888
302.889
302.891
302.892
302.893
302.894
302.893
302.89
302.887
302.882
302.617
302.606
302.607
302.604
302.59
302.574
302.555
302.536
302.518
302.502
302.485
302.466
302.426
302.423
302.429
302.441
302.451
302.468
303.444
302.924
302.893
302.898
302.905
302.91
302.915
302.919
302.923
302.925
302.925
302.922
302.914
302.9
302.881
302.864
302.847
302.841
302.641
302.63
302.633
302.639
302.61
302.559
302.51
302.469
302.44
302.419
302.399
302.368
302.333
302.333
302.382
302.439
302.462
302.469
303.657
302.976
302.916
302.923
302.935
302.947
302.958
302.967
302.975
302.979
302.981
302.976
302.964
302.943
302.914
302.882
302.851
302.828
302.681
302.685
302.699
302.703
302.69
302.512
302.435
302.393
302.367
302.349
302.333
302.312
302.292
302.319
302.517
302.539
302.536
302.491
303.855
303.043
302.942
302.948
302.966
302.985
303.004
303.02
303.034
303.044
303.048
303.045
303.031
303.006
302.971
302.928
302.88
302.828
302.788
302.76
302.768
302.77
302.769
302.765
302.764
302.764
302.767
302.771
302.776
302.781
302.786
302.787
302.784
302.767
302.729
302.671
302.609
304.036
303.126
302.976
302.97
302.991
303.016
303.042
303.067
303.09
303.107
303.117
303.117
303.105
303.081
303.046
303.005
302.961
302.917
302.88
302.852
302.835
302.823
302.813
302.804
302.798
302.795
302.795
302.797
302.8
302.805
302.809
302.81
302.807
302.797
302.772
302.728
302.67
302.672
302.672
302.7
304.191
303.23
303.043
302.999
303.012
303.038
303.068
303.099
303.128
303.155
303.173
303.18
303.171
303.147
303.113
303.073
303.031
302.99
302.953
302.922
302.896
302.874
302.856
302.84
302.829
302.821
302.816
302.815
302.817
302.821
302.825
302.828
302.824
302.813
302.791
302.757
302.72
302.705
302.695
302.708
304.318
303.404
303.225
303.119
303.072
303.072
303.093
303.12
303.151
303.183
303.213
303.227
303.22
303.196
303.163
303.125
303.086
303.048
303.013
302.981
302.952
302.926
302.902
302.88
302.862
302.847
302.836
302.831
302.831
302.834
302.839
302.842
302.839
302.829
302.807
302.771
302.744
302.729
302.718
302.721
304.537
303.849
303.676
303.502
303.349
303.251
303.204
303.193
303.203
303.223
303.251
303.259
303.247
303.222
303.189
303.153
303.118
303.084
303.053
303.024
302.997
302.971
302.945
302.921
302.898
302.876
302.858
302.846
302.842
302.844
302.85
302.855
302.857
302.851
302.835
302.81
302.788
302.787
302.799
302.885
304.843
304.547
304.372
304.143
303.903
303.701
303.553
303.454
303.394
303.361
303.33
303.293
303.255
303.218
303.182
303.149
303.119
303.091
303.066
303.042
303.021
303
302.979
302.957
302.935
302.91
302.883
302.864
302.853
302.853
302.859
302.869
302.881
302.893
302.905
302.916
302.927
302.942
302.96
303.006
300.169
301.453
302.371
302.851
303.068
303.158
303.191
303.199
303.195
303.184
303.168
303.148
303.126
303.105
303.085
303.067
303.05
303.034
303.019
303.005
302.991
302.975
302.958
302.939
302.917
302.894
302.873
302.86
302.856
302.858
302.863
302.871
302.881
302.892
302.901
302.903
302.889
302.897
300.712
301.508
302.314
302.677
302.874
302.973
303.021
303.041
303.046
303.048
303.046
303.042
303.037
303.031
303.024
303.017
303.01
303.003
302.995
302.988
302.98
302.972
302.962
302.951
302.938
302.922
302.905
302.888
302.875
302.865
302.86
302.857
302.86
302.868
302.873
302.871
302.861
302.882
301.696
301.666
301.665
302.159
302.49
302.687
302.858
302.908
302.934
302.947
302.953
302.956
302.959
302.961
302.963
302.965
302.966
302.966
302.966
302.965
302.964
302.963
302.961
302.959
302.957
302.953
302.949
302.944
302.936
302.926
302.915
302.905
302.895
302.885
302.874
302.867
302.862
302.857
302.851
302.876
)
;

boundaryField
{
    floor
    {
        type            wallHeatTransfer;
        Tinf            uniform 305.2;
        alphaWall       uniform 0.24;
        value           nonuniform List<scalar> 
36
(
303.156
303.139
303.053
303.051
303.068
303.092
303.124
303.165
303.213
303.263
303.31
303.352
303.385
303.377
303.369
303.28
303.106
302.984
303.032
303.032
302.918
302.89
302.912
302.94
302.952
302.994
303.156
303.127
303.121
303.186
303.139
303.186
303.051
303.093
303.005
303.052
)
;
    }
    ceiling
    {
        type            wallHeatTransfer;
        Tinf            uniform 303.2;
        alphaWall       uniform 0.24;
        value           nonuniform List<scalar> 
43
(
301.79
301.76
301.757
302.218
302.53
302.717
302.88
302.928
302.953
302.966
302.973
302.977
302.98
302.983
302.986
302.988
302.991
302.992
302.994
302.995
302.996
302.996
302.996
302.996
302.995
302.993
302.989
302.984
302.976
302.965
302.953
302.942
302.931
302.919
302.906
302.896
302.891
302.887
302.884
302.908
304.769
304.495
300.868
)
;
    }
    sWall
    {
        type            wallHeatTransfer;
        Tinf            uniform 315.2;
        alphaWall       uniform 0.36;
        value           uniform 302.919;
    }
    nWall
    {
        type            wallHeatTransfer;
        Tinf            uniform 307.2;
        alphaWall       uniform 0.36;
        value           nonuniform List<scalar> 6(303.451 303.365 303.301 303.452 303.429 303.493);
    }
    sideWalls
    {
        type            empty;
    }
    glass1
    {
        type            wallHeatTransfer;
        Tinf            uniform 315.2;
        alphaWall       uniform 4.3;
        value           nonuniform List<scalar> 9(312.229 311.246 310.63 310.173 309.827 309.547 309.326 309.39 309.622);
    }
    glass2
    {
        type            wallHeatTransfer;
        Tinf            uniform 307.2;
        alphaWall       uniform 4.3;
        value           nonuniform List<scalar> 2(305.611 305.667);
    }
    sun
    {
        type            wallHeatTransfer;
        Tinf            uniform 305.2;
        alphaWall       uniform 0.24;
        value           nonuniform List<scalar> 
14
(
303.5
303.209
303.216
303.209
303.203
303.197
303.192
303.188
303.183
303.179
303.175
303.17
303.166
303.161
)
;
    }
    Table_master
    {
        type            zeroGradient;
    }
    Table_slave
    {
        type            zeroGradient;
    }
    inlet
    {
        type            fixedValue;
        value           uniform 299.15;
    }
    outlet
    {
        type            zeroGradient;
    }
}


// ************************************************************************* //
