/*--------------------------------*- C++ -*----------------------------------*\
  =========                 |
  \\      /  F ield         | OpenFOAM: The Open Source CFD Toolbox
   \\    /   O peration     | Website:  https://openfoam.org
    \\  /    A nd           | Version:  6
     \\/     M anipulation  |
\*---------------------------------------------------------------------------*/
FoamFile
{
    version     2.0;
    format      ascii;
    class       volScalarField;
    location    "2800";
    object      nut;
}
// * * * * * * * * * * * * * * * * * * * * * * * * * * * * * * * * * * * * * //

dimensions      [0 2 -1 0 0 0 0];

internalField   nonuniform List<scalar> 
458
(
0.00123032
0.00136089
0.00140912
0.00148662
0.00156278
0.00164243
0.00171165
0.00175656
0.00176927
0.00174539
0.00167975
0.001528
0.00138318
0.00120664
0.00104325
0.000550338
0.000649541
0.000768045
0.000841269
0.000846757
0.000791631
0.000729265
0.000674251
0.000627351
0.000587206
0.000552636
0.000522542
0.000495978
0.000471993
0.000449201
0.000425743
0.000400193
0.000361073
0.00160187
0.00413588
0.00410175
0.00479139
0.00547678
0.00602045
0.00647015
0.00685439
0.00714488
0.00731475
0.00731579
0.00708656
0.00662149
0.00568403
0.00382394
0.00132323
0.00114835
0.000947085
0.000530559
0.00144808
0.00231049
0.00297797
0.00313281
0.00209518
0.00172084
0.00148075
0.00131065
0.00118456
0.00108763
0.00101143
0.000944814
0.000868761
0.000789959
0.000717032
0.000712218
0.000395033
0.00190664
0.00563156
0.00511723
0.00594604
0.006382
0.00670773
0.00701355
0.00734645
0.00770897
0.00806961
0.00831482
0.0083465
0.00816413
0.00767824
0.00654548
0.00474856
0.00350475
0.00112843
0.000678772
0.00153114
0.00258283
0.00357621
0.00376153
0.0010599
0.000913836
0.000792077
0.000693841
0.000615032
0.000551622
0.000500277
0.00045942
0.000430856
0.000495966
0.000586306
0.000789555
0.000417232
0.00219618
0.00698714
0.00528795
0.00616088
0.00632869
0.00645457
0.00662969
0.00690551
0.00731225
0.00780043
0.00816619
0.00836093
0.00835791
0.00814161
0.00760522
0.0066259
0.00531328
0.00283791
0.00126057
0.0015475
0.00240937
0.00367143
0.00481513
0.00489151
0.00121753
0.00110536
0.00102002
0.000949849
0.000890302
0.00083595
0.000782792
0.000727722
0.000666705
0.000604721
0.000584342
0.000856211
0.000447695
0.00249222
0.00870158
0.00586451
0.00632019
0.00641832
0.0063681
0.00640033
0.00662637
0.00705701
0.00757103
0.00800303
0.00824176
0.00827277
0.00814336
0.00787111
0.00739153
0.00661458
0.00532443
0.0047524
0.00525559
0.00603703
0.00682598
0.00735173
0.00733391
0.00612283
0.00540278
0.0049216
0.00454719
0.00413097
0.00366118
0.00313987
0.00257013
0.00197243
0.00142138
0.00102652
0.000961863
0.000656132
0.000546242
0.000623541
0.000689433
0.00280834
0.0106245
0.00783088
0.00704534
0.00691154
0.00658205
0.00641902
0.00658063
0.00703648
0.00760709
0.00807665
0.0083112
0.00831611
0.00820227
0.00808063
0.00800061
0.00786745
0.00765012
0.00787986
0.0085205
0.00903735
0.00931164
0.00929287
0.00896292
0.00831046
0.00766758
0.00709095
0.00652458
0.00592185
0.00527518
0.00457644
0.00382309
0.00303208
0.00226736
0.00165448
0.00126655
0.000930139
0.000755515
0.000976445
0.000710676
0.0030817
0.0118913
0.0104302
0.00869659
0.00760447
0.00677376
0.00646346
0.00666988
0.00723931
0.00790811
0.00841283
0.008625
0.00860952
0.00858715
0.00877109
0.00909957
0.00941892
0.00973079
0.0102026
0.0106566
0.0107854
0.010626
0.0102245
0.00964713
0.00897502
0.00831643
0.00768093
0.0070402
0.00639184
0.00572962
0.00504887
0.00434804
0.0036328
0.00292447
0.00230564
0.00181351
0.0014331
0.00123272
0.00113288
0.000817042
0.00312908
0.010053
0.00925987
0.00791535
0.00678501
0.00621314
0.00627527
0.00686054
0.00771869
0.00851768
0.00899888
0.0091325
0.00913912
0.00945227
0.0100121
0.0104025
0.0107175
0.0110191
0.0113035
0.011412
0.0112065
0.0107247
0.0100562
0.00928757
0.00849923
0.00774695
0.0070337
0.00635381
0.00570245
0.00508931
0.00452708
0.00401931
0.00355395
0.00309361
0.00268986
0.0024288
0.00231421
0.00231031
0.00274744
0.00126953
0.00304548
0.00357759
0.00381353
0.00388689
0.00423696
0.00506818
0.006281
0.00763051
0.00880237
0.00949054
0.00963206
0.00962912
0.00991143
0.0103053
0.0106177
0.0108047
0.0109393
0.0110323
0.0110052
0.0107563
0.0102524
0.0095452
0.0087078
0.0078189
0.00695032
0.00614089
0.00538354
0.00465477
0.00396545
0.00335436
0.00285922
0.00249081
0.00223364
0.00206617
0.00197189
0.00193246
0.00190267
0.00184355
0.00174739
0.00123432
0.00110512
0.00300793
0.00629173
0.00852674
0.00986706
0.0105063
0.0106115
0.0102501
0.00975824
0.00957696
0.00968559
0.00978574
0.00979665
0.0097667
0.0097015
0.00953974
0.00919813
0.00863941
0.00790247
0.00707896
0.00626166
0.00551289
0.00485156
0.00426242
0.00372459
0.00323359
0.00280426
0.00245611
0.00219915
0.00202934
0.00193311
0.00189294
0.00188813
0.0018905
0.00186202
0.00177749
0.00163966
0.00110203
0.00195741
0.00731628
0.00955242
0.0100683
0.0099194
0.00938912
0.00872943
0.00815555
0.00774255
0.00747448
0.00727394
0.00711069
0.0069922
0.0068961
0.00677267
0.00656712
0.00624555
0.00582113
0.00534906
0.00489096
0.00448282
0.00412996
0.00381933
0.00353445
0.00326453
0.00300676
0.00276439
0.00254382
0.00235304
0.00220076
0.00209422
0.00203437
0.00200957
0.00199362
0.00196088
0.00195579
0.00216302
0.00114614
0.00181244
0.00193168
0.0020188
0.00221447
0.0020777
0.00195959
0.00185079
0.0017194
0.00157962
0.0014532
0.00135567
0.0012905
0.00125043
0.00122621
0.00121003
0.00119581
0.00117888
0.0011562
0.00112709
0.00109357
0.00105904
0.00102636
0.00099667
0.000969756
0.000944909
0.000921799
0.000900897
0.000883396
0.000870841
0.000864705
0.000866101
0.00087576
0.000894189
0.000921663
0.000957439
0.00099845
0.00102722
0.00100656
0.000957356
0.000927013
)
;

boundaryField
{
    floor
    {
        type            nutkWallFunction;
        Cmu             0.09;
        kappa           0.41;
        E               9.8;
        value           nonuniform List<scalar> 
36
(
0.000125802
6.61013e-05
7.8505e-05
9.30272e-05
0.000101866
0.000102525
9.58858e-05
8.83076e-05
8.15587e-05
7.57528e-05
7.07414e-05
6.63922e-05
6.25791e-05
5.91906e-05
5.61115e-05
5.31675e-05
5.01178e-05
4.67716e-05
4.15943e-05
4.15942e-05
4.60902e-05
4.90019e-05
5.29668e-05
6.55754e-05
7.52708e-05
8.34203e-05
0.000125802
0.000158134
0.000138043
0.000114481
6.61013e-05
0.000114481
6.35964e-05
0.000135734
8.21114e-05
0.000150973
)
;
    }
    ceiling
    {
        type            nutkWallFunction;
        Cmu             0.09;
        kappa           0.41;
        E               9.8;
        value           nonuniform List<scalar> 
43
(
0.000212786
0.000225859
0.000235357
0.000256647
0.000241896
0.000229052
0.000217138
0.000202646
0.000187092
0.000172894
0.000161846
0.000154416
0.000149827
0.000147044
0.000145183
0.000143544
0.000141591
0.000138969
0.000135594
0.000131695
0.000127665
0.000123836
0.000120347
0.000117173
0.000114233
0.000111491
0.000109004
0.000106916
0.000105415
0.00010468
0.000104846
0.000106
0.000108199
0.000111467
0.000115708
0.000120546
0.000123928
0.000121502
0.000115699
0.000112104
0.00034486
0.000399892
0.000228477
)
;
    }
    sWall
    {
        type            nutkWallFunction;
        Cmu             0.09;
        kappa           0.41;
        E               9.8;
        value           uniform 0.000212844;
    }
    nWall
    {
        type            nutkWallFunction;
        Cmu             0.09;
        kappa           0.41;
        E               9.8;
        value           nonuniform List<scalar> 6(8.34182e-05 8.60256e-05 9.89445e-05 0.000132683 0.000137807 0.000112108);
    }
    sideWalls
    {
        type            empty;
    }
    glass1
    {
        type            nutkWallFunction;
        Cmu             0.09;
        kappa           0.41;
        E               9.8;
        value           nonuniform List<scalar> 9(0.00014765 0.000189805 0.000223565 0.000255098 0.000286883 0.000320387 0.000349045 0.000353994 0.000345291);
    }
    glass2
    {
        type            nutkWallFunction;
        Cmu             0.09;
        kappa           0.41;
        E               9.8;
        value           nonuniform List<scalar> 2(0.000152046 0.000148007);
    }
    sun
    {
        type            nutkWallFunction;
        Cmu             0.09;
        kappa           0.41;
        E               9.8;
        value           nonuniform List<scalar> 
14
(
0.000147502
0.000162417
0.000167888
0.000176635
0.000185182
0.000194072
0.000201759
0.000206728
0.000208132
0.000205492
0.000198219
0.000181284
0.000164949
0.000144774
)
;
    }
    Table_master
    {
        type            nutkWallFunction;
        Cmu             0.09;
        kappa           0.41;
        E               9.8;
        value           nonuniform List<scalar> 9(0.000127752 0.000110536 9.59393e-05 8.39699e-05 7.42211e-05 6.62671e-05 5.97442e-05 5.44941e-05 5.07887e-05);
    }
    Table_slave
    {
        type            nutkWallFunction;
        Cmu             0.09;
        kappa           0.41;
        E               9.8;
        value           nonuniform List<scalar> 9(0.000146032 0.000133055 0.000123082 0.000114809 0.000107733 0.000101227 9.48151e-05 8.81184e-05 8.06275e-05);
    }
    inlet
    {
        type            calculated;
        value           uniform 0.000100623;
    }
    outlet
    {
        type            calculated;
        value           nonuniform List<scalar> 2(0.00181244 0.00193168);
    }
}


// ************************************************************************* //
