/*--------------------------------*- C++ -*----------------------------------*=========                 |
  \      /  F ield         | OpenFOAM: The Open Source CFD Toolbox
   \    /   O peration     | Website:  https://openfoam.org
    \  /    A nd           | Version:  6
     \/     M anipulation  |
\*---------------------------------------------------------------------------*/
FoamFile
{
    version     2.0;
    format      ascii;
    class       volScalarField;
    location    "2800";
    object      PMV;
}
// * * * * * * * * * * * * * * * * * * * * * * * * * * * * * * * * * * * * * //

dimensions      [0 0 0 0 0 0 0];

internalField   nonuniform List<scalar> 
458
(
1.7820381057908823
1.5762555639821565
1.546095113331736
1.5248153591672526
1.5134325018912096
1.512749850987473
1.5211665859588923
1.5404515313837184
1.5741366139229962
1.6240812369707123
1.677014331637944
1.6880366111064429
1.6971411291606382
1.706456102065248
1.71143841770599
1.9440494029916102
1.9201586360733551
1.9019960458410514
1.8991278382143446
1.905820141818571
1.9047962118735653
1.897389851783038
1.8985873636255675
1.9035265504160703
1.9108559608785174
1.918340610346128
1.9264482444284825
1.9359415504636974
1.947125112831818
1.9620252793796875
1.9838891440160054
2.0161873021700085
2.046674898049359
1.7484619574719382
1.5973793277593387
1.5830808394106204
1.563987295963334
1.5540012986957017
1.5521913625489963
1.5551362892293346
1.5616472015431448
1.576302888033505
1.6020157823119245
1.6373372903599481
1.6767885624705263
1.6885158154390345
1.680246148703081
1.6605309445196181
1.6485865630835215
1.6730819091411118
1.7187842467586192
1.9516926212134675
1.8967375768889851
1.8771344534225338
1.8625069358951984
1.8603152964587129
1.8685609182819751
1.87706661391015
1.8863916464371968
1.8954311994894322
1.9047279777568988
1.9141977600832583
1.924361179203337
1.9347321972879292
1.9464048161755128
1.961832934025171
1.9847365547804636
2.0115506954525886
2.037400651123694
1.7827072843631748
1.6046082270191773
1.6218276669625111
1.6159978196357467
1.6145119085856734
1.6144348274568547
1.60462396308357
1.583156946585803
1.5655397539247256
1.565059880437354
1.5890688732696177
1.6276418570099913
1.6608706678001326
1.6719183411029523
1.6633332221292092
1.6611677846773554
1.67222823303856
1.6845740149776671
1.8753527447896783
1.8273623855874812
1.8040152579447049
1.8084165207624132
1.822850862684535
1.8347413828034231
1.864614282711457
1.8913173280128344
1.9099693842866672
1.9257902159962377
1.9404387781962802
1.9548919134992488
1.9683265767637366
1.9775162823021228
1.9856317141382223
1.9991576523683214
2.004894110944298
2.0008840073663676
1.8505317606876388
1.6146593050361862
1.6557292704564628
1.6765860850323784
1.6985304407010138
1.7040524745973245
1.658720124523283
1.5924526019693577
1.5433743501662414
1.5289168724285676
1.5502414489640628
1.5923340768131278
1.636615659635938
1.665034425144095
1.6693263578619317
1.6641420161752305
1.6514382163322716
1.6381113080942804
1.6264079565114091
1.6668580254773004
1.7056790908863388
1.7465430903335684
1.7930195004224474
1.8400213948318458
1.8794037956782075
1.8910357095088648
1.9011504102054542
1.914069824596837
1.929062619942931
1.9453090444680787
1.9625759232648963
1.9821545859792191
2.007220415660943
2.01828654924231
2.0148862295784498
1.9986913474565255
1.9805824874975544
1.9339119183879332
1.6382749046530458
1.6887457433921174
1.7405491657024343
1.8168931694277548
1.7929394979452795
1.6779224948043276
1.5776493737099206
1.5154489283615655
1.498371696565611
1.5224745421785173
1.5730055867106985
1.6302904365100437
1.6745812157014577
1.6920994025251337
1.6899718288463417
1.6772152083565683
1.6672015157958056
1.6767121521195703
1.7029419779635189
1.743267871616818
1.7936087983114146
1.847880991394458
1.9009706540108318
1.9462539656777866
1.9721264570816068
1.9912391222257053
2.0088053792895173
2.024269261485959
2.036592008923735
2.0464191728437027
2.0534625895113874
2.0577061872221334
2.04945989520096
2.0300167388283095
1.9971933643871287
1.9910736428769227
2.0408641081222028
2.1576421710853464
2.055073876491597
2.0196374233826666
1.6817829954159027
1.743620695267913
1.8155202001694484
1.8756998730156944
1.7717527115568283
1.6493159146796192
1.5427881564127899
1.4784014570761168
1.4678196581903615
1.5056056763630261
1.5738946761149772
1.6502495156380215
1.7138796057987726
1.748912459077108
1.7553145304080269
1.7475901458014576
1.7437788645319507
1.7614626621959317
1.7950636935886317
1.841386043397821
1.8943607747290248
1.948179906381312
1.999317360602192
2.0361820832639643
2.0585960555901655
2.0762343717022387
2.0895782132037644
2.099583730905728
2.105776588472071
2.1091108723850915
2.1081582436604895
2.1038711788469806
2.084472543948402
2.0549947020467423
2.0146081434318877
2.0020572870093285
2.0234071193395198
2.059836627573472
2.0842420818539917
2.109233267163573
1.7736513526982827
1.8875724228538122
1.8902383522112023
1.825697804927975
1.7125191071532864
1.5792371919996726
1.4717812501580059
1.4232188877275291
1.4393360789434568
1.5077749918728012
1.6072969878475656
1.7123408585962052
1.7962787772397466
1.8235586426820247
1.835999123530032
1.845089031150828
1.8603959782388184
1.8886100930070617
1.9273267606415192
1.9679314284992706
2.008986883398431
2.045721090064869
2.0762343717022387
2.1000601328331476
2.118159887256768
2.131015987811704
2.139584709455179
2.1448203444710012
2.1476758849167954
2.14672405862418
2.142440586725802
2.1348245093820157
2.1224456521378445
2.0942311617851344
2.0525904915578703
2.0285612684536267
2.027052711622099
2.0235523440836616
2.0838916505370153
2.2354576809609874
2.066766646814643
2.0256699542423133
1.926068105253608
1.779340688719288
1.5952647247630525
1.4360826962246143
1.3506449299717254
1.3548562537140518
1.4316548937199152
1.555560965930563
1.7040836580794678
1.8211660259978535
1.8747434707257937
1.902952089260174
1.9149015330248327
1.9268489092644265
1.947871124787701
1.9808239460808967
2.019961968124459
2.0576424620157012
2.0919606649005895
2.1205409165583595
2.1429165484769226
2.158620399091618
2.170037798163773
2.17717210621034
2.1814521041145976
2.182878671447741
2.1819276320556042
2.1785988213595573
2.17241603591662
2.163853753280049
2.1514829839825658
2.137204672429359
2.1238741523829803
2.1070687209219776
2.092172182680409
2.0527815030247396
2.0214245403861857
2.4245731734888696
2.3029660288235
2.1737769853977738
1.8758124352338408
1.4918453480289793
1.2315591788509133
1.1362039014588134
1.1813232101155724
1.3268406074994297
1.5187888490601777
1.7276128817544898
1.852742880634676
1.9316272702550628
1.9635125000946225
1.9756141463658137
1.9904259691342907
2.0125298941702368
2.043226917378904
2.0762343717022387
2.110063482000178
2.13867062635908
2.1568500899714675
2.169719610208605
2.178496821376054
2.1846084000449935
2.1883616182224728
2.1896157960789258
2.1885057056455834
2.1854970574116708
2.17974534388891
2.1713694509057544
2.160889189691759
2.149115502453185
2.1362442788615312
2.1229872010536877
2.1124792802213497
2.1069689294294345
2.1054748232257032
2.0984762067910605
2.08142077154144
-1.887769987838158
-1.5156358454991654
-0.6646472058883408
0.19220188565740695
0.8370815607551847
1.3219262097554116
1.6319556463436646
1.8259511899749779
1.8938120643668204
1.9415461952531239
1.9746621900151342
1.9975820414908723
2.0169195122062513
2.0369569760094572
2.0604597002643206
2.087624896254822
2.1159735389461547
2.141114220610466
2.160962080170339
2.1747830034695315
2.1832009263522467
2.187577873940694
2.189480209912112
2.1892724499118295
2.1872234968585365
2.183624900928784
2.1788472089446063
2.173303725716201
2.166953292066754
2.161252247802819
2.1556500685223803
2.151940813069352
2.1497346124126975
2.151150382630888
2.1595624470376884
2.1838750935896973
2.2370795170198035
2.183644523585996
-1.6758098024647832
-0.31106479521241237
0.6852140980409277
1.2243342082759434
1.5067671216545018
1.701132714194187
1.8324537293329501
1.9159890522973881
1.9699366781361218
2.006595431063203
2.0340280015886374
2.0556198959453025
2.07580162954053
2.096012925925719
2.117098521970332
2.1382067614122806
2.15840431843069
2.174511888996758
2.1857038294464917
2.191860697275529
2.1948375317931537
2.1948541246774544
2.1935131226438425
2.190868800794566
2.1875216001842603
2.1841432150485964
2.180937841857669
2.1786152061765214
2.177372164999477
2.1774655891781194
2.18030086928233
2.186328924274088
2.1963232718433074
2.208765977102582
2.223128880022268
2.2592665460985124
2.205939757417123
2.203607090317409
0.17872750537853835
0.05948438155018813
0.13915325444803464
1.1967689390080587
1.6116249075273608
1.7770457467213978
1.8720894877640697
1.941343208744501
1.9920947258941697
2.0301043303381667
2.0589498275915696
2.081506879834606
2.0997733380849017
2.115385812511961
2.1295431722374354
2.1423441720020495
2.15377522867458
2.163709353614971
2.1714762815419926
2.176005090599478
2.177948808758619
2.177538380064495
2.176030708648093
2.173571326766139
2.1702542304496686
2.167753170596599
2.16464141561206
2.162679622282698
2.1610158391398926
2.1608619338267196
2.161282958165501
2.1628869476208106
2.166248891667288
2.170578217623135
2.175484314075046
2.178975289158709
2.182671823776485
2.186833834212682
2.1742288570111845
2.1711217106464606
)
;

boundaryField
{
    ".*"
    {
        type            zeroGradient;
    }
}


// ************************************************************************* //
