/*--------------------------------*- C++ -*----------------------------------*=========                 |
  \      /  F ield         | OpenFOAM: The Open Source CFD Toolbox
   \    /   O peration     | Website:  https://openfoam.org
    \  /    A nd           | Version:  6
     \/     M anipulation  |
\*---------------------------------------------------------------------------*/
FoamFile
{
    version     2.0;
    format      ascii;
    class       volScalarField;
    location    "2800";
    object      PPD;
}
// * * * * * * * * * * * * * * * * * * * * * * * * * * * * * * * * * * * * * //

dimensions      [0 0 0 0 0 0 0];

internalField   nonuniform List<scalar> 
458
(
66.07815138764269
55.04391259192665
53.40070062886141
52.24194082923791
51.622682300055104
51.585561385769424
52.043382531277835
53.093287350591744
54.92848115129065
57.64566236376862
60.508207781054196
61.10071758003037
61.58898927614255
62.08738922950936
62.35346072967474
74.16138553492931
73.02049891775064
72.14001480742127
71.99996946794329
72.32631366863589
72.27647799093853
71.91497893789148
71.97354982889904
72.2146342981396
72.57090559987824
72.93286574180037
73.32279634359404
73.77646143343198
74.3067863453486
75.00625722968101
76.01746575320864
77.47678973397426
78.81473498974135
64.3182142877341
56.19412240843983
55.415673871200504
54.375524054961566
53.83143217275903
53.732820993077254
53.89327124289338
54.24802219696275
55.04649053203544
56.44640021509625
58.36474336778499
60.496056367401245
61.126443793058186
60.68208682030322
59.619568942212936
58.973935866468395
60.29647306037779
62.74507240347853
74.52207391546145
71.88305632108457
70.91736476601302
70.18908263153988
70.07941703572365
70.49127809699247
70.91400204390143
71.37489974181736
71.8190803366732
72.27315573920995
72.73275005147806
73.22263724569444
73.71884557835185
74.27276592134037
74.99728039256009
76.05628662002486
77.26989616872723
78.41191683480665
66.11298923773774
56.58742256324804
57.52330130096981
57.206622214785114
57.125876835978005
57.121687876577816
56.58827847843205
55.41981878632633
54.46011003672961
54.43396413848457
55.74174942048665
57.838926889017465
59.637912360149116
60.23378950617
59.7708440759741
59.653954303224836
60.25048541489724
60.91474194228869
70.82900097967725
68.4141864795568
67.21701408832337
67.44373204174391
68.18392176177608
68.7896551864302
70.29439758403895
71.61725755828905
72.5279054908055
73.29123361051205
73.9902606642997
74.6724147596808
75.29956973713286
75.724619358977
76.0972643029209
76.71257876747744
76.97132475289999
76.79058683820008
69.58817421699665
57.13388698099878
59.3601819950547
60.48515807073433
61.66340099263225
61.95889910558574
59.521774321944314
55.92596625104682
53.252490462868636
52.46519054700659
53.6265864047041
55.91951408631686
58.32563015450133
59.86264133551148
60.09410137136491
59.81449045120009
59.12819569791748
58.40669165346709
57.77196203398706
59.96101007594254
62.045861780786844
64.21696690091137
66.64859226566239
69.05742679400798
71.02977194929174
71.60342183603694
72.09875306191526
72.72656101631847
73.4480474694792
74.2209752153556
75.03194832141946
75.93791596849042
77.07587350703929
77.5701695207537
77.4188231339795
76.69148745314729
75.86571534748833
73.67973644059947
58.4155572699581
61.138786507312346
63.90026982352184
67.87904552369876
66.64444627289572
60.55708127449735
55.11983780558946
51.732342858696434
50.804252450880774
52.11455312273422
54.8668651093955
57.982633565749104
60.37722129027466
61.31873688444552
61.204592414082796
60.51901893375599
59.97953476652526
60.49194365486344
61.899507801984484
64.0439968011706
66.6791271134567
69.4546069944594
72.08997906710016
74.26563869181322
75.4757176285058
76.35323592996338
77.14697850040821
77.83528929265896
78.3766192056643
78.80367754281724
79.10719310733455
79.28901275718502
78.93497340506474
78.08857158618017
76.62367344018527
76.34569980427463
78.56278170112219
83.33321732783115
79.17632269689344
77.630163034769
60.76472955670925
64.06263941525212
67.80865857868042
70.84622439247173
65.54147483819389
59.01339684310354
53.22055983950794
49.72115334262002
49.148446998280555
51.19721163484635
54.91530101169664
59.063901784344004
62.483693539715986
64.34197473499732
64.67922150647865
64.2722223232413
64.07099608471947
65.0023493196557
66.75447928862164
69.12651069299255
71.76661847530292
74.35657133207259
76.71980047664188
78.35871508047305
79.32703944637605
80.07353111342009
80.62898466625589
81.04014421467463
81.29231460184431
81.42734722173053
81.38882029693634
81.2149166081575
80.4174095655233
79.17292850473032
77.40642450384091
76.84353467786114
77.79717628176213
79.3799945450419
80.40783139435621
81.43229413405439
65.64071215242515
71.43306721664719
71.5642345431325
68.32928897765161
62.411124537835725
55.20632735836727
49.362747323343555
46.74651387143179
47.61199787436886
51.31510664858216
56.73365374825019
62.40161469354679
66.81737367384179
68.22008113054814
68.85350880637523
69.31371269968629
70.08345668906092
71.48414870793559
73.36491143164483
75.2812205826705
77.15511462522775
78.77347833134525
80.07353111342009
81.05960615374414
81.79119700577618
82.30148865188283
82.63723661795098
82.84065201864942
82.95103942468742
82.9142881300014
82.74835685406421
82.45115115924398
81.96217920440168
80.82076183659582
79.0697298288334
78.0245629257949
77.95812527807169
77.80359846230328
80.39326259165134
86.14861147333113
79.67455813205865
77.89714372788626
73.3045645726707
65.93762335027793
56.079036905325175
47.43704646615232
42.895017022874
43.11613436588316
47.19913662388162
53.916409604827784
61.96056660095858
68.09779436147092
70.7987618420772
72.18663555486214
72.76678603721982
73.34200710155977
74.34200141235605
75.87681090184745
77.64456504192856
79.28628825537795
80.7273043774504
81.88629603924377
82.76683809007083
83.37046958214493
83.80180500574552
84.06808515439084
84.22662744356015
84.2792700667483
84.24418637292494
84.12103490449206
83.89084829925842
83.56897047796224
83.09759879827547
82.54433198943528
82.01897701575058
81.34470514218546
80.73602079247985
79.07793807483262
77.7094137286998
91.70820464609731
88.34309690308595
83.9416783623776
70.85180858778918
50.4499968708293
36.79944242517178
32.187498539583444
34.33597402978029
41.65151707210569
51.91401802131915
63.21461306186234
69.69943660854004
73.57068398543569
75.07561947993838
75.6369066848502
76.31619352676093
77.31366355012324
78.66540778491596
80.07353111342009
81.46583102838227
82.60158754830975
83.30301967954856
83.78987070350959
84.11725270780803
84.34296472278318
84.48066139560797
84.52651837840052
84.48593369071922
84.37563056718348
84.16351304262403
83.85169747992782
83.4566887813891
83.00654184664572
82.50676622874488
81.98372279106532
81.56323503397735
81.34066178564933
81.28006810134929
80.99485919467354
80.2903803077079
71.44279538637106
51.742508987982916
14.280459362525406
5.765947490710573
19.7822310667667
41.39620098000248
58.07296011384847
68.34221685973912
71.73971173702027
74.04279640728916
75.59295694807015
76.64127759297858
77.50938102877868
78.39255365792816
79.40656545281838
80.54818103009787
81.70363852516842
82.69679758344937
83.45945462445019
83.97919351770135
84.29114784735705
84.45196540108664
84.52156465647235
84.5139722483116
84.43898023830926
84.30676701560427
84.13024305892856
83.9240129326824
83.68590490645295
83.47046252074497
83.25721140635136
83.11517628957654
83.03037994947051
83.08482282391167
83.40630000241289
84.31597990518826
86.20405838681799
84.3074896962704
60.443370517041274
7.01120977226374
14.869629675647104
36.44077887763969
51.26032928413214
61.80270810025057
68.67340587423939
72.81934786610626
75.37427515604145
77.04780711517091
78.26451452533165
79.19972295759995
80.05538285388045
80.89393640857836
81.74871971749394
82.58348157709189
83.36224494526981
83.96908836337866
84.38322561506423
84.60840438076372
84.71660201111501
84.71720386820809
84.66851880490817
84.57225442458258
84.44990382198304
84.32584954924206
84.20762566014785
84.12164241162426
84.07551599943493
84.07898540623346
84.18407165600959
84.40617339847753
84.77043837704997
85.21697521193916
85.72276111419897
86.94915075629658
85.11622963813733
85.0327760685085
5.662175694624665
5.073258061355418
5.401180588852654
35.08570412954461
56.96896231780762
65.81793950460212
70.66690950297047
74.03317004948569
76.39218378715879
78.0924208282739
79.34214748083502
80.29397033283057
81.04789129087209
81.68006304724223
82.24342641059548
82.74461181579039
83.18550332903531
83.56351134244686
83.85569628436821
84.02469900346685
84.09692340945608
84.08168827526217
84.02565212657976
83.9340030680589
83.80991990964115
83.71600508494602
83.59873068563662
83.52455205140195
83.46149435269986
83.45565448583666
83.47162731893877
83.53240025106861
83.65937170541753
83.82206317422384
84.0053164288318
84.13499002227996
84.2716432968564
84.42469494164678
83.95853515092504
83.84242209405545
)
;

boundaryField
{
    ".*"
    {
        type            zeroGradient;
    }
}


// ************************************************************************* //
