/*--------------------------------*- C++ -*----------------------------------*\
  =========                 |
  \\      /  F ield         | OpenFOAM: The Open Source CFD Toolbox
   \\    /   O peration     | Website:  https://openfoam.org
    \\  /    A nd           | Version:  6
     \\/     M anipulation  |
\*---------------------------------------------------------------------------*/
FoamFile
{
    version     2.0;
    format      ascii;
    class       volVectorField;
    location    "2800";
    object      U;
}
// * * * * * * * * * * * * * * * * * * * * * * * * * * * * * * * * * * * * * //

dimensions      [0 1 -1 0 0 0 0];

internalField   nonuniform List<vector> 
458
(
(0.0146749 0.0906997 0)
(-0.179438 0.0294225 0)
(-0.212332 0.0157414 0)
(-0.24143 0.00536933 0)
(-0.254335 -0.00555077 0)
(-0.248357 -0.0170003 0)
(-0.223595 -0.0289449 0)
(-0.182634 -0.0393861 0)
(-0.130989 -0.046385 0)
(-0.0760776 -0.0490386 0)
(-0.024665 -0.0465872 0)
(0.0265001 -0.0310591 0)
(0.0493551 -0.0157875 0)
(0.0568616 0.00348029 0)
(0.0474883 0.0388464 0)
(-0.0274944 0.0136768 0)
(-0.0433696 -0.0132218 0)
(-0.0200954 -0.029195 0)
(0.00957787 -0.0314112 0)
(0.0372401 -0.0245276 0)
(0.056778 -0.0137306 0)
(0.0695533 -0.00784124 0)
(0.0761196 -0.00567941 0)
(0.0793022 -0.00483774 0)
(0.0813075 -0.00428372 0)
(0.082793 -0.00381662 0)
(0.0837378 -0.00334605 0)
(0.0838539 -0.00264854 0)
(0.082381 -0.00125867 0)
(0.0778803 0.00141613 0)
(0.0685426 0.00524111 0)
(0.05341 0.0110881 0)
(0.0169475 0.0261791 0)
(0.180203 0.186075 0)
(-0.159535 0.0805664 0)
(-0.168369 0.055686 0)
(-0.198315 0.0339443 0)
(-0.211685 0.009217 0)
(-0.206596 -0.018436 0)
(-0.183521 -0.046186 0)
(-0.14651 -0.0682707 0)
(-0.101676 -0.0807542 0)
(-0.0556335 -0.0827618 0)
(-0.0133853 -0.0742196 0)
(0.023461 -0.0528217 0)
(0.0480549 -0.0274877 0)
(0.067644 0.00119563 0)
(0.0827531 0.0347751 0)
(0.0973768 0.0385118 0)
(0.0784345 0.0466249 0)
(0.0159298 0.0669427 0)
(0.0220323 0.0447125 0)
(0.0111334 -0.018203 0)
(0.0293366 -0.0419048 0)
(0.045488 -0.0442604 0)
(0.061212 -0.0372489 0)
(0.0695891 -0.0179077 0)
(0.0720146 -0.00558 0)
(0.0723301 -0.00102639 0)
(0.0726758 0.000540271 0)
(0.0731898 0.00136911 0)
(0.0735737 0.00195051 0)
(0.0737775 0.00259592 0)
(0.0737771 0.00385016 0)
(0.0729316 0.00658687 0)
(0.068978 0.0130511 0)
(0.0591891 0.0208021 0)
(0.0457515 0.0309126 0)
(-0.0121493 0.0543245 0)
(0.33304 0.277226 0)
(-0.166458 0.124717 0)
(-0.125484 0.0880854 0)
(-0.154177 0.0516202 0)
(-0.166162 0.0109139 0)
(-0.159105 -0.033761 0)
(-0.134792 -0.0770938 0)
(-0.100152 -0.108851 0)
(-0.0618055 -0.124012 0)
(-0.0248088 -0.122762 0)
(0.0078952 -0.106314 0)
(0.0338124 -0.0790568 0)
(0.0542391 -0.0478061 0)
(0.0706979 -0.0159195 0)
(0.0840024 0.0129559 0)
(0.0889199 0.0248726 0)
(0.0785842 0.0438678 0)
(0.0266513 0.0864823 0)
(0.083217 -0.000835828 0)
(0.0707712 -0.0376251 0)
(0.0731511 -0.0529763 0)
(0.0786306 -0.0551249 0)
(0.0852173 -0.0521047 0)
(0.0865842 -0.0389038 0)
(0.0728344 -0.0247154 0)
(0.0619992 -0.0169963 0)
(0.0573001 -0.012714 0)
(0.0552576 -0.00996501 0)
(0.053799 -0.00810562 0)
(0.0526727 -0.00671618 0)
(0.0525225 -0.00506734 0)
(0.0550124 -0.000562942 0)
(0.0552561 0.0170878 0)
(0.046932 0.0319833 0)
(0.0416345 0.0484203 0)
(-0.0403474 0.0824496 0)
(0.473135 0.349866 0)
(-0.192198 0.162064 0)
(-0.0818845 0.116103 0)
(-0.108067 0.0675994 0)
(-0.11514 0.012376 0)
(-0.100009 -0.049845 0)
(-0.0722837 -0.107637 0)
(-0.0412966 -0.14539 0)
(-0.0117785 -0.160083 0)
(0.0148452 -0.153644 0)
(0.0351695 -0.131691 0)
(0.0517591 -0.0997677 0)
(0.065065 -0.0639324 0)
(0.0756936 -0.0285541 0)
(0.0847369 0.00313045 0)
(0.0910645 0.0271854 0)
(0.0990451 0.0522671 0)
(0.102052 0.0872897 0)
(0.139957 0.0712031 0)
(0.131295 0.00923459 0)
(0.117259 -0.0283489 0)
(0.106517 -0.0458003 0)
(0.0961875 -0.049912 0)
(0.0843803 -0.0455651 0)
(0.0805171 -0.0264183 0)
(0.091479 -0.0158908 0)
(0.0993314 -0.0102774 0)
(0.101443 -0.00692307 0)
(0.100113 -0.00434949 0)
(0.0968114 -0.00205518 0)
(0.0913815 0.000330636 0)
(0.0827374 0.00336925 0)
(0.0689502 0.00777624 0)
(0.0536007 0.0251582 0)
(0.0424053 0.0435167 0)
(0.0455595 0.0643655 0)
(-0.0589991 0.107424 0)
(0.596443 0.405083 0)
(-0.228374 0.190739 0)
(-0.040109 0.132544 0)
(-0.0604389 0.0770326 0)
(-0.0562122 0.00966312 0)
(-0.0245914 -0.0713069 0)
(0.00501999 -0.137623 0)
(0.0282865 -0.173424 0)
(0.0453598 -0.182586 0)
(0.0574999 -0.171468 0)
(0.0655575 -0.145477 0)
(0.0708671 -0.110413 0)
(0.0744713 -0.0721781 0)
(0.0774293 -0.0354455 0)
(0.0812214 -0.00316551 0)
(0.0858009 0.0230727 0)
(0.0945264 0.0441486 0)
(0.108275 0.0532901 0)
(0.122671 0.0190648 0)
(0.121349 -0.0123324 0)
(0.113005 -0.0295732 0)
(0.101552 -0.0375229 0)
(0.0888243 -0.0383183 0)
(0.076626 -0.0318997 0)
(0.0703873 -0.0158664 0)
(0.0704697 -0.00557451 0)
(0.0709347 -0.000587426 0)
(0.0696149 0.00228845 0)
(0.0675558 0.0046698 0)
(0.0652421 0.00721067 0)
(0.0624246 0.010485 0)
(0.0586393 0.0152335 0)
(0.0533894 0.022506 0)
(0.0475575 0.0360332 0)
(0.0417893 0.0531914 0)
(0.0579549 0.0756798 0)
(0.0144256 0.113601 0)
(0.0592385 0.123253 0)
(-0.0654266 0.0377962 0)
(-0.252551 -0.0143757 0)
(0.69006 0.449356 0)
(-0.26643 0.207555 0)
(-0.00595064 0.127167 0)
(-0.00720833 0.0708922 0)
(0.0301767 -0.0172986 0)
(0.06624 -0.101522 0)
(0.0899932 -0.15896 0)
(0.10189 -0.187306 0)
(0.104632 -0.190556 0)
(0.100936 -0.174567 0)
(0.0934578 -0.145383 0)
(0.0844619 -0.10863 0)
(0.0758365 -0.0700437 0)
(0.069094 -0.0342892 0)
(0.065501 -0.00416646 0)
(0.0652537 0.0188415 0)
(0.0706426 0.0334525 0)
(0.0816643 0.0348474 0)
(0.0904006 0.0157217 0)
(0.090517 -0.00324345 0)
(0.0836335 -0.016771 0)
(0.073189 -0.0242099 0)
(0.0616191 -0.02563 0)
(0.0507259 -0.0212768 0)
(0.0432285 -0.011961 0)
(0.0398421 -0.00464465 0)
(0.0382554 -0.000424048 0)
(0.0370699 0.0022365 0)
(0.0364672 0.00448782 0)
(0.0363987 0.00709563 0)
(0.0367781 0.0107754 0)
(0.0375222 0.0163085 0)
(0.038595 0.0245153 0)
(0.0407101 0.0367485 0)
(0.0432739 0.0525817 0)
(0.0621572 0.0738282 0)
(0.0589991 0.0956918 0)
(0.0910431 0.092331 0)
(0.106576 0.0550876 0)
(-0.122535 -0.0161911 0)
(0.758975 0.488901 0)
(-0.28454 0.187841 0)
(0.0340815 0.062742 0)
(0.0762288 0.0131622 0)
(0.135043 -0.0672721 0)
(0.167876 -0.133135 0)
(0.180689 -0.173631 0)
(0.176644 -0.188371 0)
(0.1601 -0.181777 0)
(0.136125 -0.159882 0)
(0.109568 -0.128456 0)
(0.0838301 -0.0919809 0)
(0.0616047 -0.0554896 0)
(0.0445787 -0.023227 0)
(0.0331605 0.00213558 0)
(0.0300273 0.0186935 0)
(0.0338272 0.0270442 0)
(0.041983 0.0259958 0)
(0.0478059 0.0141575 0)
(0.0475485 0.000857694 0)
(0.0427121 -0.009218 0)
(0.0343886 -0.0146649 0)
(0.0248133 -0.0155785 0)
(0.0157097 -0.0125879 0)
(0.00903146 -0.00697569 0)
(0.0055515 -0.00216033 0)
(0.00415177 0.000774985 0)
(0.00428353 0.00246589 0)
(0.0054123 0.00381657 0)
(0.00755195 0.00560035 0)
(0.0107872 0.00849844 0)
(0.0152734 0.0131794 0)
(0.02119 0.0202399 0)
(0.0291506 0.0302163 0)
(0.0383973 0.0427242 0)
(0.0572856 0.0592474 0)
(0.0728849 0.0712471 0)
(0.103105 0.0641637 0)
(0.143522 0.0504887 0)
(-0.035795 0.0868141 0)
(0.868291 0.480447 0)
(-0.0314254 0.161284 0)
(0.131356 -0.0359243 0)
(0.247458 -0.103178 0)
(0.287539 -0.13645 0)
(0.291669 -0.160137 0)
(0.274477 -0.170995 0)
(0.240945 -0.166952 0)
(0.196345 -0.1497 0)
(0.147124 -0.123409 0)
(0.0996299 -0.0924829 0)
(0.0573422 -0.0595392 0)
(0.0239069 -0.0287438 0)
(0.000276977 -0.00388941 0)
(-0.0115339 0.0112954 0)
(-0.0128053 0.0189243 0)
(-0.00896074 0.0219731 0)
(-0.0026148 0.0198519 0)
(0.00162536 0.0119879 0)
(0.00131367 0.00315668 0)
(-0.00226744 -0.0035869 0)
(-0.00873709 -0.00699086 0)
(-0.0161025 -0.00744944 0)
(-0.0228212 -0.00570375 0)
(-0.0275561 -0.00288259 0)
(-0.0299255 -0.000588614 0)
(-0.0304959 0.000584786 0)
(-0.0297368 0.000939247 0)
(-0.0280484 0.00103659 0)
(-0.0253659 0.00135114 0)
(-0.0215032 0.00231306 0)
(-0.0161704 0.00430154 0)
(-0.00903542 0.0076188 0)
(0.000943753 0.0125996 0)
(0.0128105 0.0184422 0)
(0.0302298 0.0254987 0)
(0.0494035 0.0249594 0)
(0.0744822 0.0101045 0)
(0.138644 0.0436658 0)
(-0.375552 0.184667 0)
(1.02226 0.422896 0)
(0.486082 0.277225 0)
(0.507639 0.166134 0)
(0.523543 0.0571449 0)
(0.480348 -0.023744 0)
(0.41003 -0.0746968 0)
(0.332917 -0.0980446 0)
(0.254183 -0.0997284 0)
(0.176517 -0.0861401 0)
(0.104229 -0.0641274 0)
(0.0426052 -0.039097 0)
(-0.0089627 -0.0135762 0)
(-0.0398683 0.00293117 0)
(-0.0536292 0.0111106 0)
(-0.0574073 0.0151684 0)
(-0.0562116 0.0171387 0)
(-0.0523594 0.0174126 0)
(-0.0477641 0.0152898 0)
(-0.0449902 0.0106632 0)
(-0.0452909 0.00546938 0)
(-0.0480793 0.00137482 0)
(-0.0522669 -0.000957241 0)
(-0.0571105 -0.00172009 0)
(-0.0615195 -0.00146371 0)
(-0.064741 -0.000871888 0)
(-0.066679 -0.000605092 0)
(-0.0678256 -0.000811865 0)
(-0.0689822 -0.00121887 0)
(-0.0706624 -0.00138943 0)
(-0.0732933 -0.000825078 0)
(-0.0773028 0.00106269 0)
(-0.0832092 0.00492219 0)
(-0.0918211 0.0114836 0)
(-0.104465 0.0215834 0)
(-0.123545 0.0358189 0)
(-0.151434 0.0538566 0)
(-0.190718 0.0729234 0)
(-0.238645 0.0897962 0)
(-0.309245 0.102233 0)
(-0.568359 0.106875 0)
(-0.062313 -0.0375808 0)
(0.116952 -0.0740375 0)
(0.169934 -0.0912606 0)
(0.138495 -0.0783473 0)
(0.0954667 -0.0572005 0)
(0.0491995 -0.0355802 0)
(-0.00266979 -0.0131481 0)
(-0.0491262 0.00332076 0)
(-0.0786907 0.0120071 0)
(-0.0948647 0.0158723 0)
(-0.100789 0.0164286 0)
(-0.102017 0.0163827 0)
(-0.100481 0.016455 0)
(-0.0974455 0.016609 0)
(-0.093753 0.0165177 0)
(-0.0904096 0.0156686 0)
(-0.0886269 0.0139844 0)
(-0.0889385 0.0122443 0)
(-0.0909738 0.0112405 0)
(-0.0939206 0.0113539 0)
(-0.0969929 0.0124249 0)
(-0.0996216 0.014041 0)
(-0.101617 0.0158091 0)
(-0.103147 0.0174244 0)
(-0.104545 0.0187459 0)
(-0.106124 0.0197209 0)
(-0.108076 0.0203615 0)
(-0.110489 0.0208967 0)
(-0.113334 0.0219226 0)
(-0.116472 0.0244354 0)
(-0.119661 0.0297276 0)
(-0.12263 0.0391158 0)
(-0.125275 0.0532488 0)
(-0.127357 0.0706998 0)
(-0.126292 0.0846541 0)
(-0.111519 0.0765918 0)
(-0.0830178 0.00688556 0)
(-0.235118 -0.177069 0)
(0.105584 0.149089 0)
(0.00674353 0.0280111 0)
(-0.0290321 -0.0208741 0)
(-0.0695821 -0.0202338 0)
(-0.105734 -0.01148 0)
(-0.131531 -0.00471372 0)
(-0.146308 -0.00103698 0)
(-0.151759 -0.00129627 0)
(-0.15283 -0.00375452 0)
(-0.150691 -0.00663742 0)
(-0.146875 -0.00972099 0)
(-0.142565 -0.0123675 0)
(-0.138027 -0.0144206 0)
(-0.133383 -0.0161758 0)
(-0.128823 -0.0182345 0)
(-0.124788 -0.0212753 0)
(-0.121854 -0.0256621 0)
(-0.120314 -0.0311504 0)
(-0.120024 -0.0371582 0)
(-0.120562 -0.0430616 0)
(-0.12149 -0.0484596 0)
(-0.12251 -0.0531813 0)
(-0.1235 -0.0571453 0)
(-0.124443 -0.060209 0)
(-0.125322 -0.0620314 0)
(-0.126045 -0.0621009 0)
(-0.126438 -0.0598487 0)
(-0.126225 -0.0547833 0)
(-0.124974 -0.0466017 0)
(-0.12197 -0.0351897 0)
(-0.116121 -0.0204775 0)
(-0.106051 -0.00235057 0)
(-0.0905154 0.0188301 0)
(-0.0691305 0.0405464 0)
(-0.0432707 0.055776 0)
(-0.00720943 0.0465114 0)
(0.133786 -0.0264541 0)
(-0.174887 -0.0933272 0)
(-0.0369988 -0.305916 0)
(-0.396795 -0.118075 0)
(-0.300433 0.0579403 0)
(-0.28695 0.0214909 0)
(-0.257024 0.0270055 0)
(-0.254117 0.0365859 0)
(-0.251036 0.0456974 0)
(-0.24444 0.054366 0)
(-0.234308 0.0623548 0)
(-0.222456 0.0690338 0)
(-0.210853 0.074658 0)
(-0.200415 0.0795914 0)
(-0.191484 0.0840832 0)
(-0.183824 0.0884643 0)
(-0.176893 0.0930383 0)
(-0.170206 0.0981622 0)
(-0.163508 0.104207 0)
(-0.156871 0.111432 0)
(-0.150605 0.11985 0)
(-0.145006 0.129138 0)
(-0.140195 0.13872 0)
(-0.136105 0.147985 0)
(-0.132556 0.156515 0)
(-0.129345 0.164117 0)
(-0.126308 0.170686 0)
(-0.123329 0.176022 0)
(-0.120325 0.179739 0)
(-0.117198 0.181335 0)
(-0.113785 0.180356 0)
(-0.109792 0.176617 0)
(-0.104651 0.170372 0)
(-0.0972713 0.162396 0)
(-0.085875 0.153967 0)
(-0.0684912 0.146809 0)
(-0.0445077 0.142845 0)
(-0.0147504 0.142923 0)
(0.02716 0.143836 0)
(0.0591341 0.140438 0)
(0.152737 0.13361 0)
(-0.301566 0.115389 0)
)
;

boundaryField
{
    floor
    {
        type            noSlip;
    }
    ceiling
    {
        type            noSlip;
    }
    sWall
    {
        type            noSlip;
    }
    nWall
    {
        type            noSlip;
    }
    sideWalls
    {
        type            empty;
    }
    glass1
    {
        type            noSlip;
    }
    glass2
    {
        type            noSlip;
    }
    sun
    {
        type            noSlip;
    }
    Table_master
    {
        type            noSlip;
    }
    Table_slave
    {
        type            noSlip;
    }
    inlet
    {
        type            fixedValue;
        value           uniform (0.277164 -0.114805 0);
    }
    outlet
    {
        type            zeroGradient;
    }
}


// ************************************************************************* //
