/*--------------------------------*- C++ -*----------------------------------*\
  =========                 |
  \\      /  F ield         | OpenFOAM: The Open Source CFD Toolbox
   \\    /   O peration     | Website:  https://openfoam.org
    \\  /    A nd           | Version:  6
     \\/     M anipulation  |
\*---------------------------------------------------------------------------*/
FoamFile
{
    version     2.0;
    format      ascii;
    class       volScalarField;
    location    "1600";
    object      alphat;
}
// * * * * * * * * * * * * * * * * * * * * * * * * * * * * * * * * * * * * * //

dimensions      [1 -1 -1 0 0 0 0];

internalField   nonuniform List<scalar> 
458
(
0.00078892
0.000825399
0.000793203
0.000823778
0.000853497
0.00088063
0.000905699
0.000929533
0.000953154
0.000977973
0.000999326
0.0010164
0.00102967
0.00104135
0.001051
0.00025992
0.000257985
0.000239043
0.00022027
0.000214282
0.000211916
0.000225024
0.00023916
0.000251655
0.000259982
0.000260916
0.000255095
0.000255444
0.0002651
0.000288482
0.00029273
0.000280881
0.000250832
0.00125409
0.00230238
0.00193363
0.00237872
0.00260071
0.00282223
0.00303938
0.00323685
0.00339234
0.00347525
0.00350477
0.00343477
0.00320575
0.00272681
0.00191947
0.0011265
0.00107271
0.000687525
0.000354439
0.00100489
0.000922625
0.000742827
0.00056362
0.00047502
0.00055377
0.000660329
0.000751683
0.000812932
0.000838827
0.000843199
0.000880944
0.00101974
0.00136976
0.00136451
0.00123389
0.000403174
0.001673
0.00358253
0.00213971
0.00348072
0.00394162
0.00422918
0.00446894
0.00466829
0.00482691
0.00493808
0.00501787
0.00504641
0.00498184
0.00475657
0.00427806
0.00348483
0.00234236
0.00112904
0.000612573
0.00157319
0.00128823
0.000911768
0.000591154
0.000291818
0.000307326
0.000331455
0.000357101
0.000386027
0.000421334
0.000467759
0.000534161
0.000638051
0.00212947
0.00231262
0.00221726
0.000602532
0.00208929
0.00532325
0.00227661
0.00377019
0.004636
0.00494065
0.00513224
0.00527253
0.00538205
0.00547261
0.00556803
0.00568191
0.00579535
0.00585705
0.00575409
0.00529883
0.00426669
0.00256419
0.00105637
0.00233038
0.00266379
0.00211448
0.00153447
0.00101829
0.000640887
0.000628897
0.000623357
0.000622683
0.000627618
0.000639711
0.000661693
0.000699082
0.000767084
0.00255389
0.00275433
0.00270205
0.000817362
0.00249943
0.00742349
0.00306518
0.00345087
0.00476392
0.00517636
0.00534743
0.00543351
0.00547612
0.00551119
0.00558791
0.00575149
0.00599949
0.00631336
0.00663613
0.0068735
0.00693009
0.00670986
0.00617392
0.0057394
0.00517449
0.00469546
0.0043022
0.00397958
0.00371461
0.00356082
0.00343877
0.00333464
0.00324151
0.00315817
0.00309344
0.0030649
0.00308742
0.00318667
0.00308029
0.0029533
0.00268917
0.00105
0.000901167
0.000774344
0.00290603
0.00954891
0.00513672
0.00343782
0.0041456
0.00479398
0.00515031
0.00533623
0.00538544
0.00533485
0.00536453
0.00551643
0.00577779
0.00615192
0.00661869
0.0071159
0.00753076
0.00769776
0.00750315
0.00704709
0.00652104
0.0060807
0.00573393
0.0054536
0.00521398
0.00500908
0.00483698
0.00469153
0.00455498
0.00440053
0.00420979
0.00399405
0.00377949
0.00356304
0.00332773
0.00309892
0.00286854
0.00240775
0.00205832
0.000889566
0.00328213
0.0112061
0.00843663
0.00540486
0.00409213
0.00396586
0.00439999
0.00488305
0.0052064
0.00514819
0.00517069
0.00527621
0.00546729
0.00576478
0.00617859
0.00669416
0.00722232
0.0075759
0.00763994
0.00743351
0.00709487
0.00675319
0.00644999
0.00618131
0.00593576
0.00571587
0.00553572
0.00540593
0.00532022
0.00524012
0.00509821
0.00484633
0.00450884
0.00413166
0.00373537
0.00333536
0.00292765
0.00246386
0.00191706
0.00091771
0.00335829
0.0108382
0.00938921
0.00827975
0.00659291
0.00538884
0.00491933
0.00490636
0.00506935
0.00508358
0.00507446
0.00511408
0.00523246
0.00544233
0.00574305
0.00612343
0.006548
0.00692707
0.00715328
0.0071834
0.00706907
0.00688836
0.00668632
0.00647734
0.00626761
0.00606946
0.00590257
0.00579156
0.00575915
0.00580246
0.00587225
0.00586455
0.00570483
0.00537895
0.00491081
0.00433978
0.0037418
0.0032475
0.0028012
0.00158621
0.00325702
0.00386156
0.00505471
0.00556552
0.00564592
0.00541143
0.00513532
0.00493773
0.00483292
0.0047826
0.00479857
0.00487981
0.00502724
0.00523228
0.00547753
0.00574857
0.00603584
0.00631641
0.00654601
0.00668485
0.00672935
0.00670029
0.00661893
0.00650233
0.00637026
0.00624051
0.00612658
0.00604709
0.00602093
0.00606549
0.0061834
0.00634761
0.00654464
0.00672864
0.00688244
0.00704074
0.00711889
0.00663952
0.00599211
0.00175357
0.00588244
0.00924891
0.00712536
0.00627565
0.00576827
0.00542913
0.00520496
0.00506587
0.00501529
0.00506295
0.00518887
0.00536353
0.00556288
0.00577371
0.00598905
0.00620252
0.00640307
0.00657096
0.00668458
0.00674157
0.00674799
0.00671875
0.00667736
0.00663717
0.00660012
0.00657523
0.00656926
0.00658845
0.00662732
0.00670079
0.00683905
0.00705202
0.00729686
0.00746744
0.00737766
0.00688924
0.00572116
0.00185198
0.00348165
0.00858753
0.0071773
0.00639492
0.00593678
0.00564063
0.00547688
0.00545725
0.00557684
0.00576414
0.0060112
0.00629109
0.00657002
0.00681935
0.00702433
0.00718533
0.00731041
0.00740085
0.0074215
0.00740433
0.00737718
0.00735701
0.00735027
0.00735513
0.00736515
0.00737336
0.00737217
0.00735561
0.00731981
0.00727287
0.00723943
0.00725044
0.00727986
0.00717403
0.00688814
0.00633079
0.00555687
0.00204107
0.00192856
0.0021588
0.00270227
0.00263391
0.00269908
0.00256484
0.00235342
0.00216476
0.00200152
0.00186369
0.0017547
0.00168848
0.00165548
0.00164873
0.00166047
0.00168193
0.0017051
0.00172466
0.00173845
0.00174656
0.00175339
0.00175494
0.0017525
0.0017483
0.001744
0.00174059
0.00173834
0.00173668
0.00173487
0.00173205
0.00172763
0.00172035
0.0017096
0.00169482
0.00167638
0.00165953
0.001633
0.00158507
0.0015473
0.00149853
)
;

boundaryField
{
    floor
    {
        type            compressible::alphatWallFunction;
        Prt             0.85;
        value           nonuniform List<scalar> 
36
(
0.000149629
3.11486e-05
3.08238e-05
2.76416e-05
2.44548e-05
2.34314e-05
2.30256e-05
2.52647e-05
2.76596e-05
2.97604e-05
3.11526e-05
3.1308e-05
3.03356e-05
3.03936e-05
3.20039e-05
3.58722e-05
3.65707e-05
3.46191e-05
2.96221e-05
2.96216e-05
5.43159e-05
8.48803e-05
0.000116432
0.000149488
0.000128461
0.000110219
0.000149627
0.000160157
0.000152662
9.75159e-05
3.11481e-05
9.75148e-05
4.65855e-05
0.000160504
8.63869e-05
0.000150372
)
;
    }
    ceiling
    {
        type            compressible::alphatWallFunction;
        Prt             0.85;
        value           nonuniform List<scalar> 
43
(
0.000268138
0.000298017
0.000367303
0.00035873
0.000366981
0.000350007
0.000323068
0.000298808
0.000277632
0.000259606
0.000245248
0.000236478
0.000232093
0.000231194
0.000232757
0.000235608
0.000238683
0.000241274
0.0002431
0.000244172
0.000245075
0.00024528
0.000244956
0.0002444
0.000243831
0.000243379
0.000243081
0.00024286
0.000242619
0.000242245
0.000241659
0.000240694
0.000239268
0.000237307
0.000234859
0.000232618
0.000229086
0.00022269
0.000217635
0.000211087
0.000436778
0.000510904
0.000464248
)
;
    }
    sWall
    {
        type            compressible::alphatWallFunction;
        Prt             0.85;
        value           uniform 0.000267161;
    }
    nWall
    {
        type            compressible::alphatWallFunction;
        Prt             0.85;
        value           nonuniform List<scalar> 6(0.000110081 0.000126664 0.000130675 0.000257778 0.000282485 0.000210814);
    }
    sideWalls
    {
        type            empty;
    }
    glass1
    {
        type            compressible::alphatWallFunction;
        Prt             0.85;
        value           nonuniform List<scalar> 9(0.000109804 0.000174425 0.000230395 0.00028458 0.000336902 0.000387926 0.000434496 0.000443952 0.00043165);
    }
    glass2
    {
        type            compressible::alphatWallFunction;
        Prt             0.85;
        value           nonuniform List<scalar> 2(0.000222172 0.000244378);
    }
    sun
    {
        type            compressible::alphatWallFunction;
        Prt             0.85;
        value           nonuniform List<scalar> 
14
(
0.000112347
0.000117605
0.000112955
0.000117371
0.000121645
0.000125532
0.00012911
0.000132501
0.000135852
0.000139362
0.000142374
0.000144777
0.00014664
0.000148278
)
;
    }
    Table_master
    {
        type            compressible::alphatWallFunction;
        Prt             0.85;
        value           nonuniform List<scalar> 9(3.64304e-05 3.89688e-05 4.28854e-05 4.70069e-05 5.16094e-05 5.7167e-05 6.43851e-05 7.45546e-05 9.01588e-05);
    }
    Table_slave
    {
        type            compressible::alphatWallFunction;
        Prt             0.85;
        value           nonuniform List<scalar> 9(9.05873e-05 8.88037e-05 8.7978e-05 8.78771e-05 8.8612e-05 9.04105e-05 9.36694e-05 9.91826e-05 0.00010912);
    }
    inlet
    {
        type            fixedValue;
        value           uniform 1.94e-05;
    }
    outlet
    {
        type            zeroGradient;
    }
}


// ************************************************************************* //
