/*--------------------------------*- C++ -*----------------------------------*\
  =========                 |
  \\      /  F ield         | OpenFOAM: The Open Source CFD Toolbox
   \\    /   O peration     | Website:  https://openfoam.org
    \\  /    A nd           | Version:  6
     \\/     M anipulation  |
\*---------------------------------------------------------------------------*/
FoamFile
{
    version     2.0;
    format      ascii;
    class       surfaceScalarField;
    location    "1600";
    object      phi;
}
// * * * * * * * * * * * * * * * * * * * * * * * * * * * * * * * * * * * * * //

dimensions      [1 0 -1 0 0 0 0];

internalField   nonuniform List<scalar> 
850
(
-0.00223123
0.00227891
-0.00256616
0.000334964
-0.00292352
0.000357406
-0.00328432
0.000360847
-0.00360452
0.000320236
-0.00386624
0.000261763
-0.00405634
0.000190143
-0.00416067
0.000104362
-0.00416296
2.33208e-06
-0.00404299
-0.000119931
-0.00378012
-0.000262829
-0.00335671
-0.000423371
-0.0027343
-0.000622369
-0.0017552
-0.00097907
-0.00175588
6.86004e-05
-6.82191e-05
-7.97632e-10
6.86476e-05
-4.79761e-05
4.8019e-05
-4.03552e-05
-7.57102e-06
-3.50689e-06
-3.67945e-05
6.02494e-05
-6.36969e-05
0.000128918
-6.86079e-05
0.000187568
-5.85897e-05
0.000237182
-4.95544e-05
0.000277622
-4.03821e-05
0.000301855
-2.4176e-05
0.000297292
4.61545e-06
0.000258234
3.91098e-05
0.000198125
6.01641e-05
0.000109552
8.86357e-05
3.83744e-06
0.000105782
-7.26395e-05
7.65538e-05
-7.24146e-05
-0.00162345
0.00402823
-0.00218487
0.000896429
-0.00264893
0.000821508
-0.00303375
0.000745707
-0.00336314
0.000649672
-0.00363581
0.00053447
-0.00384398
0.000398354
-0.00397654
0.000236963
-0.00402059
4.64209e-05
-0.00396658
-0.0001739
-0.00380906
-0.000420314
-0.00354273
-0.000689657
-0.00316622
-0.000998845
-0.00277719
-0.00136807
-0.00291045
-0.00162258
-0.00150798
-0.00140379
2.88585e-05
-0.00153815
2.50196e-05
-0.00010596
3.79473e-05
-0.000232578
0.000195299
-0.000293809
0.000109288
-0.000318962
1.76258e-05
-0.000338157
-1.75532e-05
-0.000270954
-0.000130849
-0.000243348
-9.61628e-05
-0.000237667
-6.42178e-05
-0.000245937
-4.12312e-05
-0.00026726
-1.90058e-05
-0.000299721
8.3383e-06
-0.000336386
4.13381e-05
-0.000370224
7.30107e-05
-0.000376732
6.67436e-05
-0.000251107
-3.69081e-05
-0.000115757
-2.94821e-05
-4.5477e-05
6.35948e-06
-0.000118821
-0.0012006
0.00541785
-0.0018261
0.00152198
-0.00227904
0.00127449
-0.00262877
0.00109548
-0.00292772
0.000948667
-0.00317987
0.000786659
-0.00337893
0.00059745
-0.00351491
0.000372983
-0.00357639
0.000107946
-0.00355369
-0.000196564
-0.0034444
-0.00052956
-0.00325844
-0.000875575
-0.0030313
-0.00122595
-0.00284646
-0.00155287
-0.00271267
-0.00175633
-0.00229402
-0.00182241
-0.00194818
-0.00188395
-0.00192603
-0.000762382
0.00079873
-0.000815361
0.000248303
-0.000779982
7.39353e-05
-0.000716944
-4.53882e-05
-0.000545817
-0.000188649
-0.00067647
-0.000772436
-0.000836455
-0.000877485
-0.000896288
-0.000887742
-0.000846195
-0.000772973
-0.000706018
-0.00031833
-0.000424539
-7.58709e-05
-0.00027188
8.11108e-05
-0.000150552
-4.04276e-05
-0.000904017
0.00656275
-0.00152317
0.00214117
-0.00186128
0.00161264
-0.00213835
0.00137259
-0.0023812
0.00119156
-0.00259083
0.00099633
-0.00276285
0.000769514
-0.00288835
0.000498523
-0.00295461
0.000174238
-0.00294805
-0.000203083
-0.00287056
-0.00060701
-0.00274921
-0.000996884
-0.00263242
-0.0013427
-0.00257289
-0.00161236
-0.0025644
-0.00176478
-0.00257965
-0.00180713
-0.00271031
-0.00175325
-0.00323072
-0.0014056
-0.0026491
-0.000584834
-0.00181383
-3.65103e-05
-0.0015821
1.66087e-05
-0.00149344
-1.46899e-05
-0.0014556
-8.31906e-05
-0.00150883
-0.000135376
-0.00140143
-0.000107507
-0.00129947
-0.000102074
-0.00119423
-0.000105351
-0.00108487
-0.000109467
-0.000969452
-0.000115529
-0.000844202
-0.000125362
-0.000701805
-0.000142508
-0.000525634
-0.000176283
-0.000271277
-0.000254468
-0.000275569
-0.000420207
-9.6556e-05
-0.000450852
0.000140253
-0.000387318
9.51065e-05
-0.000686154
0.00753329
-0.00126929
0.00272435
-0.00141345
0.00175685
-0.00158343
0.00154261
-0.00175144
0.00135962
-0.00189513
0.00114005
-0.00201131
0.000885742
-0.00209539
0.000582638
-0.00213568
0.000214576
-0.00211381
-0.000224916
-0.00203621
-0.00068457
-0.00194114
-0.00109191
-0.00187267
-0.00141113
-0.00185959
-0.0016254
-0.00189751
-0.00172682
-0.00198074
-0.00172386
-0.00213234
-0.00160161
-0.00227118
-0.00126672
-0.00208879
-0.000767187
-0.00175295
-0.00037231
-0.00152689
-0.000209417
-0.00138253
-0.000159004
-0.00130381
-0.000161877
-0.00126698
-0.000172169
-0.00120736
-0.000167086
-0.00114369
-0.000165704
-0.00107995
-0.000169048
-0.00101483
-0.000174551
-0.000947997
-0.000182328
-0.000878281
-0.000195042
-0.000801853
-0.000218901
-0.000711674
-0.000266429
-0.000611628
-0.000354482
-0.000556281
-0.000475523
-0.000435018
-0.000572084
-0.000182167
-0.000640138
0.000466587
-0.000553616
0.00092725
-0.000466346
0.000863853
5.70918e-05
0.000873779
-0.000638032
0.00849296
-0.00114716
0.00323352
-0.000950092
0.00155982
-0.000920371
0.00151293
-0.00101611
0.0014554
-0.00108991
0.00121389
-0.00112578
0.000921654
-0.00113302
0.000589926
-0.00110708
0.00018867
-0.00103664
-0.000295308
-0.000944565
-0.000776607
-0.00087092
-0.00116552
-0.000845969
-0.00143604
-0.000881156
-0.00159017
-0.000970146
-0.00163779
-0.00110375
-0.00159022
-0.001265
-0.00144032
-0.00136601
-0.00116567
-0.00132076
-0.000812396
-0.00118094
-0.000512092
-0.00105699
-0.000333325
-0.000973028
-0.000242932
-0.000928054
-0.000206811
-0.000906006
-0.000194178
-0.000885714
-0.000187339
-0.000864854
-0.000186524
-0.000844594
-0.000189269
-0.000826459
-0.000192649
-0.000813461
-0.00019529
-0.000809476
-0.000198992
-0.000818023
-0.000210321
-0.000842009
-0.000242411
-0.00088541
-0.000311052
-0.000942032
-0.000418873
-0.000960285
-0.000553805
-0.00087898
-0.000721418
-0.000501681
-0.00093089
0.000175794
-0.0011438
0.000613044
-0.000380132
0.00150557
-0.00080239
0.00965063
-0.000882903
0.00331408
-0.000158262
0.000835223
0.00011148
0.00124323
2.92903e-05
0.00153763
-2.23311e-05
0.00126555
1.36329e-05
0.000885732
9.31483e-05
0.000510453
0.00021022
7.16401e-05
0.000335177
-0.000420225
0.000418402
-0.000859791
0.000438313
-0.00118539
0.000390897
-0.00138858
0.000282965
-0.0014822
0.000126799
-0.00148158
-6.26175e-05
-0.00140076
-0.000255472
-0.00124742
-0.000395581
-0.00102552
-0.000446052
-0.000761884
-0.000433187
-0.000524917
-0.000409537
-0.000356935
-0.000398309
-0.00025412
-0.000404494
-0.000200586
-0.000421744
-0.000176887
-0.000441237
-0.000167806
-0.000460724
-0.000166997
-0.000480757
-0.000169198
-0.000504115
-0.000169252
-0.000536759
-0.00016261
-0.000588261
-0.000147455
-0.000672304
-0.000126246
-0.000805952
-0.000108733
-0.00100237
-0.000114608
-0.00125477
-0.000166445
-0.0015268
-0.000281754
-0.00176934
-0.000478853
-0.00192244
-0.000777766
-0.00193059
-0.00113562
-0.00116595
-0.00114475
0.000361193
0.00167551
0.00837235
0.00216664
0.00282298
0.0024921
0.00050981
0.00228099
0.00145438
0.00201469
0.00180397
0.00189709
0.0013832
0.00187899
0.000903875
0.00192455
0.000464932
0.00201613
-1.98941e-05
0.00207834
-0.0004824
0.00205189
-0.000833299
0.00193791
-0.00107137
0.0017581
-0.00120873
0.00153486
-0.00125892
0.00128704
-0.00123372
0.00103097
-0.00114466
0.000787292
-0.0010037
0.000585051
-0.000823236
0.000447032
-0.000623824
0.000362971
-0.000440815
0.000305031
-0.000298954
0.000254407
-0.000203455
0.000202907
-0.000149045
0.000150271
-0.00012421
9.89376e-05
-0.000116431
4.93479e-05
-0.000117367
1.12069e-06
-0.000120931
-4.74783e-05
-0.000120614
-0.000100324
-0.000109726
-0.000164604
-8.31398e-05
-0.000251877
-3.89385e-05
-0.000385091
2.45126e-05
-0.000603363
0.000103692
-0.000949956
0.000180175
-0.00144442
0.000212735
-0.00207956
0.000156305
-0.00286101
3.70681e-06
-0.00374002
-0.000256586
-0.00373652
-0.00114822
-0.00329606
0.00879083
0.011592
0.0107155
0.00138633
0.00836
0.00380993
0.00705468
0.00310933
0.00617292
0.002265
0.00553355
0.00154329
0.00509065
0.000907862
0.0047052
0.000365599
0.00429739
-7.45463e-05
0.0038831
-0.000418978
0.0034754
-0.000663627
0.00307941
-0.000812697
0.00269898
-0.000878445
0.00233807
-0.000872775
0.00200202
-0.00080857
0.00169918
-0.000700819
0.00144197
-0.000565986
0.00124105
-0.000422866
0.00109283
-0.00029255
0.00097997
-0.000186053
0.00088799
-0.000111435
0.000808005
-6.90184e-05
0.000735786
-5.19493e-05
0.000668993
-4.95972e-05
0.000606064
-5.43956e-05
0.000546923
-6.17494e-05
0.000491111
-6.47622e-05
0.000438559
-5.71348e-05
0.000389446
-3.39891e-05
0.000346957
3.58743e-06
0.000311196
6.03069e-05
0.000283543
0.000131377
0.000271275
0.000192471
0.000279045
0.000204993
0.000289443
0.000145932
0.000284126
9.04837e-06
0.000257022
-0.000229458
9.97576e-05
-0.000990936
-0.00310798
0.00127101
0.00219321
0.00353085
0.00155012
0.00478981
0.0018504
0.00511737
0.00193747
0.00514234
0.00151835
0.00507821
0.000972027
0.00494548
0.000498367
0.00473203
0.000138936
0.00445065
-0.000137557
0.00411142
-0.000324359
0.00373517
-0.000436413
0.00334241
-0.000485645
0.00295234
-0.000482665
0.00258323
-0.000439426
0.00225139
-0.000368933
0.00196993
-0.000284486
0.00174645
-0.000199344
0.00157984
-0.000125899
0.00145568
-6.18583e-05
0.00136195
-1.76666e-05
0.00128749
5.49106e-06
0.00122355
1.20328e-05
0.00116497
9.01586e-06
0.0011095
1.12494e-06
0.00105629
-8.50276e-06
0.00100597
-1.44017e-05
0.00096154
-1.26634e-05
0.000927598
-7.19649e-09
0.000908308
2.29159e-05
0.000913561
5.50901e-05
0.000954748
9.02248e-05
0.00104114
0.000106111
0.00117253
7.36301e-05
0.00132836
-9.86522e-06
0.00149166
-0.000154227
0.00157822
-0.000315992
0.00123987
-0.000652564
-0.00184946
0.000180253
0.00200782
0.00166629
6.40966e-05
0.00263437
0.000882349
0.00330652
0.00126536
0.00382949
0.000995407
0.00417293
0.000628615
0.0043403
0.000331035
0.00435915
0.000120124
0.00422693
-5.29841e-06
0.00397108
-6.84746e-05
0.00363625
-0.000101541
0.00326239
-0.00011175
0.00288662
-0.000106859
0.00253962
-9.23866e-05
0.00224256
-7.1841e-05
0.00200599
-4.787e-05
0.00182985
-2.31647e-05
0.00170369
3.01227e-07
0.00162286
1.90133e-05
0.00157411
3.11219e-05
0.00154151
3.81353e-05
0.00151324
4.03374e-05
0.00148435
3.79512e-05
0.00145251
3.30035e-05
0.00141603
2.80274e-05
0.00137806
2.36103e-05
0.00134439
2.10405e-05
0.00132326
2.11623e-05
0.00131974
2.64763e-05
0.00134126
3.36059e-05
0.00139398
3.7546e-05
0.00147334
2.67799e-05
0.00155962
-1.26151e-05
0.00164636
-9.65723e-05
0.00171837
-0.00022621
0.00183145
-0.000429042
0.00189316
-0.00071425
6.29727e-05
0.00443915
-0.00316773
-0.00117404
-0.00113472
-0.000279382
0.000955919
0.00191834
0.00251127
0.00280409
0.00288362
0.00283566
0.00272313
0.00257678
0.00242
0.00226833
0.00213153
0.00201575
0.00192433
0.00185792
0.00181518
0.00179136
0.00177978
0.00177529
0.00177308
0.00176856
0.00175922
0.00174506
0.00172668
0.00170591
0.00168546
0.00167047
0.00166271
0.00165892
0.0016443
0.00159013
0.00145185
0.00118357
0.000711619
-4.61438e-05
)
;

boundaryField
{
    floor
    {
        type            calculated;
        value           nonuniform List<scalar> 
36
(
0
0
0
0
0
0
0
0
0
0
0
0
0
0
0
0
0
0
0
-1.36854e-07
1.00833e-06
2.78659e-06
4.76019e-06
5.71335e-06
6.33298e-06
7.06652e-06
7.20003e-07
1.35972e-06
1.34739e-06
1.583e-06
-3.39738e-07
2.29889e-06
-1.70758e-07
2.90339e-06
1.61787e-06
3.24512e-06
)
;
    }
    ceiling
    {
        type            calculated;
        value           nonuniform List<scalar> 
43
(
4.60979e-05
3.11126e-05
1.41487e-05
2.48101e-05
2.70356e-05
3.00873e-05
3.30237e-05
3.5713e-05
3.82549e-05
4.06264e-05
4.2699e-05
4.40899e-05
4.48508e-05
4.50579e-05
4.4858e-05
4.44422e-05
4.3983e-05
4.35863e-05
4.32877e-05
4.30792e-05
4.2872e-05
4.27426e-05
4.26651e-05
4.25974e-05
4.251e-05
4.23865e-05
4.22247e-05
4.20382e-05
4.18441e-05
4.16615e-05
4.15047e-05
4.14022e-05
4.13726e-05
4.14357e-05
4.1592e-05
4.17383e-05
4.2102e-05
4.29331e-05
4.35373e-05
4.44771e-05
2.66949e-05
2.18627e-05
5.13688e-06
)
;
    }
    sWall
    {
        type            calculated;
        value           uniform -0.0001559;
    }
    nWall
    {
        type            calculated;
        value           nonuniform List<scalar> 6(-1.69635e-05 -1.87195e-05 -2.15432e-05 -1.86253e-05 -1.92496e-05 -2.76273e-05);
    }
    sideWalls
    {
        type            empty;
        value           nonuniform 0();
    }
    glass1
    {
        type            calculated;
        value           nonuniform List<scalar> 9(-4.76376e-05 -0.000125823 -0.00018899 -0.00024084 -0.000284348 -0.0003216 -0.000355243 -0.000397185 -0.000445146);
    }
    glass2
    {
        type            calculated;
        value           nonuniform List<scalar> 2(-7.9246e-05 -8.82984e-05);
    }
    sun
    {
        type            calculated;
        value           uniform 0;
    }
    Table_master
    {
        type            calculated;
        value           nonuniform List<scalar> 9(-1.51387e-07 -1.51342e-07 -1.5129e-07 -1.51243e-07 -1.51202e-07 -1.51163e-07 -1.5112e-07 -1.51068e-07 -1.50976e-07);
    }
    Table_slave
    {
        type            calculated;
        value           nonuniform List<scalar> 9(1.50435e-07 1.50479e-07 1.50514e-07 1.50549e-07 1.50584e-07 1.5062e-07 1.50658e-07 1.50701e-07 1.50728e-07);
    }
    inlet
    {
        type            calculated;
        value           uniform -0.00207791;
    }
    outlet
    {
        type            calculated;
        value           nonuniform List<scalar> 2(-0.00432932 0.00757579);
    }
}


// ************************************************************************* //
