/*--------------------------------*- C++ -*----------------------------------*=========                 |
  \      /  F ield         | OpenFOAM: The Open Source CFD Toolbox
   \    /   O peration     | Website:  https://openfoam.org
    \  /    A nd           | Version:  6
     \/     M anipulation  |
\*---------------------------------------------------------------------------*/
FoamFile
{
    version     2.0;
    format      ascii;
    class       volScalarField;
    location    "1600";
    object      PPD;
}
// * * * * * * * * * * * * * * * * * * * * * * * * * * * * * * * * * * * * * //

dimensions      [0 0 0 0 0 0 0];

internalField   nonuniform List<scalar> 
458
(
97.81004110279204
96.52556166642424
96.51753116577054
96.491525133459
96.46145040184736
96.44055319598834
96.42195254654338
96.41263384713322
96.40622085032058
96.41125968850777
96.41696523857352
96.42418250213163
96.4422827832561
96.45414056127493
96.32333008985275
86.50549211015145
85.86659151249548
85.10706525875776
84.83127922664319
85.12420233752135
85.46447812457968
85.51511375735704
85.44757603082768
85.3967991319732
85.34591635373528
85.27790805431565
85.14132768961397
85.14132768961397
85.3967991319732
86.04861935696009
86.60218217231201
87.18896657742683
87.95596267450168
98.3622246797762
96.83389090759141
96.84351381319665
96.84088359281321
96.8576503078799
96.87119124446389
96.88641114053884
96.8963937645695
96.90120289247253
96.89528089788755
96.872984024591
96.82316087007618
96.73050336146918
96.56852371536783
96.28564631506526
96.08554876752866
95.90961072872827
95.18167212100222
88.40181636410853
88.47507913112261
88.38712794588054
88.38712794588054
88.28397425360207
88.25439416209407
88.10577627805199
88.01603159931501
87.9860210502539
88.04599432075435
88.25439416209407
88.62070816058971
89.05042713895152
89.7292203908825
90.57289419538256
90.64951024188998
90.70035257063161
91.44053231739291
98.87813705161955
97.07191775582812
97.09404467244165
97.12306371781438
97.18495118227953
97.2523671485704
97.30779854588651
97.35653186445431
97.39323266416596
97.40775385121154
97.40035725007183
97.34808904077109
97.22898500459397
97.02401478777013
96.71214509064893
96.33944169261667
95.87175326985138
95.41651145527001
91.64905698278592
91.95676705626491
92.25140312743555
92.46185835169462
92.13899306818762
90.24909717115173
90.4700806307216
90.81406117213918
91.17400681886426
91.55982503117772
91.97970521863745
92.45088349516986
93.07923418760831
93.8983827410309
94.72935391447807
94.57549661541472
94.26681298911076
93.54742722334137
100.0
97.3413884138085
97.30066070369254
97.33562635881306
97.44544221888818
97.54993487814467
97.6490535052853
97.73824889992386
97.8087990499477
97.85297921861942
97.86705003594173
97.83102897714892
97.72633083682564
97.53822105637065
97.24377782782915
96.81606812537927
96.19443537802994
95.30643623249073
94.41770011247134
93.91090502186782
94.66738198833976
95.21113958105158
95.54848757971658
95.70811736387056
95.83415437179204
95.87067849896482
95.9140720426032
95.95976688265155
96.01556815763662
96.07621219519808
96.14765200737934
96.1735457809382
96.14696783152455
95.99135883968398
95.94997817727605
95.86622997984408
95.33472103247202
100.0
97.66859996413059
97.49034886940547
97.49959440766588
97.62941968117225
97.76015325494659
97.88994188648951
98.00980665165396
98.1080497572482
98.18314138362571
98.22070690581666
98.20931781242723
98.14432945305686
98.01346867194755
97.80812171663115
97.52288620921632
97.15284854448657
96.74009116955241
96.38418197030393
96.14649800299398
96.12833485468852
96.17519646126266
96.20583621141485
96.20130150056154
96.19661628495085
96.18384171248893
96.19252155044099
96.20876687267021
96.23904978403363
96.28316330164884
96.33547521539425
96.3901732696259
96.44372580651624
96.44404435657343
96.46965679188133
96.4938943004645
96.48149688831451
96.36413107788177
96.16514870883734
96.16840999418496
100.0
98.04783700880132
97.78221110613286
97.68331713410217
97.77016790466715
97.90764828863884
98.05062417641115
98.1887155295616
98.30847647417374
98.40623026042043
98.45744349682006
98.45978435660183
98.41680812206873
98.33012311747383
98.19006090022158
97.99870049576016
97.75496881151422
97.48547727066193
97.23044725292672
97.02621107917545
96.8860228780716
96.79410578156732
96.7100253743198
96.63762571725339
96.57314514958173
96.52022003302612
96.48516409235427
96.46170493871044
96.45517208031902
96.46390842950402
96.47969573376614
96.49968195860734
96.52533085577079
96.53198865581399
96.5476762021037
96.57157502872452
96.62451163221829
96.66474404238868
96.592659569187
96.1764151746902
100.0
98.56768303062421
98.38878559457845
98.11557186672853
98.01834364196529
98.07843052444663
98.2011352630966
98.33988144023162
98.44587080027569
98.54625607568512
98.57339603146477
98.5767010840532
98.54682757868568
98.49035166519586
98.39981158769193
98.27771644102552
98.12051371358211
97.95111572869305
97.78173644645598
97.62961825199318
97.47157196056823
97.31009784384379
97.16667628882365
97.04434353798436
96.94014297066208
96.85015086014407
96.77549997236449
96.71713080400212
96.66983831022476
96.64599177125699
96.64000919662404
96.64143356581359
96.61373211306199
96.58371705501521
96.54588022569448
96.51286639894026
96.49356372815969
96.4948932459641
96.50053747420456
95.99634613204077
100.0
100.0
100.0
98.90517918582533
98.66125721342172
98.52172166162622
98.46923717273398
98.47358765725805
98.51330445797036
98.5699087892468
98.60690976298744
98.60561702033925
98.5719020559465
98.52082131766032
98.44820074423713
98.36709794505784
98.27091933140198
98.16771127090266
98.05794834222323
97.94537989194073
97.8009488958387
97.64769032427921
97.50479549205502
97.36974985225636
97.24936272375292
97.1404327289801
97.0389307082109
96.9512469844561
96.86718215691191
96.80437556422814
96.75807593742908
96.74057765953398
96.74641867981505
96.76208749508221
96.65689079454756
96.55537249335629
96.45675691328307
96.39183333934281
96.31406533130455
96.11991059618234
100.0
100.0
100.0
100.0
100.0
100.0
99.01054589046166
98.90320702173337
98.83493002642764
98.77096631073557
98.70212311844922
98.62497291189496
98.54949374142507
98.47310762327774
98.39652013262078
98.32779583854398
98.25675187818416
98.18700790281036
98.10943806649257
98.02077016691486
97.91833545560516
97.80989976871729
97.70518361263318
97.59695426950738
97.49975597823413
97.40892225757352
97.30005087497771
97.20309313047248
97.10336569825331
97.01720037683698
96.9345789337489
96.87284301688472
96.83304633919057
96.8101260762708
96.80437556422814
96.8101260762708
96.8101260762708
96.8101260762708
96.67942048634308
96.14276998263571
30.285586255402563
94.49906291696257
97.59205731950127
98.22108690739402
98.41384964281046
98.47175696078484
98.47471816038318
98.45305879107296
98.41794040024746
98.37276904948551
98.32125554990034
98.27119618338747
98.22283565434807
98.18016056624789
98.14293506807606
98.10221817688881
98.05641869821802
97.99940997286124
97.9298281012742
97.8516634615569
97.76527251891027
97.67114939534608
97.57893712493048
97.48456268681745
97.39795941857342
97.30462447976814
97.21906565196177
97.13011068332486
97.046010184493
96.9597400031168
96.87256893684926
96.78910866177313
96.71918662955541
96.66251723646634
96.59604834174822
96.53220387370851
96.42509968740627
96.32283402425831
48.24319098410493
90.82343476909688
95.61268586534737
97.02879186735477
97.57412676849331
97.80004071282713
97.8957481220825
97.93001855557269
97.9456239081415
97.95346412646788
97.95730110246143
97.95592232894126
97.95720320846353
97.9508546608144
97.93994261474957
97.92309882298032
97.89923673613643
97.85886495258666
97.81185032331763
97.75257645467751
97.68537312443628
97.60560040221205
97.52290150931073
97.4325823725172
97.34022637701224
97.24061408390571
97.14438235741135
97.04011172130585
96.93951109780396
96.84200051354253
96.7455010754279
96.65226791349738
96.56698093436606
96.49188978937435
96.41852424935806
96.35284637289233
96.22613060428036
96.17965008405652
100.0
94.12383431945084
70.94436963237771
93.17318369521132
95.56570329630152
96.794869444135
97.17938958761087
97.33061227966115
97.39584254675991
97.41521027711131
97.41714853591354
97.42725040813978
97.44249730136035
97.45555330072816
97.47087520407148
97.4764255175029
97.48241381073825
97.482631847662
97.46567170137246
97.448190241302
97.41516095476672
97.37615335161642
97.32480349324642
97.26645893773996
97.1887372075692
97.10917024229667
97.0154336265598
96.9195893295859
96.81496816693202
96.70106451878135
96.5848255603544
96.46615188424471
96.34471286470777
96.23438217355576
96.12059435464428
96.02815573102323
95.94291649674578
95.86566792125686
95.70088656605394
95.14935069620216
)
;

boundaryField
{
    ".*"
    {
        type            zeroGradient;
    }
}


// ************************************************************************* //
