/*--------------------------------*- C++ -*----------------------------------*\
  =========                 |
  \\      /  F ield         | OpenFOAM: The Open Source CFD Toolbox
   \\    /   O peration     | Website:  https://openfoam.org
    \\  /    A nd           | Version:  6
     \\/     M anipulation  |
\*---------------------------------------------------------------------------*/
FoamFile
{
    version     2.0;
    format      ascii;
    class       volVectorField;
    location    "1600";
    object      U;
}
// * * * * * * * * * * * * * * * * * * * * * * * * * * * * * * * * * * * * * //

dimensions      [0 1 -1 0 0 0 0];

internalField   nonuniform List<vector> 
458
(
(0.0714655 0.062533 0)
(-0.124729 0.00682006 0)
(-0.119073 0.00791906 0)
(-0.135513 0.00748509 0)
(-0.150482 0.00576505 0)
(-0.163251 0.00355443 0)
(-0.173181 0.000958976 0)
(-0.179725 -0.00207456 0)
(-0.182283 -0.0056498 0)
(-0.180026 -0.0099162 0)
(-0.171714 -0.0152897 0)
(-0.15496 -0.0222244 0)
(-0.128025 -0.0322 0)
(-0.0978479 -0.0484324 0)
(-0.0919491 -0.0722888 0)
(0.0240789 -0.00463146 0)
(-0.000309078 0.00141922 0)
(-0.00434006 0.00148346 0)
(-0.00204022 0.000213051 0)
(-0.000884297 -0.000118207 0)
(0.00105249 -0.00228364 0)
(0.00396955 -0.00228619 0)
(0.00690824 -0.00202229 0)
(0.00925666 -0.00186775 0)
(0.011098 -0.00187027 0)
(0.0125271 -0.00186834 0)
(0.0134275 -0.00152644 0)
(0.0125121 -0.00028624 0)
(0.01017 0.00174174 0)
(0.00654405 0.00413463 0)
(0.00407737 0.00536721 0)
(-0.00237158 0.003641 0)
(-0.0145168 -0.0035326 0)
(0.244765 0.134228 0)
(-0.138481 0.0264064 0)
(-0.103978 0.0259082 0)
(-0.124145 0.0247722 0)
(-0.139715 0.0220369 0)
(-0.15292 0.0184925 0)
(-0.163464 0.014205 0)
(-0.170998 0.00903854 0)
(-0.175018 0.00280585 0)
(-0.174804 -0.00468923 0)
(-0.16989 -0.0133406 0)
(-0.159658 -0.0232393 0)
(-0.144962 -0.0356045 0)
(-0.131124 -0.0528359 0)
(-0.122713 -0.071471 0)
(-0.0989498 -0.0679094 0)
(-0.0646901 -0.0731191 0)
(0.0811332 0.00330073 0)
(0.00537707 0.00179029 0)
(-0.00989836 0.00782422 0)
(-0.0118203 0.00503232 0)
(-0.0134524 0.00191723 0)
(-0.0139957 -0.000892478 0)
(-0.0131561 -0.00470323 0)
(-0.0114648 -0.00356691 0)
(-0.0103542 -0.00217501 0)
(-0.0103769 -0.000980187 0)
(-0.0109404 0.000365404 0)
(-0.0121998 0.00217001 0)
(-0.0142234 0.00437766 0)
(-0.0158269 0.00635148 0)
(-0.0163718 0.00670252 0)
(-0.0136537 0.00360263 0)
(-0.00856971 0.00372456 0)
(-0.00809259 0.00307566 0)
(0.0297379 -0.00351511 0)
(0.394296 0.204137 0)
(-0.174705 0.0519138 0)
(-0.0831366 0.0454539 0)
(-0.107162 0.0400859 0)
(-0.121318 0.0346673 0)
(-0.133441 0.0284313 0)
(-0.143347 0.0210947 0)
(-0.150773 0.0124318 0)
(-0.15523 0.00230063 0)
(-0.155997 -0.0092195 0)
(-0.152675 -0.0219226 0)
(-0.145633 -0.0354388 0)
(-0.136398 -0.049696 0)
(-0.128049 -0.0641074 0)
(-0.120596 -0.0739467 0)
(-0.107372 -0.0731361 0)
(-0.0923354 -0.079257 0)
(-0.0891881 -0.0756208 0)
(-0.0479283 0.0301721 0)
(-0.033673 0.0117025 0)
(-0.0341579 0.00502971 0)
(-0.0323332 -0.000581045 0)
(-0.0293117 -0.00583041 0)
(-0.0238983 -0.00787452 0)
(-0.0317138 -0.00749924 0)
(-0.0351619 -0.00651808 0)
(-0.0374269 -0.00582968 0)
(-0.038728 -0.00528447 0)
(-0.0389362 -0.00480511 0)
(-0.038152 -0.00451548 0)
(-0.0366976 -0.00507953 0)
(-0.0322654 -0.0078064 0)
(-0.0205674 -0.0123505 0)
(-0.010467 -0.00739199 0)
(-0.00675527 -0.00314987 0)
(0.0547778 0.000856814 0)
(0.518037 0.262038 0)
(-0.216141 0.080165 0)
(-0.0584493 0.0634651 0)
(-0.0870771 0.0540259 0)
(-0.0987209 0.0468169 0)
(-0.10862 0.038966 0)
(-0.117023 0.0297834 0)
(-0.123673 0.0188354 0)
(-0.128049 0.00583874 0)
(-0.129243 -0.00913707 0)
(-0.126816 -0.0253129 0)
(-0.121958 -0.0415139 0)
(-0.116469 -0.0567699 0)
(-0.112547 -0.0697671 0)
(-0.110576 -0.0777881 0)
(-0.110058 -0.079499 0)
(-0.116084 -0.0772329 0)
(-0.132432 -0.060075 0)
(-0.129699 -0.0150574 0)
(-0.093464 0.0166741 0)
(-0.0737324 0.00659735 0)
(-0.0665977 0.00127339 0)
(-0.0643602 -0.00329088 0)
(-0.0646605 -0.00687249 0)
(-0.0634831 -0.00596271 0)
(-0.0587415 -0.00545951 0)
(-0.0541818 -0.00570197 0)
(-0.049541 -0.0060024 0)
(-0.0447368 -0.0064008 0)
(-0.0396217 -0.00697402 0)
(-0.033647 -0.00788048 0)
(-0.0257849 -0.00951818 0)
(-0.0161899 -0.0127417 0)
(-0.0130074 -0.0184248 0)
(-0.00970903 -0.0162288 0)
(-0.00638627 -0.0108389 0)
(0.0635374 0.00950259 0)
(0.615943 0.30946 0)
(-0.253096 0.108585 0)
(-0.0335969 0.0758053 0)
(-0.0640854 0.0642973 0)
(-0.073028 0.0558833 0)
(-0.0797419 0.046836 0)
(-0.085456 0.0363167 0)
(-0.0900469 0.0236591 0)
(-0.093062 0.00838954 0)
(-0.0931954 -0.0094432 0)
(-0.0902304 -0.0282697 0)
(-0.0859721 -0.0456981 0)
(-0.082172 -0.0601869 0)
(-0.0803504 -0.0707087 0)
(-0.0808456 -0.0762923 0)
(-0.0836762 -0.0770942 0)
(-0.0899795 -0.073345 0)
(-0.0972034 -0.0603033 0)
(-0.0957467 -0.0335787 0)
(-0.0840951 -0.012471 0)
(-0.0710007 -0.00527409 0)
(-0.0626835 -0.0040925 0)
(-0.0581073 -0.00519604 0)
(-0.0558171 -0.00633436 0)
(-0.0537838 -0.00586322 0)
(-0.0510978 -0.00587442 0)
(-0.0483122 -0.00602562 0)
(-0.0455038 -0.00627446 0)
(-0.0426544 -0.00665775 0)
(-0.0397186 -0.00729811 0)
(-0.0364953 -0.00844948 0)
(-0.0326757 -0.0106142 0)
(-0.0285554 -0.0145555 0)
(-0.025438 -0.0204284 0)
(-0.0226474 -0.0232938 0)
(-0.0166075 -0.0239597 0)
(0.00846677 -0.0163625 0)
(0.0253063 -0.0534983 0)
(0.0616144 -0.0649167 0)
(-0.0803555 -0.0469795 0)
(0.67817 0.351509 0)
(-0.281844 0.132777 0)
(-0.0162825 0.0765434 0)
(-0.0358514 0.0707375 0)
(-0.0426937 0.0625451 0)
(-0.0465019 0.0517407 0)
(-0.0487358 0.03988 0)
(-0.0499454 0.0260459 0)
(-0.0501167 0.00916363 0)
(-0.0468862 -0.0110768 0)
(-0.0423933 -0.0319683 0)
(-0.0384583 -0.0495986 0)
(-0.0362958 -0.0625062 0)
(-0.0366508 -0.0704571 0)
(-0.0395274 -0.0735595 0)
(-0.0446899 -0.0722747 0)
(-0.0518237 -0.0663784 0)
(-0.0582393 -0.0538546 0)
(-0.0595036 -0.0354304 0)
(-0.0549798 -0.0203454 0)
(-0.0485908 -0.0126319 0)
(-0.0438507 -0.00929984 0)
(-0.041094 -0.00841687 0)
(-0.0397715 -0.00835103 0)
(-0.0389304 -0.00806755 0)
(-0.0380349 -0.00803165 0)
(-0.0371177 -0.00817705 0)
(-0.0362497 -0.00840118 0)
(-0.0355321 -0.00869319 0)
(-0.0351147 -0.00916741 0)
(-0.0351376 -0.0101195 0)
(-0.0357415 -0.0121114 0)
(-0.0372248 -0.015814 0)
(-0.0397528 -0.0211462 0)
(-0.041946 -0.0265396 0)
(-0.0404473 -0.0319217 0)
(-0.030686 -0.0359962 0)
(-0.0173725 -0.040575 0)
(0.0441048 -0.00298229 0)
(-0.0938614 0.0507412 0)
(0.699385 0.389553 0)
(-0.292574 0.128975 0)
(-0.000585376 0.0416948 0)
(0.0110335 0.0691293 0)
(0.00359551 0.0724356 0)
(-0.00165523 0.0559494 0)
(-0.00130325 0.040101 0)
(0.00115367 0.0246787 0)
(0.00414227 0.00575635 0)
(0.0130473 -0.0168002 0)
(0.018112 -0.0372507 0)
(0.0201287 -0.0527564 0)
(0.0192126 -0.0628753 0)
(0.0155388 -0.0680652 0)
(0.00954693 -0.0689119 0)
(0.00170496 -0.0659827 0)
(-0.00725347 -0.0593436 0)
(-0.0149862 -0.0487263 0)
(-0.0192705 -0.0353632 0)
(-0.0197363 -0.0235979 0)
(-0.0184893 -0.0158707 0)
(-0.0175171 -0.0114792 0)
(-0.0173666 -0.00941066 0)
(-0.0179215 -0.0085861 0)
(-0.0187606 -0.00823121 0)
(-0.0196027 -0.00818814 0)
(-0.0204302 -0.00827955 0)
(-0.0213215 -0.00832866 0)
(-0.0224505 -0.00821827 0)
(-0.0241451 -0.00797304 0)
(-0.0268987 -0.00783845 0)
(-0.0314174 -0.00839818 0)
(-0.0385095 -0.0104645 0)
(-0.0485294 -0.0144032 0)
(-0.0605965 -0.0198801 0)
(-0.0723979 -0.0268336 0)
(-0.0796452 -0.0344777 0)
(-0.0783982 -0.0365329 0)
(-0.0767452 -0.00755039 0)
(-0.141398 0.0971631 0)
(0.790494 0.40487 0)
(-0.111491 0.104749 0)
(0.0728753 -0.0399692 0)
(0.119402 0.0127735 0)
(0.0996187 0.0424752 0)
(0.0826816 0.0358426 0)
(0.0795417 0.022118 0)
(0.0812452 0.00806306 0)
(0.0845633 -0.00954463 0)
(0.0908473 -0.026771 0)
(0.0917125 -0.041432 0)
(0.0881065 -0.0522081 0)
(0.0812742 -0.0587751 0)
(0.072184 -0.0613753 0)
(0.0616766 -0.0604365 0)
(0.0504621 -0.0564843 0)
(0.0392445 -0.0500125 0)
(0.0291627 -0.0413162 0)
(0.0215699 -0.0312967 0)
(0.0169303 -0.0220457 0)
(0.0141747 -0.0150831 0)
(0.0120277 -0.0105451 0)
(0.0098956 -0.00802043 0)
(0.00764735 -0.00685576 0)
(0.00538376 -0.00643459 0)
(0.00320142 -0.00639636 0)
(0.00110839 -0.0064684 0)
(-0.000968094 -0.00638087 0)
(-0.00310069 -0.00586872 0)
(-0.00554982 -0.00475598 0)
(-0.00870068 -0.00302719 0)
(-0.0131574 -0.000858026 0)
(-0.0201224 0.00113214 0)
(-0.0318323 0.00142295 0)
(-0.0504567 -0.00234736 0)
(-0.0765982 -0.0126046 0)
(-0.106019 -0.0302846 0)
(-0.131148 -0.0532523 0)
(-0.170383 -0.0795914 0)
(-0.325525 -0.110861 0)
(0.915893 0.396777 0)
(0.427806 0.264252 0)
(0.427169 0.170727 0)
(0.425103 0.155463 0)
(0.34589 0.131474 0)
(0.283113 0.0974921 0)
(0.24932 0.0654626 0)
(0.228917 0.0378495 0)
(0.214374 0.0134239 0)
(0.196538 -0.00862618 0)
(0.178248 -0.0255356 0)
(0.160248 -0.0367948 0)
(0.1427 -0.0430658 0)
(0.125711 -0.045305 0)
(0.109452 -0.044313 0)
(0.0941394 -0.0407486 0)
(0.080057 -0.035239 0)
(0.0676709 -0.0284233 0)
(0.0575898 -0.0211158 0)
(0.0500894 -0.0144066 0)
(0.0446268 -0.00906169 0)
(0.0403573 -0.00534547 0)
(0.0367267 -0.00313394 0)
(0.0334724 -0.00206133 0)
(0.0304766 -0.00168899 0)
(0.0276729 -0.00167196 0)
(0.0250381 -0.00174806 0)
(0.0225537 -0.00166193 0)
(0.0202073 -0.00114982 0)
(0.0179782 2.83121e-05 0)
(0.015969 0.00201699 0)
(0.0144398 0.00498153 0)
(0.0131318 0.0087889 0)
(0.0122563 0.0127641 0)
(0.0116557 0.0156116 0)
(0.0110702 0.0164029 0)
(0.0125641 0.0149171 0)
(0.0156541 0.00608451 0)
(0.030897 -0.0378931 0)
(-0.209554 -0.14113 0)
(-0.735415 -0.0337116 0)
(0.221107 0.118062 0)
(0.21824 0.119024 0)
(0.213316 0.099781 0)
(0.219669 0.0742629 0)
(0.222379 0.0486943 0)
(0.219242 0.0273202 0)
(0.211782 0.0117836 0)
(0.200689 -5.94272e-05 0)
(0.186944 -0.00931866 0)
(0.17119 -0.0159084 0)
(0.154202 -0.0197588 0)
(0.136887 -0.0209309 0)
(0.120112 -0.0197011 0)
(0.104652 -0.0165479 0)
(0.0911593 -0.0120978 0)
(0.0801122 -0.00711104 0)
(0.0716875 -0.00243783 0)
(0.0655165 0.00145885 0)
(0.060936 0.00418366 0)
(0.057403 0.00561388 0)
(0.0544869 0.00598857 0)
(0.0518736 0.0058036 0)
(0.0494098 0.00534522 0)
(0.0470588 0.0047096 0)
(0.0447992 0.00423706 0)
(0.0427052 0.00423466 0)
(0.0409365 0.00492111 0)
(0.0397908 0.00610821 0)
(0.0393984 0.00797821 0)
(0.0403101 0.0103412 0)
(0.0430172 0.0121996 0)
(0.0477077 0.0117973 0)
(0.0538469 0.00755018 0)
(0.0614743 -0.00183045 0)
(0.066958 -0.0145527 0)
(0.0733947 -0.0422104 0)
(-0.0144191 -0.108987 0)
(-0.379369 0.0932746 0)
(0.167421 0.0394579 0)
(0.109759 0.046786 0)
(0.125054 0.0534107 0)
(0.153428 0.0363203 0)
(0.174668 0.0095272 0)
(0.186493 -0.0175633 0)
(0.190565 -0.0421692 0)
(0.188237 -0.0623635 0)
(0.179652 -0.0749956 0)
(0.166419 -0.0821386 0)
(0.150522 -0.0852806 0)
(0.133775 -0.0856208 0)
(0.117698 -0.0842197 0)
(0.103445 -0.0820113 0)
(0.0917142 -0.0797342 0)
(0.0827145 -0.0778677 0)
(0.0762411 -0.0765618 0)
(0.0719009 -0.0748102 0)
(0.0692144 -0.0734608 0)
(0.0675691 -0.0726948 0)
(0.0663435 -0.0724764 0)
(0.065162 -0.0727557 0)
(0.063871 -0.0733058 0)
(0.0623817 -0.0737875 0)
(0.0607329 -0.0740865 0)
(0.0591214 -0.0741287 0)
(0.0578805 -0.0738304 0)
(0.0572822 -0.0728508 0)
(0.0576104 -0.0713339 0)
(0.0591448 -0.0697972 0)
(0.0619391 -0.0694578 0)
(0.0657073 -0.0712499 0)
(0.0698787 -0.0730764 0)
(0.0735724 -0.0743109 0)
(0.075367 -0.0742966 0)
(0.091828 -0.0810156 0)
(0.00821713 -0.139307 0)
(0.728272 0.190162 0)
(0.0561867 -0.31911 0)
(-0.310646 0.131775 0)
(0.0166872 0.106879 0)
(-0.0289446 0.128072 0)
(0.0210357 0.150221 0)
(0.0631228 0.152642 0)
(0.0956853 0.15723 0)
(0.116409 0.16898 0)
(0.12542 0.187284 0)
(0.125814 0.208281 0)
(0.121943 0.223805 0)
(0.115828 0.234883 0)
(0.108867 0.242307 0)
(0.10191 0.246839 0)
(0.0954701 0.249411 0)
(0.0898715 0.250999 0)
(0.0853153 0.252345 0)
(0.0818934 0.253787 0)
(0.0795555 0.255297 0)
(0.0781423 0.254967 0)
(0.0774521 0.254324 0)
(0.0771919 0.253855 0)
(0.0771131 0.253647 0)
(0.0770151 0.253751 0)
(0.0767442 0.254029 0)
(0.0762352 0.254217 0)
(0.07551 0.254298 0)
(0.0746296 0.254273 0)
(0.0736941 0.254109 0)
(0.0728575 0.253444 0)
(0.0722957 0.252339 0)
(0.0720345 0.251017 0)
(0.0717905 0.250242 0)
(0.0706152 0.250287 0)
(0.0667999 0.246873 0)
(0.0581012 0.240636 0)
(0.0419712 0.232055 0)
(0.0894783 0.230252 0)
(-0.278262 0.377473 0)
)
;

boundaryField
{
    floor
    {
        type            noSlip;
    }
    ceiling
    {
        type            noSlip;
    }
    sWall
    {
        type            noSlip;
    }
    nWall
    {
        type            noSlip;
    }
    sideWalls
    {
        type            empty;
    }
    glass1
    {
        type            noSlip;
    }
    glass2
    {
        type            noSlip;
    }
    sun
    {
        type            noSlip;
    }
    Table_master
    {
        type            noSlip;
    }
    Table_slave
    {
        type            noSlip;
    }
    inlet
    {
        type            fixedValue;
        value           uniform (0.114805 -0.277164 0);
    }
    outlet
    {
        type            zeroGradient;
    }
}


// ************************************************************************* //
