/*--------------------------------*- C++ -*----------------------------------*\
  =========                 |
  \\      /  F ield         | OpenFOAM: The Open Source CFD Toolbox
   \\    /   O peration     | Website:  https://openfoam.org
    \\  /    A nd           | Version:  6
     \\/     M anipulation  |
\*---------------------------------------------------------------------------*/
FoamFile
{
    version     2.0;
    format      ascii;
    class       volScalarField;
    location    "600";
    object      nut;
}
// * * * * * * * * * * * * * * * * * * * * * * * * * * * * * * * * * * * * * //

dimensions      [0 2 -1 0 0 0 0];

internalField   nonuniform List<scalar> 
458
(
0.000970595
0.00105091
0.00105652
0.00110569
0.00115249
0.00119666
0.00123998
0.00128497
0.00132461
0.00135407
0.00136894
0.00136435
0.00133696
0.00128746
0.0012212
0.000463884
0.000577229
0.000648174
0.000642169
0.000620574
0.000585017
0.000547682
0.000513812
0.000483906
0.000457503
0.000434168
0.000413518
0.000394875
0.000377524
0.000360546
0.000342436
0.000324706
0.000291836
0.00137474
0.00319561
0.00303518
0.0035887
0.00407087
0.00454158
0.00496729
0.0052998
0.00559433
0.00585951
0.00606698
0.0061705
0.00609699
0.00568543
0.00439515
0.00129924
0.00104765
0.000785981
0.000495634
0.00106608
0.0014429
0.0016867
0.00175234
0.00140445
0.00122313
0.00109317
0.000993935
0.000915967
0.000852184
0.000793644
0.000737312
0.000681195
0.000633264
0.000595653
0.00066592
0.000359598
0.00172732
0.00449503
0.00363409
0.00493934
0.0055622
0.00598365
0.00627757
0.00647679
0.00665661
0.0068509
0.00705068
0.00722476
0.00732545
0.00729159
0.00699578
0.00603814
0.00488217
0.00105404
0.000982001
0.00142235
0.00181438
0.00211606
0.00216798
0.0008041
0.000713902
0.000638854
0.000577466
0.000527333
0.000486244
0.000452505
0.000424914
0.000402912
0.000433436
0.000495851
0.000731342
0.000404177
0.00208413
0.00616215
0.00379424
0.00524681
0.00610329
0.00644198
0.00655654
0.00656537
0.0066072
0.00672574
0.00690954
0.00712757
0.0073314
0.00747657
0.00751411
0.00732333
0.00667362
0.00437205
0.0013598
0.00171231
0.00221713
0.00266694
0.00295887
0.00288435
0.000873015
0.000796648
0.000744353
0.000706165
0.000674867
0.000645279
0.000617736
0.000589112
0.000555703
0.000521348
0.000516663
0.000777137
0.000445521
0.00245826
0.00835769
0.00502149
0.00509967
0.00606109
0.00652235
0.00663453
0.00648432
0.0064524
0.0065303
0.00670429
0.0069426
0.00717895
0.00734385
0.00739178
0.00729707
0.00699638
0.00631612
0.00526691
0.00487896
0.0047006
0.00455829
0.00438898
0.00413679
0.0035223
0.00323713
0.00310248
0.00301684
0.00292533
0.00278526
0.00252935
0.00218123
0.0017636
0.00132321
0.000980542
0.000880182
0.000664377
0.000516806
0.000545114
0.000565196
0.00284552
0.0106766
0.00796745
0.00628884
0.00623349
0.00647821
0.00661724
0.00654406
0.00650272
0.00653945
0.00668243
0.00691561
0.00715914
0.00730661
0.00728217
0.00708007
0.00676676
0.0064395
0.00614888
0.00594245
0.00569375
0.00536855
0.00501005
0.00466508
0.00435715
0.00417524
0.00406468
0.00396999
0.0038621
0.00372189
0.00349628
0.00315559
0.00269766
0.0021478
0.00162846
0.00123003
0.000930957
0.000904323
0.00127678
0.000756412
0.00316342
0.0119862
0.0107814
0.00891556
0.00808953
0.0075988
0.00726099
0.00696337
0.00675821
0.00670517
0.00682854
0.00707712
0.00733022
0.00744804
0.00734112
0.00702151
0.00662582
0.00635302
0.00624252
0.0061021
0.00579212
0.00535162
0.00488895
0.00449618
0.00423265
0.00409885
0.0040241
0.00395655
0.00387765
0.00378464
0.00367349
0.00347049
0.00312871
0.00266716
0.00218282
0.00174349
0.00138717
0.00124803
0.00149064
0.000921671
0.00318085
0.00979425
0.00833283
0.00821519
0.00818541
0.00788376
0.00745049
0.00705912
0.0068395
0.00686226
0.00709753
0.00742639
0.00768564
0.00772732
0.00749051
0.00703688
0.0065659
0.00627803
0.00609371
0.00574027
0.00522468
0.00468064
0.00422762
0.00392072
0.00375
0.00366399
0.00360759
0.00355414
0.00350092
0.00345655
0.00343299
0.00342103
0.00327302
0.00295655
0.00264383
0.00241478
0.00233293
0.00232838
0.00288355
0.00128017
0.00306972
0.00344316
0.00434234
0.00462404
0.00490124
0.00520726
0.0055549
0.00597623
0.00649318
0.00710026
0.00766779
0.0080702
0.00820132
0.0079928
0.00749103
0.00686112
0.00635278
0.00588588
0.00536018
0.00476761
0.00421027
0.00377787
0.00348911
0.00331055
0.00319601
0.00310713
0.00301988
0.00292507
0.00282165
0.00270947
0.00258512
0.00244196
0.00229747
0.00216352
0.00206896
0.00202362
0.00199134
0.00192967
0.0018461
0.00126384
0.0045417
0.00813164
0.00782933
0.00797934
0.00838021
0.00889626
0.0092847
0.0093679
0.00924065
0.0089489
0.00847307
0.00777217
0.00690613
0.00606254
0.00532157
0.00465854
0.00410869
0.00367404
0.00335281
0.00312422
0.00295614
0.00282012
0.00269679
0.0025749
0.00245002
0.00232399
0.00220344
0.0020977
0.002016
0.00196682
0.00193852
0.00192117
0.00191279
0.00189901
0.00184643
0.0017259
0.00155535
0.00107983
0.00281659
0.00813102
0.00860047
0.00847627
0.00865171
0.0088382
0.00883152
0.00860443
0.00819426
0.00764002
0.00695805
0.00617824
0.00538128
0.00465247
0.00409276
0.00374281
0.00354503
0.00341969
0.00330793
0.00318252
0.00305052
0.00290683
0.00275159
0.00259024
0.00243135
0.00228427
0.00215696
0.00205434
0.00197702
0.00193593
0.00192807
0.0019461
0.00197694
0.00199673
0.00198986
0.00196265
0.00203914
0.00110369
0.00178271
0.00197524
0.00213048
0.00213186
0.00213709
0.00217245
0.00213258
0.0020103
0.00183989
0.0016655
0.00150918
0.0013677
0.00123381
0.00111043
0.00101013
0.000939129
0.000893443
0.000864069
0.000842902
0.000825595
0.000810608
0.000798487
0.000786465
0.000775566
0.000767251
0.000763006
0.000764024
0.000771068
0.000784564
0.000804878
0.000832736
0.000865825
0.000903723
0.000947
0.000995871
0.001048
0.0011027
0.00108958
0.00101182
0.000944526
)
;

boundaryField
{
    floor
    {
        type            nutkWallFunction;
        Cmu             0.09;
        kappa           0.41;
        E               9.8;
        value           nonuniform List<scalar> 
36
(
0.000146459
5.50609e-05
6.94846e-05
7.83291e-05
7.75829e-05
7.4899e-05
7.0457e-05
6.57576e-05
6.14601e-05
5.76365e-05
5.42362e-05
5.12106e-05
4.85159e-05
4.60684e-05
4.37773e-05
4.15224e-05
3.91018e-05
3.67161e-05
3.22463e-05
3.22462e-05
4.13972e-05
4.72937e-05
5.26881e-05
6.1846e-05
6.54384e-05
6.79728e-05
0.000146459
0.000155409
0.000126318
9.51903e-05
5.50609e-05
9.51903e-05
5.91437e-05
0.00012706
0.000118614
0.000162305
)
;
    }
    ceiling
    {
        type            nutkWallFunction;
        Cmu             0.09;
        kappa           0.41;
        E               9.8;
        value           nonuniform List<scalar> 
43
(
0.000209568
0.000230677
0.000247539
0.000247728
0.00024831
0.000252145
0.000247842
0.000234571
0.000215926
0.000196652
0.00017919
0.000163212
0.000147918
0.000133656
0.000121925
0.000113541
0.000108107
0.000104597
0.000102059
9.99794e-05
9.81745e-05
9.67115e-05
9.52578e-05
9.39377e-05
9.29291e-05
9.24138e-05
9.25375e-05
9.33925e-05
9.50281e-05
9.74837e-05
0.000100839
0.000104808
0.000109332
0.000114472
0.000120243
0.000126363
0.000132749
0.000131221
0.000122119
0.000114179
0.000347429
0.000386126
0.000320494
)
;
    }
    sWall
    {
        type            nutkWallFunction;
        Cmu             0.09;
        kappa           0.41;
        E               9.8;
        value           uniform 0.000209622;
    }
    nWall
    {
        type            nutkWallFunction;
        Cmu             0.09;
        kappa           0.41;
        E               9.8;
        value           nonuniform List<scalar> 6(6.79668e-05 9.16123e-05 0.00011147 0.000130091 0.000132872 0.000114184);
    }
    sideWalls
    {
        type            empty;
    }
    glass1
    {
        type            nutkWallFunction;
        Cmu             0.09;
        kappa           0.41;
        E               9.8;
        value           nonuniform List<scalar> 9(0.000117323 0.000164185 0.000203784 0.000242959 0.000283267 0.000324314 0.000357576 0.000359403 0.000347843);
    }
    glass2
    {
        type            nutkWallFunction;
        Cmu             0.09;
        kappa           0.41;
        E               9.8;
        value           nonuniform List<scalar> 2(0.000153273 0.000151403);
    }
    sun
    {
        type            nutkWallFunction;
        Cmu             0.09;
        kappa           0.41;
        E               9.8;
        value           nonuniform List<scalar> 
14
(
0.000117259
0.000126698
0.000127354
0.000133089
0.000138521
0.000143625
0.000148609
0.000153764
0.000158291
0.000161646
0.000163338
0.000162818
0.000159703
0.000154057
)
;
    }
    Table_master
    {
        type            nutkWallFunction;
        Cmu             0.09;
        kappa           0.41;
        E               9.8;
        value           nonuniform List<scalar> 9(9.7379e-05 8.64187e-05 7.71735e-05 6.95136e-05 6.31844e-05 5.79417e-05 5.35956e-05 5.00112e-05 4.71319e-05);
    }
    Table_slave
    {
        type            nutkWallFunction;
        Cmu             0.09;
        kappa           0.41;
        E               9.8;
        value           nonuniform List<scalar> 9(0.000105654 9.64786e-05 9.01359e-05 8.54713e-05 8.16259e-05 7.79705e-05 7.45496e-05 7.09748e-05 6.67752e-05);
    }
    inlet
    {
        type            calculated;
        value           uniform 0.000268328;
    }
    outlet
    {
        type            calculated;
        value           nonuniform List<scalar> 2(0.00178271 0.00197524);
    }
}


// ************************************************************************* //
