/*--------------------------------*- C++ -*----------------------------------*\
  =========                 |
  \\      /  F ield         | OpenFOAM: The Open Source CFD Toolbox
   \\    /   O peration     | Website:  https://openfoam.org
    \\  /    A nd           | Version:  6
     \\/     M anipulation  |
\*---------------------------------------------------------------------------*/
FoamFile
{
    version     2.0;
    format      ascii;
    class       volVectorField;
    location    "500";
    object      U;
}
// * * * * * * * * * * * * * * * * * * * * * * * * * * * * * * * * * * * * * //

dimensions      [0 1 -1 0 0 0 0];

internalField   nonuniform List<vector> 
458
(
(0.0379189 0.091059 0)
(-0.176417 0.0272606 0)
(-0.203836 0.0201308 0)
(-0.239388 0.014582 0)
(-0.267164 0.00837541 0)
(-0.286153 0.00161592 0)
(-0.294594 -0.00592647 0)
(-0.2898 -0.0145651 0)
(-0.269899 -0.0247055 0)
(-0.233983 -0.035424 0)
(-0.184129 -0.0447172 0)
(-0.126023 -0.0500715 0)
(-0.0677537 -0.0485455 0)
(-0.0156291 -0.03485 0)
(-0.00797539 0.0115421 0)
(-0.00690792 0.0093509 0)
(-0.0344414 -0.0228289 0)
(-0.00499074 -0.0358031 0)
(0.0270167 -0.0288522 0)
(0.0506194 -0.0203206 0)
(0.0675857 -0.0111142 0)
(0.0770436 -0.00624693 0)
(0.0808219 -0.00448392 0)
(0.0819999 -0.00381236 0)
(0.0823794 -0.00337835 0)
(0.0823316 -0.00299217 0)
(0.0817684 -0.002555 0)
(0.0804622 -0.00186873 0)
(0.0777809 -0.000479782 0)
(0.0723491 0.00221885 0)
(0.0626562 0.00523313 0)
(0.0527918 0.00805488 0)
(-0.0124649 0.0258165 0)
(0.222958 0.186949 0)
(-0.166988 0.0724699 0)
(-0.16726 0.0597273 0)
(-0.204778 0.0489893 0)
(-0.232854 0.0367438 0)
(-0.252615 0.0226887 0)
(-0.262593 0.00603743 0)
(-0.260213 -0.0140264 0)
(-0.243764 -0.0372067 0)
(-0.212745 -0.0608201 0)
(-0.169438 -0.0798836 0)
(-0.119325 -0.0892301 0)
(-0.0692629 -0.0847692 0)
(-0.024719 -0.0627812 0)
(0.0157723 -0.0202856 0)
(0.0467379 0.00502566 0)
(0.0611968 0.0366687 0)
(-0.0107831 0.0778927 0)
(0.0783714 0.0431031 0)
(0.0242491 -0.0268368 0)
(0.0378072 -0.0441938 0)
(0.0550873 -0.0407226 0)
(0.0699729 -0.0306485 0)
(0.0780661 -0.0129281 0)
(0.0798606 -0.00232511 0)
(0.0796202 0.00161226 0)
(0.0796462 0.00303752 0)
(0.0799813 0.00384904 0)
(0.0802182 0.0044284 0)
(0.0802191 0.0049621 0)
(0.0799904 0.00593356 0)
(0.0789276 0.0084155 0)
(0.0742486 0.0153685 0)
(0.0626157 0.0215755 0)
(0.0559469 0.0264814 0)
(-0.0577277 0.0557135 0)
(0.392826 0.280718 0)
(-0.185506 0.116623 0)
(-0.126864 0.0974628 0)
(-0.164098 0.0778386 0)
(-0.189878 0.0574278 0)
(-0.209345 0.034522 0)
(-0.220882 0.00765272 0)
(-0.221189 -0.0241175 0)
(-0.207711 -0.0605887 0)
(-0.180542 -0.0971971 0)
(-0.14268 -0.125194 0)
(-0.0998054 -0.13707 0)
(-0.057835 -0.129026 0)
(-0.0212072 -0.100329 0)
(0.0125905 -0.0545547 0)
(0.0342103 -0.0223932 0)
(0.0436632 0.0124314 0)
(-0.0286456 0.0691849 0)
(0.133666 -0.0257853 0)
(0.0799172 -0.0466549 0)
(0.073477 -0.052749 0)
(0.0787355 -0.0498851 0)
(0.0851543 -0.0445168 0)
(0.089059 -0.0321331 0)
(0.0791612 -0.0205127 0)
(0.0713486 -0.0143274 0)
(0.0686479 -0.0108678 0)
(0.0682574 -0.0085897 0)
(0.0684737 -0.006947 0)
(0.0691392 -0.00557163 0)
(0.0708169 -0.00396114 0)
(0.0748764 0.000424721 0)
(0.0739971 0.0211204 0)
(0.0600402 0.0355665 0)
(0.0630637 0.0468519 0)
(-0.09711 0.0877398 0)
(0.547085 0.356665 0)
(-0.222501 0.156 0)
(-0.0819315 0.130035 0)
(-0.118002 0.103468 0)
(-0.137825 0.0782775 0)
(-0.154635 0.0495675 0)
(-0.166685 0.0144075 0)
(-0.169291 -0.0287344 0)
(-0.157735 -0.0787767 0)
(-0.133939 -0.128353 0)
(-0.102355 -0.164312 0)
(-0.0683037 -0.17796 0)
(-0.0361668 -0.16685 0)
(-0.00826188 -0.131797 0)
(0.0169829 -0.0808909 0)
(0.0369101 -0.0352046 0)
(0.0584015 0.00955011 0)
(0.0607208 0.0568848 0)
(0.110601 0.0638342 0)
(0.110362 -0.0102581 0)
(0.0932871 -0.0395854 0)
(0.0852249 -0.0471174 0)
(0.0802978 -0.046577 0)
(0.0735756 -0.0410067 0)
(0.0741527 -0.0249775 0)
(0.0879525 -0.0167756 0)
(0.0998244 -0.0124605 0)
(0.107765 -0.00979486 0)
(0.11327 -0.007504 0)
(0.116491 -0.00494752 0)
(0.115788 -0.00166146 0)
(0.109242 0.00289622 0)
(0.0945942 0.0094686 0)
(0.0766646 0.0321356 0)
(0.0608828 0.05235 0)
(0.0750326 0.0709745 0)
(-0.11587 0.119828 0)
(0.682277 0.415562 0)
(-0.268423 0.187944 0)
(-0.0347353 0.149209 0)
(-0.0671835 0.119789 0)
(-0.0779225 0.0933479 0)
(-0.0891094 0.0621319 0)
(-0.0996121 0.0216815 0)
(-0.10276 -0.0306345 0)
(-0.0907424 -0.0931365 0)
(-0.070562 -0.153647 0)
(-0.0478437 -0.19421 0)
(-0.025751 -0.207325 0)
(-0.00645395 -0.192881 0)
(0.0100428 -0.153305 0)
(0.0249822 -0.101679 0)
(0.0394674 -0.051587 0)
(0.0569437 -0.00893972 0)
(0.0768442 0.0144287 0)
(0.0938649 -0.00907124 0)
(0.0937103 -0.0319115 0)
(0.0856335 -0.0404831 0)
(0.0759113 -0.0419715 0)
(0.0674647 -0.0398925 0)
(0.0608219 -0.033543 0)
(0.0605021 -0.0202053 0)
(0.0666547 -0.012836 0)
(0.0737043 -0.0100429 0)
(0.0800092 -0.00836842 0)
(0.0856248 -0.00584183 0)
(0.0900918 -0.00138908 0)
(0.0924418 0.00533696 0)
(0.0910413 0.0143089 0)
(0.0857791 0.0261621 0)
(0.0784109 0.0447298 0)
(0.0691886 0.064989 0)
(0.0968362 0.0876236 0)
(0.0262465 0.119417 0)
(0.10631 0.152685 0)
(0.13236 0.168004 0)
(-0.174058 0.209157 0)
(0.782013 0.46431 0)
(-0.314161 0.208384 0)
(0.00453938 0.144173 0)
(-0.0121567 0.125045 0)
(-0.0126248 0.103833 0)
(-0.0174473 0.0728834 0)
(-0.0250798 0.0305984 0)
(-0.0234727 -0.0293519 0)
(-0.00753723 -0.105027 0)
(0.00737912 -0.172801 0)
(0.0180247 -0.212593 0)
(0.0251026 -0.221927 0)
(0.0287698 -0.203876 0)
(0.0305174 -0.163598 0)
(0.0325998 -0.111565 0)
(0.0362647 -0.0614947 0)
(0.0436484 -0.0228053 0)
(0.0559071 -0.00391813 0)
(0.0639173 -0.00927423 0)
(0.0632796 -0.020113 0)
(0.0566099 -0.0282619 0)
(0.048061 -0.031979 0)
(0.0404364 -0.0320686 0)
(0.0350042 -0.0287598 0)
(0.0338852 -0.0224626 0)
(0.0372353 -0.0187559 0)
(0.0425727 -0.017352 0)
(0.0485301 -0.016024 0)
(0.0547059 -0.0131647 0)
(0.0607337 -0.00758364 0)
(0.0666288 0.00167189 0)
(0.0703023 0.013938 0)
(0.0719807 0.0285563 0)
(0.0737409 0.0461831 0)
(0.0748435 0.0649235 0)
(0.0971311 0.0857842 0)
(0.0876042 0.0894663 0)
(0.1049 0.0359834 0)
(0.131948 -0.0201165 0)
(-0.220542 0.103386 0)
(0.838676 0.508434 0)
(-0.337166 0.188866 0)
(0.0392932 0.0809427 0)
(0.058342 0.106199 0)
(0.0629897 0.109826 0)
(0.0605838 0.0828062 0)
(0.0576997 0.0340922 0)
(0.0711888 -0.0401991 0)
(0.0872468 -0.119049 0)
(0.0933103 -0.180231 0)
(0.0900378 -0.214386 0)
(0.0800492 -0.219275 0)
(0.0655839 -0.198449 0)
(0.0495602 -0.157536 0)
(0.0352259 -0.106541 0)
(0.0250101 -0.0588441 0)
(0.0209304 -0.0248034 0)
(0.0229988 -0.00882341 0)
(0.0256083 -0.00915945 0)
(0.0243616 -0.0156254 0)
(0.0194486 -0.0217655 0)
(0.012988 -0.0252488 0)
(0.00688286 -0.0263055 0)
(0.00244046 -0.0254785 0)
(0.00107801 -0.0235257 0)
(0.00286747 -0.022645 0)
(0.0064169 -0.0225676 0)
(0.0108503 -0.0219721 0)
(0.015988 -0.0196934 0)
(0.0219429 -0.0145772 0)
(0.0290899 -0.00525353 0)
(0.0390495 0.00856723 0)
(0.0471504 0.0236683 0)
(0.0561068 0.039404 0)
(0.0656503 0.0546529 0)
(0.0853857 0.0706664 0)
(0.0981708 0.0713492 0)
(0.113661 0.0453687 0)
(0.170285 0.0504515 0)
(-0.155451 0.165887 0)
(0.947423 0.508229 0)
(-0.0633523 0.167255 0)
(0.13297 -0.00683993 0)
(0.20162 0.00636412 0)
(0.19276 0.0345881 0)
(0.174897 0.0249902 0)
(0.168431 -0.0222865 0)
(0.18633 -0.0790609 0)
(0.194615 -0.133541 0)
(0.18526 -0.176876 0)
(0.162786 -0.199409 0)
(0.131503 -0.197038 0)
(0.0951521 -0.173206 0)
(0.0582867 -0.132913 0)
(0.0260053 -0.085079 0)
(0.00244052 -0.0429252 0)
(-0.00985947 -0.0173921 0)
(-0.0129851 -0.00807097 0)
(-0.0134725 -0.00821963 0)
(-0.0152862 -0.0123344 0)
(-0.0191985 -0.0165747 0)
(-0.0242268 -0.0195498 0)
(-0.0291727 -0.0213902 0)
(-0.033094 -0.022503 0)
(-0.0353329 -0.0232954 0)
(-0.0360284 -0.0242547 0)
(-0.0358154 -0.0251457 0)
(-0.035033 -0.0253883 0)
(-0.0336176 -0.0243767 0)
(-0.0311997 -0.0215297 0)
(-0.0269395 -0.0162174 0)
(-0.0179572 -0.00758763 0)
(-0.00276912 0.00439672 0)
(0.0107384 0.0160683 0)
(0.0245348 0.0236909 0)
(0.0429798 0.0297646 0)
(0.0577095 0.022338 0)
(0.0686752 -0.000530345 0)
(0.159991 0.0685269 0)
(-0.521157 0.276996 0)
(1.09563 0.44442 0)
(0.519142 0.297112 0)
(0.56174 0.332241 0)
(0.575912 0.291448 0)
(0.520888 0.227948 0)
(0.456323 0.154993 0)
(0.413949 0.0778193 0)
(0.37363 -0.00384152 0)
(0.325499 -0.0771229 0)
(0.272864 -0.128756 0)
(0.217307 -0.153028 0)
(0.159327 -0.149934 0)
(0.0996592 -0.127123 0)
(0.042443 -0.0906444 0)
(-0.00428255 -0.0492065 0)
(-0.0321025 -0.0212375 0)
(-0.0440415 -0.00982698 0)
(-0.0484374 -0.00666789 0)
(-0.0503407 -0.0077733 0)
(-0.0525974 -0.0106864 0)
(-0.0560255 -0.0138305 0)
(-0.0603035 -0.0165817 0)
(-0.0648976 -0.0188706 0)
(-0.0694341 -0.0207528 0)
(-0.0737762 -0.0223 0)
(-0.0780943 -0.0235674 0)
(-0.08268 -0.0243398 0)
(-0.0877342 -0.0241876 0)
(-0.0934176 -0.0225527 0)
(-0.100012 -0.0188025 0)
(-0.108082 -0.0122114 0)
(-0.118492 -0.001943 0)
(-0.13041 0.0122502 0)
(-0.14456 0.0300906 0)
(-0.169478 0.0524077 0)
(-0.208767 0.0794005 0)
(-0.265283 0.10786 0)
(-0.329853 0.134035 0)
(-0.410199 0.153387 0)
(-0.730919 0.162182 0)
(0.598938 -0.290498 0)
(0.534516 -0.00625153 0)
(0.470815 0.11214 0)
(0.41125 0.119741 0)
(0.367233 0.0729006 0)
(0.330563 0.0113385 0)
(0.289201 -0.0421691 0)
(0.235006 -0.0773456 0)
(0.175451 -0.0926911 0)
(0.112979 -0.0856292 0)
(0.0477708 -0.065155 0)
(-0.0169375 -0.0359615 0)
(-0.0527102 -0.017799 0)
(-0.0699278 -0.0114775 0)
(-0.0776127 -0.0106677 0)
(-0.0809442 -0.0116397 0)
(-0.0827366 -0.0133644 0)
(-0.0846774 -0.0154219 0)
(-0.0874046 -0.0175215 0)
(-0.0909841 -0.019502 0)
(-0.0953778 -0.0212943 0)
(-0.100604 -0.0228502 0)
(-0.106741 -0.0241153 0)
(-0.113904 -0.0249849 0)
(-0.122157 -0.0251859 0)
(-0.131407 -0.0242304 0)
(-0.14134 -0.0214106 0)
(-0.151335 -0.0158709 0)
(-0.160367 -0.00676749 0)
(-0.167156 0.00639263 0)
(-0.171509 0.0231344 0)
(-0.175029 0.0442275 0)
(-0.179426 0.0693826 0)
(-0.186236 0.095278 0)
(-0.192784 0.110715 0)
(-0.187004 0.0907893 0)
(-0.172952 -0.0115277 0)
(-0.294036 -0.242593 0)
(0.0911801 0.44918 0)
(-0.0800921 0.298492 0)
(-0.00456201 0.245768 0)
(0.042953 0.179109 0)
(0.0722729 0.111277 0)
(0.0806723 0.0532004 0)
(0.0789927 0.0137385 0)
(0.0604981 -0.0156007 0)
(0.0255451 -0.0229442 0)
(-0.0250868 0.00926155 0)
(-0.0657858 0.0337998 0)
(-0.090931 0.0463628 0)
(-0.101427 0.0517823 0)
(-0.10481 0.0541487 0)
(-0.105599 0.0550466 0)
(-0.105869 0.0541554 0)
(-0.106471 0.0533239 0)
(-0.10774 0.0528148 0)
(-0.109776 0.0524065 0)
(-0.112572 0.0519724 0)
(-0.116074 0.0514862 0)
(-0.120212 0.050926 0)
(-0.124907 0.0502303 0)
(-0.130076 0.0493324 0)
(-0.135593 0.0482027 0)
(-0.141251 0.046829 0)
(-0.146754 0.0451766 0)
(-0.151691 0.0431229 0)
(-0.155235 0.0402904 0)
(-0.155758 0.0397486 0)
(-0.151158 0.0442586 0)
(-0.13962 0.0552161 0)
(-0.120632 0.0735353 0)
(-0.0959404 0.0975923 0)
(-0.0678178 0.118156 0)
(-0.0400838 0.117474 0)
(0.136079 0.0307205 0)
(-0.211911 -0.158587 0)
(-0.755542 -0.746183 0)
(-0.91621 -0.188416 0)
(-0.718504 0.246888 0)
(-0.602925 0.127363 0)
(-0.399859 0.0859328 0)
(-0.2614 0.0355586 0)
(-0.160125 -0.0290502 0)
(-0.103192 -0.0976603 0)
(-0.0876164 -0.139759 0)
(-0.0962904 -0.13897 0)
(-0.11964 -0.1343 0)
(-0.130349 -0.129561 0)
(-0.128443 -0.127827 0)
(-0.122778 -0.131915 0)
(-0.116684 -0.14266 0)
(-0.112245 -0.15488 0)
(-0.110029 -0.164488 0)
(-0.109832 -0.170165 0)
(-0.111371 -0.174383 0)
(-0.114237 -0.177504 0)
(-0.118137 -0.179468 0)
(-0.122839 -0.18018 0)
(-0.128112 -0.179587 0)
(-0.133713 -0.177669 0)
(-0.139408 -0.174406 0)
(-0.144961 -0.169741 0)
(-0.150093 -0.163554 0)
(-0.154411 -0.155628 0)
(-0.157376 -0.145584 0)
(-0.158324 -0.132798 0)
(-0.156436 -0.116352 0)
(-0.150137 -0.0983518 0)
(-0.136131 -0.0787512 0)
(-0.110392 -0.0570085 0)
(-0.0710322 -0.0316819 0)
(-0.0192403 -0.0010294 0)
(0.0556399 0.0215699 0)
(0.113949 -0.00118186 0)
(0.185457 -0.0622938 0)
(-0.147778 -0.149382 0)
)
;

boundaryField
{
    floor
    {
        type            noSlip;
    }
    ceiling
    {
        type            noSlip;
    }
    sWall
    {
        type            noSlip;
    }
    nWall
    {
        type            noSlip;
    }
    sideWalls
    {
        type            empty;
    }
    glass1
    {
        type            noSlip;
    }
    glass2
    {
        type            noSlip;
    }
    sun
    {
        type            noSlip;
    }
    Table_master
    {
        type            noSlip;
    }
    Table_slave
    {
        type            noSlip;
    }
    inlet
    {
        type            fixedValue;
        value           uniform (0.707107 -0.707107 0);
    }
    outlet
    {
        type            zeroGradient;
    }
}


// ************************************************************************* //
