/*--------------------------------*- C++ -*----------------------------------*\
  =========                 |
  \\      /  F ield         | OpenFOAM: The Open Source CFD Toolbox
   \\    /   O peration     | Website:  https://openfoam.org
    \\  /    A nd           | Version:  6
     \\/     M anipulation  |
\*---------------------------------------------------------------------------*/
FoamFile
{
    version     2.0;
    format      ascii;
    class       volScalarField;
    location    "3000";
    object      epsilon;
}
// * * * * * * * * * * * * * * * * * * * * * * * * * * * * * * * * * * * * * //

dimensions      [0 2 -3 0 0 0 0];

internalField   nonuniform List<scalar> 
458
(
0.000431955
0.000560877
0.000581524
0.000667287
0.000754281
0.000841336
0.000931205
0.0010296
0.00110605
0.00114632
0.00113815
0.00107633
0.000967913
0.000833651
0.000698683
3.50717e-05
6.89469e-05
9.78996e-05
9.6825e-05
8.94475e-05
7.59834e-05
6.28801e-05
5.21718e-05
4.36752e-05
3.69086e-05
3.15277e-05
2.71695e-05
2.35626e-05
2.0489e-05
1.77516e-05
1.51388e-05
1.31588e-05
9.71351e-06
0.0011441
0.00165475
0.000533596
0.000510395
0.000535066
0.000572336
0.000622964
0.000690803
0.000756648
0.00080235
0.000811564
0.000776027
0.000700461
0.000609016
0.000573221
0.000834386
0.000401131
0.000144727
4.83917e-05
0.000111015
0.000110755
9.91754e-05
8.68262e-05
8.19224e-05
6.63269e-05
5.25899e-05
4.18466e-05
3.35816e-05
2.72761e-05
2.24223e-05
1.86583e-05
1.58636e-05
1.42556e-05
1.36471e-05
2.74546e-05
1.99091e-05
0.00213336
0.00415017
0.00070723
0.000504931
0.000526872
0.000588373
0.000674303
0.000781833
0.000884697
0.000954578
0.000972982
0.000934228
0.000846602
0.00073128
0.000621606
0.000539517
0.000398167
0.000431002
0.000394032
0.000246584
0.000173422
0.000129853
0.000107746
0.000198512
0.000136659
9.70891e-05
7.14742e-05
5.44298e-05
4.27598e-05
3.4552e-05
2.86869e-05
2.45751e-05
1.9219e-05
1.64107e-05
4.48984e-05
2.97254e-05
0.00350276
0.00862374
0.00119558
0.000546696
0.000543595
0.000634017
0.00077077
0.000943296
0.00109017
0.00117445
0.00118725
0.00113206
0.0010226
0.000879983
0.000726686
0.000596204
0.000487883
0.000529752
0.000960944
0.000512525
0.000294781
0.000192738
0.000138689
0.000114541
0.000253809
0.000192594
0.000159884
0.000140313
0.000126296
0.000113393
0.00010028
8.77246e-05
7.42289e-05
4.62656e-05
3.00259e-05
6.19508e-05
4.17812e-05
0.00538979
0.015207
0.00245084
0.000736399
0.000624513
0.000738766
0.000970484
0.00124133
0.00141671
0.00148515
0.00146605
0.00137568
0.00122822
0.00104174
0.000840524
0.000651343
0.000493257
0.000393033
0.000345446
0.000273893
0.000209158
0.000159523
0.00012395
0.00010054
9.53542e-05
9.00413e-05
8.70386e-05
8.47329e-05
8.1672e-05
7.66843e-05
6.96626e-05
6.26762e-05
5.62481e-05
4.68064e-05
3.67181e-05
4.75018e-05
5.92681e-05
7.15087e-05
8.17852e-05
8.56549e-05
0.00799134
0.0222967
0.00550238
0.00160883
0.0011178
0.00120406
0.00159754
0.00186386
0.00195614
0.00193582
0.00184502
0.00169681
0.00149273
0.00124376
0.000975023
0.000719963
0.000510214
0.00036651
0.000281289
0.000224776
0.000179192
0.000141666
0.000113415
9.47561e-05
8.7213e-05
8.76278e-05
9.12463e-05
9.4827e-05
9.65287e-05
9.45743e-05
8.73258e-05
7.55538e-05
6.40468e-05
5.34696e-05
4.49597e-05
4.39914e-05
4.93635e-05
7.41776e-05
0.000322522
0.000199295
0.0108741
0.0264271
0.0110562
0.0051213
0.00363787
0.0033004
0.00323814
0.00306271
0.00283499
0.00260352
0.00237323
0.00212079
0.00182354
0.00148266
0.00112659
0.00079726
0.000533839
0.000358249
0.000256882
0.000197551
0.000156463
0.000125554
0.000104408
9.31257e-05
9.18207e-05
9.80419e-05
0.000107444
0.000117464
0.000126691
0.00013323
0.000134046
0.000122532
0.000106875
9.32896e-05
8.55493e-05
8.69787e-05
0.000100798
0.000147956
0.000565687
0.000383569
0.0114019
0.0278892
0.0161149
0.0118789
0.00933856
0.00737245
0.0058287
0.00473157
0.00398454
0.00346601
0.00305567
0.00265648
0.00221546
0.00173464
0.00125864
0.000840319
0.000520618
0.000324105
0.00021938
0.000163326
0.000130519
0.000109423
9.81843e-05
9.57576e-05
0.000100852
0.000111543
0.000125892
0.000143098
0.000163145
0.000186141
0.000211818
0.000238676
0.000249494
0.000268799
0.000317691
0.000437192
0.000698416
0.00106243
0.00356007
0.000965515
0.0104122
0.0169251
0.013984
0.0106571
0.00831247
0.00676964
0.00578587
0.00516547
0.00473753
0.00434649
0.00387991
0.00328972
0.00259629
0.00188002
0.00124457
0.000745562
0.0003966
0.000241352
0.000168564
0.000130513
0.000108954
9.75379e-05
9.41499e-05
9.72272e-05
0.000105476
0.000118037
0.000134656
0.000155864
0.000182904
0.000217685
0.000262783
0.000321306
0.000396526
0.000496247
0.000647273
0.000858817
0.00111632
0.00137429
0.00161551
0.000892535
0.00326455
0.00787621
0.00832506
0.00844481
0.00824542
0.0077092
0.00682871
0.00568279
0.00441779
0.00318087
0.00207097
0.00119367
0.000680616
0.000386513
0.000229668
0.000157694
0.000123179
0.000105219
9.59067e-05
9.19862e-05
9.20783e-05
9.53474e-05
0.000101261
0.000109738
0.000121104
0.00013609
0.000155877
0.000182221
0.000217674
0.000265975
0.000333067
0.000422792
0.000540365
0.000679704
0.000809148
0.000872937
0.000843999
0.00048362
0.00317222
0.0072913
0.00739431
0.00647999
0.00599405
0.00530827
0.00437006
0.00336449
0.00243311
0.00164869
0.00104115
0.000621495
0.000378223
0.000249558
0.000188239
0.000162868
0.000153024
0.000148685
0.000145561
0.000142481
0.000139943
0.000138853
0.000139463
0.000142148
0.000147422
0.000156005
0.000168975
0.000187978
0.000215494
0.000255117
0.00031136
0.000388694
0.000489043
0.000603692
0.000715849
0.000803412
0.000694805
0.000505831
0.00199248
0.00251462
0.00293882
0.00376344
0.00367543
0.00353238
0.00332511
0.00296193
0.00247677
0.00194792
0.0014441
0.00101208
0.000677763
0.000446453
0.000303515
0.000220069
0.000171055
0.000140983
0.00012171
0.000109307
0.00010191
9.88206e-05
9.91927e-05
0.000101987
0.000107209
0.000115023
0.000125706
0.000139669
0.000157537
0.00018032
0.00020978
0.000248377
0.000295435
0.000352832
0.000422477
0.000503526
0.000590476
0.000559263
0.000436365
0.000342399
)
;

boundaryField
{
    floor
    {
        Cmu             0.09;
        kappa           0.41;
        E               9.8;
        type            epsilonWallFunction;
        value           nonuniform List<scalar> 
36
(
0.000698683
3.50717e-05
6.89469e-05
9.78996e-05
9.6825e-05
8.94475e-05
7.59834e-05
6.28801e-05
5.21718e-05
4.36752e-05
3.69086e-05
3.15277e-05
2.71695e-05
2.35626e-05
2.0489e-05
1.77516e-05
1.51388e-05
1.31588e-05
9.71351e-06
9.71351e-06
1.99091e-05
2.97254e-05
4.17812e-05
7.15087e-05
8.17852e-05
8.56549e-05
0.000698683
0.000834386
0.000401131
0.000144727
3.50717e-05
0.000144727
4.83917e-05
0.000431002
0.000394032
0.000960944
)
;
    }
    ceiling
    {
        Cmu             0.09;
        kappa           0.41;
        E               9.8;
        type            epsilonWallFunction;
        value           nonuniform List<scalar> 
43
(
0.00199248
0.00251462
0.00293882
0.00376344
0.00367543
0.00353238
0.00332511
0.00296193
0.00247677
0.00194792
0.0014441
0.00101208
0.000677763
0.000446453
0.000303515
0.000220069
0.000171055
0.000140983
0.00012171
0.000109307
0.00010191
9.88206e-05
9.91927e-05
0.000101987
0.000107209
0.000115023
0.000125706
0.000139669
0.000157537
0.00018032
0.00020978
0.000248377
0.000295435
0.000352832
0.000422477
0.000503526
0.000590476
0.000559263
0.000436365
0.000342399
0.0104122
0.0169251
0.00317222
)
;
    }
    sWall
    {
        Cmu             0.09;
        kappa           0.41;
        E               9.8;
        type            epsilonWallFunction;
        value           uniform 0.00199248;
    }
    nWall
    {
        Cmu             0.09;
        kappa           0.41;
        E               9.8;
        type            epsilonWallFunction;
        value           nonuniform List<scalar> 6(8.56549e-05 0.000199295 0.000383569 0.00048362 0.000505831 0.000342399);
    }
    sideWalls
    {
        type            empty;
    }
    glass1
    {
        Cmu             0.09;
        kappa           0.41;
        E               9.8;
        type            epsilonWallFunction;
        value           nonuniform List<scalar> 9(0.000431955 0.0011441 0.00213336 0.00350276 0.00538979 0.00799134 0.0108741 0.0114019 0.0104122);
    }
    glass2
    {
        Cmu             0.09;
        kappa           0.41;
        E               9.8;
        type            epsilonWallFunction;
        value           nonuniform List<scalar> 2(0.000965515 0.000892535);
    }
    sun
    {
        Cmu             0.09;
        kappa           0.41;
        E               9.8;
        type            epsilonWallFunction;
        value           nonuniform List<scalar> 
14
(
0.000431955
0.000560877
0.000581524
0.000667287
0.000754281
0.000841336
0.000931205
0.0010296
0.00110605
0.00114632
0.00113815
0.00107633
0.000967913
0.000833651
)
;
    }
    Table_master
    {
        Cmu             0.09;
        kappa           0.41;
        E               9.8;
        type            epsilonWallFunction;
        value           nonuniform List<scalar> 9(0.000198512 0.000136659 9.70891e-05 7.14742e-05 5.44298e-05 4.27598e-05 3.4552e-05 2.86869e-05 2.45751e-05);
    }
    Table_slave
    {
        Cmu             0.09;
        kappa           0.41;
        E               9.8;
        type            epsilonWallFunction;
        value           nonuniform List<scalar> 9(0.000253809 0.000192594 0.000159884 0.000140313 0.000126296 0.000113393 0.00010028 8.77246e-05 7.42289e-05);
    }
    inlet
    {
        type            turbulentMixingLengthDissipationRateInlet;
        mixingLength    0.01;
        phi             phi;
        k               k;
        value           uniform 0.000101881;
    }
    outlet
    {
        type            zeroGradient;
    }
}


// ************************************************************************* //
