/*--------------------------------*- C++ -*----------------------------------*\
  =========                 |
  \\      /  F ield         | OpenFOAM: The Open Source CFD Toolbox
   \\    /   O peration     | Website:  https://openfoam.org
    \\  /    A nd           | Version:  6
     \\/     M anipulation  |
\*---------------------------------------------------------------------------*/
FoamFile
{
    version     2.0;
    format      ascii;
    class       volScalarField;
    location    "2400";
    object      alphat;
}
// * * * * * * * * * * * * * * * * * * * * * * * * * * * * * * * * * * * * * //

dimensions      [1 -1 -1 0 0 0 0];

internalField   nonuniform List<scalar> 
458
(
0.000923133
0.000979451
0.000974055
0.00101099
0.00104363
0.00107224
0.00109798
0.00112204
0.00114579
0.00116724
0.00118179
0.00118748
0.00118433
0.00117663
0.00116866
0.000555859
0.000593753
0.000592324
0.000584104
0.000572364
0.00055419
0.000534373
0.000515494
0.000497986
0.000481961
0.000467148
0.000453256
0.000439935
0.000426682
0.000412764
0.00039676
0.00037948
0.000345068
0.00135968
0.00254496
0.00225745
0.0026282
0.00288289
0.00314642
0.00340543
0.0036389
0.00381365
0.00393023
0.00398986
0.00394433
0.0037199
0.00320641
0.00227336
0.00120771
0.00107941
0.000973709
0.000772288
0.00107451
0.00132909
0.00150864
0.00157219
0.00133082
0.00121224
0.0011308
0.00106762
0.00101032
0.000955314
0.000900321
0.000841178
0.000774789
0.000715154
0.000669187
0.000736329
0.000410366
0.00174597
0.0036408
0.00257255
0.00364966
0.00399707
0.0042407
0.00442632
0.00456971
0.00468263
0.00477931
0.00487369
0.00494286
0.00496377
0.00493031
0.00482884
0.00448951
0.0034718
0.00121059
0.000915828
0.00145233
0.00180372
0.00203645
0.00202913
0.000697562
0.000634485
0.000581322
0.000537441
0.000501495
0.00047208
0.000448039
0.000428813
0.000414789
0.000466206
0.000553893
0.000813478
0.000455856
0.0021388
0.00520124
0.00251103
0.00396766
0.00445175
0.00460434
0.00465554
0.00466778
0.00468713
0.00473553
0.00481708
0.00490541
0.00498079
0.0050499
0.0051212
0.00511674
0.00485924
0.00411611
0.00110333
0.00168142
0.00218384
0.00246186
0.00258977
0.00243602
0.000722731
0.000688163
0.000672709
0.000664675
0.000656578
0.000643268
0.000625307
0.000605079
0.000578943
0.000550918
0.000561637
0.000865324
0.000501233
0.00254529
0.00730268
0.00302618
0.0036944
0.00454476
0.00469775
0.00466441
0.00457637
0.00452581
0.00455191
0.00464726
0.00474954
0.00482405
0.00487272
0.00491602
0.00493558
0.0048555
0.00461473
0.00391945
0.00354938
0.00330892
0.00311966
0.00299386
0.00289242
0.00265324
0.00264233
0.00268709
0.00272271
0.00272068
0.00266122
0.00248601
0.00218603
0.00179568
0.00136184
0.00102377
0.000949167
0.000728592
0.000580338
0.000615928
0.000643651
0.00297127
0.00961552
0.00506554
0.0034433
0.00406233
0.00445825
0.00457212
0.00451844
0.00440428
0.00443027
0.00456559
0.00468263
0.00474527
0.0047596
0.00476032
0.00476208
0.004724
0.00457639
0.00423317
0.0038553
0.00350147
0.00319478
0.00301668
0.00296548
0.00300945
0.00312171
0.00323408
0.00331419
0.00335004
0.00333357
0.00324213
0.0030072
0.0026307
0.00212849
0.00163295
0.00125727
0.000967966
0.00095516
0.00138418
0.000859841
0.00338575
0.0114715
0.00858088
0.00529831
0.0041123
0.00384387
0.0040231
0.00430942
0.00437491
0.00448818
0.00461547
0.00470455
0.00473202
0.00471099
0.00468698
0.00469324
0.00469246
0.00457689
0.00426737
0.00384723
0.00341575
0.00307763
0.00294285
0.00294309
0.00302388
0.00314547
0.00326389
0.00335416
0.00341379
0.00344351
0.00344288
0.00334875
0.00307167
0.00263917
0.00216837
0.00174371
0.0013952
0.00126695
0.00156273
0.0010355
0.00347954
0.0109747
0.00956455
0.00839319
0.00682831
0.00559484
0.00498798
0.00487106
0.00482656
0.00478526
0.00478595
0.00479205
0.00475246
0.00468069
0.00464013
0.00467093
0.00471555
0.00461992
0.00427731
0.00373686
0.0032473
0.00297763
0.00288718
0.00288906
0.00293822
0.00300824
0.00307865
0.00313991
0.00319534
0.00325413
0.00332728
0.00340593
0.0033516
0.00301677
0.00268323
0.00244437
0.00236696
0.00239771
0.00307823
0.00144906
0.0033996
0.00407958
0.00483051
0.00518776
0.00534871
0.00523383
0.00503938
0.0049061
0.0048281
0.00483309
0.00486226
0.00484381
0.00472673
0.00459299
0.00455317
0.00463833
0.00473547
0.00461669
0.00414627
0.00353445
0.00311467
0.00290824
0.00281524
0.00277504
0.0027613
0.00275715
0.00274974
0.0027323
0.0027029
0.00265962
0.00259706
0.00250625
0.00238587
0.00226481
0.00218295
0.00215908
0.00215434
0.00211516
0.00203974
0.00143551
0.0030069
0.00617149
0.00586911
0.0057148
0.00558992
0.00550839
0.00545109
0.00535115
0.00519098
0.00493588
0.00457439
0.00435426
0.00437097
0.00456816
0.00471249
0.00443858
0.00387457
0.00340135
0.00311724
0.00294127
0.00280788
0.00269375
0.00259267
0.00250077
0.00241348
0.00232754
0.00224382
0.00216793
0.00210836
0.00207351
0.00206338
0.00205831
0.00206116
0.00206069
0.00202097
0.00190656
0.00173477
0.00123573
0.00285362
0.00669006
0.00640842
0.00611976
0.00590415
0.00572034
0.00551387
0.00523478
0.00479802
0.00426446
0.00367981
0.00368826
0.00406331
0.00458314
0.00487866
0.00464236
0.00424772
0.0039252
0.0037025
0.00352573
0.00335467
0.00317544
0.00298953
0.00280472
0.00263028
0.00247454
0.0023438
0.00224146
0.00216703
0.00211446
0.00210337
0.00212491
0.00216347
0.00219316
0.00219681
0.00218441
0.00228137
0.00126103
0.00223834
0.0024404
0.00260559
0.00277577
0.00263844
0.00251199
0.00230481
0.0020799
0.00185734
0.00164068
0.00147149
0.00130888
0.00112436
0.0010176
0.00107133
0.00110202
0.00108242
0.00103085
0.000986398
0.000955592
0.000932501
0.000911908
0.000892554
0.00087578
0.000863759
0.000858308
0.000860385
0.000870137
0.000887277
0.000911565
0.000943299
0.000983912
0.00102905
0.00107931
0.00113534
0.00119517
0.00125943
0.00124779
0.0011601
0.00108481
)
;

boundaryField
{
    floor
    {
        type            compressible::alphatWallFunction;
        Prt             0.85;
        value           nonuniform List<scalar> 
36
(
0.000165869
7.7785e-05
8.34754e-05
8.32604e-05
8.20271e-05
8.02619e-05
7.75199e-05
7.45171e-05
7.16436e-05
6.89668e-05
6.65063e-05
6.42228e-05
6.20729e-05
6.00034e-05
5.79366e-05
5.57572e-05
5.32394e-05
5.0506e-05
4.50137e-05
4.50131e-05
5.53793e-05
6.2474e-05
6.94622e-05
8.14613e-05
8.67921e-05
9.09202e-05
0.000165868
0.00017126
0.00015347
0.000138633
7.77841e-05
0.000138632
0.000109795
0.000171659
0.000130418
0.000156797
)
;
    }
    ceiling
    {
        type            compressible::alphatWallFunction;
        Prt             0.85;
        value           nonuniform List<scalar> 
43
(
0.000307924
0.000333804
0.000354797
0.000376403
0.000359114
0.0003431
0.000316653
0.000287646
0.000258603
0.000229959
0.000207299
0.000185248
0.000159848
0.000144902
0.000152437
0.000156726
0.000154002
0.000146787
0.000140533
0.000136178
0.000132904
0.000129976
0.000127217
0.00012482
0.0001231
0.000122319
0.000122618
0.000124016
0.000126468
0.000129932
0.000134442
0.000140188
0.000146542
0.000153578
0.000161378
0.000169657
0.000178497
0.000176901
0.000164811
0.000154349
0.000454263
0.000537216
0.0003859
)
;
    }
    sWall
    {
        type            compressible::alphatWallFunction;
        Prt             0.85;
        value           uniform 0.000306724;
    }
    nWall
    {
        type            compressible::alphatWallFunction;
        Prt             0.85;
        value           nonuniform List<scalar> 6(9.07422e-05 0.000122237 0.000147128 0.000174928 0.000178399 0.000154037);
    }
    sideWalls
    {
        type            empty;
    }
    glass1
    {
        type            compressible::alphatWallFunction;
        Prt             0.85;
        value           nonuniform List<scalar> 9(0.000128109 0.000187827 0.000238999 0.000289874 0.000341546 0.000394825 0.00044595 0.000457549 0.000447965);
    }
    glass2
    {
        type            compressible::alphatWallFunction;
        Prt             0.85;
        value           nonuniform List<scalar> 2(0.000202875 0.000201095);
    }
    sun
    {
        type            compressible::alphatWallFunction;
        Prt             0.85;
        value           nonuniform List<scalar> 
14
(
0.000131479
0.000139441
0.000138678
0.000143885
0.000148466
0.000152469
0.000156059
0.000159407
0.000162703
0.000165673
0.000167685
0.000168469
0.000168034
0.000166971
)
;
    }
    Table_master
    {
        type            compressible::alphatWallFunction;
        Prt             0.85;
        value           nonuniform List<scalar> 9(9.89548e-05 8.96293e-05 8.16812e-05 7.5053e-05 6.95731e-05 6.5052e-05 6.13306e-05 5.83362e-05 5.61412e-05);
    }
    Table_slave
    {
        type            compressible::alphatWallFunction;
        Prt             0.85;
        value           nonuniform List<scalar> 9(0.000102648 9.75734e-05 9.52952e-05 9.41086e-05 9.29106e-05 9.09373e-05 8.82661e-05 8.52464e-05 8.13264e-05);
    }
    inlet
    {
        type            fixedValue;
        value           uniform 1.94e-05;
    }
    outlet
    {
        type            zeroGradient;
    }
}


// ************************************************************************* //
