/*--------------------------------*- C++ -*----------------------------------*\
  =========                 |
  \\      /  F ield         | OpenFOAM: The Open Source CFD Toolbox
   \\    /   O peration     | Website:  https://openfoam.org
    \\  /    A nd           | Version:  6
     \\/     M anipulation  |
\*---------------------------------------------------------------------------*/
FoamFile
{
    version     2.0;
    format      ascii;
    class       volScalarField;
    location    "2400";
    object      epsilon;
}
// * * * * * * * * * * * * * * * * * * * * * * * * * * * * * * * * * * * * * //

dimensions      [0 2 -3 0 0 0 0];

internalField   nonuniform List<scalar> 
458
(
0.000179267
0.000213555
0.000210022
0.00023483
0.000258307
0.000280136
0.000300787
0.00032099
0.000341796
0.000361343
0.000375006
0.000380415
0.000377365
0.000370023
0.000362533
3.90327e-05
4.75376e-05
4.71929e-05
4.52558e-05
4.25824e-05
3.8654e-05
3.46542e-05
3.11099e-05
2.80466e-05
2.54253e-05
2.31524e-05
2.11477e-05
1.93373e-05
1.76418e-05
1.59711e-05
1.41843e-05
1.24104e-05
9.33156e-06
0.000573957
0.00108213
0.000201408
0.000181104
0.000181642
0.000184893
0.000190557
0.000200201
0.000215579
0.000235448
0.000254593
0.000268339
0.000274018
0.000278417
0.00030848
0.000400053
0.000285619
0.000209691
0.000104611
6.97433e-05
5.30701e-05
4.29637e-05
3.62986e-05
3.3939e-05
2.91527e-05
2.49785e-05
2.15171e-05
1.86609e-05
1.62865e-05
1.42822e-05
1.25738e-05
1.12261e-05
1.07478e-05
1.1231e-05
2.0136e-05
1.56937e-05
0.00121772
0.00324646
0.000302884
0.000180781
0.000177379
0.000185625
0.000198809
0.000217798
0.000243223
0.000273538
0.000302156
0.00032049
0.000323688
0.000316972
0.000314165
0.000308733
0.000267034
0.000402935
0.000174443
8.89209e-05
5.92324e-05
4.48186e-05
3.85557e-05
7.70921e-05
5.80108e-05
4.4615e-05
3.52538e-05
2.86418e-05
2.38909e-05
2.04232e-05
1.79047e-05
1.62046e-05
1.31152e-05
1.20023e-05
2.90392e-05
2.15126e-05
0.00224277
0.00741153
0.000603663
0.000194963
0.000178135
0.000190821
0.000209983
0.000236365
0.000272377
0.000317314
0.000357853
0.000379106
0.000376386
0.000356452
0.000329923
0.000296189
0.000244859
0.000237194
0.000304984
0.000157404
8.5002e-05
5.53698e-05
4.19354e-05
3.72543e-05
8.57544e-05
7.40301e-05
6.91548e-05
6.67073e-05
6.42988e-05
6.04667e-05
5.55409e-05
5.03221e-05
4.40777e-05
2.87096e-05
1.95778e-05
3.87421e-05
2.85984e-05
0.00378673
0.0137848
0.00143246
0.000253733
0.000183544
0.000192549
0.000215086
0.000251347
0.000308977
0.00038553
0.000445415
0.000467335
0.00045232
0.000413485
0.000364239
0.000309709
0.000246321
0.000191599
0.000145004
9.76304e-05
6.72198e-05
4.96452e-05
4.11245e-05
3.77394e-05
4.01802e-05
4.31759e-05
4.62286e-05
4.8244e-05
4.84143e-05
4.62158e-05
4.22036e-05
3.83348e-05
3.48584e-05
2.93423e-05
2.33097e-05
3.10747e-05
3.70083e-05
4.43889e-05
5.30667e-05
6.05844e-05
0.00603332
0.0206614
0.0037339
0.000593251
0.000278921
0.000236072
0.000242231
0.000280669
0.000380797
0.000511359
0.000584955
0.000594194
0.000554621
0.000489676
0.000416588
0.000344252
0.00027274
0.000202646
0.000137305
9.14847e-05
6.48725e-05
5.11763e-05
4.62142e-05
4.58186e-05
4.91864e-05
5.49354e-05
6.08824e-05
6.54734e-05
6.75155e-05
6.56255e-05
5.85746e-05
4.92367e-05
4.0538e-05
3.29829e-05
2.73265e-05
2.76593e-05
3.11556e-05
4.91107e-05
0.00025912
0.00014444
0.00893838
0.0247103
0.00893301
0.00268202
0.00123788
0.000714718
0.000535464
0.000508292
0.000657449
0.000780026
0.000809577
0.000769501
0.000686437
0.000585148
0.000485214
0.00039581
0.000312605
0.000228584
0.000149693
9.52676e-05
6.8909e-05
5.88493e-05
5.72392e-05
5.90301e-05
6.36272e-05
7.08314e-05
7.94233e-05
8.76848e-05
9.44101e-05
9.75355e-05
9.4395e-05
8.07815e-05
6.66632e-05
5.48575e-05
4.77934e-05
4.71143e-05
5.30911e-05
8.11014e-05
0.000381176
0.00025228
0.00972189
0.0288439
0.0157332
0.0105776
0.00639307
0.00371809
0.00236277
0.00174883
0.00150191
0.00133416
0.00117584
0.00101175
0.000843531
0.000686467
0.000554936
0.000450285
0.000356063
0.000256676
0.000162544
0.000101592
8.06496e-05
7.49914e-05
7.45849e-05
7.6688e-05
8.12678e-05
8.85664e-05
9.83782e-05
0.000110292
0.000123932
0.000138655
0.000153256
0.000163618
0.000161722
0.000166023
0.000187108
0.00024896
0.000398997
0.000647332
0.0025989
0.000692103
0.009093
0.0156719
0.0142709
0.0109086
0.00815178
0.00591431
0.00429856
0.00324074
0.00249955
0.00197197
0.00157194
0.00124718
0.000971938
0.000755987
0.000603409
0.000497029
0.00039638
0.000276914
0.000167381
0.000119822
0.000105873
0.000101867
0.00010031
0.000100011
0.000101639
0.000106074
0.000113987
0.000125949
0.000142558
0.000164581
0.000193201
0.000230113
0.000277241
0.000345998
0.000455783
0.000618634
0.000829414
0.00105132
0.00125095
0.000673593
0.00680666
0.0138974
0.00875546
0.00627545
0.00469058
0.00359938
0.00280457
0.00217829
0.00168017
0.00127935
0.000951706
0.000736171
0.000617944
0.000547496
0.000443692
0.00028644
0.000201227
0.000173161
0.000164934
0.000159761
0.000153112
0.000145059
0.000137053
0.000130697
0.000127369
0.000128233
0.00013441
0.000147206
0.000168383
0.000200559
0.00024661
0.00031064
0.000398897
0.000510705
0.000625634
0.00069861
0.000701253
0.000429603
0.00497518
0.0104367
0.0070098
0.00520107
0.00399252
0.00308851
0.00236985
0.00181108
0.00137082
0.00102422
0.000742314
0.000677469
0.000719653
0.000764008
0.000666756
0.000520581
0.000438662
0.000403663
0.0003871
0.000371786
0.000351254
0.000325124
0.00029585
0.000266726
0.000240741
0.00022015
0.00020655
0.000201235
0.000205641
0.000221655
0.000253445
0.000303793
0.000374532
0.000460849
0.000551492
0.000633706
0.000641493
0.000456488
0.00246222
0.00318838
0.00388045
0.00478124
0.00412842
0.00357443
0.00276768
0.00203595
0.00145047
0.00100003
0.000721615
0.000507995
0.000322215
0.000239023
0.000279139
0.000303993
0.000288187
0.000248976
0.000218159
0.000198363
0.000184338
0.000172403
0.000161667
0.000152732
0.000146538
0.000143791
0.000144847
0.000149838
0.000158878
0.000172295
0.000190932
0.00021668
0.000247906
0.000286044
0.000332965
0.000388447
0.000454582
0.00044212
0.0003553
0.000290608
)
;

boundaryField
{
    floor
    {
        Cmu             0.09;
        kappa           0.41;
        E               9.8;
        type            epsilonWallFunction;
        value           nonuniform List<scalar> 
36
(
0.000362533
3.90327e-05
4.75376e-05
4.71929e-05
4.52558e-05
4.25824e-05
3.8654e-05
3.46542e-05
3.11099e-05
2.80466e-05
2.54253e-05
2.31524e-05
2.11477e-05
1.93373e-05
1.76418e-05
1.59711e-05
1.41843e-05
1.24104e-05
9.33156e-06
9.33156e-06
1.56937e-05
2.15126e-05
2.85984e-05
4.43889e-05
5.30667e-05
6.05844e-05
0.000362533
0.000400053
0.000285619
0.000209691
3.90327e-05
0.000209691
0.000104611
0.000402935
0.000174443
0.000304984
)
;
    }
    ceiling
    {
        Cmu             0.09;
        kappa           0.41;
        E               9.8;
        type            epsilonWallFunction;
        value           nonuniform List<scalar> 
43
(
0.00246222
0.00318838
0.00388045
0.00478124
0.00412842
0.00357443
0.00276768
0.00203595
0.00145047
0.00100003
0.000721615
0.000507995
0.000322215
0.000239023
0.000279139
0.000303993
0.000288187
0.000248976
0.000218159
0.000198363
0.000184338
0.000172403
0.000161667
0.000152732
0.000146538
0.000143791
0.000144847
0.000149838
0.000158878
0.000172295
0.000190932
0.00021668
0.000247906
0.000286044
0.000332965
0.000388447
0.000454582
0.00044212
0.0003553
0.000290608
0.009093
0.0156719
0.00497518
)
;
    }
    sWall
    {
        Cmu             0.09;
        kappa           0.41;
        E               9.8;
        type            epsilonWallFunction;
        value           uniform 0.00246222;
    }
    nWall
    {
        Cmu             0.09;
        kappa           0.41;
        E               9.8;
        type            epsilonWallFunction;
        value           nonuniform List<scalar> 6(6.05844e-05 0.00014444 0.00025228 0.000429603 0.000456488 0.000290608);
    }
    sideWalls
    {
        type            empty;
    }
    glass1
    {
        Cmu             0.09;
        kappa           0.41;
        E               9.8;
        type            epsilonWallFunction;
        value           nonuniform List<scalar> 9(0.000179267 0.000573957 0.00121772 0.00224277 0.00378673 0.00603332 0.00893838 0.00972189 0.009093);
    }
    glass2
    {
        Cmu             0.09;
        kappa           0.41;
        E               9.8;
        type            epsilonWallFunction;
        value           nonuniform List<scalar> 2(0.000692103 0.000673593);
    }
    sun
    {
        Cmu             0.09;
        kappa           0.41;
        E               9.8;
        type            epsilonWallFunction;
        value           nonuniform List<scalar> 
14
(
0.000179267
0.000213555
0.000210022
0.00023483
0.000258307
0.000280136
0.000300787
0.00032099
0.000341796
0.000361343
0.000375006
0.000380415
0.000377365
0.000370023
)
;
    }
    Table_master
    {
        Cmu             0.09;
        kappa           0.41;
        E               9.8;
        type            epsilonWallFunction;
        value           nonuniform List<scalar> 9(7.70921e-05 5.80108e-05 4.4615e-05 3.52538e-05 2.86418e-05 2.38909e-05 2.04232e-05 1.79047e-05 1.62046e-05);
    }
    Table_slave
    {
        Cmu             0.09;
        kappa           0.41;
        E               9.8;
        type            epsilonWallFunction;
        value           nonuniform List<scalar> 9(8.57544e-05 7.40301e-05 6.91548e-05 6.67073e-05 6.42988e-05 6.04667e-05 5.55409e-05 5.03221e-05 4.40777e-05);
    }
    inlet
    {
        type            turbulentMixingLengthDissipationRateInlet;
        mixingLength    0.01;
        phi             phi;
        k               k;
        value           uniform 0.000101881;
    }
    outlet
    {
        type            zeroGradient;
    }
}


// ************************************************************************* //
