/*--------------------------------*- C++ -*----------------------------------*\
  =========                 |
  \\      /  F ield         | OpenFOAM: The Open Source CFD Toolbox
   \\    /   O peration     | Website:  https://openfoam.org
    \\  /    A nd           | Version:  6
     \\/     M anipulation  |
\*---------------------------------------------------------------------------*/
FoamFile
{
    version     2.0;
    format      ascii;
    class       volScalarField;
    location    "2200";
    object      k;
}
// * * * * * * * * * * * * * * * * * * * * * * * * * * * * * * * * * * * * * //

dimensions      [0 2 -2 0 0 0 0];

internalField   nonuniform List<scalar> 
458
(
0.000961186
0.00103755
0.000982673
0.00105107
0.00111368
0.0011689
0.001218
0.00126282
0.00130551
0.00134897
0.00138395
0.00140599
0.0014156
0.00141913
0.00141851
0.000373912
0.000453148
0.00050992
0.000553145
0.000564117
0.000532652
0.000492434
0.000454628
0.000420955
0.000390641
0.000363015
0.000337516
0.000313588
0.000290541
0.000267547
0.000243135
0.000220362
0.000180879
0.00238652
0.00451003
0.00144517
0.00144278
0.00148902
0.0015471
0.0016106
0.00168224
0.00176377
0.00185338
0.00193654
0.00198563
0.00197277
0.00186952
0.00167259
0.00150743
0.00133346
0.00117063
0.000783643
0.000842831
0.000910231
0.000944098
0.00090258
0.000786359
0.000686579
0.000618667
0.00056216
0.000509587
0.000460362
0.000413946
0.000369008
0.000325482
0.000294305
0.000277512
0.000407218
0.000258814
0.0042375
0.0101558
0.00204765
0.00179765
0.0018406
0.00192621
0.00202132
0.00212846
0.0022487
0.0023762
0.00249555
0.0025705
0.00257161
0.00249294
0.00235817
0.00217256
0.0018792
0.00166381
0.00109916
0.00118969
0.0011725
0.00104429
0.000903377
0.000715895
0.00055257
0.000435263
0.000356548
0.000304198
0.000268135
0.00024237
0.000224413
0.000215341
0.00022441
0.000246568
0.000563903
0.000331141
0.00667827
0.0192483
0.00314169
0.00207589
0.00209422
0.00221577
0.00234553
0.00248432
0.00263761
0.00280581
0.00297321
0.00308595
0.00310481
0.00302044
0.002837
0.00255896
0.0022358
0.00195038
0.00163985
0.00173387
0.00128599
0.00105512
0.000860647
0.000740922
0.000566817
0.000571116
0.000599036
0.00063068
0.000654989
0.000661763
0.000641673
0.000605414
0.000561824
0.000459464
0.000384063
0.000737923
0.000433724
0.00972233
0.0316361
0.00573865
0.00239828
0.00227024
0.00240202
0.00256324
0.00274471
0.00295698
0.0032098
0.00346714
0.00363722
0.00367602
0.00358365
0.00336934
0.00305728
0.00272619
0.00244704
0.00209471
0.00155745
0.00120213
0.000960946
0.000819758
0.000782422
0.000844058
0.000936814
0.00103407
0.00112211
0.00118431
0.00120039
0.00115364
0.00103865
0.000905206
0.000747122
0.000593775
0.000673631
0.000662045
0.00063551
0.000697558
0.000731498
0.0134122
0.0444602
0.0125101
0.00365342
0.002688
0.00265513
0.00279203
0.00299819
0.00326831
0.00365583
0.00402731
0.00422891
0.00424661
0.00410892
0.00383813
0.00346319
0.00303683
0.00257345
0.00205749
0.00156654
0.00121959
0.0009887
0.000874051
0.000859122
0.000930791
0.00106663
0.00121351
0.00135686
0.00147854
0.00155031
0.0015443
0.00141898
0.00122187
0.00100891
0.00081651
0.000726241
0.00068561
0.000838341
0.00217186
0.00126418
0.0175674
0.0531603
0.0263473
0.0102944
0.00564034
0.00403905
0.00368137
0.00375393
0.00400175
0.00450436
0.00484737
0.0049406
0.00484017
0.00459815
0.00424294
0.00379856
0.0032968
0.00274106
0.00216886
0.00168173
0.00132976
0.00108584
0.000969486
0.000961575
0.00103522
0.00117063
0.00133727
0.0015181
0.00170127
0.00185105
0.00194804
0.00195388
0.00174895
0.00148523
0.00126656
0.00114271
0.00110987
0.00130675
0.00299901
0.00189421
0.0186279
0.0576606
0.0387397
0.0288715
0.019115
0.0123251
0.00879597
0.0071905
0.00659214
0.00639008
0.00614921
0.00583745
0.00546393
0.00503456
0.00455055
0.00401677
0.00344732
0.00286101
0.002299
0.00183435
0.00148554
0.00122041
0.00109456
0.00108644
0.00116036
0.00129176
0.00145962
0.00165172
0.00186177
0.00208381
0.00231664
0.00255576
0.0027454
0.00271451
0.00276088
0.00313363
0.00398001
0.00504812
0.0107147
0.00361474
0.0177896
0.0256322
0.0264842
0.0239138
0.0206443
0.0168826
0.0136085
0.0111788
0.00954636
0.00831894
0.00738203
0.00661801
0.00594556
0.0053127
0.00468957
0.0040641
0.00344073
0.00284271
0.00231897
0.001923
0.0016335
0.00137408
0.00124021
0.00121733
0.00127083
0.00137721
0.00152028
0.00169208
0.00189054
0.00211688
0.00237353
0.00266146
0.00297667
0.00331338
0.00373985
0.00432103
0.00494054
0.00542242
0.00574518
0.00347546
0.0149944
0.0293752
0.0221318
0.017978
0.0148596
0.0124452
0.0105999
0.0091499
0.0079453
0.00692652
0.0060433
0.00525437
0.0045296
0.00385091
0.00321552
0.00264742
0.00221405
0.00195872
0.00178752
0.00158546
0.00144705
0.00138233
0.00138026
0.00142699
0.00150871
0.00161716
0.00174995
0.00190938
0.00210147
0.00233579
0.00262571
0.00297712
0.00336805
0.00376554
0.0040454
0.00404417
0.00374489
0.00236098
0.0126317
0.0269677
0.0207703
0.017073
0.0143295
0.0121515
0.0103217
0.0088027
0.0075279
0.00641715
0.00546284
0.00464034
0.00392365
0.00329186
0.00273719
0.00229214
0.00209787
0.00217103
0.00225516
0.00219978
0.00206619
0.00191518
0.00180014
0.00174377
0.0017413
0.00178188
0.00185927
0.00197382
0.00213112
0.00233848
0.00259751
0.00293174
0.00332069
0.00370332
0.00402603
0.00423132
0.00382786
0.00242476
0.00787122
0.00932656
0.0106558
0.0122076
0.0108274
0.00968217
0.0080625
0.00684152
0.0057864
0.00486655
0.00409324
0.00348574
0.00296972
0.00250941
0.00208592
0.00168906
0.00131573
0.000978923
0.000729825
0.00068853
0.000716991
0.000718651
0.000707275
0.000706858
0.000730522
0.000779701
0.000850257
0.000938058
0.00104091
0.00115899
0.00129545
0.00145806
0.00166277
0.00188859
0.00213795
0.00240373
0.00270481
0.00262185
0.00222778
0.00190437
)
;

boundaryField
{
    floor
    {
        type            kqRWallFunction;
        value           nonuniform List<scalar> 
36
(
0.00141851
0.000373912
0.000453148
0.00050992
0.000553145
0.000564117
0.000532652
0.000492434
0.000454628
0.000420955
0.000390641
0.000363015
0.000337516
0.000313588
0.000290541
0.000267547
0.000243135
0.000220362
0.000180879
0.000180879
0.000258814
0.000331141
0.000433724
0.00063551
0.000697558
0.000731498
0.00141851
0.00150743
0.00133346
0.00117063
0.000373912
0.00117063
0.000783643
0.00166381
0.00109916
0.00163985
)
;
    }
    ceiling
    {
        type            kqRWallFunction;
        value           nonuniform List<scalar> 
43
(
0.00787122
0.00932656
0.0106558
0.0122076
0.0108274
0.00968217
0.0080625
0.00684152
0.0057864
0.00486655
0.00409324
0.00348574
0.00296972
0.00250941
0.00208592
0.00168906
0.00131573
0.000978923
0.000729825
0.00068853
0.000716991
0.000718651
0.000707275
0.000706858
0.000730522
0.000779701
0.000850257
0.000938058
0.00104091
0.00115899
0.00129545
0.00145806
0.00166277
0.00188859
0.00213795
0.00240373
0.00270481
0.00262185
0.00222778
0.00190437
0.0177896
0.0256322
0.0126317
)
;
    }
    sWall
    {
        type            kqRWallFunction;
        value           uniform 0.00787122;
    }
    nWall
    {
        type            kqRWallFunction;
        value           nonuniform List<scalar> 6(0.000731498 0.00126418 0.00189421 0.00236098 0.00242476 0.00190437);
    }
    sideWalls
    {
        type            empty;
    }
    glass1
    {
        type            kqRWallFunction;
        value           nonuniform List<scalar> 9(0.000961186 0.00238652 0.0042375 0.00667827 0.00972233 0.0134122 0.0175674 0.0186279 0.0177896);
    }
    glass2
    {
        type            kqRWallFunction;
        value           nonuniform List<scalar> 2(0.00361474 0.00347546);
    }
    sun
    {
        type            kqRWallFunction;
        value           nonuniform List<scalar> 
14
(
0.000961186
0.00103755
0.000982673
0.00105107
0.00111368
0.0011689
0.001218
0.00126282
0.00130551
0.00134897
0.00138395
0.00140599
0.0014156
0.00141913
)
;
    }
    Table_master
    {
        type            kqRWallFunction;
        value           nonuniform List<scalar> 9(0.000715895 0.00055257 0.000435263 0.000356548 0.000304198 0.000268135 0.00024237 0.000224413 0.000215341);
    }
    Table_slave
    {
        type            kqRWallFunction;
        value           nonuniform List<scalar> 9(0.000566817 0.000571116 0.000599036 0.00063068 0.000654989 0.000661763 0.000641673 0.000605414 0.000561824);
    }
    inlet
    {
        type            turbulentIntensityKineticEnergyInlet;
        intensity       0.05;
        value           uniform 0.0003375;
    }
    outlet
    {
        type            zeroGradient;
    }
}


// ************************************************************************* //
