/*--------------------------------*- C++ -*----------------------------------*\
  =========                 |
  \\      /  F ield         | OpenFOAM: The Open Source CFD Toolbox
   \\    /   O peration     | Website:  https://openfoam.org
    \\  /    A nd           | Version:  6
     \\/     M anipulation  |
\*---------------------------------------------------------------------------*/
FoamFile
{
    version     2.0;
    format      ascii;
    class       volScalarField;
    location    "600";
    object      alphat;
}
// * * * * * * * * * * * * * * * * * * * * * * * * * * * * * * * * * * * * * //

dimensions      [1 -1 -1 0 0 0 0];

internalField   nonuniform List<scalar> 
458
(
0.00112486
0.00121901
0.00122558
0.00128265
0.00133697
0.00138824
0.00143852
0.00149074
0.00153677
0.00157099
0.00158827
0.00158299
0.00155121
0.00149378
0.00141685
0.00053789
0.000669373
0.000751663
0.000744687
0.000719629
0.000678383
0.000635078
0.000595791
0.000561104
0.00053048
0.000503416
0.000479466
0.000457844
0.000437721
0.000418033
0.000397031
0.000376471
0.000338348
0.00159226
0.00370627
0.00352062
0.00416276
0.00472214
0.00526825
0.00576221
0.0061481
0.00649001
0.00679798
0.00703908
0.00715954
0.00707448
0.00659695
0.00509965
0.00150739
0.00121534
0.000911646
0.000574695
0.00123634
0.00167335
0.00195604
0.00203211
0.00162864
0.00141835
0.00126763
0.00115254
0.00106211
0.000988143
0.000920254
0.000854926
0.00078985
0.000734266
0.000690646
0.000772106
0.000416917
0.00199937
0.00521241
0.00421489
0.00572885
0.00645126
0.00694011
0.00728112
0.0075124
0.00772138
0.0079474
0.00818
0.00838278
0.00850017
0.00846103
0.00811751
0.00700581
0.005664
0.00122265
0.00113894
0.00164964
0.00210422
0.00245395
0.00251401
0.00093243
0.000827824
0.000740788
0.000669595
0.000611455
0.000563805
0.000524679
0.000492683
0.000467169
0.000502558
0.000574922
0.000847956
0.000468599
0.00241088
0.00714382
0.00440003
0.00608468
0.0070778
0.00747042
0.00760322
0.00761361
0.00766266
0.00780116
0.00801569
0.00826993
0.00850733
0.00867607
0.0087193
0.00849724
0.00774265
0.00507187
0.00157738
0.00198615
0.00257145
0.00309284
0.00343107
0.00334441
0.00101221
0.000923626
0.000862967
0.000818672
0.000782372
0.000748058
0.000716118
0.000682929
0.000644195
0.0006044
0.000598998
0.00090101
0.000516524
0.002842
0.00968598
0.005822
0.00591307
0.00702769
0.00756223
0.00769207
0.00751801
0.00748175
0.00757354
0.0077772
0.00805537
0.00833073
0.00852241
0.00857765
0.00846691
0.00811709
0.00732707
0.00610932
0.00565869
0.00545117
0.0052855
0.00508866
0.00479589
0.00408325
0.0037525
0.00359631
0.00349698
0.00339085
0.00322847
0.00293184
0.00252835
0.00204429
0.00153385
0.0011367
0.00102042
0.00077024
0.000599151
0.000631963
0.00065515
0.00328802
0.0123683
0.00923426
0.00728978
0.00722579
0.00750939
0.00767049
0.00758612
0.00753945
0.00758398
0.007752
0.00802444
0.00830824
0.00847964
0.00845066
0.00821501
0.00785024
0.00746947
0.00713137
0.00689099
0.0066017
0.00622391
0.00580773
0.00540747
0.00505031
0.00483931
0.00471109
0.0046013
0.00447625
0.00431376
0.00405232
0.0036575
0.0031268
0.00248955
0.00188768
0.00142591
0.00107924
0.00104838
0.00148016
0.000876774
0.00365359
0.0138772
0.012489
0.0103296
0.00937371
0.00880592
0.00841541
0.00807201
0.00783633
0.00777731
0.00792284
0.00821315
0.0085078
0.00864434
0.00851909
0.00814656
0.0076858
0.00736789
0.00723848
0.00707457
0.00671434
0.00620309
0.0056664
0.00521094
0.00490539
0.00475027
0.00466362
0.00458534
0.00449393
0.00438619
0.00425745
0.00402227
0.00362624
0.00309139
0.00253013
0.002021
0.00160803
0.00144676
0.001728
0.00106831
0.00367107
0.0113242
0.00964656
0.00951533
0.00948349
0.00913633
0.00863681
0.008186
0.0079342
0.00796323
0.00823826
0.00862105
0.00892185
0.00896891
0.00869194
0.00816319
0.00761468
0.00727914
0.00706413
0.00665353
0.00605536
0.00542449
0.00489929
0.00454353
0.00434566
0.00424599
0.00418064
0.00411873
0.0040571
0.00400573
0.0039785
0.00396472
0.00379329
0.00342661
0.00306427
0.00279889
0.00270409
0.00269882
0.00334226
0.0014833
0.00353916
0.00397323
0.00503757
0.00536785
0.00569143
0.0060478
0.00645211
0.00694177
0.00754235
0.00824746
0.00890599
0.00937179
0.00952155
0.00927626
0.00869067
0.00795695
0.00736514
0.00682253
0.00621239
0.00552515
0.004879
0.00437779
0.00404312
0.00383618
0.00370345
0.00360046
0.00349937
0.00338953
0.00326971
0.00313975
0.00299567
0.00282978
0.00266233
0.00250708
0.00239744
0.00234479
0.00230722
0.00223559
0.00213861
0.00146384
0.00541951
0.00956635
0.00916306
0.00931376
0.00976593
0.0103565
0.0108003
0.0108897
0.0107355
0.0103911
0.00983382
0.00901587
0.00800811
0.00702791
0.00616779
0.00539872
0.0047612
0.00425735
0.00388502
0.0036201
0.00342531
0.00326769
0.00312478
0.00298353
0.00283884
0.00269279
0.00255312
0.00243058
0.00233592
0.00227891
0.0022461
0.00222596
0.00221619
0.00220012
0.00213909
0.00199932
0.00180164
0.00125073
0.00330119
0.0095018
0.0100328
0.00987748
0.0100716
0.0102794
0.0102635
0.00999279
0.00951116
0.0088638
0.00806947
0.00716284
0.00623747
0.00539189
0.00474279
0.00433702
0.0041077
0.00396239
0.00383284
0.00368749
0.00353451
0.003368
0.0031881
0.00300113
0.00281702
0.00264659
0.00249907
0.00238016
0.00229057
0.00224295
0.00223383
0.00225468
0.00229037
0.00231323
0.00230519
0.00227356
0.00236213
0.00127841
0.00207745
0.00230243
0.00248338
0.00248038
0.00248504
0.00252512
0.00247746
0.00233404
0.00213505
0.00193187
0.00175001
0.00158558
0.00143012
0.00128695
0.0011706
0.00108827
0.0010353
0.00100124
0.000976699
0.000956634
0.000939258
0.000925203
0.000911263
0.000898624
0.00088898
0.000884052
0.000885222
0.000893373
0.000908999
0.000932525
0.000964791
0.00100312
0.00104701
0.00109714
0.00115374
0.00121411
0.00127745
0.00126222
0.00117214
0.00109406
)
;

boundaryField
{
    floor
    {
        type            compressible::alphatWallFunction;
        Prt             0.85;
        value           nonuniform List<scalar> 
36
(
0.000199808
7.50429e-05
9.47195e-05
0.000106785
0.000105766
0.000102104
9.60434e-05
8.96326e-05
8.37705e-05
7.8555e-05
7.39171e-05
6.97905e-05
6.61155e-05
6.27777e-05
5.96533e-05
5.65786e-05
5.32781e-05
5.00252e-05
4.39308e-05
4.39302e-05
5.64053e-05
6.44437e-05
7.17973e-05
8.42825e-05
8.91801e-05
9.26245e-05
0.000199806
0.000212023
0.000172299
0.000129806
7.5042e-05
0.000129804
8.06081e-05
0.000173296
0.000161753
0.000221398
)
;
    }
    ceiling
    {
        type            compressible::alphatWallFunction;
        Prt             0.85;
        value           nonuniform List<scalar> 
43
(
0.000287239
0.000316257
0.000339378
0.000339047
0.000339662
0.000344775
0.00033872
0.000320408
0.000294795
0.000268377
0.000244478
0.000222633
0.000201742
0.000182273
0.000166265
0.000154827
0.000147415
0.000142627
0.000139166
0.000136329
0.000133867
0.000131872
0.000129889
0.000128088
0.000126712
0.000126008
0.000126175
0.00012734
0.000129568
0.000132914
0.000137487
0.000142896
0.000149061
0.000156065
0.00016393
0.000172269
0.000180967
0.000178882
0.000166477
0.00015564
0.0004714
0.000524333
0.000441724
)
;
    }
    sWall
    {
        type            compressible::alphatWallFunction;
        Prt             0.85;
        value           uniform 0.000286109;
    }
    nWall
    {
        type            compressible::alphatWallFunction;
        Prt             0.85;
        value           nonuniform List<scalar> 6(9.24458e-05 0.00012466 0.000151721 0.00017699 0.000180783 0.000155328);
    }
    sideWalls
    {
        type            empty;
    }
    glass1
    {
        type            compressible::alphatWallFunction;
        Prt             0.85;
        value           nonuniform List<scalar> 9(0.000155885 0.000218618 0.000271726 0.000324325 0.000378493 0.000433694 0.000478421 0.000480694 0.000464856);
    }
    glass2
    {
        type            compressible::alphatWallFunction;
        Prt             0.85;
        value           nonuniform List<scalar> 2(0.000207478 0.000204911);
    }
    sun
    {
        type            compressible::alphatWallFunction;
        Prt             0.85;
        value           nonuniform List<scalar> 
14
(
0.0001598
0.000172803
0.000173707
0.000181537
0.000188953
0.000195922
0.000202727
0.000209766
0.000215949
0.000220534
0.000222846
0.000222142
0.000217891
0.000210184
)
;
    }
    Table_master
    {
        type            compressible::alphatWallFunction;
        Prt             0.85;
        value           nonuniform List<scalar> 9(0.000132846 0.000117892 0.000105278 9.4827e-05 8.61918e-05 7.90391e-05 7.31098e-05 6.82198e-05 6.42918e-05);
    }
    Table_slave
    {
        type            compressible::alphatWallFunction;
        Prt             0.85;
        value           nonuniform List<scalar> 9(0.000144119 0.000131597 0.000122942 0.000116576 0.000111329 0.000106342 0.000101675 9.67983e-05 9.10702e-05);
    }
    inlet
    {
        type            fixedValue;
        value           uniform 1.94e-05;
    }
    outlet
    {
        type            zeroGradient;
    }
}


// ************************************************************************* //
