/*--------------------------------*- C++ -*----------------------------------*\
  =========                 |
  \\      /  F ield         | OpenFOAM: The Open Source CFD Toolbox
   \\    /   O peration     | Website:  https://openfoam.org
    \\  /    A nd           | Version:  6
     \\/     M anipulation  |
\*---------------------------------------------------------------------------*/
FoamFile
{
    version     2.0;
    format      ascii;
    class       volScalarField;
    location    "600";
    object      k;
}
// * * * * * * * * * * * * * * * * * * * * * * * * * * * * * * * * * * * * * //

dimensions      [0 2 -2 0 0 0 0];

internalField   nonuniform List<scalar> 
458
(
0.0018679
0.00218981
0.00221324
0.00242404
0.0026336
0.00283935
0.00304862
0.0032738
0.00347895
0.00363548
0.00371582
0.00369106
0.00354437
0.0032869
0.00295735
0.00042665
0.000660648
0.000832975
0.000817569
0.000763487
0.000678506
0.000594677
0.000523406
0.000464259
0.000414984
0.000373738
0.000339037
0.00030916
0.000282591
0.000257749
0.000232509
0.00020906
0.000168878
0.0037473
0.00716995
0.00360077
0.0037798
0.0041344
0.0045252
0.00493512
0.00536315
0.00580435
0.00621046
0.00650183
0.00658743
0.00639248
0.00588099
0.00504158
0.00334757
0.00217631
0.00122473
0.000487099
0.00115587
0.00136
0.00139207
0.00131477
0.00112338
0.000933444
0.000778925
0.000657734
0.000562208
0.000485866
0.000423341
0.000371168
0.000328592
0.000301372
0.000288598
0.000404354
0.000256411
0.00591591
0.0141777
0.00477559
0.00440344
0.00474567
0.00518214
0.00564133
0.00613835
0.00665914
0.00713749
0.00748746
0.00762792
0.0075087
0.00712838
0.0065684
0.00579143
0.00465527
0.00220275
0.0019124
0.0019282
0.00188124
0.00177573
0.00161724
0.00128182
0.00101041
0.000809157
0.000661138
0.000551338
0.000468776
0.000405986
0.000357991
0.000321881
0.000293274
0.000287886
0.000516111
0.000323928
0.00861239
0.0246665
0.00695209
0.00492164
0.00511735
0.00557489
0.0060766
0.00666584
0.00725809
0.00775424
0.00808821
0.00821177
0.00809856
0.00774254
0.00721093
0.00661232
0.00591709
0.00492247
0.00366657
0.0030985
0.00274478
0.00246132
0.00219367
0.00192586
0.00151091
0.00125816
0.00109842
0.000988634
0.000902962
0.000825534
0.000756575
0.000688096
0.000612272
0.000468527
0.000376348
0.000610442
0.000393585
0.0119819
0.0386531
0.0125892
0.00652943
0.00608207
0.00641301
0.00692139
0.00764675
0.00826268
0.00867503
0.00889677
0.00892458
0.00872445
0.00826108
0.0075657
0.00673587
0.00586742
0.00508541
0.00440712
0.00383143
0.00333171
0.00288767
0.0024925
0.00214836
0.001876
0.00172118
0.0016367
0.00157303
0.00150131
0.00140376
0.00127216
0.00111722
0.000945832
0.000741347
0.000561189
0.000585745
0.000547484
0.000529608
0.000589219
0.000633437
0.0160546
0.0529173
0.0250116
0.0127281
0.0100823
0.00941857
0.00955643
0.00992827
0.0101496
0.0101952
0.010139
0.0099825
0.00962964
0.00897711
0.00801233
0.00684562
0.00568542
0.00477155
0.00418681
0.00377841
0.00336797
0.00293268
0.00252746
0.00220344
0.00200968
0.00194475
0.00193221
0.00191731
0.00187389
0.00178485
0.00163045
0.00143364
0.00121351
0.000982876
0.000780144
0.000665958
0.000602571
0.000731944
0.0019393
0.00113455
0.0198427
0.059794
0.0403177
0.0274299
0.0214051
0.0177006
0.0156537
0.0142403
0.0131945
0.0124374
0.0119111
0.011459
0.0108546
0.00991586
0.00861655
0.0071015
0.00565607
0.004588
0.00396509
0.00356122
0.00316232
0.00274836
0.00239403
0.00215667
0.0020599
0.0020696
0.00211434
0.00215252
0.00216565
0.0021385
0.00204607
0.00186434
0.00163897
0.00139848
0.00119499
0.00106023
0.000998477
0.00115153
0.00260777
0.00168444
0.0200623
0.0520572
0.0380096
0.0336473
0.0300888
0.0259109
0.0219372
0.0187274
0.0164354
0.0149799
0.0140696
0.0133086
0.0123364
0.0109469
0.00918224
0.0072564
0.00552359
0.00431929
0.00362101
0.00317135
0.00277948
0.00244636
0.00221811
0.00210406
0.0020861
0.00212965
0.00219963
0.00227844
0.00236167
0.00244961
0.0025415
0.0025978
0.00256505
0.00250877
0.00253223
0.00279547
0.00345832
0.00433422
0.00936235
0.00324967
0.0186852
0.0235096
0.0270595
0.0244933
0.0221743
0.020432
0.0191118
0.0181684
0.0175526
0.0171266
0.016506
0.0154257
0.0137663
0.0115602
0.00911693
0.00671946
0.00482183
0.00375552
0.00314058
0.00273306
0.00243489
0.00223222
0.00211632
0.00206584
0.00206051
0.0020849
0.00212902
0.00218948
0.002267
0.00236335
0.00247893
0.0026102
0.00277014
0.00300352
0.00335956
0.00385112
0.00439978
0.00485686
0.00517788
0.00316731
0.0282777
0.0414955
0.0320904
0.0285207
0.0268759
0.0258148
0.0243089
0.0219228
0.0191014
0.0161
0.0129885
0.00959111
0.00679654
0.00485526
0.00369899
0.0030966
0.00276406
0.00255639
0.00241144
0.00230029
0.00220994
0.0021287
0.00205275
0.00198405
0.00192822
0.00189333
0.00188885
0.00192492
0.00201235
0.00216181
0.00237291
0.0026483
0.00299114
0.00336622
0.0036655
0.00373753
0.00355078
0.00231215
0.0157266
0.0289763
0.0257748
0.0241371
0.0233437
0.0219512
0.0196638
0.0169557
0.0142507
0.0116698
0.00922029
0.00702212
0.00539094
0.00436731
0.00383637
0.00362172
0.00355496
0.00352576
0.00347415
0.00337757
0.00324875
0.0030871
0.00290038
0.00270351
0.00251462
0.00235159
0.00222974
0.0021609
0.00215342
0.00222462
0.00237897
0.00261723
0.00292702
0.00325909
0.00355336
0.00376899
0.0038902
0.00241548
0.00630141
0.00773586
0.00899945
0.00901193
0.00905674
0.00935937
0.00901888
0.00801402
0.00671274
0.00550055
0.0045167
0.00370974
0.00301906
0.00244544
0.00202347
0.00174893
0.00158285
0.00148045
0.00140879
0.00135154
0.00130293
0.00126426
0.00122647
0.00119271
0.00116728
0.0011544
0.00115748
0.00117893
0.00122056
0.00128459
0.00137505
0.0014865
0.00161949
0.00177831
0.00196659
0.00217787
0.00241116
0.00235412
0.00203007
0.00176904
)
;

boundaryField
{
    floor
    {
        type            kqRWallFunction;
        value           nonuniform List<scalar> 
36
(
0.00295735
0.00042665
0.000660648
0.000832975
0.000817569
0.000763487
0.000678506
0.000594677
0.000523406
0.000464259
0.000414984
0.000373738
0.000339037
0.00030916
0.000282591
0.000257749
0.000232509
0.00020906
0.000168878
0.000168878
0.000256411
0.000323928
0.000393585
0.000529608
0.000589219
0.000633437
0.00295735
0.00334757
0.00217631
0.00122473
0.00042665
0.00122473
0.000487099
0.00220275
0.0019124
0.00366657
)
;
    }
    ceiling
    {
        type            kqRWallFunction;
        value           nonuniform List<scalar> 
43
(
0.00630141
0.00773586
0.00899945
0.00901193
0.00905674
0.00935937
0.00901888
0.00801402
0.00671274
0.00550055
0.0045167
0.00370974
0.00301906
0.00244544
0.00202347
0.00174893
0.00158285
0.00148045
0.00140879
0.00135154
0.00130293
0.00126426
0.00122647
0.00119271
0.00116728
0.0011544
0.00115748
0.00117893
0.00122056
0.00128459
0.00137505
0.0014865
0.00161949
0.00177831
0.00196659
0.00217787
0.00241116
0.00235412
0.00203007
0.00176904
0.0186852
0.0235096
0.0157266
)
;
    }
    sWall
    {
        type            kqRWallFunction;
        value           uniform 0.00630141;
    }
    nWall
    {
        type            kqRWallFunction;
        value           nonuniform List<scalar> 6(0.000633437 0.00113455 0.00168444 0.00231215 0.00241548 0.00176904);
    }
    sideWalls
    {
        type            empty;
    }
    glass1
    {
        type            kqRWallFunction;
        value           nonuniform List<scalar> 9(0.0018679 0.0037473 0.00591591 0.00861239 0.0119819 0.0160546 0.0198427 0.0200623 0.0186852);
    }
    glass2
    {
        type            kqRWallFunction;
        value           nonuniform List<scalar> 2(0.00324967 0.00316731);
    }
    sun
    {
        type            kqRWallFunction;
        value           nonuniform List<scalar> 
14
(
0.0018679
0.00218981
0.00221324
0.00242404
0.0026336
0.00283935
0.00304862
0.0032738
0.00347895
0.00363548
0.00371582
0.00369106
0.00354437
0.0032869
)
;
    }
    Table_master
    {
        type            kqRWallFunction;
        value           nonuniform List<scalar> 9(0.00128182 0.00101041 0.000809157 0.000661138 0.000551338 0.000468776 0.000405986 0.000357991 0.000321881);
    }
    Table_slave
    {
        type            kqRWallFunction;
        value           nonuniform List<scalar> 9(0.00151091 0.00125816 0.00109842 0.000988634 0.000902962 0.000825534 0.000756575 0.000688096 0.000612272);
    }
    inlet
    {
        type            turbulentIntensityKineticEnergyInlet;
        intensity       0.05;
        value           uniform 0.0024;
    }
    outlet
    {
        type            zeroGradient;
    }
}


// ************************************************************************* //
