/*--------------------------------*- C++ -*----------------------------------*\
  =========                 |
  \\      /  F ield         | OpenFOAM: The Open Source CFD Toolbox
   \\    /   O peration     | Website:  https://openfoam.org
    \\  /    A nd           | Version:  6
     \\/     M anipulation  |
\*---------------------------------------------------------------------------*/
FoamFile
{
    version     2.0;
    format      ascii;
    class       volScalarField;
    location    "100";
    object      alphat;
}
// * * * * * * * * * * * * * * * * * * * * * * * * * * * * * * * * * * * * * //

dimensions      [1 -1 -1 0 0 0 0];

internalField   nonuniform List<scalar> 
458
(
0.00081534
0.000834439
0.000720254
0.000738842
0.000765412
0.000792021
0.000818126
0.000844091
0.000870832
0.000898612
0.000922959
0.000942848
0.000958021
0.000969331
0.000974846
0.000358158
0.000376131
0.000292473
0.000246992
0.000226153
0.000223084
0.000236824
0.000265413
0.000305014
0.000351936
0.000404401
0.000462212
0.000526186
0.000595766
0.000657809
0.000660895
0.000596814
0.000473634
0.00144644
0.00277374
0.0018911
0.00272931
0.00301312
0.00323154
0.00345087
0.00365458
0.0038159
0.00392168
0.00395911
0.00388444
0.003624
0.00305427
0.00206686
0.00106506
0.000983077
0.000708336
0.000459564
0.00130438
0.000737762
0.000479158
0.000373768
0.000356222
0.00036216
0.000398612
0.000482485
0.000620228
0.000804807
0.00102456
0.00127517
0.00158061
0.00226018
0.00211332
0.00150517
0.000563687
0.00199427
0.00475905
0.00210661
0.00364544
0.00462405
0.00498478
0.00525876
0.00549957
0.00569645
0.00583138
0.0059154
0.00591139
0.00575996
0.00536915
0.00464778
0.00361628
0.00233323
0.00102954
0.000640863
0.0014772
0.000953631
0.000584541
0.000352584
0.000227217
0.000227998
0.00025108
0.000294802
0.000361614
0.000451935
0.000565847
0.000706664
0.000883044
0.00281211
0.00275623
0.00201386
0.000872887
0.00250094
0.00712866
0.00276368
0.00353977
0.00528065
0.00584511
0.0061538
0.00641531
0.00664719
0.0068425
0.00702224
0.0071703
0.00723251
0.00711464
0.00667765
0.00576477
0.00425724
0.00235534
0.00103663
0.00199178
0.00206142
0.00167206
0.00137012
0.00111198
0.00089042
0.000903311
0.000912689
0.000920585
0.000929881
0.000944279
0.000969595
0.00101603
0.00110364
0.00343883
0.00350051
0.00293323
0.00118095
0.00296116
0.00956788
0.00413695
0.00332648
0.00510247
0.00590916
0.00629028
0.006582
0.00684192
0.0070916
0.0073991
0.00776525
0.00814729
0.0084759
0.00865686
0.00859778
0.008236
0.00755266
0.006614
0.0057069
0.00526
0.00509406
0.0050952
0.00512661
0.00504236
0.00497038
0.00486583
0.00473129
0.00457682
0.00442149
0.00429521
0.00423086
0.00424547
0.00435135
0.00417818
0.00390186
0.00338546
0.00139721
0.00120917
0.00105305
0.00338524
0.0116923
0.00651835
0.0039977
0.00438439
0.00515692
0.00570293
0.00609016
0.00635814
0.00661332
0.00700942
0.00754133
0.00817685
0.0088509
0.0094701
0.00993926
0.010176
0.0101042
0.00970312
0.00909232
0.00851037
0.00817202
0.00801372
0.00790693
0.00776193
0.00758516
0.00736372
0.0070888
0.00675498
0.00636659
0.00594799
0.00554361
0.00518863
0.00487244
0.00455388
0.00420399
0.0037411
0.00313625
0.0022177
0.00107569
0.00375466
0.0130969
0.00976609
0.00641535
0.0047559
0.00455354
0.00498774
0.00545127
0.00566772
0.00588536
0.00621683
0.00671248
0.00739684
0.00823521
0.00912713
0.00994695
0.0105757
0.0109089
0.0108979
0.0106142
0.0102324
0.00990409
0.00966984
0.00949072
0.00932903
0.00916189
0.00897102
0.0087381
0.00843994
0.00804937
0.00754806
0.00695121
0.00631677
0.00570447
0.00512755
0.00454961
0.00391411
0.00321395
0.00243518
0.00110381
0.00379582
0.0123119
0.0106371
0.00926544
0.0073509
0.00607084
0.00560697
0.00558494
0.00558354
0.00559452
0.00569134
0.00592721
0.00635734
0.00702026
0.00788979
0.00885274
0.00974488
0.01041
0.0107424
0.010767
0.01061
0.0103998
0.0102095
0.0100564
0.00993527
0.00983627
0.00974935
0.00966227
0.00955518
0.00939528
0.00913552
0.00872488
0.00813599
0.00739557
0.00657781
0.00572885
0.00486781
0.00411524
0.00355123
0.00177418
0.00363622
0.00422887
0.00798658
0.00866712
0.00800406
0.00711433
0.00640717
0.00593709
0.00562609
0.00545151
0.00540401
0.00547574
0.00567961
0.00604661
0.00660517
0.00734035
0.00816045
0.0089155
0.00946808
0.0097699
0.00986522
0.00983751
0.00975872
0.00967261
0.00960167
0.00955687
0.00954404
0.00956519
0.00961617
0.00968258
0.00973639
0.00973768
0.00964992
0.00945347
0.00913656
0.0087171
0.00813467
0.00716326
0.0068352
0.00194115
0.0165435
0.0165296
0.0103716
0.00830882
0.00721362
0.00651671
0.00605427
0.00575514
0.00558363
0.00552699
0.00557681
0.00572905
0.00598315
0.00633879
0.00678573
0.00728391
0.00776211
0.00814997
0.00841353
0.00856129
0.00862454
0.00863769
0.00862926
0.00862067
0.00862792
0.0086632
0.00873459
0.00884345
0.00897977
0.00911571
0.0092183
0.00921338
0.00902525
0.00861644
0.00796986
0.00706364
0.0059548
0.0018989
0.00633501
0.0139928
0.0103133
0.00833256
0.00717232
0.00643372
0.0059656
0.0056946
0.00557167
0.00556636
0.0056647
0.00584683
0.00607961
0.00632628
0.00657042
0.00680274
0.0070139
0.00719317
0.00733316
0.00743337
0.00749935
0.00753966
0.00756317
0.00757754
0.00758879
0.00760128
0.00761783
0.00763971
0.00766714
0.00769912
0.00772188
0.00766882
0.00749759
0.00717248
0.00667411
0.00596303
0.00552475
0.001824
0.0018878
0.00257033
0.00458815
0.00419362
0.00365994
0.00317636
0.00278563
0.0024796
0.00223901
0.00204869
0.0019008
0.0017895
0.00170856
0.00165363
0.00162188
0.00160987
0.00161115
0.00161979
0.00163092
0.00164092
0.00164758
0.00165007
0.00164861
0.00164405
0.00163744
0.00162977
0.00162192
0.00161452
0.00160795
0.00160224
0.00159692
0.0015908
0.00158149
0.00157064
0.00155609
0.0015354
0.00150561
0.00146489
0.00147425
0.0013163
)
;

boundaryField
{
    floor
    {
        type            compressible::alphatWallFunction;
        Prt             0.85;
        value           nonuniform List<scalar> 
36
(
0.000138831
4.71492e-05
5.00202e-05
3.65224e-05
2.89617e-05
2.5429e-05
2.48944e-05
2.72152e-05
3.20029e-05
3.85294e-05
4.61224e-05
5.44585e-05
6.3485e-05
7.3309e-05
8.3826e-05
9.30763e-05
9.35313e-05
8.39865e-05
6.52578e-05
6.5257e-05
7.89605e-05
0.000124306
0.000167607
0.000197231
0.000171533
0.000149853
0.00013883
0.000151508
0.000139989
0.000100499
4.71485e-05
0.000100498
6.30684e-05
0.000146523
9.05424e-05
0.000147513
)
;
    }
    ceiling
    {
        type            compressible::alphatWallFunction;
        Prt             0.85;
        value           nonuniform List<scalar> 
43
(
0.000262885
0.000350825
0.000598451
0.000551075
0.00048627
0.000426714
0.000377909
0.000339183
0.000308383
0.000283766
0.000264466
0.000249832
0.000239126
0.000231828
0.000227595
0.000225989
0.000226157
0.000227307
0.000228788
0.000230119
0.000231004
0.000231333
0.000231137
0.000230528
0.000229645
0.000228622
0.000227573
0.000226584
0.000225706
0.000224943
0.000224231
0.000223413
0.000222166
0.000220714
0.000218765
0.000215992
0.000211991
0.000206507
0.000207765
0.000186344
0.00048335
0.000555281
0.000803738
)
;
    }
    sWall
    {
        type            compressible::alphatWallFunction;
        Prt             0.85;
        value           uniform 0.000261948;
    }
    nWall
    {
        type            compressible::alphatWallFunction;
        Prt             0.85;
        value           nonuniform List<scalar> 6(0.000149674 0.000152831 0.000156752 0.000263846 0.000254002 0.000186052);
    }
    sideWalls
    {
        type            empty;
    }
    glass1
    {
        type            compressible::alphatWallFunction;
        Prt             0.85;
        value           nonuniform List<scalar> 9(0.000113129 0.000199686 0.000271534 0.000336216 0.000393854 0.000446199 0.000491287 0.000496408 0.000477216);
    }
    glass2
    {
        type            compressible::alphatWallFunction;
        Prt             0.85;
        value           nonuniform List<scalar> 2(0.000246636 0.000268532);
    }
    sun
    {
        type            compressible::alphatWallFunction;
        Prt             0.85;
        value           nonuniform List<scalar> 
14
(
0.000116084
0.00011882
0.00010225
0.000104969
0.00010884
0.0001127
0.000116472
0.00012021
0.000124045
0.000128015
0.000131481
0.000134305
0.000136454
0.000138053
)
;
    }
    Table_master
    {
        type            compressible::alphatWallFunction;
        Prt             0.85;
        value           nonuniform List<scalar> 9(2.56457e-05 2.57656e-05 2.96454e-05 3.68798e-05 4.76802e-05 6.18909e-05 7.9321e-05 0.000100286 0.000125846);
    }
    Table_slave
    {
        type            compressible::alphatWallFunction;
        Prt             0.85;
        value           nonuniform List<scalar> 9(0.000126893 0.000128737 0.000130078 0.000131206 0.000132531 0.000134575 0.000138157 0.000144698 0.000156952);
    }
    inlet
    {
        type            fixedValue;
        value           uniform 1.94e-05;
    }
    outlet
    {
        type            zeroGradient;
    }
}


// ************************************************************************* //
