/*--------------------------------*- C++ -*----------------------------------*\
  =========                 |
  \\      /  F ield         | OpenFOAM: The Open Source CFD Toolbox
   \\    /   O peration     | Website:  https://openfoam.org
    \\  /    A nd           | Version:  6
     \\/     M anipulation  |
\*---------------------------------------------------------------------------*/
FoamFile
{
    version     2.0;
    format      ascii;
    class       surfaceScalarField;
    location    "100";
    object      phi;
}
// * * * * * * * * * * * * * * * * * * * * * * * * * * * * * * * * * * * * * //

dimensions      [1 0 -1 0 0 0 0];

internalField   nonuniform List<scalar> 
850
(
-0.00222239
0.00227809
-0.00229568
7.34193e-05
-0.00236582
7.02688e-05
-0.00250684
0.000141158
-0.00266039
0.000153689
-0.0027958
0.000135535
-0.00289521
9.95506e-05
-0.00294447
4.93836e-05
-0.00292998
-1.43591e-05
-0.0028362
-9.36598e-05
-0.00264632
-0.000189756
-0.00234375
-0.000302448
-0.0018966
-0.000447039
-0.00119819
-0.000698296
-0.00119742
-0.000468985
0.000471069
-0.000490872
2.18925e-05
-0.000511012
2.01482e-05
-0.000556746
4.57455e-05
-0.000602978
4.62459e-05
-0.000634358
3.13965e-05
-0.000649304
1.49674e-05
-0.000652614
3.33933e-06
-0.000646073
-6.50355e-06
-0.000633008
-1.30162e-05
-0.000620003
-1.29446e-05
-0.000612043
-7.8883e-06
-0.000590756
-2.12063e-05
-0.000493404
-9.72641e-05
-0.000281716
-0.000211593
2.2078e-05
-0.00030369
0.000284136
-0.000261964
0.000285869
-0.00160022
0.00402044
-0.00203748
0.000510819
-0.00226809
0.00030101
-0.00245045
0.000323654
-0.00261671
0.000320085
-0.00275953
0.000278481
-0.00286924
0.000209399
-0.00293646
0.00011673
-0.00295186
1.17283e-06
-0.00290815
-0.000137254
-0.00279805
-0.000299734
-0.00261025
-0.000490131
-0.00233347
-0.000723709
-0.00202066
-0.00101101
-0.00198708
-0.00123091
-0.000840869
-0.00114488
0.000278759
-0.00111814
0.00028375
-9.18355e-05
0.000568249
-0.000411309
0.000341365
-0.000596366
0.000205207
-0.000667025
0.00011641
-0.000688388
6.76155e-05
-0.000688225
3.12433e-05
-0.000676715
3.47543e-06
-0.00066834
-5.00634e-06
-0.000663632
-1.1163e-05
-0.000661736
-1.48406e-05
-0.000660768
-1.38153e-05
-0.000662541
-5.99864e-06
-0.000669838
-1.37808e-05
-0.000644249
-0.000122718
-0.000516144
-0.000339551
-0.000455853
-0.000363818
-0.000426842
-0.000290806
-0.000136451
-0.00117543
0.00540528
-0.0017506
0.00108613
-0.00205497
0.000605515
-0.00226218
0.000531003
-0.00243017
0.000488205
-0.00256781
0.000416262
-0.00267457
0.000316291
-0.00274711
0.000189406
-0.00278157
3.57554e-05
-0.00277511
-0.000143588
-0.00272813
-0.000346589
-0.00264295
-0.000575201
-0.00253262
-0.000833928
-0.00243765
-0.00110587
-0.00235155
-0.0013169
-0.0020724
-0.00142394
-0.00170833
-0.00148213
-0.0014208
-0.000675599
0.00125086
-0.000860964
0.000526752
-0.000902778
0.000247049
-0.000864637
7.83013e-05
-0.000744762
-5.22182e-05
-0.000713357
-0.000709712
-0.000714531
-0.000725477
-0.000740056
-0.000753558
-0.000759202
-0.000772615
-0.000894964
-0.000635013
-0.000599259
-0.000523124
-0.000475421
-0.000409053
-0.000404523
-0.000540851
-0.000869752
0.00653937
-0.00148972
0.00170624
-0.00179953
0.000915461
-0.0020129
0.000744511
-0.00216851
0.000643956
-0.00228341
0.000531301
-0.00236649
0.000399505
-0.00242182
0.000244868
-0.00245121
6.52805e-05
-0.00245744
-0.000137235
-0.00245004
-0.000353861
-0.00244453
-0.000580593
-0.00246273
-0.000815605
-0.00252842
-0.00104007
-0.00263227
-0.00121295
-0.00274606
-0.00131005
-0.00292035
-0.00130776
-0.00334286
-0.000998226
-0.00299811
-0.00033996
-0.00214424
0.00039704
-0.00206739
0.000449976
-0.00210927
0.000289035
-0.00216523
0.000134386
-0.00222037
3.0515e-06
-0.00216069
-5.96849e-05
-0.00206033
-0.000100351
-0.00192771
-0.000132593
-0.00177337
-0.000154305
-0.00160417
-0.000169137
-0.00142425
-0.000179848
-0.00123199
-0.000192165
-0.00100773
-0.00022414
-0.00068242
-0.000325177
-0.000721197
-0.000560178
-0.000525456
-0.000670825
-0.000171679
-0.000757917
-0.000708618
-0.000646389
0.00749708
-0.00128245
0.00234244
-0.00152521
0.00115836
-0.0017169
0.000936338
-0.00184972
0.000776918
-0.00192508
0.000606802
-0.00195931
0.000433871
-0.00196625
0.000251941
-0.00195364
5.28116e-05
-0.00193174
-0.000158997
-0.00191978
-0.000365697
-0.00193869
-0.000561554
-0.0020065
-0.000747669
-0.00213163
-0.000914816
-0.00230271
-0.00104176
-0.00250598
-0.00110668
-0.00274837
-0.00106528
-0.00293017
-0.000816327
-0.00288666
-0.00038339
-0.00252392
3.43879e-05
-0.00224609
0.000172254
-0.00210021
0.000143268
-0.00202717
6.14829e-05
-0.00199337
-3.05981e-05
-0.00195099
-0.000101898
-0.00189668
-0.000154479
-0.0018334
-0.000195686
-0.00176083
-0.00022666
-0.00168066
-0.000249082
-0.0015935
-0.000266762
-0.00149512
-0.000290278
-0.00137459
-0.000344391
-0.00123297
-0.000466511
-0.00112783
-0.000665019
-0.000904306
-0.000894035
-0.00048755
-0.00117436
0.000241987
-0.00143783
0.00151213
-0.00126755
0.0017479
-0.0002325
0.00178061
-0.000614503
0.0084643
-0.00120483
0.00293291
-0.00118724
0.00114092
-0.00128222
0.00103147
-0.00141518
0.000910017
-0.00145724
0.000649012
-0.00142714
0.000403917
-0.00136142
0.000186363
-0.00127909
-2.93833e-05
-0.00120269
-0.000235255
-0.00116071
-0.000407541
-0.00117231
-0.000549814
-0.00124784
-0.000672002
-0.00138566
-0.000776874
-0.00157172
-0.000855576
-0.00178841
-0.000889858
-0.00200976
-0.000843815
-0.00215383
-0.000672154
-0.00214147
-0.000395648
-0.00197095
-0.000136025
-0.00179039
-8.19054e-06
-0.00165828
1.12825e-05
-0.0015765
-2.01537e-05
-0.00153574
-7.1208e-05
-0.00151611
-0.000121377
-0.00150521
-0.000165201
-0.00149935
-0.000201361
-0.00149723
-0.000228573
-0.00149949
-0.000246602
-0.00150722
-0.000258789
-0.00152038
-0.000276866
-0.00153872
-0.0003258
-0.00156602
-0.000438943
-0.00159309
-0.000637684
-0.00155575
-0.000931114
-0.00138966
-0.00134018
-0.000996078
-0.00183115
-0.00013599
-0.00212737
0.000591156
-0.000959324
0.0024068
-0.000830475
0.00968582
-0.000901221
0.0030038
-0.000369276
0.000609129
-0.000327552
0.0009899
-0.000564763
0.00114738
-0.000652254
0.000736654
-0.000589534
0.000341347
-0.000462664
5.96417e-05
-0.000331247
-0.000160654
-0.000231193
-0.000335163
-0.000181247
-0.000457342
-0.000194632
-0.000536285
-0.000275435
-0.000591057
-0.000417937
-0.000634232
-0.000607187
-0.000666189
-0.000821227
-0.000675687
-0.0010256
-0.000639314
-0.00116576
-0.000531872
-0.00119625
-0.000365045
-0.00112926
-0.000202898
-0.00103389
-0.000103432
-0.000955429
-6.70529e-05
-0.000906073
-6.93755e-05
-0.000885707
-9.14329e-05
-0.00088689
-0.000120043
-0.000903607
-0.000148322
-0.000932863
-0.00017193
-0.000974103
-0.000187143
-0.00102945
-0.000191055
-0.0011042
-0.000183821
-0.00120751
-0.000173325
-0.00135283
-0.00018025
-0.00155442
-0.000237122
-0.0018128
-0.000379074
-0.00210447
-0.000639216
-0.00240004
-0.00104438
-0.0026484
-0.00158256
-0.00266366
-0.00211187
-0.00161961
-0.00200309
0.000827777
0.00160802
0.00851679
0.00225295
0.00235901
0.00230079
0.000561431
0.00181653
0.00147431
0.00135241
0.00161166
0.00112478
0.000964445
0.00103842
0.000427862
0.00102479
7.34347e-05
0.0010437
-0.000179411
0.00105164
-0.000342955
0.00102435
-0.000429895
0.000957058
-0.000468845
0.000847696
-0.000481546
0.000696224
-0.000482612
0.000508374
-0.000478192
0.000298712
-0.000465881
9.51041e-05
-0.000435567
-6.19561e-05
-0.000374677
-0.000141529
-0.000285342
-0.000150688
-0.00019361
-0.000126351
-0.000127639
-9.95379e-05
-9.3735e-05
-8.46128e-05
-8.41664e-05
-8.61274e-05
-8.97801e-05
-0.000103274
-0.000102753
-0.00013395
-0.000117495
-0.000176211
-0.000129509
-0.000228755
-0.000134428
-0.000291743
-0.000127883
-0.000368765
-0.000106604
-0.000470727
-7.11576e-05
-0.000621156
-2.96111e-05
-0.000858154
8.60585e-08
-0.00122579
-1.12284e-05
-0.00176233
-0.000102479
-0.00251065
-0.000295861
-0.00355686
-0.000536161
-0.00487708
-0.000791469
-0.00505146
-0.00182853
-0.0040794
0.00899414
0.0113392
0.00911437
0.00278644
0.0063319
0.00425693
0.00503218
0.00291154
0.00424654
0.00175024
0.00369732
0.00097724
0.00328606
0.000484854
0.00294638
0.000160429
0.00265934
-5.57585e-05
0.00242176
-0.000192164
0.00221931
-0.000266234
0.00203462
-0.000296699
0.00185306
-0.000300894
0.00166522
-0.000290202
0.00147008
-0.000270592
0.0012794
-0.000244727
0.00111547
-0.000210608
0.000997972
-0.000167695
0.000928102
-0.000123599
0.000889915
-8.93115e-05
0.000865691
-6.93708e-05
0.000843733
-6.20689e-05
0.000817731
-6.36363e-05
0.000785145
-7.00242e-05
0.000745467
-7.76714e-05
0.000699492
-8.33834e-05
0.000649235
-8.40149e-05
0.000597956
-7.64416e-05
0.000549825
-5.8301e-05
0.000508878
-3.00321e-05
0.000477617
1.83506e-06
0.00045251
2.53827e-05
0.000426402
1.50723e-05
0.000392185
-6.80707e-05
0.000342301
-0.00024579
0.000307158
-0.00050084
0.00035978
-0.000843921
0.000229105
-0.0016977
-0.0036944
-0.000590376
0.00264295
0.00158547
0.00208126
0.00290968
0.0015875
0.00340567
0.0012544
0.00355528
0.000827792
0.00357606
0.000464231
0.00352346
0.000213191
0.00341948
4.83872e-05
0.00328766
-6.01757e-05
0.00314237
-0.000120789
0.00299243
-0.00014659
0.00284191
-0.000150215
0.00269083
-0.000138958
0.00253752
-0.000117118
0.00238472
-9.1767e-05
0.00224061
-6.63385e-05
0.00211555
-4.24776e-05
0.00201499
-2.28817e-05
0.00193653
-1.07021e-05
0.00187394
-6.62739e-06
0.00182095
-8.92736e-06
0.00177257
-1.51094e-05
0.00172545
-2.27558e-05
0.00167773
-2.98045e-05
0.001629
-3.4513e-05
0.00158049
-3.53483e-05
0.00153524
-3.10444e-05
0.00149819
-2.10954e-05
0.00147528
-6.95898e-06
0.00147178
5.49419e-06
0.0014937
3.63071e-06
0.00153563
-2.66854e-05
0.00158246
-0.000114729
0.00161878
-0.000281938
0.00165444
-0.000536329
0.00170669
-0.000896016
0.00152869
-0.00151955
-0.00213222
-0.000257981
0.00288433
0.00163994
0.00018354
0.00255395
0.000673668
0.00314423
0.00066431
0.00355463
0.000417567
0.00379456
0.000224481
0.00390452
0.000103406
0.00392558
2.75013e-05
0.00387646
-1.08817e-05
0.00377882
-2.29755e-05
0.00365258
-2.01762e-05
0.00351091
-8.37938e-06
0.00336449
7.63364e-06
0.00322378
2.3763e-05
0.00309529
3.68963e-05
0.00298274
4.63751e-05
0.00288854
5.18911e-05
0.00281262
5.32024e-05
0.0027517
5.03831e-05
0.00270092
4.43134e-05
0.00265571
3.64381e-05
0.00261259
2.81655e-05
0.0025694
2.05886e-05
0.00252527
1.44712e-05
0.00248059
1.03176e-05
0.00243698
8.41008e-06
0.00239733
8.74326e-06
0.00236562
1.076e-05
0.00234611
1.26954e-05
0.0023406
1.11506e-05
0.00234652
-2.13187e-06
0.00235365
-3.3662e-05
0.00233535
-9.62761e-05
0.00225592
-0.000202359
0.00207945
-0.0003597
0.00174555
-0.000561979
0.00108479
-0.000858647
-0.00100954
0.00434347
-0.0012144
0.00164538
0.00180431
0.00245233
0.00308913
0.00347691
0.00366927
0.00373831
0.00372934
0.00368019
0.00361752
0.00355665
0.00350699
0.00347322
0.00345585
0.00345217
0.00345867
0.00347144
0.00348626
0.00349893
0.00350614
0.00350601
0.0034981
0.00348308
0.00346238
0.00343797
0.00341211
0.00338706
0.00336454
0.00334445
0.00332333
0.00328935
0.00322424
0.00309682
0.0028635
0.00247282
0.00187963
0.000990402
)
;

boundaryField
{
    floor
    {
        type            calculated;
        value           nonuniform List<scalar> 
36
(
0
0
0
0
0
0
0
0
0
0
0
0
0
0
0
0
0
0
0
-1.67135e-06
-4.36303e-06
-4.22269e-06
-3.45634e-06
-2.26573e-06
-2.92049e-06
-3.60879e-06
-6.65406e-07
-1.23723e-06
-1.40424e-06
-1.92852e-06
-2.08138e-06
-2.96888e-06
-5.3449e-06
-3.70549e-06
-7.00499e-06
-4.73092e-06
)
;
    }
    ceiling
    {
        type            calculated;
        value           nonuniform List<scalar> 
43
(
6.30513e-05
4.62156e-05
2.47767e-05
2.48398e-05
2.58664e-05
2.77226e-05
2.99886e-05
3.23222e-05
3.4574e-05
3.66615e-05
3.84628e-05
3.98804e-05
4.08849e-05
4.14577e-05
4.15878e-05
4.13112e-05
4.07577e-05
4.0053e-05
3.92975e-05
3.85609e-05
3.78824e-05
3.72753e-05
3.67335e-05
3.62416e-05
3.5781e-05
3.53339e-05
3.48851e-05
3.44229e-05
3.39404e-05
3.34372e-05
3.29226e-05
3.24213e-05
3.19844e-05
3.15869e-05
3.12761e-05
3.10993e-05
3.11073e-05
3.13254e-05
3.07043e-05
3.33412e-05
1.71778e-05
1.40341e-05
1.68209e-05
)
;
    }
    sWall
    {
        type            calculated;
        value           uniform -0.000134551;
    }
    nWall
    {
        type            calculated;
        value           nonuniform List<scalar> 6(-2.87138e-05 -3.46446e-05 -4.02077e-05 -3.33548e-05 -3.77738e-05 -5.23618e-05);
    }
    sideWalls
    {
        type            empty;
        value           nonuniform 0();
    }
    glass1
    {
        type            calculated;
        value           nonuniform List<scalar> 9(-5.55771e-05 -0.000142006 -0.000209289 -0.000264216 -0.000311199 -0.000352603 -0.00039093 -0.000438866 -0.000494418);
    }
    glass2
    {
        type            calculated;
        value           nonuniform List<scalar> 2(-0.000144117 -0.000155752);
    }
    sun
    {
        type            calculated;
        value           uniform 0;
    }
    Table_master
    {
        type            calculated;
        value           nonuniform List<scalar> 9(-1.52665e-07 -1.52676e-07 -1.52667e-07 -1.52645e-07 -1.52606e-07 -1.52548e-07 -1.52469e-07 -1.52367e-07 -1.52189e-07);
    }
    Table_slave
    {
        type            calculated;
        value           nonuniform List<scalar> 9(1.51634e-07 1.51653e-07 1.51681e-07 1.51719e-07 1.51762e-07 1.51805e-07 1.51846e-07 1.51883e-07 1.51885e-07);
    }
    inlet
    {
        type            calculated;
        value           uniform 0.000734092;
    }
    outlet
    {
        type            calculated;
        value           nonuniform List<scalar> 2(-0.00427165 0.00551198);
    }
}


// ************************************************************************* //
