/*--------------------------------*- C++ -*----------------------------------*=========                 |
  \      /  F ield         | OpenFOAM: The Open Source CFD Toolbox
   \    /   O peration     | Website:  https://openfoam.org
    \  /    A nd           | Version:  6
     \/     M anipulation  |
\*---------------------------------------------------------------------------*/
FoamFile
{
    version     2.0;
    format      ascii;
    class       volScalarField;
    location    "100";
    object      PPD;
}
// * * * * * * * * * * * * * * * * * * * * * * * * * * * * * * * * * * * * * //

dimensions      [0 0 0 0 0 0 0];

internalField   nonuniform List<scalar> 
458
(
83.89273238849421
77.86623710027557
78.70002669531335
78.75570174347409
78.7442262253977
78.73268269384215
78.74681972840665
78.79948723674349
78.87946704101772
79.04447889681992
79.23996355907077
79.57470838037457
80.07071811294031
80.53895263085681
80.0043471778456
72.61138038469957
72.28441144471097
72.14381359257258
72.12035352809463
72.12035352809463
72.19071053976383
72.26099786555389
72.40136244946271
72.61138038469957
72.91360670488037
73.32982945148473
73.85779987204896
74.47191560149633
75.07973951758117
75.54803511933913
75.39237539320298
74.44928173583224
73.85779987204896
85.15621116138132
79.15959574739946
80.31910957570634
80.2510449818616
80.35524620507292
80.4644416554069
80.58095944738615
80.68517318961077
80.7810106590278
80.89708859806353
80.93807981519188
80.94364126650338
80.82322779922096
80.4574011102292
79.73576085210408
79.7643254202566
80.17321961168136
79.12444557614805
71.28659958056045
72.16726593292145
71.8146740759606
71.62592459236913
71.53136916448574
71.50771158947558
71.55501926184564
71.69676227994661
72.0029376726355
72.49478242516511
73.21447603516435
74.177005232532
75.2809204778977
76.40710419828332
77.25196810053427
76.84217093049699
75.76963779479313
73.20640627171305
87.77526048867742
80.16610285086733
82.02698796356654
81.77704666323545
81.99533399745117
82.28616761023825
82.56419234244126
82.80246064678903
83.0175380919894
83.13371231888917
83.1481410325309
82.9751762700812
82.5445231573313
81.74026367308035
80.59527792070105
79.3873610599613
78.02561527297767
76.41231292919585
72.9824829083631
73.09891892831558
72.84398188155163
72.51811778218962
72.12035352809463
71.19948701587435
71.19948701587435
71.34189999567768
71.6731572492067
72.26099786555389
73.23756304975927
74.6752309603683
76.4507800172048
78.35558713929123
79.96003058058126
79.77810655197624
79.37080889368292
78.27581509300221
90.32117991285668
81.51633515761499
83.6618855565792
83.22645740658817
83.59311228614911
84.08704098156153
84.58078267386534
85.02538169460463
85.39630605254762
85.65609598308988
85.72734067660244
85.55683250634445
85.02614499958055
84.0605200459606
82.67136685985045
80.8114250694219
78.43433779186658
75.55707418555612
73.45699451589255
73.7202395159569
74.94421480435669
76.41302516213887
77.18295642863349
77.62371183674331
77.96543603613242
78.21825755608137
78.52857679890501
78.9331813907094
79.41812867071351
80.01792005203772
80.77395157962437
81.7148616643684
82.24619965222651
82.67798402699647
83.0670469989652
83.3783579801621
83.52372293964694
92.50864387144698
83.23063637634618
85.140882046729
84.66684921734416
85.12941033195177
85.82328485480497
86.54105608552884
87.21211506368921
87.81061345631095
88.25626493813425
88.47561593558382
88.39985896053477
87.99661765498612
87.21467338179347
86.03463304940166
84.48883161108243
82.61976148540955
80.63009141575505
79.0509707303543
78.20054355984774
78.71696209862822
79.52176310670099
80.04333941279089
80.31176034274309
80.45224882459627
80.5463904264249
80.67937324633343
80.90930709581724
81.23189078599458
81.68158068585674
82.27792307639395
82.99886767727617
83.7549353272974
84.40295790608278
85.05737505975637
85.71497213886695
86.08374132176108
85.90637602888113
84.00449313384061
83.94587240428305
94.1932530736865
85.32778218354997
86.98338883644654
86.44931824800466
86.77906969089389
87.57585331588646
88.46832809897086
89.35198311647304
90.15688706828315
90.77375611170746
91.10957063784439
91.14774091461345
90.89470041456707
90.33590949787191
89.48503626624122
88.31421023231464
86.91808980644653
85.43339337924056
84.16941274656307
83.3242207109659
83.02768778582545
83.1196045657821
83.23963842361884
83.28363532047172
83.2144177972879
83.12125866074037
83.05353837855661
83.03433384364791
83.11900534979016
83.34083354110021
83.7115688682001
84.2162165065007
84.77120863275486
85.30865411494838
85.77307158329695
86.09482794801787
86.1905841841595
86.08792666720781
86.1202453055942
81.53575410850468
95.46812671477356
88.3954091814402
90.4432894631318
89.47089431812049
89.25522490849683
89.93203728375998
90.59700827681709
91.31632906105926
92.07633345044131
92.62834384870095
92.98776357821248
93.14227660757551
93.12181741544269
92.91481094401952
92.47978953200573
91.7249257238167
90.76325628188957
89.72423476619498
88.74124476129515
87.98180885741243
87.49497454695258
87.15268832272405
86.82214645040922
86.534668707372
86.27591816767938
86.01414803256674
85.78262740274877
85.59910333386071
85.49840131488372
85.45571449560376
85.49014445865463
85.64708973271559
85.90749407604446
86.1761608751132
86.38400213112381
86.44973190201921
86.34219024425899
86.08629036080045
85.49972063174522
79.91988833452449
97.0137925298685
94.05567999194562
94.09169575181704
93.02252161169417
92.41282887555211
92.5081871478856
92.77613463629626
93.0888422548066
93.46587490406725
93.80180632105318
94.06091176958162
94.23092318660164
94.32578282617393
94.3136527856337
94.20400150210924
93.84995118439238
93.31441658765073
92.63909816759787
91.87069593101786
91.13404120522054
90.48187715665775
89.93203728375998
89.4579654280185
89.04008485919992
88.65486634456643
88.290462412569
87.93364632099627
87.58527385608099
87.27723370265002
87.05878113729261
86.9486833635595
87.02738389213053
87.29274848423675
87.74026762300659
87.59667318960317
87.39309090413799
87.20164299555142
87.06687493714935
86.83066848856849
85.72681870234608
98.45410205350294
97.63826027051176
97.91596783063035
97.26863988281671
96.28634271553541
95.58181599011347
95.1802329464284
94.99933913438143
94.92022102643682
94.90745552578296
94.9788194492026
95.05868537504176
95.11841257575966
95.12171065304273
95.05709563595616
94.91097779855191
94.65620501330686
94.31607871753334
93.89581950567815
93.42458802705313
92.93972745112706
92.44381157600745
91.95110380724792
91.49601986933351
91.060396794083
90.63517485482457
90.20954760108904
89.78460173501264
89.36141349509029
88.9694008817178
88.6404327639204
88.40787972115353
88.30518117390362
88.3639373666484
88.55358181522864
88.82714295971364
89.15256247998217
89.48544518943481
88.47630482811607
87.07850899436474
100.0
98.74789952209333
97.77924833724072
97.19892416656891
96.81114130988121
96.56055267936729
96.42205973235244
96.33741205644174
96.27709321002934
96.2326301495761
96.18276283430602
96.11976989884059
96.02863526365095
95.88645570972501
95.690562648191
95.42774923639806
95.09656187790465
94.71140507651623
94.29179106855312
93.84523765276586
93.41335006630808
92.97102620853045
92.54315750427368
92.12335540242458
91.70312869437645
91.28365313365268
90.85208162736896
90.4175214356753
90.00096183912058
89.59656035803133
89.24512489358158
88.9881969779282
88.84008839197136
88.80639118266471
88.8157536142133
88.79573803597138
88.23878474498486
88.22512614027731
100.0
100.0
98.75325787737086
98.33627536050436
98.00086880381413
97.76319337010892
97.59655012206028
97.46911905105206
97.35130281099087
97.23868633657699
97.11973839219762
96.99360111655425
96.85347772476806
96.69189229166011
96.51305557585641
96.29356584672605
96.04257654891178
95.74767904395217
95.41911352089978
95.06191646668198
94.674436347046
94.27458511997924
93.86415708811111
93.43448010081633
93.0080649290506
92.56498290429577
92.10486912293713
91.63892924750216
91.152961983658
90.6702468939411
90.20103768277319
89.77745258565452
89.45407699784587
89.23755307466676
89.15085741368777
89.16047133155776
88.83146507775412
88.51484770318771
100.0
100.0
100.0
100.0
100.0
100.0
98.89791181033802
98.69349339580984
98.5191396029217
98.35709307331827
98.19731967483641
98.0341266979194
97.86418545284513
97.68325723002103
97.4973976242937
97.29669361137874
97.08633370252736
96.86603430824114
96.62816021018274
96.37075260266374
96.09937848810216
95.80500734301214
95.48565490911669
95.15756195168488
94.80277657558827
94.42971247500272
94.03838791900758
93.62876088549969
93.20102568168498
92.74333861440033
92.27926973058013
91.78424831568391
91.29618060597242
90.81163993720467
90.3389930547658
89.92113500403826
89.57707951395342
89.27635820941791
88.8008580373149
87.68451505799982
)
;

boundaryField
{
    ".*"
    {
        type            zeroGradient;
    }
}


// ************************************************************************* //
