// -*- C++ -*-
// File generated by PyFoam - sorry for the ugliness

FoamFile
{
 version 2.0;
 format ascii;
 class volVectorField;
 location "900";
 object U;
}

dimensions [ 0 1 -1 0 0 0 0 ];

internalField nonuniform List<vector> 458
(
  (0.0246835 0.0949094 0)
  (-0.185507 0.0314573 0)
  (-0.223447 0.021366 0)
  (-0.263585 0.0124793 0)
  (-0.291299 0.00271736 0)
  (-0.303822 -0.00816754 0)
  (-0.296962 -0.0206583 0)
  (-0.267738 -0.0357905 0)
  (-0.215465 -0.0525471 0)
  (-0.145402 -0.0682262 0)
  (-0.0696275 -0.0783243 0)
  (0.0237612 -0.0651682 0)
  (0.072851 -0.0315584 0)
  (0.0862023 -0.00146816 0)
  (0.0701102 0.0470082 0)
  (-0.0119276 0.00940306 0)
  (-0.0356654 -0.0218638 0)
  (-0.00716872 -0.0358152 0)
  (0.0264948 -0.0300455 0)
  (0.0508695 -0.0214709 0)
  (0.0687535 -0.0117733 0)
  (0.0788442 -0.00664576 0)
  (0.0828831 -0.00478215 0)
  (0.0841657 -0.00406625 0)
  (0.0846545 -0.00360518 0)
  (0.0847512 -0.00320816 0)
  (0.0843318 -0.00275246 0)
  (0.0831404 -0.00203096 0)
  (0.0805056 -0.000596148 0)
  (0.075003 0.0021661 0)
  (0.0650313 0.00547501 0)
  (0.0529924 0.00919872 0)
  (-0.00414843 0.0260357 0)
  (0.201509 0.196123 0)
  (-0.174018 0.0864596 0)
  (-0.188646 0.0705139 0)
  (-0.232282 0.0537914 0)
  (-0.262063 0.0339789 0)
  (-0.277181 0.010062 0)
  (-0.273868 -0.0191496 0)
  (-0.249885 -0.0531874 0)
  (-0.205468 -0.0878526 0)
  (-0.14571 -0.115225 0)
  (-0.0808026 -0.125783 0)
  (-0.0190768 -0.106471 0)
  (0.0358185 -0.0466365 0)
  (0.0706142 0.00565957 0)
  (0.0945831 0.0540897 0)
  (0.110562 0.057884 0)
  (0.0881141 0.0633746 0)
  (0.00747116 0.0861066 0)
  (0.0659879 0.0450895 0)
  (0.0160776 -0.0298026 0)
  (0.0331408 -0.0467668 0)
  (0.0513576 -0.0434416 0)
  (0.0674039 -0.0329457 0)
  (0.0764155 -0.0139467 0)
  (0.0785605 -0.00262401 0)
  (0.0783586 0.00152208 0)
  (0.078371 0.00296806 0)
  (0.0787133 0.00374682 0)
  (0.07898 0.0043118 0)
  (0.0789927 0.00484844 0)
  (0.0787558 0.00586363 0)
  (0.0776848 0.0084091 0)
  (0.0730702 0.015333 0)
  (0.0617224 0.0219192 0)
  (0.0528247 0.0280806 0)
  (-0.0456511 0.0554425 0)
  (0.36495 0.29611 0)
  (-0.187575 0.138868 0)
  (-0.148712 0.115878 0)
  (-0.194265 0.0861748 0)
  (-0.224535 0.0525643 0)
  (-0.242352 0.0129436 0)
  (-0.243096 -0.0337247 0)
  (-0.223776 -0.0870217 0)
  (-0.185976 -0.139385 0)
  (-0.135481 -0.176358 0)
  (-0.0820244 -0.184856 0)
  (-0.0342145 -0.157051 0)
  (0.00984393 -0.0888397 0)
  (0.0423936 -0.0255219 0)
  (0.0690178 0.0215888 0)
  (0.0775918 0.0299174 0)
  (0.0691137 0.0429271 0)
  (-0.00945923 0.0844907 0)
  (0.127979 -0.0131941 0)
  (0.0735132 -0.0431872 0)
  (0.0676396 -0.0545316 0)
  (0.0739575 -0.0534742 0)
  (0.0814399 -0.0479813 0)
  (0.086026 -0.0343285 0)
  (0.0753849 -0.0216864 0)
  (0.0668912 -0.0150051 0)
  (0.0639435 -0.0113135 0)
  (0.0634593 -0.00891323 0)
  (0.0635299 -0.00722225 0)
  (0.0640391 -0.00578864 0)
  (0.0655839 -0.00407041 0)
  (0.0696098 0.000425239 0)
  (0.0689695 0.020747 0)
  (0.0561254 0.0352237 0)
  (0.0569305 0.0474233 0)
  (-0.0830823 0.0862797 0)
  (0.517997 0.378443 0)
  (-0.218904 0.185576 0)
  (-0.101382 0.158705 0)
  (-0.148384 0.119469 0)
  (-0.175879 0.0764817 0)
  (-0.195234 0.0242276 0)
  (-0.199792 -0.039338 0)
  (-0.183662 -0.112005 0)
  (-0.151919 -0.181279 0)
  (-0.111184 -0.226322 0)
  (-0.0698925 -0.233169 0)
  (-0.0338948 -0.198012 0)
  (-0.00258202 -0.124901 0)
  (0.0242821 -0.0509268 0)
  (0.0453319 0.000953952 0)
  (0.0586498 0.0293467 0)
  (0.0722538 0.0525034 0)
  (0.063638 0.0861983 0)
  (0.107393 0.0922094 0)
  (0.100157 0.00337903 0)
  (0.0863551 -0.0378664 0)
  (0.0813636 -0.0509771 0)
  (0.0774488 -0.0517017 0)
  (0.0706956 -0.0454604 0)
  (0.0714875 -0.027381 0)
  (0.0858216 -0.0178349 0)
  (0.0973166 -0.0127614 0)
  (0.104126 -0.00965449 0)
  (0.108188 -0.0071406 0)
  (0.110019 -0.00454953 0)
  (0.108005 -0.00131887 0)
  (0.100686 0.00303108 0)
  (0.085702 0.00931236 0)
  (0.0683836 0.0312863 0)
  (0.0542315 0.0506384 0)
  (0.0668922 0.068894 0)
  (-0.103068 0.116235 0)
  (0.661814 0.442134 0)
  (-0.262867 0.222295 0)
  (-0.0463745 0.18951 0)
  (-0.0939934 0.14531 0)
  (-0.114328 0.097682 0)
  (-0.132859 0.0365934 0)
  (-0.139913 -0.0410535 0)
  (-0.123654 -0.131382 0)
  (-0.0983965 -0.214201 0)
  (-0.0696558 -0.263603 0)
  (-0.0430744 -0.267687 0)
  (-0.0210246 -0.22665 0)
  (-0.0027149 -0.149517 0)
  (0.0149432 -0.0701381 0)
  (0.0298025 -0.0143157 0)
  (0.0436232 0.0215321 0)
  (0.059486 0.0447308 0)
  (0.0737892 0.0525809 0)
  (0.0927541 0.0119487 0)
  (0.0937498 -0.0261495 0)
  (0.0871392 -0.042061 0)
  (0.0777114 -0.0467006 0)
  (0.0682755 -0.0448593 0)
  (0.0601904 -0.0370393 0)
  (0.0587197 -0.0211611 0)
  (0.0639024 -0.0119772 0)
  (0.0697391 -0.00821273 0)
  (0.0745927 -0.00609755 0)
  (0.0787325 -0.00347014 0)
  (0.0818837 0.000799687 0)
  (0.0830965 0.00690194 0)
  (0.0811239 0.0149919 0)
  (0.0758251 0.0257935 0)
  (0.0689006 0.0430484 0)
  (0.0608761 0.061827 0)
  (0.087531 0.0830363 0)
  (0.0241998 0.11478 0)
  (0.098969 0.142865 0)
  (0.1264 0.155049 0)
  (-0.175813 0.191694 0)
  (0.782677 0.493193 0)
  (-0.315557 0.244625 0)
  (0.0101797 0.198098 0)
  (-0.0318215 0.161754 0)
  (-0.0422144 0.115702 0)
  (-0.0583607 0.0511214 0)
  (-0.0641082 -0.0381555 0)
  (-0.042645 -0.147476 0)
  (-0.0257018 -0.238192 0)
  (-0.0118285 -0.286887 0)
  (-0.00280936 -0.286447 0)
  (0.00236188 -0.240366 0)
  (0.00517182 -0.161557 0)
  (0.0103842 -0.0803447 0)
  (0.0165341 -0.0237678 0)
  (0.0251085 0.00968971 0)
  (0.0376458 0.0276445 0)
  (0.0537715 0.0277075 0)
  (0.0668609 0.00413938 0)
  (0.0685471 -0.0164442 0)
  (0.062156 -0.0294747 0)
  (0.0522702 -0.0352038 0)
  (0.0425108 -0.0351155 0)
  (0.0348262 -0.0302991 0)
  (0.0318253 -0.0218794 0)
  (0.0337523 -0.0165523 0)
  (0.0378914 -0.0142626 0)
  (0.0427319 -0.0125628 0)
  (0.0478735 -0.00968945 0)
  (0.052974 -0.00442858 0)
  (0.0580905 0.00395572 0)
  (0.0611756 0.0148719 0)
  (0.0628598 0.0280122 0)
  (0.0649245 0.0440089 0)
  (0.0666161 0.0609896 0)
  (0.0884967 0.0801299 0)
  (0.0807421 0.0845504 0)
  (0.0979202 0.033996 0)
  (0.126885 -0.0171746 0)
  (-0.216306 0.0955732 0)
  (0.853857 0.537311 0)
  (-0.354673 0.222971 0)
  (0.060951 0.150396 0)
  (0.0445494 0.162869 0)
  (0.0366748 0.131544 0)
  (0.0226398 0.0645995 0)
  (0.0307957 -0.0450956 0)
  (0.0551136 -0.164738 0)
  (0.0616616 -0.250253 0)
  (0.0585629 -0.291164 0)
  (0.0478598 -0.284593 0)
  (0.0328771 -0.237083 0)
  (0.0162742 -0.158714 0)
  (0.0055875 -0.0772569 0)
  (0.000868848 -0.0238824 0)
  (0.0027985 0.00273115 0)
  (0.0116516 0.0145361 0)
  (0.0238018 0.0136495 0)
  (0.0314913 0.00100889 0)
  (0.0316021 -0.0122407 0)
  (0.025932 -0.0218248 0)
  (0.0173644 -0.0264517 0)
  (0.008762 -0.0270462 0)
  (0.00204758 -0.0248838 0)
  (-0.000969229 -0.02134 0)
  (-0.000171854 -0.0193127 0)
  (0.00277757 -0.0185864 0)
  (0.00674743 -0.0177237 0)
  (0.0114739 -0.0154855 0)
  (0.0170314 -0.0107333 0)
  (0.0241479 -0.00222277 0)
  (0.0331208 0.00984438 0)
  (0.0409787 0.0230405 0)
  (0.0500521 0.0369624 0)
  (0.0597817 0.0504658 0)
  (0.079136 0.0649578 0)
  (0.092183 0.0660406 0)
  (0.107674 0.0421768 0)
  (0.162731 0.0481841 0)
  (-0.14883 0.155583 0)
  (0.96721 0.5349 0)
  (-0.0652042 0.197103 0)
  (0.137152 0.0900988 0)
  (0.172062 0.107818 0)
  (0.145265 0.0891876 0)
  (0.125024 0.0150683 0)
  (0.150081 -0.0849943 0)
  (0.167159 -0.177772 0)
  (0.159179 -0.245962 0)
  (0.136063 -0.27519 0)
  (0.102256 -0.261215 0)
  (0.0630289 -0.211743 0)
  (0.022269 -0.135373 0)
  (-0.00641224 -0.0571354 0)
  (-0.0196792 -0.0162658 0)
  (-0.0223 -0.00021171 0)
  (-0.0178168 0.00637527 0)
  (-0.0110695 0.00598737 0)
  (-0.00759296 -0.00063437 0)
  (-0.00861927 -0.00868805 0)
  (-0.0137694 -0.0149728 0)
  (-0.0208425 -0.0184792 0)
  (-0.0277477 -0.0199388 0)
  (-0.0330884 -0.0203023 0)
  (-0.0360558 -0.0203307 0)
  (-0.0369286 -0.0207057 0)
  (-0.0366054 -0.0212033 0)
  (-0.0356089 -0.0212619 0)
  (-0.0339664 -0.0203119 0)
  (-0.0313365 -0.0177937 0)
  (-0.0268103 -0.0130821 0)
  (-0.0174913 -0.00547428 0)
  (-0.00386924 0.00455877 0)
  (0.00964144 0.0142447 0)
  (0.0232863 0.0203412 0)
  (0.0412067 0.0252258 0)
  (0.0559984 0.0179996 0)
  (0.0675408 -0.00349951 0)
  (0.153649 0.061647 0)
  (-0.483395 0.258708 0)
  (1.11281 0.46962 0)
  (0.560039 0.322256 0)
  (0.572913 0.354295 0)
  (0.522342 0.290882 0)
  (0.435556 0.196479 0)
  (0.379618 0.0875849 0)
  (0.342377 -0.0321244 0)
  (0.303683 -0.13765 0)
  (0.258243 -0.205498 0)
  (0.204645 -0.229879 0)
  (0.142201 -0.211552 0)
  (0.0756647 -0.1626 0)
  (0.00841533 -0.0900769 0)
  (-0.0321454 -0.027523 0)
  (-0.0458926 -0.00695612 0)
  (-0.0501952 0.00042456 0)
  (-0.0490463 0.00305289 0)
  (-0.0465867 0.00255599 0)
  (-0.0458334 -0.000728584 0)
  (-0.0476648 -0.00522583 0)
  (-0.0520469 -0.0093905 0)
  (-0.0576431 -0.0126344 0)
  (-0.0632835 -0.0150965 0)
  (-0.0683029 -0.0169872 0)
  (-0.072542 -0.018455 0)
  (-0.0763138 -0.0196229 0)
  (-0.0800848 -0.0203425 0)
  (-0.0841961 -0.0202784 0)
  (-0.0889175 -0.018962 0)
  (-0.0945979 -0.015807 0)
  (-0.101788 -0.0101055 0)
  (-0.111251 -0.00109986 0)
  (-0.122041 0.0113369 0)
  (-0.135591 0.0271379 0)
  (-0.159036 0.0472559 0)
  (-0.195555 0.0720708 0)
  (-0.24748 0.0989836 0)
  (-0.306487 0.124798 0)
  (-0.381288 0.145492 0)
  (-0.687725 0.158677 0)
  (0.791869 0.155885 0)
  (0.638417 0.267419 0)
  (0.529427 0.234929 0)
  (0.461663 0.144274 0)
  (0.416432 0.0388896 0)
  (0.352692 -0.0630884 0)
  (0.283961 -0.129867 0)
  (0.208609 -0.154989 0)
  (0.12502 -0.135889 0)
  (0.0408562 -0.0910241 0)
  (-0.0447759 -0.0275343 0)
  (-0.0681943 -0.00726908 0)
  (-0.0769019 -0.00327123 0)
  (-0.0793437 -0.00256042 0)
  (-0.0792554 -0.00272977 0)
  (-0.0787027 -0.00379036 0)
  (-0.0791311 -0.00598825 0)
  (-0.0809928 -0.0086371 0)
  (-0.0844721 -0.0111078 0)
  (-0.08881 -0.013268 0)
  (-0.0936165 -0.0150358 0)
  (-0.0987883 -0.0163838 0)
  (-0.104397 -0.0172993 0)
  (-0.110583 -0.017739 0)
  (-0.117447 -0.0175167 0)
  (-0.12497 -0.0162852 0)
  (-0.132979 -0.0135467 0)
  (-0.141097 -0.00870892 0)
  (-0.148644 -0.00118712 0)
  (-0.154552 0.00933408 0)
  (-0.158782 0.0231654 0)
  (-0.162422 0.041134 0)
  (-0.166864 0.0630253 0)
  (-0.173165 0.0859671 0)
  (-0.178344 0.100081 0)
  (-0.170693 0.0825468 0)
  (-0.155568 -0.010745 0)
  (-0.286581 -0.223383 0)
  (0.420919 0.63197 0)
  (-0.0093748 0.410353 0)
  (0.0935824 0.284706 0)
  (0.141894 0.161271 0)
  (0.145662 0.052854 0)
  (0.138269 -0.0497206 0)
  (0.117497 -0.0894127 0)
  (0.0659307 -0.0896258 0)
  (-0.0196048 -0.0329446 0)
  (-0.0796408 0.0179952 0)
  (-0.102442 0.0311338 0)
  (-0.106016 0.03068 0)
  (-0.106311 0.0296688 0)
  (-0.105678 0.0302088 0)
  (-0.104682 0.0317458 0)
  (-0.103693 0.0335039 0)
  (-0.103206 0.0346654 0)
  (-0.103511 0.0344229 0)
  (-0.104748 0.0324059 0)
  (-0.106951 0.0297834 0)
  (-0.110076 0.0270271 0)
  (-0.114003 0.024477 0)
  (-0.118569 0.0222875 0)
  (-0.123598 0.0204881 0)
  (-0.128883 0.019095 0)
  (-0.134153 0.0181525 0)
  (-0.139057 0.0177408 0)
  (-0.143128 0.0179708 0)
  (-0.145584 0.0189411 0)
  (-0.145271 0.0224733 0)
  (-0.14053 0.0300924 0)
  (-0.129749 0.042912 0)
  (-0.112363 0.0616396 0)
  (-0.0895179 0.0846054 0)
  (-0.0628717 0.103652 0)
  (-0.0352689 0.102432 0)
  (0.138169 0.0194205 0)
  (-0.212932 -0.135742 0)
  (-1.07449 -0.950009 0)
  (-1.17006 -0.197316 0)
  (-0.779009 0.45787 0)
  (-0.640807 0.267203 0)
  (-0.289968 0.167027 0)
  (-0.105346 0.0708451 0)
  (0.00348913 -0.0807957 0)
  (0.0249489 -0.178301 0)
  (-0.0417258 -0.122844 0)
  (-0.102338 -0.0858131 0)
  (-0.129579 -0.0731122 0)
  (-0.133545 -0.0693448 0)
  (-0.127977 -0.0683682 0)
  (-0.122541 -0.0730155 0)
  (-0.118882 -0.0779591 0)
  (-0.116311 -0.0824209 0)
  (-0.114147 -0.0869229 0)
  (-0.112214 -0.091696 0)
  (-0.110689 -0.096231 0)
  (-0.109924 -0.0993396 0)
  (-0.110286 -0.10008 0)
  (-0.111921 -0.0991862 0)
  (-0.114666 -0.0969924 0)
  (-0.118262 -0.0938717 0)
  (-0.122413 -0.090095 0)
  (-0.126821 -0.0857969 0)
  (-0.131161 -0.0809837 0)
  (-0.135034 -0.0755412 0)
  (-0.137909 -0.0692221 0)
  (-0.139108 -0.0616073 0)
  (-0.137739 -0.0520705 0)
  (-0.132119 -0.0413712 0)
  (-0.119393 -0.029123 0)
  (-0.0962531 -0.0144381 0)
  (-0.0612822 0.00398428 0)
  (-0.0149385 0.0275494 0)
  (0.0501896 0.0443292 0)
  (0.101897 0.0270069 0)
  (0.172836 -0.0186723 0)
  (-0.179075 -0.0943821 0)
)
;

boundaryField
{
  floor
  {
    type noSlip;
  }
  ceiling
  {
    type noSlip;
  }
  sWall
  {
    type noSlip;
  }
  nWall
  {
    type noSlip;
  }
  sideWalls
  {
    type empty;
  }
  glass1
  {
    type noSlip;
  }
  glass2
  {
    type noSlip;
  }
  sun
  {
    type noSlip;
  }
  Table_master
  {
    type noSlip;
  }
  Table_slave
  {
    type noSlip;
  }
  inlet
  {
    type fixedValue;
    value uniform (0.212132 -0.212132 0);
  }
  outlet
  {
    type zeroGradient;
  }
} 	// ************************************************************************* //

