/*--------------------------------*- C++ -*----------------------------------*\
  =========                 |
  \\      /  F ield         | OpenFOAM: The Open Source CFD Toolbox
   \\    /   O peration     | Website:  https://openfoam.org
    \\  /    A nd           | Version:  6
     \\/     M anipulation  |
\*---------------------------------------------------------------------------*/
FoamFile
{
    version     2.0;
    format      ascii;
    class       volScalarField;
    location    "200";
    object      T;
}
// * * * * * * * * * * * * * * * * * * * * * * * * * * * * * * * * * * * * * //

dimensions      [0 0 0 1 0 0 0];

internalField   nonuniform List<scalar> 
458
(
303.471
303.149
303.143
303.147
303.151
303.155
303.157
303.16
303.162
303.164
303.165
303.164
303.161
303.158
303.153
302.792
302.794
302.801
302.77
302.631
302.413
302.365
302.357
302.357
302.353
302.352
302.356
302.369
302.377
302.394
302.436
302.451
302.463
303.694
303.188
303.161
303.168
303.177
303.184
303.191
303.196
303.2
303.203
303.204
303.2
303.19
303.175
303.154
303.135
303.115
303.099
302.838
302.833
302.84
302.841
302.75
302.623
302.532
302.478
302.43
302.405
302.394
302.393
302.401
302.44
302.559
302.628
302.571
302.503
303.904
303.241
303.187
303.198
303.213
303.228
303.241
303.252
303.26
303.265
303.267
303.261
303.247
303.224
303.192
303.156
303.121
303.095
302.93
302.933
302.947
302.954
302.938
302.708
302.628
302.584
302.553
302.523
302.494
302.462
302.449
302.657
302.854
302.769
302.63
302.541
304.099
303.306
303.215
303.228
303.25
303.272
303.294
303.312
303.328
303.338
303.343
303.338
303.322
303.295
303.256
303.209
303.154
303.096
303.05
303.018
303.032
303.041
303.042
303.04
303.04
303.039
303.039
303.042
303.045
303.05
303.053
303.053
303.049
303.028
302.973
302.876
302.804
304.278
303.382
303.246
303.252
303.28
303.31
303.339
303.367
303.391
303.409
303.419
303.419
303.406
303.38
303.344
303.299
303.25
303.201
303.16
303.13
303.115
303.105
303.095
303.086
303.079
303.074
303.072
303.073
303.076
303.079
303.082
303.081
303.076
303.062
303.029
302.971
302.902
302.904
302.904
302.923
304.434
303.471
303.29
303.273
303.301
303.334
303.369
303.403
303.436
303.464
303.482
303.488
303.479
303.457
303.424
303.383
303.337
303.29
303.248
303.212
303.185
303.163
303.144
303.127
303.113
303.103
303.098
303.096
303.098
303.101
303.104
303.103
303.097
303.084
303.061
303.023
302.983
302.967
302.949
302.941
304.554
303.614
303.409
303.326
303.327
303.354
303.387
303.422
303.458
303.495
303.524
303.537
303.532
303.515
303.487
303.452
303.412
303.37
303.328
303.29
303.256
303.226
303.198
303.173
303.151
303.134
303.122
303.116
303.116
303.119
303.123
303.123
303.117
303.105
303.087
303.065
303.035
303.013
302.983
302.962
304.766
304.028
303.8
303.599
303.483
303.443
303.447
303.468
303.496
303.535
303.562
303.57
303.564
303.547
303.523
303.494
303.461
303.426
303.391
303.355
303.321
303.288
303.256
303.225
303.195
303.169
303.147
303.135
303.132
303.135
303.141
303.144
303.143
303.136
303.123
303.105
303.088
303.077
303.076
303.117
305.056
304.745
304.52
304.262
304.04
303.879
303.773
303.709
303.676
303.653
303.629
303.605
303.58
303.555
303.529
303.502
303.476
303.449
303.422
303.394
303.367
303.338
303.309
303.278
303.246
303.212
303.18
303.158
303.147
303.148
303.157
303.169
303.182
303.194
303.206
303.217
303.228
303.239
303.25
303.286
301.757
302.869
303.361
303.532
303.586
303.598
303.596
303.589
303.576
303.559
303.539
303.518
303.497
303.476
303.456
303.437
303.418
303.399
303.38
303.36
303.338
303.314
303.288
303.258
303.225
303.195
303.171
303.156
303.153
303.156
303.163
303.172
303.182
303.19
303.195
303.196
303.177
303.196
301.829
302.813
303.158
303.324
303.402
303.437
303.451
303.453
303.451
303.446
303.439
303.431
303.422
303.412
303.402
303.392
303.382
303.371
303.36
303.348
303.336
303.321
303.305
303.286
303.262
303.236
303.21
303.187
303.171
303.162
303.159
303.16
303.164
303.168
303.171
303.167
303.163
303.185
302.374
302.333
302.333
302.893
303.139
303.253
303.299
303.322
303.333
303.338
303.339
303.34
303.341
303.341
303.34
303.339
303.337
303.334
303.33
303.326
303.32
303.313
303.306
303.298
303.289
303.279
303.268
303.255
303.241
303.225
303.208
303.193
303.179
303.17
303.164
303.16
303.158
303.155
303.153
303.179
)
;

boundaryField
{
    floor
    {
        type            wallHeatTransfer;
        Tinf            uniform 305.2;
        alphaWall       uniform 0.24;
        value           nonuniform List<scalar> 
36
(
303.401
303.285
303.229
303.236
303.276
303.26
303.259
303.261
303.241
303.217
303.229
303.268
303.307
303.282
303.227
303.158
303.065
303.021
303.07
303.07
302.97
302.959
303.084
303.136
303.144
303.178
303.401
303.373
303.363
303.41
303.285
303.41
303.228
303.332
303.214
303.282
)
;
    }
    ceiling
    {
        type            wallHeatTransfer;
        Tinf            uniform 303.2;
        alphaWall       uniform 0.24;
        value           nonuniform List<scalar> 
43
(
302.429
302.39
302.387
302.912
303.143
303.25
303.292
303.313
303.323
303.326
303.327
303.328
303.328
303.327
303.326
303.324
303.322
303.318
303.314
303.309
303.304
303.297
303.29
303.283
303.275
303.266
303.256
303.246
303.234
303.221
303.207
303.193
303.181
303.173
303.167
303.164
303.161
303.159
303.157
303.181
304.971
304.685
301.912
)
;
    }
    sWall
    {
        type            wallHeatTransfer;
        Tinf            uniform 315.2;
        alphaWall       uniform 0.36;
        value           uniform 303.628;
    }
    nWall
    {
        type            wallHeatTransfer;
        Tinf            uniform 307.2;
        alphaWall       uniform 0.36;
        value           nonuniform List<scalar> 6(303.606 303.535 303.507 303.66 303.669 303.745);
    }
    sideWalls
    {
        type            empty;
    }
    glass1
    {
        type            wallHeatTransfer;
        Tinf            uniform 315.2;
        alphaWall       uniform 4.3;
        value           nonuniform List<scalar> 9(312.337 311.375 310.774 310.331 310.001 309.744 309.525 309.568 309.779);
    }
    glass2
    {
        type            wallHeatTransfer;
        Tinf            uniform 307.2;
        alphaWall       uniform 4.3;
        value           nonuniform List<scalar> 2(305.721 305.715);
    }
    sun
    {
        type            wallHeatTransfer;
        Tinf            uniform 305.2;
        alphaWall       uniform 0.24;
        value           nonuniform List<scalar> 
14
(
303.721
303.439
303.447
303.443
303.439
303.435
303.432
303.429
303.426
303.423
303.42
303.416
303.412
303.407
)
;
    }
    Table_master
    {
        type            zeroGradient;
    }
    Table_slave
    {
        type            zeroGradient;
    }
    inlet
    {
        type            fixedValue;
        value           uniform 299.15;
    }
    outlet
    {
        type            zeroGradient;
    }
}


// ************************************************************************* //
