/*--------------------------------*- C++ -*----------------------------------*\
  =========                 |
  \\      /  F ield         | OpenFOAM: The Open Source CFD Toolbox
   \\    /   O peration     | Website:  https://openfoam.org
    \\  /    A nd           | Version:  6
     \\/     M anipulation  |
\*---------------------------------------------------------------------------*/
FoamFile
{
    version     2.0;
    format      ascii;
    class       volScalarField;
    location    "100";
    object      k;
}
// * * * * * * * * * * * * * * * * * * * * * * * * * * * * * * * * * * * * * //

dimensions      [0 2 -2 0 0 0 0];

internalField   nonuniform List<scalar> 
458
(
0.00111838
0.00116632
0.000973539
0.00104701
0.00112876
0.00120872
0.00128664
0.00136418
0.00144433
0.00153087
0.0016064
0.00166623
0.00170917
0.0017403
0.00175796
0.00081993
0.00131223
0.00143008
0.00138299
0.00122137
0.000985588
0.000805765
0.000660313
0.000541004
0.000442634
0.000362088
0.000297592
0.000248089
0.000212503
0.000193374
0.000236289
0.000506633
0.000386953
0.0033839
0.00678475
0.00168519
0.00157618
0.00166818
0.00178699
0.00191666
0.0020574
0.00220817
0.00236445
0.00251344
0.00262943
0.00267217
0.00257937
0.00232205
0.00209142
0.00186536
0.00124422
0.00106086
0.00292036
0.00254398
0.00230449
0.00194566
0.00131298
0.000994222
0.000775146
0.000607195
0.000482715
0.000393578
0.000331686
0.000289979
0.000263167
0.00027764
0.000500926
0.00168074
0.000817024
0.00634676
0.0160451
0.00271114
0.00203703
0.00208062
0.00220344
0.00234613
0.0025048
0.00267708
0.00285632
0.00303104
0.00317177
0.00324969
0.00323716
0.00313032
0.00296803
0.00269878
0.00228665
0.00255394
0.00405156
0.0030236
0.00249212
0.00204959
0.000716022
0.000453986
0.000393722
0.000342596
0.000302472
0.000271267
0.00024662
0.000226609
0.000221141
0.000530041
0.00115719
0.00420846
0.0011153
0.00998661
0.0292721
0.00446919
0.0024338
0.00238962
0.00252246
0.00268719
0.00287196
0.00307343
0.00328575
0.00349871
0.0036784
0.00380266
0.00385228
0.00380594
0.0036559
0.00342579
0.00320088
0.00311703
0.00340439
0.00299057
0.00257359
0.00236866
0.00227648
0.00229227
0.00236201
0.00239486
0.00230684
0.00228808
0.00229708
0.00228453
0.00220256
0.00201558
0.00185242
0.00181944
0.00331659
0.00212191
0.014093
0.0449431
0.00764395
0.0028349
0.00260889
0.00275246
0.00295823
0.00319811
0.00346609
0.00375416
0.00404221
0.00429578
0.00450917
0.0046759
0.00476569
0.00474442
0.00460474
0.0043569
0.00394642
0.00325679
0.00288409
0.00276134
0.00282639
0.00301734
0.00331255
0.00363517
0.0039379
0.00398437
0.00398453
0.00404357
0.00404861
0.00391974
0.00360273
0.0031037
0.00266717
0.00277065
0.00288956
0.00252979
0.00232079
0.00206895
0.0185867
0.0588881
0.0135147
0.00370617
0.00290253
0.00298691
0.0032271
0.00352995
0.0038722
0.00424553
0.00457845
0.00484196
0.00507613
0.0053064
0.00550863
0.0056177
0.00553982
0.005173
0.00453264
0.00382044
0.00331555
0.00312504
0.00313895
0.00322557
0.00337098
0.00360776
0.00399838
0.00423462
0.00437226
0.0045679
0.00474076
0.0048183
0.00469959
0.00417551
0.0035743
0.0031534
0.00293699
0.00295081
0.00459184
0.00283266
0.0233617
0.0667699
0.025108
0.00812701
0.00441859
0.00379056
0.00392317
0.00426356
0.00465722
0.00506646
0.00526835
0.00535631
0.00543936
0.00557739
0.00576768
0.00594741
0.00598877
0.00573876
0.00518339
0.00450376
0.0039682
0.00371841
0.00366422
0.00363091
0.00354507
0.0035553
0.00401574
0.00448087
0.00470783
0.00498152
0.00529459
0.00563802
0.00594161
0.00595977
0.00536421
0.00490155
0.00477761
0.00489958
0.00768304
0.00422311
0.0244872
0.0745208
0.0444825
0.0273642
0.0154954
0.00918111
0.00708398
0.00671373
0.00678689
0.0066414
0.00629135
0.00596435
0.00573651
0.00563471
0.00566145
0.00578815
0.00591563
0.00585946
0.00554861
0.00508982
0.00468674
0.00449815
0.00449736
0.00446347
0.00409969
0.0036818
0.00416573
0.00503895
0.00537732
0.00561531
0.00595673
0.00650896
0.00733326
0.00848139
0.00962239
0.0106184
0.0128663
0.0140917
0.0245578
0.00614026
0.0231337
0.0331953
0.0312753
0.0269954
0.0216733
0.0165317
0.0127029
0.010229
0.00872666
0.00763576
0.00684218
0.00626955
0.00586971
0.0056144
0.00549079
0.00549024
0.00557786
0.00566202
0.00564964
0.0055333
0.00540492
0.00539992
0.00559394
0.00581982
0.00518275
0.00397561
0.0043308
0.00584964
0.00642618
0.00650479
0.00658154
0.00688588
0.00746815
0.00824868
0.00908854
0.00991104
0.0105971
0.0108188
0.0109299
0.00582616
0.0171039
0.0233115
0.0201166
0.0164898
0.0133721
0.0109882
0.00925856
0.00800968
0.00712676
0.00651155
0.00608725
0.00580915
0.0056598
0.00563888
0.00574265
0.00593721
0.00615852
0.0063487
0.0064954
0.00668398
0.00712087
0.00783761
0.0071385
0.00442049
0.00436169
0.00666692
0.00787829
0.00793645
0.00760668
0.00735365
0.0073743
0.00774528
0.00825768
0.00856194
0.00843803
0.00767177
0.00643138
0.00418339
0.0146188
0.0229257
0.0195542
0.0160857
0.0134161
0.0112785
0.00960946
0.00833255
0.00736439
0.0065962
0.00602093
0.00563679
0.00544731
0.0054587
0.00566984
0.00605442
0.00654653
0.00704723
0.00746513
0.00781096
0.00825704
0.00862696
0.00784127
0.00485548
0.00419635
0.00704171
0.00833194
0.00841678
0.0081814
0.00798002
0.00797797
0.00841021
0.00908257
0.00965946
0.00992214
0.0097787
0.00614453
0.00435552
0.0103426
0.0115477
0.0127041
0.0137857
0.0119193
0.00964384
0.00829271
0.00718885
0.00628195
0.00553532
0.00491633
0.00442745
0.0040277
0.00369606
0.00342336
0.00320736
0.00304989
0.00295358
0.00291742
0.00293217
0.00298027
0.003049
0.00315125
0.00330624
0.00328528
0.00293361
0.00287231
0.00335527
0.00353542
0.00359809
0.00367927
0.00385832
0.00420212
0.00465272
0.00523329
0.00587358
0.00624675
0.00599779
0.00506828
0.00432041
)
;

boundaryField
{
    floor
    {
        type            kqRWallFunction;
        value           nonuniform List<scalar> 
36
(
0.00175796
0.00081993
0.00131223
0.00143008
0.00138299
0.00122137
0.000985588
0.000805765
0.000660313
0.000541004
0.000442634
0.000362088
0.000297592
0.000248089
0.000212503
0.000193374
0.000236289
0.000506633
0.000386953
0.000386953
0.000817024
0.0011153
0.00212191
0.00252979
0.00232079
0.00206895
0.00175796
0.00209142
0.00186536
0.00124422
0.00081993
0.00124422
0.00106086
0.00228665
0.00255394
0.00311703
)
;
    }
    ceiling
    {
        type            kqRWallFunction;
        value           nonuniform List<scalar> 
43
(
0.0103426
0.0115477
0.0127041
0.0137857
0.0119193
0.00964384
0.00829271
0.00718885
0.00628195
0.00553532
0.00491633
0.00442745
0.0040277
0.00369606
0.00342336
0.00320736
0.00304989
0.00295358
0.00291742
0.00293217
0.00298027
0.003049
0.00315125
0.00330624
0.00328528
0.00293361
0.00287231
0.00335527
0.00353542
0.00359809
0.00367927
0.00385832
0.00420212
0.00465272
0.00523329
0.00587358
0.00624675
0.00599779
0.00506828
0.00432041
0.0231337
0.0331953
0.0146188
)
;
    }
    sWall
    {
        type            kqRWallFunction;
        value           uniform 0.0103426;
    }
    nWall
    {
        type            kqRWallFunction;
        value           nonuniform List<scalar> 6(0.00206895 0.00283266 0.00422311 0.00418339 0.00435552 0.00432041);
    }
    sideWalls
    {
        type            empty;
    }
    glass1
    {
        type            kqRWallFunction;
        value           nonuniform List<scalar> 9(0.00111838 0.0033839 0.00634676 0.00998661 0.014093 0.0185867 0.0233617 0.0244872 0.0231337);
    }
    glass2
    {
        type            kqRWallFunction;
        value           nonuniform List<scalar> 2(0.00614026 0.00582616);
    }
    sun
    {
        type            kqRWallFunction;
        value           nonuniform List<scalar> 
14
(
0.00111838
0.00116632
0.000973539
0.00104701
0.00112876
0.00120872
0.00128664
0.00136418
0.00144433
0.00153087
0.0016064
0.00166623
0.00170917
0.0017403
)
;
    }
    Table_master
    {
        type            kqRWallFunction;
        value           nonuniform List<scalar> 9(0.000716022 0.000453986 0.000393722 0.000342596 0.000302472 0.000271267 0.00024662 0.000226609 0.000221141);
    }
    Table_slave
    {
        type            kqRWallFunction;
        value           nonuniform List<scalar> 9(0.00229227 0.00236201 0.00239486 0.00230684 0.00228808 0.00229708 0.00228453 0.00220256 0.00201558);
    }
    inlet
    {
        type            turbulentIntensityKineticEnergyInlet;
        intensity       0.05;
        value           uniform 0.0003375;
    }
    outlet
    {
        type            zeroGradient;
    }
}


// ************************************************************************* //
