/*--------------------------------*- C++ -*----------------------------------*\
  =========                 |
  \\      /  F ield         | OpenFOAM: The Open Source CFD Toolbox
   \\    /   O peration     | Website:  https://openfoam.org
    \\  /    A nd           | Version:  6
     \\/     M anipulation  |
\*---------------------------------------------------------------------------*/
FoamFile
{
    version     2.0;
    format      ascii;
    class       volScalarField;
    location    "2800";
    object      nut;
}
// * * * * * * * * * * * * * * * * * * * * * * * * * * * * * * * * * * * * * //

dimensions      [0 2 -1 0 0 0 0];

internalField   nonuniform List<scalar> 
458
(
0.00129954
0.00143494
0.00149922
0.00158013
0.00165711
0.00173583
0.00181825
0.00189369
0.00195292
0.00198118
0.00193909
0.00178754
0.00161928
0.00144081
0.00126572
0.00056935
0.000664766
0.000769963
0.000843861
0.000862517
0.000807569
0.000744737
0.000689788
0.000643197
0.000603412
0.000569245
0.000539672
0.000513796
0.000490684
0.000469053
0.000447213
0.000425276
0.00038889
0.00162675
0.00375319
0.00359583
0.00413001
0.00468899
0.0051933
0.00559303
0.006032
0.0064651
0.00685112
0.00711579
0.00698953
0.00645535
0.00517843
0.00338378
0.00147023
0.00130368
0.00110328
0.000550344
0.00103942
0.00193411
0.00254067
0.00279268
0.0019441
0.00161899
0.00140639
0.00125748
0.00114885
0.00106596
0.001
0.000942343
0.000875377
0.000804928
0.00074032
0.000786478
0.000435747
0.0018948
0.00501399
0.00433579
0.00488259
0.00515744
0.00535966
0.00557419
0.00589522
0.00632455
0.00687421
0.00745448
0.00773432
0.0075806
0.00703369
0.00570696
0.00399567
0.00298007
0.00121615
0.000582023
0.00113485
0.00191857
0.00281983
0.0032139
0.00104523
0.000912118
0.000796107
0.000700332
0.000622797
0.000560367
0.000509823
0.000469081
0.000440417
0.00051105
0.000612399
0.00091357
0.000472405
0.00214921
0.00613418
0.00431422
0.00487374
0.0048431
0.00480472
0.00493309
0.00520071
0.00565973
0.00634391
0.00705598
0.0074419
0.00744757
0.0071966
0.00653393
0.00540608
0.00419109
0.00230402
0.00126302
0.0013091
0.00184177
0.00278873
0.00381937
0.00418951
0.0012153
0.00112027
0.00104606
0.000983722
0.000930455
0.000880817
0.000830904
0.000777715
0.000717394
0.000654326
0.000632862
0.00104582
0.000520633
0.0024109
0.00763765
0.00438783
0.00470812
0.00457862
0.0044313
0.00456069
0.00481645
0.00532218
0.00610281
0.00680503
0.00715726
0.00712309
0.00690391
0.00656901
0.00596045
0.00509447
0.00386141
0.0033921
0.00370873
0.00439539
0.00525492
0.005976
0.00627174
0.00562518
0.00515928
0.00483785
0.00458217
0.00423145
0.00379268
0.0032792
0.00270182
0.00208805
0.00152595
0.00112536
0.00111468
0.000811848
0.000656635
0.000713666
0.000777878
0.00270097
0.00942059
0.00557358
0.00456307
0.00459129
0.00443173
0.00451272
0.00474876
0.00529427
0.00607559
0.00677431
0.00705701
0.00691322
0.00664129
0.00646884
0.0063038
0.00597785
0.00552884
0.00564809
0.00639233
0.00713332
0.00769228
0.00795167
0.00788959
0.00755566
0.00720889
0.00687732
0.0064783
0.00598595
0.00540519
0.00473962
0.00399602
0.00319974
0.00242543
0.00181068
0.00140368
0.00108204
0.000906603
0.0011386
0.000805843
0.00299325
0.0107255
0.00777875
0.0053363
0.00487805
0.00481897
0.00471153
0.00487459
0.00544154
0.00625067
0.00692319
0.00710125
0.00686286
0.00670981
0.00695098
0.00713629
0.00721281
0.00735633
0.00791264
0.00864778
0.00907358
0.00918638
0.00902551
0.00867662
0.00825956
0.00786348
0.00744988
0.00698218
0.00646047
0.00588428
0.00525583
0.00458058
0.00387139
0.00315458
0.0025329
0.0020175
0.00163143
0.00142473
0.00128714
0.00093109
0.00307505
0.00962247
0.00824976
0.00687236
0.0060934
0.00537352
0.00494486
0.00509306
0.0057487
0.00659531
0.00718463
0.00717973
0.00694965
0.00737561
0.0079037
0.00815575
0.00839959
0.00875297
0.00925467
0.00965439
0.00969903
0.00943243
0.00896486
0.00840144
0.00782929
0.00729414
0.0067846
0.0062793
0.00576778
0.00525868
0.00476637
0.00429902
0.00385074
0.0033817
0.00298358
0.00273094
0.00262483
0.00258341
0.00311212
0.00142843
0.00302816
0.00367902
0.0041972
0.00439234
0.00435074
0.00432052
0.00457986
0.005275
0.00623392
0.00708686
0.00741989
0.00707179
0.00725331
0.00797124
0.00836132
0.00855889
0.00878289
0.00902935
0.00920525
0.00916992
0.00885706
0.00831709
0.0076416
0.00691216
0.00620366
0.00556038
0.00497361
0.00441207
0.00387683
0.00339248
0.0029846
0.00266466
0.00242982
0.00227305
0.00218632
0.00215308
0.00212226
0.00205594
0.0019412
0.00134364
0.00128449
0.00222979
0.00306542
0.00399096
0.00522086
0.00641875
0.00728064
0.00755646
0.0071217
0.00676071
0.00727178
0.00768888
0.00781145
0.00787846
0.0079265
0.00789246
0.00769682
0.00729263
0.00669337
0.00596584
0.00519817
0.00447735
0.00386087
0.00335846
0.00295502
0.00263806
0.00240213
0.00223925
0.00213663
0.00208066
0.0020606
0.00206808
0.00209188
0.00211074
0.00209386
0.00201605
0.0018101
0.00107582
0.00213461
0.0048307
0.00643702
0.00807244
0.00844958
0.00813073
0.0073492
0.00617019
0.00549092
0.00552592
0.00566766
0.00567152
0.0056349
0.00557827
0.00545395
0.00520708
0.00480776
0.00427377
0.00367051
0.00309062
0.00261233
0.00226487
0.00203294
0.00188654
0.00180127
0.00176122
0.0017557
0.00177692
0.00181929
0.00187923
0.00195431
0.00204052
0.00212665
0.00219151
0.00223685
0.00235231
0.00162117
0.00110615
0.00259214
0.00262862
0.00267213
0.00313017
0.00281337
0.00233822
0.00187171
0.00161273
0.0013786
0.00120112
0.00107064
0.000991822
0.00094819
0.000920048
0.00089645
0.000870725
0.000838626
0.00079871
0.000753619
0.000710073
0.000675519
0.000654062
0.000645311
0.000646504
0.000654908
0.000668763
0.000687191
0.000709862
0.000736766
0.000768105
0.000804236
0.000845642
0.000892944
0.000946871
0.00100775
0.0010733
0.0011278
0.000994023
0.00094176
0.00111014
)
;

boundaryField
{
    floor
    {
        type            nutkWallFunction;
        Cmu             0.09;
        kappa           0.41;
        E               9.8;
        value           nonuniform List<scalar> 
36
(
0.000151525
6.85071e-05
8.03915e-05
9.32573e-05
0.000102169
0.000104405
9.78053e-05
9.01927e-05
8.34725e-05
7.77241e-05
7.27757e-05
6.84945e-05
6.47635e-05
6.14784e-05
5.85269e-05
5.57489e-05
5.29278e-05
5.00762e-05
4.53042e-05
4.53041e-05
5.14358e-05
5.61745e-05
6.23425e-05
7.93806e-05
8.63959e-05
9.42145e-05
0.000151525
0.000174747
0.000155869
0.00013279
6.85071e-05
0.00013279
6.61115e-05
0.000145843
7.00975e-05
0.000151223
)
;
    }
    ceiling
    {
        type            nutkWallFunction;
        Cmu             0.09;
        kappa           0.41;
        E               9.8;
        value           nonuniform List<scalar> 
43
(
0.00029667
0.000300527
0.000305121
0.000353186
0.000320201
0.000269893
0.000219376
0.000190747
0.00016442
0.000144128
0.000128996
0.000119754
0.000114603
0.000111266
0.00010846
0.00010539
0.000101545
9.67393e-05
9.12758e-05
8.59625e-05
8.17184e-05
7.90696e-05
7.79859e-05
7.8133e-05
7.91723e-05
8.08827e-05
8.31513e-05
8.59325e-05
8.92194e-05
9.30305e-05
9.74015e-05
0.000102383
0.000108039
0.000114445
0.000121626
0.000129303
0.000135647
0.000120011
0.000113841
0.000133605
0.00034292
0.000410114
0.00024765
)
;
    }
    sWall
    {
        type            nutkWallFunction;
        Cmu             0.09;
        kappa           0.41;
        E               9.8;
        value           uniform 0.000296748;
    }
    nWall
    {
        type            nutkWallFunction;
        Cmu             0.09;
        kappa           0.41;
        E               9.8;
        value           nonuniform List<scalar> 6(9.42144e-05 9.75954e-05 0.000112572 0.000129608 0.000133142 0.000133613);
    }
    sideWalls
    {
        type            empty;
    }
    glass1
    {
        type            nutkWallFunction;
        Cmu             0.09;
        kappa           0.41;
        E               9.8;
        value           nonuniform List<scalar> 9(0.000155583 0.000192554 0.000222224 0.000249963 0.000278133 0.000308985 0.000339724 0.00034828 0.000343405);
    }
    glass2
    {
        type            nutkWallFunction;
        Cmu             0.09;
        kappa           0.41;
        E               9.8;
        value           nonuniform List<scalar> 2(0.000170125 0.000160506);
    }
    sun
    {
        type            nutkWallFunction;
        Cmu             0.09;
        kappa           0.41;
        E               9.8;
        value           nonuniform List<scalar> 
14
(
0.000155392
0.000170755
0.000177994
0.000187058
0.000195634
0.000204359
0.000213449
0.00022173
0.000228207
0.000231291
0.000226705
0.000210078
0.000191436
0.000171425
)
;
    }
    Table_master
    {
        type            nutkWallFunction;
        Cmu             0.09;
        kappa           0.41;
        E               9.8;
        value           nonuniform List<scalar> 9(0.000126014 0.000110318 9.64217e-05 8.47694e-05 7.51968e-05 6.73839e-05 6.09799e-05 5.57592e-05 5.2052e-05);
    }
    Table_slave
    {
        type            nutkWallFunction;
        Cmu             0.09;
        kappa           0.41;
        E               9.8;
        value           nonuniform List<scalar> 9(0.000145743 0.000134763 0.000126114 0.000118794 0.000112498 0.000106593 0.000100615 9.41992e-05 8.68596e-05);
    }
    inlet
    {
        type            calculated;
        value           uniform 0.000234787;
    }
    outlet
    {
        type            calculated;
        value           nonuniform List<scalar> 2(0.00259214 0.00262862);
    }
}


// ************************************************************************* //
