/*--------------------------------*- C++ -*----------------------------------*\
  =========                 |
  \\      /  F ield         | OpenFOAM: The Open Source CFD Toolbox
   \\    /   O peration     | Website:  https://openfoam.org
    \\  /    A nd           | Version:  6
     \\/     M anipulation  |
\*---------------------------------------------------------------------------*/
FoamFile
{
    version     2.0;
    format      ascii;
    class       surfaceScalarField;
    location    "2800";
    object      phi;
}
// * * * * * * * * * * * * * * * * * * * * * * * * * * * * * * * * * * * * * //

dimensions      [1 0 -1 0 0 0 0];

internalField   nonuniform List<scalar> 
850
(
-0.00351608
0.00357859
-0.00508545
0.00156915
-0.00621122
0.00112557
-0.00696027
0.000748838
-0.00728635
0.000325882
-0.00712087
-0.00016568
-0.00637391
-0.000747164
-0.00500424
-0.00136986
-0.00309215
-0.00191227
-0.000886725
-0.00220561
0.00106825
-0.00195514
0.00222711
-0.00115902
0.00264128
-0.000414352
0.00212613
0.000514955
0.00212854
-0.00108045
0.00108387
-0.00125002
0.000169379
-0.000592642
-0.000657576
0.000316163
-0.000909
0.00112946
-0.000813492
0.00161504
-0.000485772
0.00183707
-0.000222228
0.00195968
-0.000122798
0.00204079
-8.12927e-05
0.00209204
-5.14251e-05
0.00212151
-2.96297e-05
0.00213314
-1.17849e-05
0.00211869
1.4296e-05
0.00205047
6.80841e-05
0.00187948
0.000170846
0.00156582
0.000313522
0.00106031
0.000505373
0.00106437
-0.00254534
0.00629595
-0.00396006
0.00298365
-0.00508223
0.00224752
-0.00584534
0.00151174
-0.00620964
0.00068997
-0.00610685
-0.00026867
-0.00546517
-0.00138905
-0.00427828
-0.00255695
-0.00270144
-0.00348931
-0.00102276
-0.00388445
0.000472987
-0.00345104
0.00159475
-0.00228095
0.00228053
-0.0011003
0.00271706
7.8247e-05
0.00375565
0.00108977
0.00276106
0.000998922
0.00163418
0.00113163
0.00164796
-0.000381529
0.0014762
8.03705e-05
-0.000292721
0.000759383
-0.00133678
0.00126743
-0.00141724
0.00167414
-0.0012204
0.00177838
-0.000590205
0.00179806
-0.000242108
0.00181981
-0.000144737
0.00183778
-9.94539e-05
0.00184886
-6.26932e-05
0.00185563
-3.65682e-05
0.00185969
-1.60005e-05
0.0018564
1.74353e-05
0.00181168
0.000112652
0.00162721
0.000355175
0.00129078
0.000649802
0.000818146
0.000977852
0.00189409
-0.0017761
0.00833896
-0.0029192
0.00412653
-0.00391691
0.00324501
-0.00460991
0.00220451
-0.00497964
0.00105948
-0.00494086
-0.000307669
-0.00438962
-0.00194051
-0.00336065
-0.00358613
-0.00206039
-0.00478976
-0.000752027
-0.00519299
0.000373648
-0.00457686
0.00130648
-0.00321393
0.00197543
-0.00176941
0.002488
-0.000434491
0.00288074
0.000696846
0.00257793
0.00130155
0.00178177
0.0019276
0.00344246
0.00136751
0.00012617
0.00193859
-0.000863994
0.0019838
-0.00138217
0.00211718
-0.0015508
0.00247008
-0.00157349
0.00187984
0.00163769
0.00149291
0.00139342
0.0013307
0.00129412
0.00127812
0.00129555
0.0014082
0.00121667
0.00054654
0.000955501
0.000910804
0.000585273
0.00134791
0.00249764
-0.00119187
0.00988047
-0.00201053
0.00494496
-0.00271094
0.0039452
-0.00321913
0.00271247
-0.00353191
0.00137203
-0.00352194
-0.000317872
-0.00302047
-0.00244222
-0.00215027
-0.00445655
-0.00115037
-0.00578987
-0.0002189
-0.00612462
0.000566861
-0.00536276
0.00123795
-0.00388515
0.00172985
-0.00226145
0.00209353
-0.000798331
0.00238535
0.000404857
0.00247654
0.00121018
0.00257956
0.0018244
0.00385042
0.0021714
0.0029538
0.000911133
0.00308102
-1.26046e-06
0.00296446
-0.000747633
0.00275029
-0.0011682
0.00248199
-0.00128268
0.00200648
-0.00109815
0.00247619
-0.000470042
0.00265423
-0.00017838
0.00272486
-7.09648e-05
0.00272915
-4.62605e-06
0.0026703
5.85093e-05
0.00254699
0.000122968
0.00234755
0.0001991
0.00204032
0.000306901
0.00155977
0.000480232
0.00127948
0.000826665
0.000922489
0.00126763
0.000501234
0.00176899
0.00302274
-0.000759899
0.0110615
-0.00127837
0.0054632
-0.00150376
0.00417036
-0.00170481
0.00291328
-0.00187123
0.00153821
-0.0017918
-0.00039755
-0.0012886
-0.00294567
-0.000621579
-0.00512382
1.23911e-05
-0.00642406
0.000521944
-0.00663435
0.000933992
-0.00577494
0.00126991
-0.00422118
0.0014982
-0.00248988
0.00167904
-0.00097933
0.00190242
0.000181319
0.00215639
0.00095603
0.00254371
0.00143689
0.00313194
0.00158298
0.00317792
0.000864963
0.00317742
-9.47598e-07
0.00299263
-0.000563018
0.00268483
-0.000860561
0.00232895
-0.000926967
0.0020091
-0.000778471
0.0019774
-0.000438513
0.00196859
-0.000169743
0.00192266
-2.52097e-05
0.00185677
6.10852e-05
0.00178512
0.000129989
0.00170447
0.000203439
0.00160387
0.000299529
0.00147144
0.000439168
0.001307
0.00064451
0.00116975
0.00096376
0.00103952
0.0013977
0.0008095
0.00199883
0.00125248
0.00257957
-0.0010408
0.00231446
-0.00176512
0.000742736
-0.00169413
-0.000582434
0.0121253
-0.0008199
0.00570043
-0.000384256
0.00373448
-0.000160407
0.00268919
-4.46567e-05
0.00142222
0.000271177
-0.000713633
0.000752244
-0.00342699
0.00114211
-0.00551393
0.00134979
-0.00663195
0.00140332
-0.00668805
0.00137216
-0.00574391
0.00128291
-0.00413206
0.00115534
-0.00236244
0.0010844
-0.00090855
0.00116456
0.00010099
0.00138773
0.000732686
0.00174457
0.00107987
0.00221734
0.00111003
0.00246878
0.000613343
0.00242354
4.41224e-05
0.00221283
-0.000352479
0.00190995
-0.000557842
0.0015777
-0.000594872
0.00128653
-0.000487466
0.00112384
-0.000275996
0.00104198
-8.80513e-05
0.000990469
2.61293e-05
0.000960223
9.11607e-05
0.000948808
0.000141237
0.000951922
0.00020016
0.000965488
0.000285804
0.000988305
0.000416197
0.00102394
0.000608721
0.0011032
0.00088436
0.00127318
0.00122757
0.00156389
0.00170795
0.00206126
0.00208203
0.00235635
0.00201918
0.00182541
0.00127349
0.000196154
-0.000643776
0.013303
-0.000316102
0.00537253
0.000971746
0.00244639
0.00149269
0.002168
0.0019643
0.00095038
0.00258763
-0.00133721
0.00297551
-0.00381511
0.00303569
-0.00557435
0.00278021
-0.00637668
0.00230578
-0.00621379
0.00172321
-0.00516147
0.00111705
-0.00352601
0.000571804
-0.00181732
0.000241375
-0.00057828
0.000205586
0.000136601
0.000399833
0.000538258
0.000733995
0.00074553
0.00111534
0.000728506
0.00130354
0.000424982
0.00126277
8.47305e-05
0.00107757
-0.000167437
0.000814585
-0.000295021
0.000530752
-0.000311203
0.000284916
-0.000241798
0.000132792
-0.00012404
6.77422e-05
-2.317e-05
5.87823e-05
3.49232e-05
8.60099e-05
6.37705e-05
0.000140765
8.6323e-05
0.000222077
0.000118694
0.000332502
0.00017523
0.000477312
0.000271241
0.000662857
0.000423033
0.000907197
0.000639879
0.00123869
0.000895927
0.00170775
0.00123874
0.00235457
0.00143504
0.00313078
0.00124279
0.00331199
0.0010921
0.00357844
0.00332922
0.0105686
0.0041701
0.00453143
0.00406883
0.00254743
0.00418368
0.00205292
0.00480755
0.000326271
0.00543864
-0.00196854
0.00550523
-0.00388194
0.00500965
-0.00507899
0.00408993
-0.00545714
0.00293722
-0.00506123
0.0016991
-0.00392347
0.000520039
-0.00234705
-0.000345673
-0.000951743
-0.000745991
-0.00017813
-0.000792155
0.000182585
-0.000635754
0.000381681
-0.000375415
0.00048502
-0.000113189
0.000466115
2.00965e-06
0.000309623
-4.02384e-05
0.000126818
-0.000194158
-1.36801e-05
-0.000401546
-8.77987e-05
-0.000608428
-0.000104488
-0.000770832
-7.95592e-05
-0.000859013
-3.60234e-05
-0.00087964
-2.70337e-06
-0.000855384
1.05103e-05
-0.000802834
1.10685e-05
-0.000726525
9.86564e-06
-0.000624404
1.64296e-05
-0.000490381
4.10664e-05
-0.000314112
9.48331e-05
-7.99757e-05
0.00018876
0.000221829
0.000337938
0.000584674
0.000532942
0.00106083
0.00076244
0.00163709
0.000858627
0.00206587
0.000813847
0.0011674
0.0019904
0.00503207
0.0112293
0.0157616
0.0131901
0.00511875
0.0119114
0.00333134
0.0109749
0.00126252
0.00979717
-0.000790991
0.00831749
-0.00240249
0.00657214
-0.00333382
0.00464244
-0.0035276
0.0027027
-0.00312161
0.000780632
-0.00200151
-0.000723431
-0.000843102
-0.00151136
-0.000163975
-0.001776
8.63473e-05
-0.00179215
0.000198561
-0.00168524
0.00027459
-0.00152416
0.000323778
-0.00137871
0.000320497
-0.00132323
0.00025399
-0.00136041
0.000163833
-0.00145838
8.41238e-05
-0.00157963
3.32879e-05
-0.00169639
1.21039e-05
-0.00178587
9.76805e-06
-0.00183724
1.51855e-05
-0.0018596
1.95084e-05
-0.00187187
2.26419e-05
-0.00189081
2.98627e-05
-0.00192876
4.76832e-05
-0.00199714
8.46724e-05
-0.00210866
0.000152451
-0.00228091
0.000266944
-0.00254336
0.00045106
-0.00294089
0.000735328
-0.00355247
0.00114437
-0.00446313
0.00167295
-0.00582584
0.00222118
-0.00758608
0.00257394
-0.00757491
0.00197907
-0.00223203
0.0127794
0.00880363
0.0104419
0.00566877
0.00931241
0.00239186
0.0082076
0.000313685
0.00666378
-0.000858781
0.00472495
-0.00139508
0.00254026
-0.00134301
0.000313032
-0.000894477
-0.00148257
-0.000206004
-0.00242004
9.42265e-05
-0.00274518
0.000160995
-0.00282098
0.000161982
-0.00279545
0.000172858
-0.00272126
0.000200236
-0.00262649
0.000228843
-0.00254377
0.000237613
-0.00250581
0.00021587
-0.00251678
0.000174652
-0.00256294
0.000130128
-0.00262433
9.45184e-05
-0.00268434
7.19709e-05
-0.00273515
6.04331e-05
-0.0027763
5.61985e-05
-0.00281325
5.63149e-05
-0.00285143
6.06939e-05
-0.00289344
7.17312e-05
-0.00294001
9.41195e-05
-0.00299113
0.000135664
-0.00304656
0.000207737
-0.0031058
0.000326041
-0.00316788
0.000512998
-0.00323128
0.000798578
-0.00329343
0.00120637
-0.00332686
0.00170623
-0.00324467
0.00213884
-0.00267533
0.00200445
-0.000807481
0.000111079
-0.0029579
-0.000355942
0.00923246
0.00115183
0.0041609
0.00139174
0.00215187
0.00105275
0.000652623
0.000255572
-6.16368e-05
-0.000990144
-0.000149383
-0.0023227
-1.05544e-05
-0.00332604
0.000108733
-0.00372468
0.000192486
-0.00381073
0.000180117
-0.00379382
0.000143923
-0.00375153
0.000119536
-0.0036951
0.00011627
-0.00362462
0.000129599
-0.00354441
0.000148473
-0.00346733
0.000160382
-0.00340929
0.000157687
-0.00337648
0.0001417
-0.00336494
0.000118442
-0.00336502
9.44606e-05
-0.00336721
7.40206e-05
-0.0033657
5.87912e-05
-0.00335833
4.87008e-05
-0.00334524
4.30971e-05
-0.00332671
4.2032e-05
-0.0033019
4.67881e-05
-0.00326813
6.02171e-05
-0.00321967
8.7068e-05
-0.0031461
0.000134029
-0.00303
0.000209805
-0.00284394
0.000326792
-0.00255159
0.000506082
-0.00212213
0.000776761
-0.00152717
0.00111113
-0.000551771
0.00116329
0.00152205
-6.95131e-05
0.00342659
-0.0017936
0.00055765
-0.0167179
-0.0213811
-0.0120994
-0.00790714
-0.00573168
-0.00506376
-0.00511627
-0.00525996
-0.00526709
-0.0051563
-0.00496266
-0.00478196
-0.00463786
-0.00451848
-0.00440266
-0.00427382
-0.0041264
-0.00396739
-0.00381136
-0.00367154
-0.00355508
-0.0034626
-0.00339046
-0.00333339
-0.0032862
-0.00324438
-0.0032034
-0.00315741
-0.00309775
-0.00301101
-0.00287709
-0.0026672
-0.00234014
-0.00183367
-0.00105643
5.51866e-05
0.00121864
0.00114857
-0.00064766
)
;

boundaryField
{
    floor
    {
        type            calculated;
        value           nonuniform List<scalar> 
36
(
0
0
0
0
0
0
0
0
0
0
0
0
0
0
0
0
0
0
0
-4.2108e-06
-1.17379e-05
-1.84543e-05
-2.40472e-05
-2.13598e-05
-1.86056e-05
-1.76359e-05
-2.60745e-06
-4.52769e-06
-4.94739e-06
-5.56121e-06
-3.60784e-06
-8.41888e-06
-1.09822e-05
-1.29367e-05
-1.76704e-05
-1.47076e-05
)
;
    }
    ceiling
    {
        type            calculated;
        value           nonuniform List<scalar> 
43
(
-5.07728e-05
-5.00003e-05
-4.93393e-05
-3.14302e-05
-2.36743e-05
-1.53834e-05
-9.24479e-06
-5.81485e-06
-3.55178e-06
-2.19738e-06
-1.29684e-06
-7.17418e-07
-3.14271e-07
1.71816e-08
3.19647e-07
6.19011e-07
9.28597e-07
1.24211e-06
1.52957e-06
1.74664e-06
1.85845e-06
1.85673e-06
1.75936e-06
1.59515e-06
1.38985e-06
1.16148e-06
9.2153e-07
6.77705e-07
4.35896e-07
2.01431e-07
-2.00507e-08
-2.2201e-07
-3.96623e-07
-5.33986e-07
-6.19339e-07
-6.24367e-07
-3.12989e-07
4.19377e-07
2.50942e-06
4.37746e-06
9.76251e-07
-1.05972e-06
-7.2931e-05
)
;
    }
    sWall
    {
        type            calculated;
        value           uniform -0.000226451;
    }
    nWall
    {
        type            calculated;
        value           nonuniform List<scalar> 6(-5.35383e-05 -6.50673e-05 -7.04803e-05 -8.17397e-05 -8.90948e-05 -9.45035e-05);
    }
    sideWalls
    {
        type            empty;
        value           nonuniform 0();
    }
    glass1
    {
        type            calculated;
        value           nonuniform List<scalar> 9(-6.27286e-05 -0.000172236 -0.000267125 -0.000349854 -0.000421295 -0.000481633 -0.000534173 -0.000595006 -0.000661903);
    }
    glass2
    {
        type            calculated;
        value           nonuniform List<scalar> 2(-0.000286408 -0.000310963);
    }
    sun
    {
        type            calculated;
        value           uniform 0;
    }
    Table_master
    {
        type            calculated;
        value           nonuniform List<scalar> 9(-1.53847e-07 -1.54065e-07 -1.54121e-07 -1.54141e-07 -1.54143e-07 -1.54134e-07 -1.54116e-07 -1.54085e-07 -1.54015e-07);
    }
    Table_slave
    {
        type            calculated;
        value           nonuniform List<scalar> 9(1.53662e-07 1.53616e-07 1.53557e-07 1.53523e-07 1.53494e-07 1.53487e-07 1.53505e-07 1.53551e-07 1.53638e-07);
    }
    inlet
    {
        type            calculated;
        value           uniform -0.0164643;
    }
    outlet
    {
        type            calculated;
        value           nonuniform List<scalar> 2(0.0169951 0.00471314);
    }
}


// ************************************************************************* //
