/*--------------------------------*- C++ -*----------------------------------*=========                 |
  \      /  F ield         | OpenFOAM: The Open Source CFD Toolbox
   \    /   O peration     | Website:  https://openfoam.org
    \  /    A nd           | Version:  6
     \/     M anipulation  |
\*---------------------------------------------------------------------------*/
FoamFile
{
    version     2.0;
    format      ascii;
    class       volScalarField;
    location    "2800";
    object      PPD;
}
// * * * * * * * * * * * * * * * * * * * * * * * * * * * * * * * * * * * * * //

dimensions      [0 0 0 0 0 0 0];

internalField   nonuniform List<scalar> 
458
(
32.8331840505775
21.44925308452042
19.56643388438718
18.26843410584158
17.538598316619385
17.27931810369094
17.55886652640322
18.508812750693266
20.446566483896675
23.731088392873673
28.485943763409793
29.29683243178313
28.490036225548153
29.108098612629846
29.884839647464005
54.72683301998611
52.88022440554692
51.39909823114432
50.90604003243663
51.37313789627851
52.041144023118385
51.42723223184081
51.48333897593072
51.88242654574399
52.432115000469665
52.9954786039785
53.58399817479436
54.23447377281919
54.972092635277136
55.93277831387738
57.355917607206386
59.40456152434786
61.395575671372185
29.101888036183496
21.946033474043347
20.843155342202436
19.5047656564591
18.687869445312103
18.32935677246698
18.40055226032875
18.72248019738086
19.420815532527243
20.944870549828224
24.529399780448117
29.34461323363979
30.719742886255972
29.577893381402035
27.875728073262778
27.645300299367236
29.89692346715249
33.604068403415795
54.56301894440487
52.802217836338706
49.37809795418087
48.091345030087574
47.84602159542945
48.725835270505314
49.5606970769491
50.37155731708858
51.16137861851789
51.89482471268893
52.624065449239836
53.34837653013456
54.03321973361057
54.802075519357274
55.83052421028346
57.38331785603456
59.056618797595696
60.26383577265293
29.738707768952068
21.675521988529283
22.3371859464184
21.655792686902572
21.20579419646434
20.84319439374613
20.48667710015914
19.379445207613728
18.021832738066962
18.085884000962082
21.415892950112266
27.242908026417894
31.576459166673345
32.35632906847057
30.699984528028494
30.460634283975892
31.3036293444229
32.188261498208135
50.72598707367385
47.394405013936385
44.120905862671634
43.57450605271946
44.38542609239621
45.52117522629126
48.14409397593403
50.54157313520575
52.257333633937044
53.504395821229416
54.492830430128684
55.42888902003825
56.3382797393336
57.220546524258985
57.84065060437272
58.791792607257364
58.68397718411779
57.29522634932094
32.75066695381615
21.536827738112123
23.56570936590866
24.41460019531401
25.307422755767135
25.477381965161157
24.29564431870996
20.529315324012458
16.8168235150723
15.987891824926223
19.46760991071642
25.830556796221856
32.061481509374985
35.31354625238494
34.35041975946126
32.87384444652014
31.3560508037546
30.041960578653573
29.615448974944144
33.60391321144836
35.980305121530705
38.2666117460345
41.38597127312413
45.033317397285224
48.25356638811763
49.135276032973486
49.874702458102306
50.88251368510348
52.09108445701436
53.38875616356063
54.789314881060704
56.38448674816713
58.32290001425592
59.506030695522426
59.63963488478001
58.15362813483136
55.79581431056612
37.25816361511334
21.97584029466789
24.55074351692089
27.05846726739169
30.734507682720135
33.05680821176918
29.12207748019948
21.460315830539315
15.857092325691653
14.647312318296613
18.225397768947815
25.40511354397779
33.3434852544072
38.866345632504256
39.06101370955934
36.755444975656516
34.35199181575041
32.784839257650205
33.401649966715084
34.89271491357606
37.35548321123767
40.877964104020926
45.12076065270917
49.49300567436764
53.2263426139694
55.31581406555376
56.82027984813725
58.27469156975832
59.52005977099371
60.48608649985558
61.26257460455729
61.83876768070868
62.146544832757144
61.6375501748623
60.4945180319964
57.8440342434298
57.673173705992916
61.01081495404751
68.28927269237548
62.30995502955184
42.42139185287066
23.251891930976768
26.113348900131868
28.835433176108012
34.80709518501676
38.338241088256
30.802370422300143
21.035905959207454
14.918322080805638
13.744463222456147
17.673179994227084
26.20661318652853
36.25345321464953
44.09278738194916
44.51071725855114
43.283955186909516
40.21753569279808
38.534261604127174
39.18798536745879
41.3158738252165
44.68356353896566
48.88767634166717
53.375603597531764
57.65093893859365
60.806719213353276
62.491968387894765
63.758475458193395
64.68914647121358
65.31451783031446
65.71320053322351
65.86238275800459
65.78781402151074
65.41430473292215
64.10709954794665
62.090203665961326
59.05379629885035
58.49031645254445
60.02785391818085
62.79309234959927
64.36222048458364
47.78424234174509
27.00628339497183
31.74824633809544
31.864484435798914
35.8591362476548
36.37615489951767
28.339864346566685
19.055531947399288
13.412819759882382
12.920226067519252
18.06216741851358
28.917649740169338
41.74026621838991
49.17136188474762
49.559087822020444
48.113858307380134
47.03458237871785
47.08587375270367
48.88729948999479
52.04841520737897
55.50687211539065
58.928362880612546
61.90629303586043
64.28741982752817
65.98656376839023
67.12293111031991
67.88220179989746
68.32050830125227
68.5631712273439
68.63585098463521
68.49043628095369
68.12594318953758
67.5399833338524
66.67960449379521
64.82809451326588
61.72464253713411
60.20829058916573
60.09914906256011
59.885669787207455
64.55519992028958
55.65557021632385
45.99837442751273
42.38410329642194
37.156855085750266
36.38208562134733
32.99197379587707
23.80008561487584
14.809901535130948
10.960221359014938
12.278817346133934
20.264261315188577
35.28448876581234
51.21739813363216
54.96088724293606
55.01289509151424
53.9986154677573
53.5304063230279
54.36277840010962
56.85742415045209
60.216351029040105
63.27834118522886
65.83753150240665
67.83338299759751
69.23933332910573
70.14890292522782
70.69470940153617
70.9544452776508
71.07222360182266
71.02513366199447
70.88369294978284
70.60004930548763
70.14890292522782
69.5515706106087
68.70847528287723
67.7601110966381
66.87685603507488
65.75088967262914
64.6791388159647
61.984463946500526
59.96249738590593
67.22755757783423
59.892425046697056
51.04555578416323
43.597782700978364
38.65002314400476
27.917994330298214
14.203288043698592
8.325040757998948
8.147022438075865
12.99847091043658
27.58687106858075
49.17939024973754
58.789828206591395
59.53175496558124
59.25696811771263
59.30059027903551
60.222715352815264
62.18482613918199
64.84399057832475
67.28257550882877
69.04841800797132
70.127148110037
70.7944829378569
71.16552909440804
71.34168973448884
71.40126332926499
71.37236994581512
71.2484831763559
70.99757807110845
70.63955680316182
70.1476201188365
69.5384487296046
68.83984523990033
68.0406697417446
67.25495923811042
66.60493551472572
66.3355304208811
66.27496627336802
65.8489148534675
65.03409902311124
91.58745140650691
53.821770631315246
31.161044898483212
22.89098643860325
13.143687340851955
5.613361681849312
7.7161001896431145
22.575389538629707
49.973095748418615
59.446086258751855
62.05600271151562
62.75028826898656
63.096326378535835
63.732297764297634
64.8013130273834
66.30664575766328
68.02501245623192
69.51179372022273
70.57489523915082
71.19701626010128
71.49500657991112
71.56700930034906
71.51483774442303
71.37858242977644
71.1706742740125
70.90722236906613
70.60953172537049
70.30064665053638
70.00319668447875
69.68916560520319
69.42532045736448
69.23668629788746
69.15265161544183
69.2624258117967
69.78345296608828
71.172688348957
74.07193410403826
72.83370301615585
89.35860090359982
34.320829246126166
10.388223072628762
5.074722700761399
8.227894258166344
24.89099497096136
43.966236860746584
54.606078979184076
61.700499148569186
64.76350110379391
66.02803533220816
66.7392787374271
67.38918184241561
68.10778475733719
68.99423892226741
69.97707042853067
70.90268693619764
71.63306877840907
72.07638549222042
72.29923782726078
72.31900466687266
72.2446536194773
72.12949688889191
71.97358117585317
71.82501232949585
71.65944798376103
71.47881453798973
71.33723831253376
71.1960754502901
71.15137031291118
71.21521336577808
71.46688482687455
71.90674289739141
72.44978382060671
73.23839711055669
75.68685693753461
73.79686260462051
77.17724147639125
49.28165497825327
47.576372960537185
40.80032633401153
7.879830659017188
8.83166693531227
30.08688211943388
49.92091190580096
59.12108409296271
64.2826900035116
67.00893438793332
68.6536004090103
69.67230517183876
70.3633778769689
70.88652100823089
71.36736217735844
71.80316742060702
72.25680209789097
72.70170819299676
73.10152242297812
73.36970562943215
73.54634938033948
73.62838061270175
73.64102931204921
73.588074683476
73.4977071926209
73.39805547098919
73.2696015442902
73.14246966552955
73.00206295619897
72.91153846868885
72.87315571339667
72.93769522668154
73.20094906373355
73.85334904367416
74.95494210909273
75.94481471226744
76.19452979024358
74.95710755219163
75.64491727946691
72.43017272946216
)
;

boundaryField
{
    ".*"
    {
        type            zeroGradient;
    }
}


// ************************************************************************* //
