/*--------------------------------*- C++ -*----------------------------------*\
  =========                 |
  \\      /  F ield         | OpenFOAM: The Open Source CFD Toolbox
   \\    /   O peration     | Website:  https://openfoam.org
    \\  /    A nd           | Version:  6
     \\/     M anipulation  |
\*---------------------------------------------------------------------------*/
FoamFile
{
    version     2.0;
    format      ascii;
    class       volScalarField;
    location    "3000";
    object      T;
}
// * * * * * * * * * * * * * * * * * * * * * * * * * * * * * * * * * * * * * //

dimensions      [0 0 0 1 0 0 0];

internalField   nonuniform List<scalar> 
458
(
303.653
303.395
303.385
303.383
303.381
303.379
303.376
303.373
303.367
303.36
303.35
303.34
303.332
303.326
303.325
303.375
303.363
303.364
303.366
303.369
303.369
303.37
303.37
303.37
303.37
303.37
303.37
303.37
303.37
303.37
303.37
303.37
303.382
303.827
303.437
303.413
303.417
303.422
303.425
303.425
303.422
303.413
303.398
303.379
303.358
303.34
303.326
303.318
303.316
303.314
303.329
303.373
303.359
303.361
303.367
303.371
303.37
303.368
303.365
303.362
303.359
303.356
303.354
303.351
303.35
303.349
303.349
303.351
303.369
304.007
303.486
303.444
303.453
303.467
303.478
303.485
303.486
303.474
303.45
303.416
303.382
303.352
303.331
303.319
303.314
303.314
303.322
303.351
303.357
303.367
303.379
303.389
303.385
303.38
303.376
303.371
303.366
303.362
303.358
303.354
303.35
303.349
303.347
303.347
303.364
304.187
303.548
303.477
303.489
303.513
303.537
303.556
303.563
303.547
303.509
303.457
303.405
303.363
303.335
303.32
303.316
303.318
303.323
303.333
303.346
303.365
303.384
303.402
303.416
303.428
303.436
303.443
303.449
303.453
303.457
303.458
303.459
303.459
303.426
303.393
303.368
303.367
304.36
303.628
303.52
303.523
303.555
303.592
303.628
303.641
303.617
303.561
303.488
303.42
303.367
303.333
303.318
303.317
303.323
303.334
303.349
303.368
303.391
303.414
303.434
303.451
303.465
303.475
303.483
303.489
303.493
303.494
303.493
303.489
303.482
303.462
303.43
303.395
303.375
303.378
303.382
303.428
304.516
303.733
303.601
303.583
303.61
303.653
303.699
303.703
303.659
303.584
303.498
303.418
303.359
303.323
303.311
303.315
303.33
303.35
303.373
303.398
303.425
303.45
303.471
303.487
303.5
303.509
303.515
303.519
303.52
303.52
303.517
303.51
303.501
303.484
303.458
303.425
303.4
303.394
303.396
303.434
304.662
303.9
303.776
303.745
303.749
303.775
303.784
303.745
303.665
303.564
303.463
303.38
303.325
303.299
303.298
303.316
303.344
303.375
303.407
303.438
303.466
303.489
303.508
303.521
303.53
303.536
303.539
303.54
303.539
303.536
303.532
303.524
303.513
303.498
303.477
303.451
303.428
303.418
303.415
303.439
304.874
304.305
304.173
304.088
304.024
303.957
303.856
303.726
303.586
303.456
303.354
303.288
303.26
303.263
303.288
303.327
303.372
303.415
303.453
303.484
303.508
303.526
303.539
303.547
303.551
303.553
303.553
303.552
303.549
303.545
303.54
303.533
303.523
303.51
303.495
303.477
303.463
303.459
303.46
303.562
305.179
304.91
304.63
304.345
304.086
303.851
303.609
303.4
303.248
303.159
303.128
303.14
303.183
303.242
303.304
303.367
303.429
303.471
303.502
303.525
303.541
303.552
303.559
303.562
303.564
303.563
303.562
303.56
303.557
303.553
303.55
303.547
303.546
303.546
303.552
303.563
303.583
303.606
303.628
303.683
294.959
297.601
299.394
300.384
301.147
301.755
302.231
302.595
302.865
303.063
303.212
303.325
303.399
303.454
303.494
303.522
303.542
303.555
303.564
303.569
303.571
303.572
303.572
303.572
303.571
303.571
303.57
303.57
303.57
303.571
303.572
303.576
303.583
303.595
303.612
303.633
303.654
303.681
296.394
298.978
300.599
301.42
301.955
302.363
302.684
302.93
303.115
303.252
303.353
303.427
303.477
303.513
303.537
303.554
303.565
303.571
303.575
303.577
303.578
303.579
303.579
303.58
303.581
303.581
303.582
303.583
303.584
303.585
303.587
303.59
303.595
303.604
303.615
303.629
303.635
303.664
299.995
299.901
299.895
301.732
302.336
302.635
302.853
303.03
303.172
303.283
303.368
303.432
303.478
303.511
303.533
303.547
303.556
303.561
303.564
303.566
303.567
303.569
303.571
303.572
303.574
303.576
303.578
303.58
303.582
303.583
303.585
303.587
303.589
303.592
303.595
303.6
303.61
303.615
303.617
303.653
)
;

boundaryField
{
    floor
    {
        type            wallHeatTransfer;
        Tinf            uniform 305.2;
        alphaWall       uniform 0.24;
        value           nonuniform List<scalar> 
36
(
303.502
303.727
303.667
303.644
303.647
303.654
303.666
303.679
303.693
303.706
303.718
303.73
303.742
303.753
303.765
303.777
303.79
303.803
303.838
303.838
303.767
303.73
303.706
303.677
303.672
303.707
303.502
303.485
303.519
303.589
303.727
303.589
303.7
303.522
303.552
303.495
)
;
    }
    ceiling
    {
        type            wallHeatTransfer;
        Tinf            uniform 303.2;
        alphaWall       uniform 0.24;
        value           nonuniform List<scalar> 
43
(
300.222
300.121
300.106
301.82
302.388
302.67
302.875
303.041
303.174
303.277
303.355
303.412
303.452
303.478
303.494
303.503
303.508
303.51
303.511
303.511
303.512
303.513
303.514
303.516
303.518
303.521
303.523
303.526
303.529
303.533
303.536
303.54
303.544
303.548
303.553
303.559
303.57
303.574
303.572
303.602
305.088
304.842
296.816
)
;
    }
    sWall
    {
        type            wallHeatTransfer;
        Tinf            uniform 315.2;
        alphaWall       uniform 0.36;
        value           uniform 301.563;
    }
    nWall
    {
        type            wallHeatTransfer;
        Tinf            uniform 307.2;
        alphaWall       uniform 0.36;
        value           nonuniform List<scalar> 6(304.255 304.119 304.026 304.201 304.181 304.222);
    }
    sideWalls
    {
        type            empty;
    }
    glass1
    {
        type            wallHeatTransfer;
        Tinf            uniform 315.2;
        alphaWall       uniform 4.3;
        value           nonuniform List<scalar> 9(311.571 310.912 310.499 310.186 309.927 309.696 309.535 309.614 309.846);
    }
    glass2
    {
        type            wallHeatTransfer;
        Tinf            uniform 307.2;
        alphaWall       uniform 4.3;
        value           nonuniform List<scalar> 2(305.858 305.921);
    }
    sun
    {
        type            wallHeatTransfer;
        Tinf            uniform 305.2;
        alphaWall       uniform 0.24;
        value           nonuniform List<scalar> 
14
(
303.818
303.575
303.564
303.556
303.549
303.543
303.536
303.529
303.521
303.512
303.504
303.497
303.494
303.495
)
;
    }
    Table_master
    {
        type            zeroGradient;
    }
    Table_slave
    {
        type            zeroGradient;
    }
    inlet
    {
        type            fixedValue;
        value           uniform 292.15;
    }
    outlet
    {
        type            zeroGradient;
    }
}


// ************************************************************************* //
