/*--------------------------------*- C++ -*----------------------------------*\
  =========                 |
  \\      /  F ield         | OpenFOAM: The Open Source CFD Toolbox
   \\    /   O peration     | Website:  https://openfoam.org
    \\  /    A nd           | Version:  6
     \\/     M anipulation  |
\*---------------------------------------------------------------------------*/
FoamFile
{
    version     2.0;
    format      ascii;
    class       volScalarField;
    location    "500";
    object      nut;
}
// * * * * * * * * * * * * * * * * * * * * * * * * * * * * * * * * * * * * * //

dimensions      [0 2 -1 0 0 0 0];

internalField   nonuniform List<scalar> 
458
(
0.00112162
0.00122336
0.00125343
0.00131671
0.00137537
0.00143094
0.00148609
0.0015443
0.00159884
0.00164371
0.00167085
0.00166982
0.00162804
0.00151487
0.00112903
0.000541861
0.000645495
0.00073425
0.000754856
0.000743039
0.000701901
0.000655439
0.000612907
0.000575294
0.000542028
0.000512701
0.000486726
0.000463314
0.000441665
0.000420819
0.000399385
0.000383928
0.000350737
0.00151072
0.00342503
0.00313292
0.00357225
0.00401825
0.00448959
0.00494436
0.00530772
0.0056678
0.00603822
0.00637617
0.00663443
0.00676592
0.00666544
0.00557612
0.0014752
0.00121273
0.000985876
0.000546513
0.00126621
0.00185358
0.00229614
0.00243293
0.00182347
0.00156373
0.00138684
0.00125496
0.00115263
0.00106688
0.000988104
0.000912705
0.000837239
0.000771166
0.000717035
0.000856805
0.000450267
0.00183673
0.00464098
0.00384309
0.00469579
0.00508686
0.00536669
0.00557213
0.00574071
0.0059572
0.00624445
0.00658436
0.00695806
0.00733075
0.00760306
0.00734237
0.00592531
0.00443991
0.00114811
0.000919562
0.00155746
0.0022017
0.00278848
0.00292028
0.000934046
0.000824149
0.000732449
0.000657894
0.00059754
0.000548621
0.000508993
0.00047706
0.000452526
0.000504105
0.000589973
0.000978897
0.000521673
0.00215002
0.00595093
0.00381567
0.00500059
0.00529239
0.00530607
0.0052415
0.00523613
0.00535465
0.00558981
0.00592859
0.00636639
0.00686773
0.00733112
0.00747968
0.00709561
0.00604665
0.00327797
0.00133262
0.00181543
0.00251997
0.00326421
0.00383468
0.00377653
0.00102275
0.000938871
0.000885305
0.000848137
0.000817526
0.000786092
0.000753917
0.000719914
0.000679667
0.000642466
0.000639534
0.00109145
0.000592098
0.00247016
0.00771053
0.00411704
0.00483748
0.00528417
0.0051736
0.00492725
0.00480789
0.00489976
0.00513201
0.00547696
0.00593992
0.00647102
0.00691795
0.00707012
0.00696608
0.00657099
0.00545678
0.00514165
0.00508794
0.00524182
0.00541822
0.00547033
0.00527187
0.0044543
0.00409321
0.00392785
0.00381981
0.00370147
0.00353214
0.00321373
0.00276243
0.00222419
0.0016868
0.00126865
0.00115019
0.00094561
0.000725821
0.0007702
0.000762893
0.00281427
0.00971217
0.00585353
0.00461884
0.00498342
0.00507307
0.00489615
0.00465563
0.00474521
0.00497612
0.00531874
0.00578363
0.00629786
0.00666156
0.00669575
0.00653222
0.00642705
0.00636073
0.00654287
0.00672733
0.00676576
0.00661949
0.00632237
0.0059236
0.0054854
0.00519868
0.00501578
0.00486653
0.00471402
0.00453794
0.00429718
0.00390643
0.00336517
0.00271374
0.00209602
0.00156333
0.00122433
0.00130324
0.00187393
0.000960279
0.00314342
0.0111968
0.00874061
0.00617045
0.00517062
0.0048298
0.00485825
0.00484071
0.00489739
0.00505254
0.00534998
0.00579098
0.00629295
0.00662074
0.00654618
0.00628872
0.00637285
0.00681783
0.00721295
0.0073285
0.00714692
0.00674343
0.00622276
0.00568818
0.00525434
0.00499246
0.00483764
0.00471852
0.00460627
0.00449456
0.00438222
0.0042151
0.00385849
0.00333416
0.00276597
0.00222955
0.00182652
0.00173199
0.0021515
0.00119915
0.0032137
0.0100563
0.00912481
0.00835082
0.00728085
0.00632503
0.00585597
0.00548861
0.0052324
0.00525049
0.00549922
0.00591816
0.00641554
0.0067225
0.00656097
0.00631227
0.0066089
0.00695916
0.0070736
0.00690628
0.00648935
0.00592665
0.00534897
0.00486968
0.00455067
0.00437063
0.00426163
0.00418157
0.00412156
0.00408832
0.00409317
0.00413445
0.0040915
0.00376321
0.00343403
0.00323289
0.00327929
0.00342975
0.00424472
0.00159161
0.00314217
0.00374518
0.00425185
0.00466792
0.00495714
0.00500701
0.00494325
0.00491008
0.00502274
0.00531407
0.00566622
0.00610128
0.00660122
0.00687378
0.00661942
0.00643733
0.00640967
0.00629544
0.00605966
0.00568146
0.00520038
0.00471422
0.00431007
0.00402038
0.00382772
0.00369218
0.00358
0.00347603
0.00337694
0.00328123
0.00318322
0.0030724
0.00295001
0.00283525
0.00275201
0.00270467
0.00263568
0.00249488
0.00232849
0.00152387
0.000744219
0.00160413
0.00259221
0.00343811
0.00410192
0.0047066
0.00533885
0.00580573
0.0059932
0.0062848
0.00668888
0.00689766
0.00663692
0.00618298
0.00566032
0.0052064
0.00483602
0.00449687
0.0041825
0.00391298
0.00369716
0.00352513
0.00337925
0.00324431
0.00311202
0.0029815
0.00285725
0.00274748
0.002663
0.00261587
0.00259781
0.00258245
0.00255698
0.00249161
0.00233812
0.00207211
0.0017392
0.0012112
0.00259582
0.00408675
0.00460653
0.00544588
0.00610151
0.00669069
0.00684283
0.00615261
0.00538667
0.00549258
0.00552255
0.00543907
0.00521444
0.00486676
0.00453696
0.00423222
0.00396806
0.00373308
0.00352106
0.00333192
0.00316509
0.00301872
0.00289194
0.00278605
0.00270388
0.00264735
0.0026152
0.00260158
0.00259499
0.00261664
0.00265815
0.00270745
0.00274543
0.00274048
0.00267443
0.00257081
0.0020831
0.00122321
0.00272652
0.00276336
0.0028083
0.00300401
0.00284857
0.00272374
0.00249696
0.00212954
0.00168135
0.00145726
0.00128823
0.00119879
0.00115124
0.00110139
0.00104846
0.00100323
0.000968928
0.000945674
0.000926372
0.000910339
0.000898092
0.000890172
0.000886939
0.000888579
0.000895189
0.000906816
0.000923499
0.000945357
0.00097276
0.00100661
0.00104883
0.00109715
0.00115176
0.00121213
0.0012775
0.00134593
0.00141001
0.00138494
0.0012731
0.00117093
)
;

boundaryField
{
    floor
    {
        type            nutkWallFunction;
        Cmu             0.09;
        kappa           0.41;
        E               9.8;
        value           nonuniform List<scalar> 
36
(
0.000135777
6.5047e-05
7.80133e-05
8.89172e-05
9.14254e-05
8.99876e-05
8.49617e-05
7.92428e-05
7.39646e-05
6.92599e-05
6.50675e-05
6.13454e-05
5.80266e-05
5.50164e-05
5.2216e-05
4.9503e-05
4.66958e-05
4.46594e-05
4.02496e-05
4.02495e-05
5.33306e-05
6.2487e-05
7.13666e-05
8.78889e-05
9.32892e-05
9.24025e-05
0.000135777
0.000175303
0.000145446
0.000119048
6.50469e-05
0.000119048
6.56349e-05
0.000137989
0.000111205
0.000159167
)
;
    }
    ceiling
    {
        type            nutkWallFunction;
        Cmu             0.09;
        kappa           0.41;
        E               9.8;
        value           nonuniform List<scalar> 
43
(
0.000310907
0.000314782
0.000319504
0.000340046
0.000323832
0.000310741
0.000286761
0.00024739
0.000198337
0.000173287
0.000154107
0.000143846
0.000138355
0.000132572
0.000126397
0.000121093
0.000117051
0.000114303
0.000112015
0.00011011
0.000108653
0.000107709
0.000107324
0.000107519
0.000108307
0.000109691
0.000111674
0.000114265
0.000117503
0.00012149
0.00012644
0.000132078
0.000138416
0.000145383
0.000152884
0.00016069
0.00016796
0.00016512
0.000152382
0.000140635
0.000354813
0.000416898
0.000296996
)
;
    }
    sWall
    {
        type            nutkWallFunction;
        Cmu             0.09;
        kappa           0.41;
        E               9.8;
        value           uniform 0.000310985;
    }
    nWall
    {
        type            nutkWallFunction;
        Cmu             0.09;
        kappa           0.41;
        E               9.8;
        value           nonuniform List<scalar> 6(9.24021e-05 0.000116034 0.000143895 0.000145291 0.000146672 0.000140646);
    }
    sideWalls
    {
        type            empty;
    }
    glass1
    {
        type            nutkWallFunction;
        Cmu             0.09;
        kappa           0.41;
        E               9.8;
        value           nonuniform List<scalar> 9(0.00013505 0.000179557 0.00021585 0.000250066 0.000284481 0.000320953 0.000355406 0.000362724 0.000355308);
    }
    glass2
    {
        type            nutkWallFunction;
        Cmu             0.09;
        kappa           0.41;
        E               9.8;
        value           nonuniform List<scalar> 2(0.000188471 0.000180886);
    }
    sun
    {
        type            nutkWallFunction;
        Cmu             0.09;
        kappa           0.41;
        E               9.8;
        value           nonuniform List<scalar> 
14
(
0.000134919
0.000146666
0.000150117
0.00015735
0.00016402
0.00017031
0.000176526
0.000183059
0.000189156
0.000194154
0.00019717
0.000197057
0.00019241
0.00017976
)
;
    }
    Table_master
    {
        type            nutkWallFunction;
        Cmu             0.09;
        kappa           0.41;
        E               9.8;
        value           nonuniform List<scalar> 9(0.00011292 9.98014e-05 8.8698e-05 7.95492e-05 7.20519e-05 6.59077e-05 6.08813e-05 5.67958e-05 5.36339e-05);
    }
    Table_slave
    {
        type            nutkWallFunction;
        Cmu             0.09;
        kappa           0.41;
        E               9.8;
        value           nonuniform List<scalar> 9(0.00012338 0.000113492 0.000107126 0.000102681 9.90042e-05 9.52113e-05 9.13105e-05 8.71667e-05 8.22318e-05);
    }
    inlet
    {
        type            calculated;
        value           uniform 0.00033541;
    }
    outlet
    {
        type            calculated;
        value           nonuniform List<scalar> 2(0.00272652 0.00276336);
    }
}


// ************************************************************************* //
