/*--------------------------------*- C++ -*----------------------------------*\
  =========                 |
  \\      /  F ield         | OpenFOAM: The Open Source CFD Toolbox
   \\    /   O peration     | Website:  https://openfoam.org
    \\  /    A nd           | Version:  6
     \\/     M anipulation  |
\*---------------------------------------------------------------------------*/
FoamFile
{
    version     2.0;
    format      ascii;
    class       surfaceScalarField;
    location    "100";
    object      phi;
}
// * * * * * * * * * * * * * * * * * * * * * * * * * * * * * * * * * * * * * //

dimensions      [1 0 -1 0 0 0 0];

internalField   nonuniform List<scalar> 
850
(
-0.00269711
0.0027404
0.00057422
-0.00327147
0.00427338
-0.00369932
0.00662562
-0.00235241
0.00798731
-0.00136184
0.00877777
-0.000790611
0.00918382
-0.000406206
0.00929184
-0.000108163
0.00915607
0.000135636
0.00879971
0.000356227
0.00821857
0.000581007
0.00737113
0.000847312
0.00613602
0.001235
0.00413364
0.00200227
0.00413415
-0.00104173
0.00104195
-0.00147318
0.00043125
-0.00117548
-0.000297891
-0.000292045
-0.000883607
0.000777925
-0.00107014
0.00144022
-0.000662473
0.00174408
-0.000304027
0.00191909
-0.000175194
0.00205661
-0.000137695
0.00217861
-0.000122186
0.0022839
-0.000105479
0.00234132
-5.76101e-05
0.00232085
2.02631e-05
0.00220836
0.000112278
0.00198485
0.000223293
0.00160927
0.000375352
0.000993632
0.000615388
0.000993457
0.00140975
0.00145847
0.00447378
-0.00633567
0.00632817
-0.00555388
0.00750372
-0.00352814
0.00824642
-0.00210471
0.00867424
-0.00121859
0.00886238
-0.000594513
0.00885551
-0.000101443
0.0086659
0.000325088
0.00830132
0.000720668
0.00776974
0.00111245
0.00708032
0.0015366
0.00627297
0.00204222
0.00561245
0.00266267
0.00641418
0.00333231
0.00392944
0.00248584
0.00190546
0.00202514
0.00190896
-0.000413236
0.00145616
-0.000343121
0.000360906
0.000172441
-0.000813632
0.000791979
-0.00150331
0.00133473
-0.00161306
0.00150636
-0.000834264
0.00153719
-0.00033503
0.00156197
-0.000200145
0.00158674
-0.000162637
0.00161859
-0.000154218
0.00166767
-0.000154745
0.00168975
-7.99046e-05
0.00164021
6.95745e-05
0.00152387
0.000228376
0.00132656
0.000420348
0.0010316
0.000670049
0.000588399
0.00105831
0.00158164
0.00681882
-0.00517088
0.00775092
-0.00726792
0.00751875
-0.0053219
0.00742503
-0.0034346
0.00745973
-0.0021396
0.00746776
-0.00122681
0.0074269
-0.000553826
0.00731204
1.32499e-05
0.00710582
0.000531141
0.00681488
0.00101145
0.00644917
0.00147801
0.00603162
0.001954
0.00561965
0.00245406
0.0053073
0.00297489
0.00511703
0.00352247
0.00414262
0.00346014
0.00268514
0.00348252
0.00459746
0.000288929
0.00116893
0.000953004
-0.00030337
0.00137555
-0.00123634
0.00168715
-0.00181507
0.00225594
-0.00218201
0.00142167
0.00108663
0.000886476
0.000723824
0.000569574
0.000414745
0.000334672
0.000404035
0.000632196
0.000700275
0.000351925
0.00065088
0.000719121
0.000406586
0.0013023
0.00198767
0.00551976
-0.010434
0.00592677
-0.00767513
0.005285
-0.00468033
0.00485238
-0.0030022
0.00460606
-0.00189349
0.00445053
-0.00107149
0.00438681
-0.000490305
0.00439024
9.63787e-06
0.00441331
0.000507894
0.00441431
0.00101027
0.00437085
0.00152131
0.00428932
0.00203539
0.00419163
0.0025516
0.00409842
0.00306797
0.00404855
0.00357221
0.00383782
0.00367076
0.00366103
0.00365921
0.00468915
0.00356923
0.00261352
0.00207956
0.00281158
0.000970738
0.00272078
-0.00021269
0.00261525
-0.00113094
0.00238128
-0.00158125
0.00173138
-0.00153226
0.00247382
-0.000742764
0.00280849
-0.000334998
0.00297025
-0.000162103
0.00302266
-5.27508e-05
0.00298024
4.20654e-05
0.00285195
0.000127932
0.00264028
0.000211319
0.00232825
0.000311662
0.00186645
0.000461437
0.00147297
0.00074516
0.00107511
0.00111669
0.000693722
0.00168337
0.00268038
0.00205805
-0.0121625
0.00210866
-0.00772597
0.00221737
-0.00478929
0.00176715
-0.0025522
0.00143991
-0.00156647
0.00134933
-0.000981109
0.0014403
-0.000581474
0.00164435
-0.000194602
0.00188669
0.000265368
0.00210002
0.000796774
0.00227337
0.0013478
0.00242022
0.00188838
0.00255724
0.00241442
0.00271149
0.00291359
0.0029356
0.00334797
0.00314675
0.0034595
0.00341875
0.0033871
0.00381823
0.00316964
0.00374563
0.00215206
0.0038011
0.000915161
0.00370465
-0.000116346
0.00340165
-0.000828061
0.00297437
-0.00115412
0.00254425
-0.00110232
0.00250634
-0.000705057
0.00250182
-0.000330687
0.0024332
-9.3708e-05
0.00231327
6.69502e-05
0.00216467
0.000190424
0.00200052
0.000291841
0.00182267
0.00038893
0.00163117
0.000502921
0.00143176
0.000660605
0.00127713
0.000899546
0.00116844
0.0012251
0.0012122
0.00163931
0.00175192
0.00214033
3.78261e-05
0.00171142
-4.93222e-05
7.60475e-05
-5.18716e-05
-6.67503e-05
-0.0116888
-8.10241e-05
-0.00771196
0.00017926
-0.00504983
-0.000495273
-0.00187791
-0.000750537
-0.00131143
-0.000725716
-0.00100614
-0.000582158
-0.000725232
-0.000377669
-0.000399282
-0.000142359
2.98735e-05
0.000105346
0.000548894
0.000362261
0.00109071
0.000628972
0.00162151
0.000917691
0.00212555
0.00124703
0.00258412
0.00163467
0.00296019
0.00202531
0.00306874
0.00243349
0.00297881
0.00292937
0.00267365
0.00330217
0.00177915
0.00343112
0.000786097
0.00332158
-6.94156e-06
0.00300253
-0.000509181
0.00257291
-0.000724695
0.00214689
-0.000676525
0.00186494
-0.00042335
0.00167221
-0.000138221
0.00150114
7.70865e-05
0.00134697
0.000220841
0.00121525
0.000321868
0.00110222
0.000404591
0.00100665
0.000484229
0.00093351
0.00057579
0.000896556
0.000697296
0.000922671
0.000873169
0.00103555
0.00111196
0.00126828
0.00140628
0.00167343
0.00173486
0.00207762
0.00130686
0.00146833
0.000685001
0.00143846
-0.000618016
-0.0105821
-0.00138667
-0.00694358
-0.00180183
-0.00463493
-0.00229098
-0.00138899
-0.00235379
-0.00124885
-0.00227774
-0.00108242
-0.00216202
-0.000841163
-0.00203171
-0.000529799
-0.00186452
-0.0001375
-0.00164582
0.00033001
-0.00138124
0.000825966
-0.00107075
0.00131085
-0.000707505
0.00176216
-0.000279157
0.00215562
0.000220721
0.00246018
0.000734154
0.00255518
0.00125518
0.00245765
0.00182163
0.00210707
0.00221113
0.00138952
0.00232522
0.000671835
0.00219278
0.000125305
0.00189206
-0.000208695
0.00150383
-0.000336736
0.00111151
-0.000284495
0.00079409
-0.000106238
0.000568931
8.66163e-05
0.000419069
0.000226624
0.000322164
0.000317422
0.000259135
0.000384579
0.000222349
0.000441065
0.000211403
0.000494873
0.000232708
0.000554194
0.000299816
0.000629909
0.000434313
0.0007384
0.000653259
0.000892735
0.000969771
0.00108948
0.00143073
0.00127359
0.00174962
0.000987605
0.00148724
0.000946977
0.00295319
-0.00257137
-0.00743511
-0.00442832
-0.00508694
-0.00436925
-0.0046943
-0.00415169
-0.00160682
-0.00383895
-0.00156185
-0.00363861
-0.001283
-0.00352238
-0.000957641
-0.00343682
-0.000615585
-0.00333019
-0.00024434
-0.00316436
0.000163984
-0.00292712
0.000588536
-0.0026151
0.00099865
-0.00222697
0.00137386
-0.00176222
0.0016907
-0.001219
0.00191681
-0.000644584
0.0019806
-5.86409e-05
0.00187154
0.000481995
0.00156624
0.000790262
0.00108102
0.000847833
0.000614
0.000711819
0.000261019
0.000450998
5.18063e-05
0.000127385
-1.34672e-05
-0.000187809
3.03376e-05
-0.000420117
0.000125699
-0.000549778
0.000215905
-0.000608271
0.000284749
-0.000627208
0.000336001
-0.000619579
0.000376602
-0.000590128
0.000411277
-0.000539086
0.000443508
-0.000462716
0.000477516
-0.000352587
0.000519488
-0.000191636
0.000577172
4.63114e-05
0.000654515
0.000377119
0.000758386
0.000769054
0.000881346
0.000854242
0.000902051
0.000175708
0.00162508
0.00324189
-0.00676222
-0.0118449
-0.00782739
-0.00871215
-0.00545924
-0.00397527
-0.00486164
-0.00215976
-0.00468143
-0.0014635
-0.00463294
-0.00100641
-0.00461734
-0.000631458
-0.00457527
-0.000286664
-0.00446563
5.4093e-05
-0.00426622
0.000388889
-0.00397445
0.000706641
-0.00359274
0.000991925
-0.00312764
0.00122537
-0.00259195
0.00138088
-0.00203302
0.00142141
-0.00149967
0.00133792
-0.00106924
0.00113551
-0.000838333
0.000849778
-0.000801425
0.000576722
-0.000906086
0.000365285
-0.00108667
0.000231986
-0.00127728
0.000176731
-0.00142705
0.000179688
-0.00151191
0.000210148
-0.00154005
0.00024364
-0.0015279
0.000272202
-0.00148887
0.000296586
-0.00143162
0.00031898
-0.00136281
0.000342116
-0.00129034
0.000370694
-0.00122646
0.000413315
-0.00119241
0.000485145
-0.00122623
0.000610715
-0.00139686
0.000824878
-0.00181132
0.00117256
-0.00260694
0.00167662
-0.00391586
0.00221053
-0.00451937
0.00222811
-0.00117343
-0.00441902
-0.000351643
-0.00501257
-0.00338205
-0.00518436
-0.00198831
-0.00537891
-0.00126928
-0.00553591
-0.000849742
-0.00563058
-0.000537114
-0.00564976
-0.000267808
-0.0055818
-1.41844e-05
-0.00541871
0.000225483
-0.00515997
0.000447582
-0.00480959
0.000641218
-0.00438084
0.000796293
-0.00389847
0.000898174
-0.00340832
0.000930908
-0.00296259
0.000891808
-0.0026172
0.000789709
-0.00241422
0.000646374
-0.00233887
0.000500923
-0.00235115
0.000377111
-0.0024061
0.000286477
-0.00246264
0.000232813
-0.00249349
0.000210096
-0.00248999
0.000206214
-0.00245725
0.000210473
-0.00240302
0.000217556
-0.00233289
0.000226049
-0.00225095
0.000236642
-0.00216167
0.000252452
-0.00207151
0.000280167
-0.00198944
0.000330881
-0.00192492
0.000420271
-0.00188342
0.000568869
-0.00186174
0.000802831
-0.00183951
0.00114996
-0.00177363
0.0016103
-0.00154627
0.00198269
-0.000529865
0.00121116
-0.00168787
-0.00145231
0.00108735
-0.00406407
-0.000770627
-0.00526819
-0.000784548
-0.00593144
-0.000606414
-0.00633962
-0.00044193
-0.00658303
-0.000294086
-0.00669301
-0.000158205
-0.00667563
-3.19565e-05
-0.00655078
0.000100239
-0.00632325
0.000219653
-0.00600345
0.000321002
-0.00560915
0.000401572
-0.00516767
0.000456269
-0.00471716
0.000479944
-0.00429829
0.000472486
-0.00394712
0.000438062
-0.00368581
0.000384587
-0.00351015
0.000324782
-0.00340096
0.000267436
-0.00333368
0.00021872
-0.00328441
0.000183078
-0.00323596
0.000161193
-0.00318061
0.000150418
-0.00311787
0.000147288
-0.00305009
0.000149339
-0.00297978
0.000155307
-0.00290853
0.000164966
-0.00283587
0.000179369
-0.0027574
0.00020126
-0.00266229
0.000235338
-0.00253073
0.000288266
-0.00233164
0.00036932
-0.00202087
0.000491592
-0.00153154
0.000660136
-0.000725391
0.000803638
0.000518067
0.000738694
0.00149059
0.000238074
-0.000180954
-0.00427341
-0.0055258
-0.00447143
-0.00528067
-0.00610402
-0.00674891
-0.00722884
-0.0075605
-0.00775592
-0.00782475
-0.00776104
-0.00757776
-0.00729317
-0.00692827
-0.00650915
-0.00606704
-0.00563328
-0.00523499
-0.00489136
-0.00460874
-0.00438461
-0.00421018
-0.00407219
-0.00395669
-0.00385246
-0.00375179
-0.00364954
-0.0035419
-0.00342533
-0.00329531
-0.00314456
-0.00296111
-0.00272626
-0.00241191
-0.00197672
-0.00137414
-0.000628893
5.07221e-05
0.000230073
)
;

boundaryField
{
    floor
    {
        type            calculated;
        value           nonuniform List<scalar> 
36
(
0
0
0
0
0
0
0
0
0
0
0
0
0
0
0
0
0
0
0
-9.67731e-08
-7.32586e-08
2.49082e-07
7.00522e-07
2.2957e-06
1.05886e-05
1.16779e-05
-6.26517e-07
-1.19625e-06
-1.27141e-06
-1.40491e-06
-4.46063e-07
-2.18327e-06
-1.23273e-06
-3.46164e-06
-1.96895e-06
-4.0236e-06
)
;
    }
    ceiling
    {
        type            calculated;
        value           nonuniform List<scalar> 
43
(
3.82773e-05
3.46843e-05
3.26078e-05
3.82437e-05
3.8417e-05
3.80737e-05
3.75871e-05
3.71482e-05
3.67684e-05
3.64238e-05
3.60767e-05
3.58991e-05
3.59392e-05
3.61926e-05
3.66616e-05
3.73462e-05
3.82328e-05
3.92919e-05
4.04704e-05
4.16808e-05
4.2828e-05
4.38272e-05
4.46298e-05
4.52454e-05
4.57328e-05
4.6172e-05
4.66417e-05
4.72109e-05
4.79377e-05
4.88666e-05
5.00187e-05
5.13792e-05
5.28857e-05
5.44237e-05
5.58356e-05
5.69689e-05
5.77905e-05
5.8481e-05
5.82199e-05
6.05029e-05
-1.3384e-06
-4.5911e-06
1.30657e-05
)
;
    }
    sWall
    {
        type            calculated;
        value           uniform -0.000200239;
    }
    nWall
    {
        type            calculated;
        value           nonuniform List<scalar> 6(-9.52121e-06 -2.24482e-05 -2.79725e-05 -1.60514e-05 -1.68988e-05 -1.17824e-05);
    }
    sideWalls
    {
        type            empty;
        value           nonuniform 0();
    }
    glass1
    {
        type            calculated;
        value           nonuniform List<scalar> 9(-4.34374e-05 -0.000127955 -0.000189568 -0.000256872 -0.000329666 -0.000407255 -0.000488906 -0.000575838 -0.000671819);
    }
    glass2
    {
        type            calculated;
        value           nonuniform List<scalar> 2(-0.000113496 -0.000104558);
    }
    sun
    {
        type            calculated;
        value           uniform 0;
    }
    Table_master
    {
        type            calculated;
        value           nonuniform List<scalar> 9(-1.51414e-07 -1.517e-07 -1.51778e-07 -1.51799e-07 -1.51788e-07 -1.51732e-07 -1.51609e-07 -1.51461e-07 -1.51355e-07);
    }
    Table_slave
    {
        type            calculated;
        value           nonuniform List<scalar> 9(1.51182e-07 1.5106e-07 1.50963e-07 1.50908e-07 1.50874e-07 1.50858e-07 1.50874e-07 1.50919e-07 1.50997e-07);
    }
    inlet
    {
        type            calculated;
        value           uniform -0.00394188;
    }
    outlet
    {
        type            calculated;
        value           nonuniform List<scalar> 2(0.00443503 0.00121735);
    }
}


// ************************************************************************* //
