/*--------------------------------*- C++ -*----------------------------------*\
  =========                 |
  \\      /  F ield         | OpenFOAM: The Open Source CFD Toolbox
   \\    /   O peration     | Website:  https://openfoam.org
    \\  /    A nd           | Version:  6
     \\/     M anipulation  |
\*---------------------------------------------------------------------------*/
FoamFile
{
    version     2.0;
    format      ascii;
    class       volScalarField;
    location    "1300";
    object      epsilon;
}
// * * * * * * * * * * * * * * * * * * * * * * * * * * * * * * * * * * * * * //

dimensions      [0 2 -3 0 0 0 0];

internalField   nonuniform List<scalar> 
458
(
0.000680254
0.000928372
0.00105112
0.0012358
0.00143154
0.00165089
0.00187809
0.00205133
0.00212913
0.00208635
0.00192023
0.00163444
0.00119707
0.000780115
0.000485921
5.11263e-05
8.50205e-05
0.000139834
0.000179236
0.00017941
0.000136293
9.82601e-05
7.13411e-05
5.247e-05
3.90189e-05
2.93917e-05
2.22008e-05
1.66583e-05
1.23013e-05
8.83484e-06
6.05672e-06
5.44261e-06
4.35505e-06
0.00141527
0.00182648
0.000867106
0.000882815
0.000960849
0.00109894
0.00128478
0.00145059
0.00153788
0.00151747
0.00139564
0.00119298
0.000970986
0.000790355
0.000632065
0.00112973
0.000716898
0.000383892
5.00488e-05
8.53957e-05
0.000153088
0.000173358
0.00017436
0.000173685
0.000125713
8.71338e-05
6.08978e-05
4.32504e-05
3.14049e-05
2.32852e-05
1.76588e-05
1.39472e-05
1.17677e-05
1.03697e-05
3.09958e-05
2.05009e-05
0.00230917
0.00377002
0.00092434
0.000810478
0.000914474
0.00111977
0.001376
0.00156956
0.00165807
0.00163067
0.00149836
0.0012991
0.00109519
0.000905388
0.000734836
0.000657656
0.000605281
0.000753018
9.53427e-05
0.000187096
0.000217577
0.000220002
0.000216321
0.000382717
0.000235708
0.000147498
9.59907e-05
6.56062e-05
4.72964e-05
3.58544e-05
2.84332e-05
2.34986e-05
1.83188e-05
1.48668e-05
4.23971e-05
3.08502e-05
0.00345628
0.00740199
0.00126556
0.000805906
0.000933649
0.00126539
0.00160744
0.0017868
0.00184578
0.00179049
0.00164295
0.00143579
0.00120689
0.000988408
0.000801306
0.000666979
0.000597808
0.000624971
0.00106757
0.000670343
0.000471822
0.000368879
0.000309533
0.000281003
0.000631434
0.000475106
0.000375578
0.000306263
0.000253058
0.000210701
0.000174663
0.000142075
0.000110961
6.27216e-05
3.5751e-05
5.33204e-05
4.01566e-05
0.00500085
0.013181
0.0023308
0.000973672
0.001116
0.00173614
0.00207315
0.00216794
0.00215921
0.0020609
0.00187253
0.0016099
0.00131754
0.00104461
0.000822488
0.000661587
0.000563371
0.000542812
0.000591678
0.000522527
0.000459105
0.000407828
0.000358023
0.000306668
0.000278272
0.00024481
0.000217864
0.000194286
0.000171492
0.000148878
0.000126212
0.000104091
8.33847e-05
6.0967e-05
4.16878e-05
4.19855e-05
4.98914e-05
5.80606e-05
6.67133e-05
7.23267e-05
0.00715896
0.0200008
0.00530657
0.0019422
0.00229058
0.00278941
0.00283883
0.00276818
0.00265529
0.00247746
0.00220288
0.00184213
0.00145226
0.00110151
0.000829542
0.000643603
0.000540248
0.000516433
0.000535114
0.000531262
0.000507015
0.000462755
0.000401882
0.000333073
0.000274553
0.000235809
0.000210817
0.000190449
0.000170205
0.000148544
0.000125203
0.00010182
8.07049e-05
6.24601e-05
4.80812e-05
4.16983e-05
4.28998e-05
6.18461e-05
0.000281513
0.000173488
0.0095494
0.0242099
0.0109683
0.00593825
0.00522613
0.00452759
0.00398928
0.00362631
0.00335422
0.00305214
0.00264229
0.00213168
0.00160287
0.00115439
0.000830352
0.000627894
0.00053519
0.000526807
0.000552384
0.000557126
0.000527775
0.000469389
0.000394995
0.000319519
0.000259541
0.000223427
0.000203666
0.00019032
0.000178684
0.000167469
0.000153553
0.000135519
0.000117409
0.00010202
9.22991e-05
9.24882e-05
0.000104896
0.000149167
0.000551705
0.000356026
0.0100764
0.0246688
0.0149849
0.0107399
0.00798016
0.00623695
0.00522627
0.00466015
0.00425997
0.00379489
0.00316775
0.00241537
0.00168138
0.00112277
0.000752752
0.000577369
0.000519938
0.000521495
0.000533045
0.000513652
0.000459962
0.000388513
0.000316745
0.00025716
0.000217585
0.000197672
0.00019061
0.00019067
0.000196717
0.000208705
0.000226446
0.000246305
0.000261484
0.000283558
0.000335544
0.000456779
0.000693363
0.0010231
0.00378486
0.000749897
0.00936066
0.0154419
0.0126709
0.00988067
0.00790385
0.00680414
0.00623891
0.00587899
0.00540011
0.00459502
0.00352882
0.00235265
0.00135284
0.000852113
0.000614918
0.00051054
0.000471984
0.000459366
0.000441304
0.000400812
0.000343107
0.000282749
0.000231605
0.000195338
0.000174632
0.000166652
0.000167899
0.000176633
0.000192671
0.000217292
0.000252817
0.000302465
0.000370593
0.000463524
0.000598876
0.000785382
0.00101449
0.00125433
0.00148561
0.000689893
0.00347685
0.00558949
0.00729598
0.00761455
0.00743102
0.00674807
0.00538967
0.00354927
0.00218144
0.00131463
0.000834408
0.000599776
0.000485641
0.000429876
0.000399715
0.000375118
0.000343367
0.000302469
0.000259569
0.000222966
0.000197009
0.000181747
0.000174796
0.000173262
0.000175225
0.00018026
0.000189337
0.000204794
0.000229955
0.000269018
0.000326975
0.000408842
0.000520619
0.000662006
0.000813
0.000922039
0.00090155
0.000440062
0.00247894
0.00887617
0.00915741
0.00728196
0.00562996
0.00409579
0.00276064
0.00177079
0.0011471
0.000781608
0.000583319
0.000479305
0.000422826
0.00039005
0.000368305
0.000350746
0.000334385
0.000319835
0.000309874
0.000306801
0.000311159
0.000321977
0.00033735
0.000354678
0.000370712
0.000382022
0.000386041
0.000382434
0.000375237
0.000372478
0.000383484
0.000415591
0.00047118
0.000542926
0.000610533
0.000690797
0.00048334
0.000491624
0.00204955
0.00245404
0.00276404
0.00367154
0.00333631
0.0030578
0.0026498
0.0021556
0.00166316
0.00126185
0.000979945
0.000800143
0.000689346
0.000619437
0.000571743
0.000534357
0.000499774
0.000464107
0.000427145
0.000391864
0.000361985
0.000339609
0.000324499
0.000314767
0.000307958
0.00030193
0.000295435
0.000288443
0.000282238
0.000279265
0.000282399
0.00029425
0.000316743
0.00035089
0.000395627
0.000444854
0.000449607
0.000330732
0.000289665
0.000534793
)
;

boundaryField
{
    floor
    {
        Cmu             0.09;
        kappa           0.41;
        E               9.8;
        type            epsilonWallFunction;
        value           nonuniform List<scalar> 
36
(
0.000485921
5.11263e-05
8.50205e-05
0.000139834
0.000179236
0.00017941
0.000136293
9.82601e-05
7.13411e-05
5.247e-05
3.90189e-05
2.93917e-05
2.22008e-05
1.66583e-05
1.23013e-05
8.83484e-06
6.05672e-06
5.44261e-06
4.35505e-06
4.35505e-06
2.05009e-05
3.08502e-05
4.01566e-05
5.80606e-05
6.67133e-05
7.23267e-05
0.000485921
0.00112973
0.000716898
0.000383892
5.11263e-05
0.000383892
5.00488e-05
0.000753018
9.53427e-05
0.00106757
)
;
    }
    ceiling
    {
        Cmu             0.09;
        kappa           0.41;
        E               9.8;
        type            epsilonWallFunction;
        value           nonuniform List<scalar> 
43
(
0.00204955
0.00245404
0.00276404
0.00367154
0.00333631
0.0030578
0.0026498
0.0021556
0.00166316
0.00126185
0.000979945
0.000800143
0.000689346
0.000619437
0.000571743
0.000534357
0.000499774
0.000464107
0.000427145
0.000391864
0.000361985
0.000339609
0.000324499
0.000314767
0.000307958
0.00030193
0.000295435
0.000288443
0.000282238
0.000279265
0.000282399
0.00029425
0.000316743
0.00035089
0.000395627
0.000444854
0.000449607
0.000330732
0.000289665
0.000534793
0.00936066
0.0154419
0.00247894
)
;
    }
    sWall
    {
        Cmu             0.09;
        kappa           0.41;
        E               9.8;
        type            epsilonWallFunction;
        value           uniform 0.00204955;
    }
    nWall
    {
        Cmu             0.09;
        kappa           0.41;
        E               9.8;
        type            epsilonWallFunction;
        value           nonuniform List<scalar> 6(7.23267e-05 0.000173488 0.000356026 0.000440062 0.000491624 0.000534793);
    }
    sideWalls
    {
        type            empty;
    }
    glass1
    {
        Cmu             0.09;
        kappa           0.41;
        E               9.8;
        type            epsilonWallFunction;
        value           nonuniform List<scalar> 9(0.000680254 0.00141527 0.00230917 0.00345628 0.00500085 0.00715896 0.0095494 0.0100764 0.00936066);
    }
    glass2
    {
        Cmu             0.09;
        kappa           0.41;
        E               9.8;
        type            epsilonWallFunction;
        value           nonuniform List<scalar> 2(0.000749897 0.000689893);
    }
    sun
    {
        Cmu             0.09;
        kappa           0.41;
        E               9.8;
        type            epsilonWallFunction;
        value           nonuniform List<scalar> 
14
(
0.000680254
0.000928372
0.00105112
0.0012358
0.00143154
0.00165089
0.00187809
0.00205133
0.00212913
0.00208635
0.00192023
0.00163444
0.00119707
0.000780115
)
;
    }
    Table_master
    {
        Cmu             0.09;
        kappa           0.41;
        E               9.8;
        type            epsilonWallFunction;
        value           nonuniform List<scalar> 9(0.000382717 0.000235708 0.000147498 9.59907e-05 6.56062e-05 4.72964e-05 3.58544e-05 2.84332e-05 2.34986e-05);
    }
    Table_slave
    {
        Cmu             0.09;
        kappa           0.41;
        E               9.8;
        type            epsilonWallFunction;
        value           nonuniform List<scalar> 9(0.000631434 0.000475106 0.000375578 0.000306263 0.000253058 0.000210701 0.000174663 0.000142075 0.000110961);
    }
    inlet
    {
        type            turbulentMixingLengthDissipationRateInlet;
        mixingLength    0.01;
        phi             phi;
        k               k;
        value           uniform 0.000101881;
    }
    outlet
    {
        type            zeroGradient;
    }
}


// ************************************************************************* //
