/*--------------------------------*- C++ -*----------------------------------*\
  =========                 |
  \\      /  F ield         | OpenFOAM: The Open Source CFD Toolbox
   \\    /   O peration     | Website:  https://openfoam.org
    \\  /    A nd           | Version:  6
     \\/     M anipulation  |
\*---------------------------------------------------------------------------*/
FoamFile
{
    version     2.0;
    format      ascii;
    class       surfaceScalarField;
    location    "1800";
    object      phi;
}
// * * * * * * * * * * * * * * * * * * * * * * * * * * * * * * * * * * * * * //

dimensions      [1 0 -1 0 0 0 0];

internalField   nonuniform List<scalar> 
850
(
-0.00220235
0.00224777
-0.00256489
0.000362565
-0.00293569
0.000370834
-0.00330245
0.000366785
-0.00362437
0.000321948
-0.00388543
0.000261084
-0.00407362
0.000188215
-0.00417555
0.000101957
-0.00417547
-5.12058e-08
-0.00405332
-0.00012213
-0.00378843
-0.000264865
-0.00336305
-0.000425351
-0.0027391
-0.000623931
-0.00175969
-0.000979384
-0.00176075
0.000123495
-0.000124346
9.57348e-05
2.78028e-05
8.59235e-05
9.85426e-06
0.000103824
-1.78578e-05
0.00013206
-2.81934e-05
0.000170263
-3.81602e-05
0.000206875
-3.65699e-05
0.000238002
-3.1084e-05
0.000264035
-2.59908e-05
0.000283522
-1.94443e-05
0.000291542
-7.97751e-06
0.000286157
5.42783e-06
0.000267961
1.8239e-05
0.000248331
1.96739e-05
0.000215998
3.23777e-05
0.00013273
8.33128e-05
-6.28225e-05
0.000195598
-6.39779e-05
-0.00160305
0.00397114
-0.00216977
0.000929309
-0.00263957
0.00084066
-0.00302784
0.000755081
-0.00335782
0.00065195
-0.00362933
0.000532624
-0.00383549
0.000394399
-0.00396579
0.000232279
-0.00400771
4.18947e-05
-0.0039519
-0.000177909
-0.00379287
-0.000423876
-0.00352559
-0.000692597
-0.00314963
-0.000999865
-0.00276356
-0.00136544
-0.00290564
-0.00161864
-0.00151747
-0.00139022
7.81422e-06
-0.00152736
1.3892e-06
-0.000182542
5.55185e-05
-0.000283347
0.000128646
-0.00034778
7.43261e-05
-0.000366141
5.42563e-07
-0.000358014
-3.62798e-05
-0.000336072
-6.00619e-05
-0.000327219
-4.53816e-05
-0.000329862
-2.83989e-05
-0.000342099
-1.37124e-05
-0.000362837
1.33667e-06
-0.000386449
1.56782e-05
-0.000408721
2.77421e-05
-0.000427129
3.66898e-05
-0.000430615
2.32034e-05
-0.000358946
-3.92494e-05
-0.00023842
-3.71699e-05
-3.02193e-05
-1.25599e-05
-9.77605e-05
-0.0011842
0.0053365
-0.00180169
0.00154683
-0.00225299
0.00129198
-0.00260167
0.00110379
-0.0028986
0.000948897
-0.0031483
0.000782352
-0.00334481
0.000590932
-0.00347834
0.00036584
-0.0035376
0.000101176
-0.00351273
-0.000202753
-0.00340064
-0.000535945
-0.00321028
-0.000882927
-0.00297672
-0.0012334
-0.00278381
-0.00155833
-0.0026445
-0.00175791
-0.00221955
-0.00181515
-0.00188926
-0.00185762
-0.00189261
-0.000775107
0.000825583
-0.000892635
0.000246208
-0.000903013
8.47392e-05
-0.000890964
-1.14719e-05
-0.000824899
-0.000102309
-0.00088477
-0.000929961
-0.00095817
-0.000971693
-0.000970168
-0.000954302
-0.000926373
-0.000889498
-0.000866111
-0.000671665
-0.000233664
-0.000447796
-0.000261007
-2.38361e-05
-0.000436488
-0.000128026
-0.000891425
0.00645916
-0.00149359
0.00214902
-0.00182007
0.00161849
-0.00209031
0.00137406
-0.00232788
0.00118649
-0.0025337
0.000988195
-0.00270302
0.000760279
-0.00282694
0.000489781
-0.00289265
0.000166916
-0.00288623
-0.000209155
-0.0028081
-0.000614051
-0.00268328
-0.00100772
-0.00255926
-0.0013574
-0.00248972
-0.00162785
-0.00247213
-0.00177547
-0.00248254
-0.00180472
-0.00260829
-0.00173184
-0.00311761
-0.00138326
-0.00258398
-0.000539312
-0.00173894
-1.94288e-05
-0.00150222
9.51937e-06
-0.00142229
4.83257e-06
-0.00139328
-4.04532e-05
-0.00141644
-7.91174e-05
-0.00135411
-6.24552e-05
-0.00129931
-5.49252e-05
-0.00124615
-5.32833e-05
-0.00119543
-5.08439e-05
-0.00114624
-4.93132e-05
-0.00109614
-5.02196e-05
-0.00104037
-5.58955e-05
-0.000966153
-7.43395e-05
-0.000837369
-0.000128908
-0.000798708
-0.000272299
-0.000646216
-0.000413474
-0.000559091
-0.000523588
-0.000695898
-0.000678259
0.00741066
-0.00123684
0.00270763
-0.00135669
0.00173836
-0.00151156
0.00152896
-0.00167082
0.00134578
-0.00180997
0.00112737
-0.00192327
0.000873607
-0.0020066
0.00057313
-0.00204855
0.000208894
-0.00203066
-0.000227028
-0.00195666
-0.000688023
-0.00186168
-0.00110268
-0.0017884
-0.00143065
-0.00176579
-0.00165044
-0.00179057
-0.00175067
-0.00185691
-0.00173836
-0.00198661
-0.00160212
-0.00211232
-0.00125752
-0.00190405
-0.000747553
-0.00156953
-0.000353922
-0.00136778
-0.000192201
-0.00123948
-0.000123446
-0.00117225
-0.000107656
-0.00114583
-0.000105514
-0.00111322
-9.50362e-05
-0.00108268
-8.54395e-05
-0.00105745
-7.84878e-05
-0.00103638
-7.18851e-05
-0.00101971
-6.59617e-05
-0.00100732
-6.25869e-05
-0.000997354
-6.58332e-05
-0.0009861
-8.55683e-05
-0.00097495
-0.000140032
-0.00100675
-0.000240476
-0.00105334
-0.000366856
-0.00106094
-0.000515971
-0.00100242
-0.000754394
-0.000185296
-0.000826427
0.000398375
-0.000593171
0.000398298
-0.00063138
0.00835111
-0.00111065
0.00318692
-0.00087875
0.00150648
-0.000818576
0.00146881
-0.000899921
0.00142715
-0.000972379
0.00119985
-0.00100737
0.00090862
-0.00101607
0.000581857
-0.000995049
0.000187896
-0.000933358
-0.000288695
-0.000849586
-0.000771772
-0.000780962
-0.00117128
-0.00075685
-0.00145474
-0.000788355
-0.00161891
-0.000868737
-0.00167026
-0.000987848
-0.00161923
-0.00113045
-0.0014595
-0.00121493
-0.00117302
-0.00115389
-0.000808565
-0.00100939
-0.000498406
-0.00089272
-0.000308842
-0.000815699
-0.000200442
-0.000776654
-0.000146677
-0.000761904
-0.00012024
-0.000753654
-0.00010326
-0.000747119
-9.19504e-05
-0.000742039
-8.35422e-05
-0.000738288
-7.56106e-05
-0.00073683
-6.73953e-05
-0.00073957
-5.98214e-05
-0.000749151
-5.62278e-05
-0.000770332
-6.43625e-05
-0.000813314
-9.70264e-05
-0.000888976
-0.00016479
-0.000983997
-0.000271812
-0.00106715
-0.000432796
-0.00114497
-0.000676552
-0.00100975
-0.000961619
-0.000566118
-0.00103678
-0.00015568
-0.000779365
0.00947194
-0.000832674
0.00324026
-6.96773e-05
0.000743506
0.000248028
0.00115113
0.000187318
0.00148788
0.000138013
0.00124918
0.000166646
0.000880011
0.000235747
0.00051278
0.00033916
8.45062e-05
0.000449864
-0.000399377
0.000522119
-0.000844004
0.000533614
-0.00118275
0.000479971
-0.00140108
0.000368597
-0.00150751
0.000213366
-0.00151501
2.99254e-05
-0.00143576
-0.000152981
-0.00127657
-0.000281304
-0.00104467
-0.000320562
-0.000769284
-0.00029999
-0.000518956
-0.000273285
-0.000335524
-0.00025944
-0.000214263
-0.000262668
-0.000143424
-0.000277298
-0.000105586
-0.000294994
-8.55399e-05
-0.000311721
-7.51992e-05
-0.000326086
-6.91535e-05
-0.00033781
-6.38611e-05
-0.000347713
-5.7468e-05
-0.000358022
-4.94873e-05
-0.000373428
-4.07979e-05
-0.000404169
-3.3597e-05
-0.000468829
-3.2342e-05
-0.000588883
-4.47125e-05
-0.000775174
-8.54972e-05
-0.00103078
-0.000177164
-0.00137611
-0.000331205
-0.001738
-0.000599702
-0.00168227
-0.00109249
-0.00182758
0.00168246
0.00817142
0.00219223
0.00273051
0.00260296
0.000332805
0.00242012
0.00133399
0.00217267
0.00173536
0.002066
0.00135587
0.00204042
0.000905616
0.00206706
0.000486157
0.00213663
1.49637e-05
0.00218446
-0.000447181
0.00214802
-0.000807541
0.00202515
-0.00105986
0.00183603
-0.00121194
0.00160355
-0.00127501
0.001348
-0.00125944
0.0010875
-0.00117525
0.000844274
-0.00103333
0.000646559
-0.000846935
0.000515077
-0.000637781
0.000438139
-0.000441996
0.000387522
-0.000284886
0.000345524
-0.000172243
0.000304476
-0.000102354
0.000263497
-6.45837e-05
0.000224853
-4.68726e-05
0.00019022
-4.05433e-05
0.000160595
-3.95049e-05
0.000136486
-3.9728e-05
0.000118019
-3.89765e-05
0.000104965
-3.64089e-05
9.65676e-05
-3.23765e-05
8.87295e-05
-2.57345e-05
7.18824e-05
-1.54705e-05
3.0353e-05
-3.159e-06
-6.38086e-05
8.68813e-06
-0.000259268
1.83186e-05
-0.000616768
2.63178e-05
-0.00112919
-8.72598e-05
-0.00133196
-0.0008897
-0.00310641
0.00857008
0.0112763
0.0107005
0.000908631
0.00836256
0.00367196
0.0071055
0.00299243
0.0062445
0.0022169
0.00560528
0.00154486
0.00515838
0.00093308
0.00477399
0.000399373
0.00436702
-4.01863e-05
0.00394695
-0.000387458
0.00353003
-0.000642915
0.0031227
-0.000804596
0.00272995
-0.000882233
0.00235669
-0.000886158
0.00200956
-0.000828095
0.00169871
-0.000722459
0.00143758
-0.000585789
0.00123695
-0.000437132
0.00109299
-0.000298017
0.000988361
-0.000180231
0.000907521
-9.13815e-05
0.000842419
-3.72303e-05
0.000787494
-9.63745e-06
0.000739886
7.58418e-07
0.000698267
1.09763e-06
0.000662249
-3.46475e-06
0.000632008
-9.46389e-06
0.000607971
-1.49164e-05
0.00059096
-1.93743e-05
0.000583441
-2.48339e-05
0.0005861
-2.83696e-05
0.000597378
-2.67245e-05
0.000616363
-2.21201e-05
0.000642067
-1.69923e-05
0.000672998
-1.25884e-05
0.000709757
-1.04181e-05
0.000703318
-8.07979e-05
0.000457857
-0.000644215
-0.0025888
0.00112851
0.00189159
0.00360283
0.00119765
0.00484264
0.00175265
0.00514015
0.0019194
0.00514796
0.00153706
0.00507367
0.0010074
0.00493573
0.000537324
0.00471852
0.000177041
0.00443344
-0.000102356
0.00409081
-0.000300264
0.00370879
-0.000422558
0.00330756
-0.000480982
0.00290659
-0.000485172
0.00252531
-0.00044679
0.00218187
-0.000379004
0.0018913
-0.000295196
0.00166265
-0.000208467
0.0014959
-0.000131243
0.0013781
-6.24169e-05
0.00129605
-9.30628e-06
0.00123748
2.13558e-05
0.00119225
3.56174e-05
0.00115439
3.86347e-05
0.00112081
3.47012e-05
0.00109012
2.72491e-05
0.00106233
1.83455e-05
0.00103836
9.07615e-06
0.00101977
-7.65487e-07
0.00100869
-1.37256e-05
0.00100732
-2.69749e-05
0.00101745
-3.68336e-05
0.00104413
-4.87795e-05
0.00109298
-6.58205e-05
0.00116891
-8.84921e-05
0.00126876
-0.000110241
0.00131563
-0.000127654
0.00100958
-0.000338133
-0.00156667
0.000256932
0.00163029
0.0015127
-5.81195e-05
0.00248232
0.000783037
0.003177
0.00122474
0.00370174
0.00101234
0.0040498
0.000659347
0.00422448
0.000362662
0.00424943
0.000152115
0.00412494
2.21441e-05
0.00386833
-4.3636e-05
0.00352684
-8.10487e-05
0.00314449
-9.86062e-05
0.00276114
-0.000101806
0.00240849
-9.41233e-05
0.00210742
-7.79144e-05
0.00186795
-5.57033e-05
0.00169018
-3.06797e-05
0.00156445
-5.49658e-06
0.00148619
1.58613e-05
0.0014455
3.14114e-05
0.00142327
4.36039e-05
0.00140915
4.97567e-05
0.00139705
5.07565e-05
0.00138363
4.81399e-05
0.00136778
4.31141e-05
0.0013497
3.64561e-05
0.00133034
2.84573e-05
0.00131068
1.89098e-05
0.00128853
8.44463e-06
0.00126575
-4.17116e-06
0.00124945
-2.05143e-05
0.00124329
-4.25924e-05
0.00125067
-7.31832e-05
0.00127881
-0.0001166
0.00134893
-0.000180346
0.00150713
-0.000285832
0.00161491
-0.000445888
6.06926e-05
0.00465396
-0.00282476
-0.00121043
-0.00129639
-0.000543227
0.000648809
0.0016251
0.00224549
0.00256647
0.00267444
0.00265034
0.00255915
0.00242997
0.00228325
0.00213369
0.00199228
0.00186749
0.00176523
0.0016882
0.00163647
0.00160621
0.00159156
0.0015891
0.00159278
0.00159745
0.00159954
0.00159667
0.00158724
0.00156994
0.00154322
0.00150616
0.0014566
0.00139078
0.00130291
0.00118436
0.00102217
0.000795817
0.000463269
-2.97258e-05
)
;

boundaryField
{
    floor
    {
        type            calculated;
        value           nonuniform List<scalar> 
36
(
0
0
0
0
0
0
0
0
0
0
0
0
0
0
0
0
0
0
0
1.20064e-06
3.60329e-06
6.46135e-06
8.80622e-06
9.32891e-06
9.52367e-06
1.09039e-05
1.09411e-06
2.07609e-06
2.10182e-06
2.61105e-06
8.91136e-07
3.84111e-06
2.7176e-06
4.7605e-06
5.07632e-06
5.70502e-06
)
;
    }
    ceiling
    {
        type            calculated;
        value           nonuniform List<scalar> 
43
(
5.09322e-05
3.59871e-05
1.59685e-05
2.78544e-05
2.98881e-05
3.27184e-05
3.60624e-05
3.89802e-05
4.16974e-05
4.41657e-05
4.62529e-05
4.75802e-05
4.81435e-05
4.81299e-05
4.77764e-05
4.73104e-05
4.68874e-05
4.65741e-05
4.63715e-05
4.62547e-05
4.61401e-05
4.60833e-05
4.60807e-05
4.61002e-05
4.61047e-05
4.60737e-05
4.60036e-05
4.59017e-05
4.57796e-05
4.56504e-05
4.55262e-05
4.54152e-05
4.53194e-05
4.53014e-05
4.53876e-05
4.561e-05
4.60334e-05
4.67377e-05
4.71296e-05
4.97016e-05
2.94124e-05
2.42955e-05
4.3551e-06
)
;
    }
    sWall
    {
        type            calculated;
        value           uniform -0.000152123;
    }
    nWall
    {
        type            calculated;
        value           nonuniform List<scalar> 6(-1.08024e-05 -1.21145e-05 -1.03483e-05 -1.2532e-05 -1.24254e-05 -1.87124e-05);
    }
    sideWalls
    {
        type            empty;
        value           nonuniform 0();
    }
    glass1
    {
        type            calculated;
        value           nonuniform List<scalar> 9(-4.53974e-05 -0.000120296 -0.000181133 -0.000231216 -0.00027321 -0.000309048 -0.000341449 -0.000381919 -0.000428046);
    }
    glass2
    {
        type            calculated;
        value           nonuniform List<scalar> 2(-5.31012e-05 -5.97378e-05);
    }
    sun
    {
        type            calculated;
        value           uniform 0;
    }
    Table_master
    {
        type            calculated;
        value           nonuniform List<scalar> 9(-1.50667e-07 -1.50631e-07 -1.50595e-07 -1.50562e-07 -1.50533e-07 -1.50503e-07 -1.50471e-07 -1.50437e-07 -1.50385e-07);
    }
    Table_slave
    {
        type            calculated;
        value           nonuniform List<scalar> 9(1.50052e-07 1.50082e-07 1.50103e-07 1.50122e-07 1.50139e-07 1.50154e-07 1.50167e-07 1.50181e-07 1.50184e-07);
    }
    inlet
    {
        type            calculated;
        value           uniform -0.00211148;
    }
    outlet
    {
        type            calculated;
        value           nonuniform List<scalar> 2(-0.00455275 0.00744276);
    }
}


// ************************************************************************* //
