/*--------------------------------*- C++ -*----------------------------------*=========                 |
  \      /  F ield         | OpenFOAM: The Open Source CFD Toolbox
   \    /   O peration     | Website:  https://openfoam.org
    \  /    A nd           | Version:  6
     \/     M anipulation  |
\*---------------------------------------------------------------------------*/
FoamFile
{
    version     2.0;
    format      ascii;
    class       volScalarField;
    location    "1800";
    object      PPD;
}
// * * * * * * * * * * * * * * * * * * * * * * * * * * * * * * * * * * * * * //

dimensions      [0 0 0 0 0 0 0];

internalField   nonuniform List<scalar> 
458
(
98.8446189969427
98.12779932034219
98.11574053542405
98.10445323480864
98.0968625803255
98.08857283524162
98.08369259653678
98.07789164232425
98.07566262913497
98.0732448332989
98.07182245617642
98.06568898318726
98.06286619138456
98.05093144420856
97.98148756780013
92.72798337370746
92.45192636532659
92.18472093669438
92.11689507086723
92.18472093669438
92.31914164712109
92.40784616471589
92.47389855918017
92.52863123410103
92.58308171851014
92.60478301044377
92.61561676493447
92.7018819405675
92.87225962847344
93.16355946539227
93.46607147854283
94.06035036087599
94.52482268575453
100.0
98.32207667916617
98.29963211828276
98.30606892043602
98.32304687367724
98.33570115068967
98.34347831462738
98.34992218172678
98.35119864066897
98.3475504198445
98.33150543328489
98.29571387731248
98.23500184030432
98.13725254420218
97.97783372680165
97.84337469048204
97.7253126636698
97.18408875233484
93.39073300616138
93.94854050435484
93.97663627424052
94.0139485645566
94.11568349316563
94.14320761310364
94.1888706161859
94.24331967811898
94.34216483104586
94.49245065526607
94.69103921623544
94.90078955596329
95.12027881274342
95.37878438325009
95.6341189201892
95.61203233548069
95.62676617961144
95.79818122912648
100.0
98.47522656360958
98.4358131266042
98.45612699598016
98.49879322933401
98.5360848005081
98.56794672683856
98.59433016978558
98.61204935510773
98.61812095365389
98.6093627108503
98.57532945966285
98.50684515801267
98.38700684527925
98.21626101071783
98.00087381219589
97.73381349203646
97.48740481227195
95.1681121140215
95.70337747735569
95.75532694517898
95.83061325011825
95.80082390056728
95.54384719063609
95.66393644537098
95.81686728353982
95.98731407346806
96.16575397683212
96.35037647954347
96.56037281368631
96.79133100858313
97.04925065010404
97.30077906308992
97.38043788361128
97.41318913503864
97.09326609287187
100.0
98.64477765573893
98.54506058690694
98.57097994919
98.63024169858859
98.68856354479874
98.74287244766168
98.78761522060405
98.8233949883153
98.84524128585636
98.84807912698183
98.82585651934538
98.76507853411202
98.66026716734063
98.49690722344167
98.26185888635334
97.9193987369553
97.430436641614
96.91426782698056
96.60904464414612
97.04551684970676
97.30940339625865
97.47809766692049
97.55588879076755
97.61555918168911
97.62457309707557
97.63747400754806
97.65000790010387
97.67121337127354
97.69208615647223
97.71412196763087
97.74455351742931
97.77383225884083
97.7833925414583
97.82469355009522
97.89493546890914
97.90635865886212
100.0
98.83562683363287
98.65220462642499
98.65939113256432
98.72480708935569
98.79348985068924
98.86180130738018
98.92436575725482
98.9742242394324
99.01030696119824
99.02647426291321
99.01603935697173
98.97572002886494
98.89724360992926
98.77993637589275
98.62498018345309
98.4230952506841
98.19468096003227
97.99453268815168
97.85083962534696
97.81889524020164
97.82711381664764
97.82659767327907
97.8153282954574
97.79795559007944
97.78538426642412
97.77677330946337
97.77620547025445
97.78356139293055
97.79870329110103
97.81757120331089
97.84078913458052
97.87094443866167
97.89314623326186
97.91444179722438
97.92901047705192
97.93632974689423
97.87373881735567
97.86968606271543
97.81507520730165
100.0
99.0525872695992
98.82583911370244
98.76221063711712
98.80128823404611
98.86708881832271
98.93685539372433
99.00455890143576
99.06501223566254
99.11226961847167
100.0
100.0
99.10831007670922
99.0510000693346
98.96696272039436
98.85673545414724
98.71861467269787
98.56924607777597
98.42680023046847
98.30887095191048
98.22132486445982
98.15549534491959
98.1010277437372
98.05202049000988
98.00764457554709
97.97381648617299
97.9433252793797
97.92433833013841
97.91296612852001
97.91303881678456
97.9161334091488
97.92560693717894
97.93971352580596
97.95569803735677
97.96544143941065
97.97270689176494
97.98372946082372
98.02074996075046
98.08998173469826
97.84537083596979
100.0
100.0
100.0
99.01784396689197
98.95691314182227
98.96479491959512
99.01077014228618
99.06724908584107
100.0
100.0
100.0
100.0
100.0
100.0
99.06444400223789
98.98528183812027
98.88838926612995
98.78661385037624
98.688395329258
98.59958106505847
98.51739702905991
98.42601338719216
98.34345360075774
98.27131572789237
98.21100745511497
98.16003185963639
98.11538113782645
98.07748787353422
98.0505883741341
98.0272842636407
98.0155460612071
98.01162051725076
98.01162051725076
98.02337792730891
98.01870339990396
97.99576608133648
97.98171347794597
97.98970685981473
97.98180323193938
97.86682145854586
100.0
100.0
100.0
100.0
100.0
100.0
100.0
100.0
100.0
100.0
100.0
100.0
100.0
100.0
99.08428946436308
99.0188243506001
98.95240325797248
98.8810728620173
98.81041274943502
98.7421340424435
98.67401064308999
98.59838105720834
98.5204660269784
98.44849723817404
98.38021868725006
98.32310569177535
98.2678159187691
98.22177603199938
98.18202481962726
98.14524714917509
98.11538113782645
98.0927203404653
98.07366403353717
98.0659974361861
98.06215466469796
98.0659974361861
98.07748787353422
98.07910666323826
97.99229070102427
97.81202244059197
100.0
100.0
100.0
100.0
100.0
100.0
100.0
100.0
100.0
100.0
100.0
100.0
100.0
99.09826509231893
99.035877185711
98.97939592334681
98.92744626015279
98.87801089881654
98.82823367082257
98.77704268926966
98.72340982648531
98.66423082855752
98.60528150363234
98.54709247976652
98.49012737715368
98.43786920344574
98.3874635850423
98.34228305857071
98.30250076795583
98.26474911769877
98.22867247391606
98.19388790637753
98.16041366733238
98.13199917953233
98.10188333599451
98.08202040306506
98.05904115058044
98.04033769176985
98.00108536062547
97.8147357632826
21.10754338388847
95.02510888563428
98.1665900239097
98.77308181095943
98.97212835818291
99.0426654640201
99.06093224298355
99.04968526833267
99.03129906383846
99.00055726862087
98.96215832978523
98.92648461413869
98.89119182142724
98.85913139928266
98.83039785100439
98.80475886353688
98.77887892908561
98.74907666200846
98.71465313671938
98.67536355114746
98.63123369720662
98.58547630504454
98.53835386768836
98.49320503259233
98.44374539466673
98.3997720756236
98.35477082693502
98.31205858010004
98.26801078331243
98.22949623934797
98.18915536188851
98.14641531984202
98.10807805090903
98.06597796932445
98.02362656340505
97.984631941133
97.94234243516661
97.86864041697206
41.39145539062852
90.25593107536213
96.10107958126038
97.65001424164997
98.21988422752294
98.46210320694752
98.57102290955645
98.61782447918301
98.63940880816591
98.66013168871247
98.67010304540966
98.67857879208566
98.68497168742758
98.68554314987863
98.68597330407596
98.67949693630484
98.67186631594028
98.65674337950705
98.63766636282193
98.61127697759125
98.58061611076548
98.54554074978334
98.50929732030865
98.46522035976693
98.4234720060298
98.37722956095797
98.32992852455988
98.28152490667155
98.23594248230138
98.1857191033327
98.1389423233747
98.09110182580116
98.04587911234574
97.99466734574752
97.94546569269873
97.89004155687367
97.8142152710306
97.74898540462024
100.0
95.87752396544967
71.01869444637009
93.9722449236768
96.31118136637411
97.45567414590056
97.9156940228841
98.09133265016452
98.17755109891293
98.21800209136595
98.24406149379527
98.26613318120309
98.29558808336536
98.32281885227893
98.35094188950441
98.37521859971869
98.39522117895505
98.40691881455507
98.41428423753666
98.41749165460928
98.4096251535582
98.40195008975589
98.38256631368424
98.3589098619947
98.33081083661492
98.29406707631576
98.25665077050162
98.2101052750774
98.1626023071531
98.10967629346209
98.0555855819576
98.0004356206566
97.93992259743271
97.87819618529804
97.81511279013341
97.7455816669628
97.67464597947395
97.5867205803664
97.45328937847074
97.14448607337201
)
;

boundaryField
{
    ".*"
    {
        type            zeroGradient;
    }
}


// ************************************************************************* //
