/*--------------------------------*- C++ -*----------------------------------*\
  =========                 |
  \\      /  F ield         | OpenFOAM: The Open Source CFD Toolbox
   \\    /   O peration     | Website:  https://openfoam.org
    \\  /    A nd           | Version:  6
     \\/     M anipulation  |
\*---------------------------------------------------------------------------*/
FoamFile
{
    version     2.0;
    format      ascii;
    class       surfaceScalarField;
    location    "1500";
    object      phi;
}
// * * * * * * * * * * * * * * * * * * * * * * * * * * * * * * * * * * * * * //

dimensions      [1 0 -1 0 0 0 0];

internalField   nonuniform List<scalar> 
850
(
-0.00267593
0.00273333
-0.00334319
0.000667267
-0.00397233
0.000629154
-0.00454005
0.000567737
-0.00501242
0.000472376
-0.00537374
0.000361342
-0.00560792
0.000234189
-0.0056945
8.6594e-05
-0.00560822
-8.6268e-05
-0.00532129
-0.000286918
-0.00481936
-0.000501915
-0.00410724
-0.000712117
-0.00317917
-0.000928051
-0.00192016
-0.001259
-0.00191899
0.00021095
-0.000208964
0.000768513
-0.000557546
0.00123795
-0.000469419
0.00158542
-0.000347457
0.00183331
-0.00024787
0.00195907
-0.000125735
0.00200198
-4.28922e-05
0.0020149
-1.29032e-05
0.00201535
-4.31396e-07
0.00200608
9.28176e-06
0.00198738
1.87204e-05
0.00195581
3.15927e-05
0.00189934
5.64836e-05
0.00178914
0.000110228
0.00157713
0.000212024
0.00123421
0.000342944
0.000777914
0.000456312
0.000780626
-0.00193229
0.00481902
-0.00272843
0.00146341
-0.00343898
0.00133972
-0.0040199
0.00114867
-0.00449485
0.000947333
-0.004864
0.000730508
-0.00511568
0.000485879
-0.00523073
0.000201664
-0.00518797
-0.000129019
-0.00497373
-0.00050114
-0.00459005
-0.000885588
-0.00405909
-0.00124306
-0.00342526
-0.00156188
-0.00285078
-0.00183347
-0.00296488
-0.00180488
-0.001785
-0.00117764
-0.000899334
-0.000883196
-0.000892613
0.000750364
-0.000954519
0.00108646
-0.000893621
0.0013494
-0.000732346
0.00159396
-0.000591993
0.00178877
-0.000442663
0.00182585
-0.000162799
0.00182971
-4.67383e-05
0.00183424
-1.7407e-05
0.00183786
-4.03478e-06
0.00183901
8.15563e-06
0.00183774
2.00095e-05
0.00183336
3.59846e-05
0.00182119
6.86792e-05
0.00176771
0.000163723
0.00156098
0.000418774
0.0011963
0.000707644
0.000711601
0.000941032
0.00149957
-0.00139327
0.00644469
-0.00216389
0.00223404
-0.00281208
0.00198792
-0.00331504
0.00165165
-0.00373261
0.00136492
-0.00406719
0.0010651
-0.00430453
0.000723231
-0.00442223
0.000319381
-0.00439424
-0.000156991
-0.0042014
-0.000693977
-0.00384981
-0.00123717
-0.00337354
-0.00171932
-0.00283964
-0.00209577
-0.00236537
-0.00230773
-0.00194385
-0.0022264
-0.00123914
-0.00188233
-0.000532497
-0.00158983
-0.00141931
0.000709926
-0.00165734
0.00102797
-0.00121165
0.00122179
-0.000926145
0.00140546
-0.00077565
0.00167161
-0.000708789
0.00150898
0.00146241
0.00144518
0.00144131
0.00144964
0.00146982
0.00150598
0.00157483
0.00173873
0.00149331
0.000664209
0.00116413
0.00103685
0.000671823
0.00143336
0.00218288
-0.00101753
0.0077598
-0.00170976
0.00292628
-0.00214438
0.00242256
-0.00250023
0.00200751
-0.00281537
0.00168007
-0.00308367
0.00133342
-0.00328675
0.000926321
-0.00339679
0.000429442
-0.0033752
-0.000178573
-0.00319374
-0.00087542
-0.00287081
-0.00156009
-0.00245708
-0.00213305
-0.00201519
-0.00253766
-0.00159807
-0.00272484
-0.00116045
-0.00266401
-0.000635975
-0.0024068
-0.000139515
-0.00208628
0.000175178
-0.00173399
0.00131809
-0.00113558
0.000942906
-0.00128214
0.000953244
-0.00122197
0.00102614
-0.000999019
0.00108266
-0.000832159
0.00103788
-0.000663986
0.00140545
-0.000367703
0.00166883
-0.000263515
0.00189135
-0.000222652
0.00207606
-0.000184839
0.00220738
-0.000131452
0.00226027
-5.30285e-05
0.00220591
5.42342e-05
0.00201242
0.000193351
0.0016214
0.000390892
0.00147806
0.000807571
0.00120282
0.00131211
0.000782859
0.00185334
0.00298089
-0.000746447
0.00885778
-0.00134425
0.0035241
-0.00145111
0.00252943
-0.00161205
0.00216846
-0.00179308
0.00186112
-0.00196249
0.00150284
-0.00209616
0.00106001
-0.00216871
0.000502009
-0.0021282
-0.000219067
-0.00194227
-0.00106134
-0.00165574
-0.00184661
-0.00132937
-0.00245941
-0.00100685
-0.00286018
-0.000709808
-0.00302189
-0.000413711
-0.00296011
-9.99901e-05
-0.00272051
0.000181159
-0.00236742
0.000399706
-0.00195252
0.00075426
-0.00149012
0.00077412
-0.00130198
0.000718923
-0.00116675
0.000720086
-0.00100016
0.000750659
-0.000862712
0.00081912
-0.000732427
0.00102992
-0.000578482
0.0012436
-0.000477178
0.00143654
-0.000415571
0.00160629
-0.000354569
0.00174314
-0.000268282
0.0018283
-0.00013817
0.00183692
4.56407e-05
0.0017574
0.000272893
0.00160626
0.000542054
0.00149453
0.000919319
0.00142586
0.0013808
0.00139412
0.0018851
0.00226819
0.00210685
0.00140698
0.000876805
0.00130956
0.000112419
0.00137744
-0.000669996
0.0099242
-0.0011461
0.00400022
-0.000781778
0.00216512
-0.000643848
0.00203054
-0.000683117
0.0019004
-0.000753022
0.00157276
-0.000786845
0.00109384
-0.000768978
0.000484158
-0.0006566
-0.000331429
-0.00045607
-0.00126185
-0.000232401
-0.00207028
-3.20414e-05
-0.00265977
0.000124974
-0.0030172
0.000240712
-0.00313763
0.000332213
-0.00305161
0.000410317
-0.00279861
0.000467357
-0.00242445
0.000496596
-0.00198175
0.000540943
-0.00153444
0.000484457
-0.00124548
0.000390895
-0.00107317
0.000343184
-0.000952433
0.000349025
-0.000868534
0.000409296
-0.000792678
0.000538527
-0.000707693
0.000697112
-0.000635742
0.000856942
-0.000575381
0.00101023
-0.000507836
0.00115288
-0.000410908
0.00127703
-0.000262297
0.00136111
-3.84264e-05
0.00139326
0.000240773
0.00139874
0.000536586
0.00144384
0.000874249
0.0015928
0.00123186
0.00186219
0.00161573
0.00216801
0.00180105
0.00176246
0.00128238
0.000955076
0.000919828
0.00238691
-0.000843557
0.0112035
-0.000840498
0.00399717
0.000168586
0.00115605
0.00061871
0.00158043
0.000656974
0.00186216
0.0006472
0.00158255
0.000709163
0.0010319
0.000862917
0.00033042
0.00107346
-0.000541956
0.00125128
-0.00143966
0.00134784
-0.00216684
0.00135803
-0.00266996
0.00129545
-0.00295463
0.0011816
-0.00302378
0.00103421
-0.00290422
0.000869551
-0.00263396
0.000694342
-0.00224923
0.000510383
-0.00179777
0.00033629
-0.00136033
0.000154011
-0.00106318
3.3851e-06
-0.000922525
-8.79197e-05
-0.000861108
-0.000124108
-0.000832325
-0.000113629
-0.000803136
-5.68127e-05
-0.000764489
3.05727e-05
-0.000723107
0.000131786
-0.000676573
0.000240641
-0.00061667
0.000359606
-0.000529853
0.000494115
-0.000396784
0.00064865
-0.00019294
0.000801508
8.79359e-05
0.000945687
0.000392429
0.00112673
0.000693229
0.00138484
0.000973763
0.00172425
0.00127634
0.00211506
0.00141026
0.00229961
0.00109785
0.00183234
0.00138712
0.00427575
0.00225491
0.00943433
0.00280627
0.00344582
0.00311892
0.000843425
0.0030839
0.00161546
0.00290608
0.00203999
0.00282733
0.00166132
0.00285688
0.00100237
0.00299999
0.000187328
0.00314592
-0.000687873
0.00314801
-0.00144174
0.00299404
-0.00201287
0.00272534
-0.00240126
0.00238745
-0.00261676
0.00200506
-0.0026414
0.00159739
-0.00249656
0.001185
-0.00222156
0.000782369
-0.00184659
0.000396037
-0.00141142
4.58419e-05
-0.00101011
-0.000230599
-0.000786715
-0.000427344
-0.000725758
-0.000562184
-0.000726246
-0.000655033
-0.000739455
-0.000713403
-0.000744745
-0.000740625
-0.000737246
-0.000745212
-0.000718499
-0.000734343
-0.000687421
-0.00071056
-0.000640432
-0.000669031
-0.000571361
-0.000594288
-0.000471506
-0.000457024
-0.000330183
-0.000238778
-0.000130288
2.07288e-05
0.000132944
0.000315
0.00039898
0.000657703
0.000631082
0.00106779
0.000866268
0.00150814
0.000969937
0.00174679
0.000859222
0.00104705
0.00208688
0.00555878
0.00996194
0.0133967
0.012388
0.00185217
0.0103356
0.00366785
0.00887026
0.00350536
0.00786409
0.0026675
0.00714249
0.00172398
0.00653465
0.000795181
0.00588739
-4.06123e-05
0.00518652
-0.000740869
0.00447367
-0.00130003
0.00378344
-0.00171104
0.00312865
-0.00196198
0.00247821
-0.00199097
0.00183079
-0.00184914
0.00120284
-0.0015936
0.000614926
-0.00125866
7.29017e-05
-0.000869373
-0.00035387
-0.000583316
-0.000651514
-0.000489048
-0.0008774
-0.00049985
-0.00106293
-0.000540692
-0.00122305
-0.00057932
-0.00136286
-0.000604914
-0.00148509
-0.00061499
-0.00159461
-0.00060896
-0.00169725
-0.000584762
-0.00179933
-0.000538327
-0.00190748
-0.000463186
-0.00202944
-0.000349531
-0.00217547
-0.000184131
-0.00234686
4.11296e-05
-0.00254696
0.000333061
-0.00284368
0.000695724
-0.00335803
0.00114545
-0.00418195
0.00169021
-0.0054611
0.0022491
-0.00717008
0.00256823
-0.00707658
0.0019934
-0.0012588
0.00305769
0.00319367
0.00414412
0.00258137
0.00547153
0.00217792
0.00585149
0.00228751
0.00578394
0.00179151
0.00556178
0.00101732
0.00522239
0.00029876
0.00475552
-0.000274023
0.00417852
-0.000723053
0.00355599
-0.00108853
0.00293918
-0.00134519
0.00223487
-0.00128666
0.00149214
-0.00110641
0.000764316
-0.000865758
8.92793e-05
-0.000583598
-0.000441254
-0.000338811
-0.000787835
-0.000236709
-0.00104457
-0.000232292
-0.00127437
-0.000270021
-0.00149937
-0.000315674
-0.00172368
-0.000354991
-0.00194529
-0.000383277
-0.00216151
-0.000398751
-0.00237067
-0.000399776
-0.00257185
-0.000383562
-0.00276435
-0.000345813
-0.00294671
-0.000280804
-0.00311451
-0.000181706
-0.00325999
-3.8632e-05
-0.00337619
0.000157351
-0.00345585
0.000412741
-0.00352029
0.000760186
-0.0035835
0.00120868
-0.00363474
0.00174147
-0.00366261
0.00227699
-0.00356873
0.00247437
-0.00211134
0.00053603
-0.00330107
-0.00027447
0.0035161
0.00116662
0.00114024
0.00199539
0.00134911
0.00272843
0.00155445
0.00323871
0.00128121
0.00350564
0.000750366
0.00351987
0.000284512
0.00331132
-6.54966e-05
0.00291978
-0.000331527
0.00241514
-0.000583917
0.00195604
-0.000886096
0.00128129
-0.000611892
0.000552145
-0.000377245
-8.00706e-05
-0.000233508
-0.000549715
-0.000113924
-0.000843586
-4.49121e-05
-0.00104749
-3.27795e-05
-0.00123071
-4.90449e-05
-0.00142805
-7.26624e-05
-0.00164918
-9.45192e-05
-0.00189166
-0.000112495
-0.00214831
-0.0001266
-0.0024102
-0.000136844
-0.0026675
-0.000142454
-0.00290939
-0.000141647
-0.00312356
-0.000131624
-0.00329578
-0.000108564
-0.00340966
-6.78001e-05
-0.00344299
-5.28585e-06
-0.00339191
0.000106291
-0.00324412
0.000264977
-0.00296641
0.000482493
-0.00253957
0.00078186
-0.00193756
0.00113948
-0.00101667
0.00135612
0.000519326
0.000938389
0.00143486
-0.000379479
-0.00179058
-0.00575918
-0.00806697
-0.00451833
-0.00336653
-0.00201113
-0.000453769
0.000827573
0.00157684
0.00185953
0.00179165
0.00145715
0.000869583
-2.12734e-05
-0.00064182
-0.00102916
-0.00127338
-0.00139871
-0.00145584
-0.00150153
-0.00156401
-0.00165054
-0.00175933
-0.00188647
-0.00202807
-0.0021802
-0.00233814
-0.00249536
-0.00264254
-0.00276653
-0.00284955
-0.00286976
-0.00277802
-0.00252719
-0.00205844
-0.00128991
-0.000163369
0.00118014
0.00210574
0.00171277
)
;

boundaryField
{
    floor
    {
        type            calculated;
        value           nonuniform List<scalar> 
36
(
0
0
0
0
0
0
0
0
0
0
0
0
0
0
0
0
0
0
0
-2.69254e-06
-7.3251e-06
-1.1469e-05
-1.51246e-05
-1.55752e-05
-1.4987e-05
-1.4116e-05
-1.15821e-06
-2.23666e-06
-2.45364e-06
-2.65166e-06
-1.96535e-06
-4.05374e-06
-4.79118e-06
-5.78156e-06
-7.08766e-06
-7.3153e-06
)
;
    }
    ceiling
    {
        type            calculated;
        value           nonuniform List<scalar> 
43
(
-3.58306e-05
-3.42484e-05
-3.25458e-05
-1.15817e-05
-6.28876e-06
-2.92745e-06
-1.56768e-07
1.08596e-06
1.8036e-06
2.37259e-06
2.9594e-06
3.64584e-06
4.776e-06
8.74805e-06
1.01364e-05
1.07336e-05
1.14337e-05
1.2246e-05
1.29352e-05
1.346e-05
1.38897e-05
1.42876e-05
1.46707e-05
1.50217e-05
1.53094e-05
1.55052e-05
1.5593e-05
1.55715e-05
1.54496e-05
1.52391e-05
1.49476e-05
1.45704e-05
1.41724e-05
1.37619e-05
1.33473e-05
1.29626e-05
1.26392e-05
1.28018e-05
1.35175e-05
1.49597e-05
1.46896e-05
1.1039e-05
-4.80065e-05
)
;
    }
    sWall
    {
        type            calculated;
        value           uniform -0.000250377;
    }
    nWall
    {
        type            calculated;
        value           nonuniform List<scalar> 6(-5.37416e-05 -5.43671e-05 -5.64889e-05 -6.90455e-05 -7.5616e-05 -9.27527e-05);
    }
    sideWalls
    {
        type            empty;
        value           nonuniform 0();
    }
    glass1
    {
        type            calculated;
        value           nonuniform List<scalar> 9(-5.73895e-05 -0.000153384 -0.000232381 -0.000297567 -0.000351525 -0.000396421 -0.000435741 -0.000485728 -0.000542289);
    }
    glass2
    {
        type            calculated;
        value           nonuniform List<scalar> 2(-0.00023596 -0.000258978);
    }
    sun
    {
        type            calculated;
        value           uniform 0;
    }
    Table_master
    {
        type            calculated;
        value           nonuniform List<scalar> 9(-1.52515e-07 -1.52601e-07 -1.52626e-07 -1.52641e-07 -1.52648e-07 -1.52649e-07 -1.52644e-07 -1.52628e-07 -1.52578e-07);
    }
    Table_slave
    {
        type            calculated;
        value           nonuniform List<scalar> 9(1.52558e-07 1.52503e-07 1.52431e-07 1.52372e-07 1.52332e-07 1.52319e-07 1.52325e-07 1.52353e-07 1.52428e-07);
    }
    inlet
    {
        type            calculated;
        value           uniform -0.00439925;
    }
    outlet
    {
        type            calculated;
        value           nonuniform List<scalar> 2(0.00604538 0.00234203);
    }
}


// ************************************************************************* //
