/*--------------------------------*- C++ -*----------------------------------*\
  =========                 |
  \\      /  F ield         | OpenFOAM: The Open Source CFD Toolbox
   \\    /   O peration     | Website:  https://openfoam.org
    \\  /    A nd           | Version:  6
     \\/     M anipulation  |
\*---------------------------------------------------------------------------*/
FoamFile
{
    version     2.0;
    format      ascii;
    class       volScalarField;
    location    "2200";
    object      epsilon;
}
// * * * * * * * * * * * * * * * * * * * * * * * * * * * * * * * * * * * * * //

dimensions      [0 2 -3 0 0 0 0];

internalField   nonuniform List<scalar> 
458
(
0.000119428
0.00013394
0.000123454
0.000136566
0.000148947
0.000160162
0.00017036
0.000179848
0.000189044
0.000198562
0.000206335
0.000211285
0.000213454
0.000214255
0.000214114
2.89599e-05
3.86617e-05
4.61528e-05
5.21424e-05
5.37e-05
4.92694e-05
4.37954e-05
3.88497e-05
3.46141e-05
3.09432e-05
2.77193e-05
2.48504e-05
2.22551e-05
1.98473e-05
1.75384e-05
1.51935e-05
1.31097e-05
9.74929e-06
0.000467249
0.0010356
0.000127479
0.000106433
0.000105778
0.000106824
0.000108883
0.000112733
0.000119264
0.000129351
0.000140955
0.000152189
0.000161776
0.000170466
0.000187351
0.000234561
0.000195151
0.000160517
8.79136e-05
5.495e-05
4.50569e-05
4.18843e-05
3.92298e-05
3.90576e-05
3.35684e-05
2.93379e-05
2.58986e-05
2.28002e-05
1.99912e-05
1.74404e-05
1.51052e-05
1.30419e-05
1.18564e-05
1.15946e-05
2.23788e-05
1.66867e-05
0.00110552
0.00338727
0.000233378
0.000114029
0.00010943
0.000113402
0.000119713
0.000128549
0.000140148
0.000154266
0.000169072
0.000180506
0.000185504
0.000184457
0.000182569
0.000184178
0.000191001
0.000271993
0.000146046
5.92963e-05
4.95757e-05
4.09416e-05
3.65367e-05
7.67636e-05
5.2054e-05
3.63909e-05
2.69797e-05
2.12613e-05
1.75948e-05
1.51208e-05
1.34719e-05
1.26634e-05
1.11592e-05
1.10483e-05
3.76097e-05
2.41498e-05
0.00218725
0.00794503
0.000540104
0.000135536
0.000119484
0.000127724
0.000139448
0.000154002
0.000171863
0.000193214
0.000216032
0.000232585
0.000237203
0.000229391
0.000212182
0.000190515
0.000177806
0.000202323
0.000266144
0.000109701
5.78822e-05
4.08035e-05
3.01563e-05
2.67096e-05
5.40821e-05
5.46996e-05
5.87598e-05
6.34769e-05
6.71826e-05
6.8228e-05
6.51453e-05
5.97023e-05
5.33719e-05
3.6787e-05
2.54245e-05
5.86166e-05
3.62015e-05
0.003842
0.0147755
0.00136224
0.000193149
0.000132167
0.000139577
0.00015574
0.000177498
0.000206107
0.000243051
0.000283325
0.000310227
0.000315798
0.000301511
0.000271754
0.000232694
0.000195342
0.000167566
0.000134847
8.02653e-05
5.26006e-05
3.71037e-05
2.94855e-05
2.81851e-05
3.39076e-05
3.97387e-05
4.6054e-05
5.21123e-05
5.66804e-05
5.80705e-05
5.50205e-05
4.89079e-05
4.40818e-05
3.81479e-05
3.11184e-05
4.39374e-05
5.3652e-05
6.42098e-05
7.38388e-05
7.92924e-05
0.00622516
0.0218845
0.00358274
0.000480378
0.000205619
0.000175388
0.000183142
0.000206573
0.000245768
0.000311834
0.000380749
0.000416178
0.000415961
0.000389123
0.000344282
0.000289653
0.000234237
0.000180472
0.000127703
8.36202e-05
5.66132e-05
4.094e-05
3.42621e-05
3.37036e-05
3.8162e-05
4.67639e-05
5.67727e-05
6.73536e-05
7.70596e-05
8.30696e-05
8.2416e-05
7.16944e-05
5.82786e-05
4.67388e-05
3.80541e-05
3.82838e-05
4.32884e-05
6.50075e-05
0.000302715
0.000180146
0.00933174
0.0259474
0.00882384
0.00233239
0.000953122
0.000507436
0.000376922
0.000351019
0.000372414
0.000477792
0.000554111
0.000569698
0.000542333
0.000489458
0.000422525
0.000349762
0.000277874
0.000208061
0.000145022
9.77889e-05
6.75313e-05
4.92821e-05
4.19482e-05
4.19237e-05
4.71439e-05
5.68756e-05
6.97575e-05
8.50091e-05
0.000101931
0.000116752
0.000126418
0.000125494
0.000103458
8.25182e-05
6.9965e-05
6.85361e-05
7.83057e-05
0.000117037
0.000499379
0.000330409
0.0101894
0.0310854
0.0164002
0.0106633
0.00603037
0.00321339
0.00187802
0.00128328
0.00103511
0.000957249
0.000886276
0.000798777
0.000700453
0.000598812
0.000498693
0.000403237
0.000314947
0.000235415
0.000167738
0.000117365
8.3342e-05
6.13424e-05
5.28233e-05
5.3074e-05
5.93377e-05
7.05024e-05
8.57985e-05
0.000104935
0.000127846
0.000154101
0.000183041
0.000212719
0.000233929
0.00023124
0.000260157
0.000356782
0.000577816
0.000907676
0.00328411
0.000871009
0.00950928
0.0164467
0.014888
0.0113293
0.00832137
0.00583854
0.00405269
0.00288201
0.00216013
0.00166486
0.00131446
0.00105525
0.000854092
0.000690983
0.000554025
0.000436498
0.000335186
0.000249515
0.000181519
0.000133643
0.000101247
7.74211e-05
6.76584e-05
6.70662e-05
7.2756e-05
8.35275e-05
9.89157e-05
0.000119223
0.000145429
0.000179151
0.000222674
0.000279008
0.000351694
0.000444293
0.00057888
0.000780331
0.00103258
0.00128741
0.00151827
0.000821153
0.00752772
0.0144688
0.00881575
0.00610927
0.00438386
0.00321469
0.00241649
0.00185456
0.00143994
0.00112908
0.000891592
0.000705513
0.000555655
0.000432078
0.000329161
0.000245606
0.000185034
0.000148741
0.000124618
0.000103761
9.25653e-05
8.83782e-05
8.9884e-05
9.61882e-05
0.000106594
0.000121066
0.000140314
0.000165805
0.000199813
0.000245622
0.000307885
0.000391861
0.000500582
0.000631989
0.000757399
0.000822394
0.000798544
0.000459771
0.00568976
0.0112663
0.00719774
0.00518426
0.00386228
0.0029243
0.00222453
0.00170624
0.00132357
0.00103575
0.000816081
0.000644663
0.000507596
0.000395701
0.00030398
0.000233535
0.000197912
0.000195941
0.000195818
0.000186271
0.000172577
0.000158574
0.000148955
0.000145689
0.000148197
0.000155596
0.000167744
0.000185554
0.000211116
0.000247748
0.000299625
0.000372063
0.000466382
0.000574574
0.000684044
0.000772867
0.000657831
0.000478526
0.00279874
0.00360979
0.00440839
0.00540563
0.00451529
0.00381819
0.00290137
0.00226792
0.00176406
0.00136061
0.00104955
0.000824791
0.0006486
0.000503806
0.000381816
0.000278214
0.000191279
0.000122758
7.90212e-05
7.23982e-05
7.69324e-05
7.72026e-05
7.53785e-05
7.53127e-05
7.91268e-05
8.7251e-05
9.93593e-05
0.000115142
0.000134589
0.000158131
0.000186864
0.000223132
0.000271738
0.000328935
0.000396188
0.000472317
0.000563782
0.000538043
0.000421418
0.000333065
)
;

boundaryField
{
    floor
    {
        Cmu             0.09;
        kappa           0.41;
        E               9.8;
        type            epsilonWallFunction;
        value           nonuniform List<scalar> 
36
(
0.000214114
2.89599e-05
3.86617e-05
4.61528e-05
5.21424e-05
5.37e-05
4.92694e-05
4.37954e-05
3.88497e-05
3.46141e-05
3.09432e-05
2.77193e-05
2.48504e-05
2.22551e-05
1.98473e-05
1.75384e-05
1.51935e-05
1.31097e-05
9.74929e-06
9.74929e-06
1.66867e-05
2.41498e-05
3.62015e-05
6.42098e-05
7.38388e-05
7.92924e-05
0.000214114
0.000234561
0.000195151
0.000160517
2.89599e-05
0.000160517
8.79136e-05
0.000271993
0.000146046
0.000266144
)
;
    }
    ceiling
    {
        Cmu             0.09;
        kappa           0.41;
        E               9.8;
        type            epsilonWallFunction;
        value           nonuniform List<scalar> 
43
(
0.00279874
0.00360979
0.00440839
0.00540563
0.00451529
0.00381819
0.00290137
0.00226792
0.00176406
0.00136061
0.00104955
0.000824791
0.0006486
0.000503806
0.000381816
0.000278214
0.000191279
0.000122758
7.90212e-05
7.23982e-05
7.69324e-05
7.72026e-05
7.53785e-05
7.53127e-05
7.91268e-05
8.7251e-05
9.93593e-05
0.000115142
0.000134589
0.000158131
0.000186864
0.000223132
0.000271738
0.000328935
0.000396188
0.000472317
0.000563782
0.000538043
0.000421418
0.000333065
0.00950928
0.0164467
0.00568976
)
;
    }
    sWall
    {
        Cmu             0.09;
        kappa           0.41;
        E               9.8;
        type            epsilonWallFunction;
        value           uniform 0.00279874;
    }
    nWall
    {
        Cmu             0.09;
        kappa           0.41;
        E               9.8;
        type            epsilonWallFunction;
        value           nonuniform List<scalar> 6(7.92924e-05 0.000180146 0.000330409 0.000459771 0.000478526 0.000333065);
    }
    sideWalls
    {
        type            empty;
    }
    glass1
    {
        Cmu             0.09;
        kappa           0.41;
        E               9.8;
        type            epsilonWallFunction;
        value           nonuniform List<scalar> 9(0.000119428 0.000467249 0.00110552 0.00218725 0.003842 0.00622516 0.00933174 0.0101894 0.00950928);
    }
    glass2
    {
        Cmu             0.09;
        kappa           0.41;
        E               9.8;
        type            epsilonWallFunction;
        value           nonuniform List<scalar> 2(0.000871009 0.000821153);
    }
    sun
    {
        Cmu             0.09;
        kappa           0.41;
        E               9.8;
        type            epsilonWallFunction;
        value           nonuniform List<scalar> 
14
(
0.000119428
0.00013394
0.000123454
0.000136566
0.000148947
0.000160162
0.00017036
0.000179848
0.000189044
0.000198562
0.000206335
0.000211285
0.000213454
0.000214255
)
;
    }
    Table_master
    {
        Cmu             0.09;
        kappa           0.41;
        E               9.8;
        type            epsilonWallFunction;
        value           nonuniform List<scalar> 9(7.67636e-05 5.2054e-05 3.63909e-05 2.69797e-05 2.12613e-05 1.75948e-05 1.51208e-05 1.34719e-05 1.26634e-05);
    }
    Table_slave
    {
        Cmu             0.09;
        kappa           0.41;
        E               9.8;
        type            epsilonWallFunction;
        value           nonuniform List<scalar> 9(5.40821e-05 5.46996e-05 5.87598e-05 6.34769e-05 6.71826e-05 6.8228e-05 6.51453e-05 5.97023e-05 5.33719e-05);
    }
    inlet
    {
        type            turbulentMixingLengthDissipationRateInlet;
        mixingLength    0.01;
        phi             phi;
        k               k;
        value           uniform 0.000101881;
    }
    outlet
    {
        type            zeroGradient;
    }
}


// ************************************************************************* //
