/*--------------------------------*- C++ -*----------------------------------*\
  =========                 |
  \\      /  F ield         | OpenFOAM: The Open Source CFD Toolbox
   \\    /   O peration     | Website:  https://openfoam.org
    \\  /    A nd           | Version:  6
     \\/     M anipulation  |
\*---------------------------------------------------------------------------*/
FoamFile
{
    version     2.0;
    format      ascii;
    class       volScalarField;
    location    "3000";
    object      nut;
}
// * * * * * * * * * * * * * * * * * * * * * * * * * * * * * * * * * * * * * //

dimensions      [0 2 -1 0 0 0 0];

internalField   nonuniform List<scalar> 
458
(
0.00111769
0.00122217
0.00123949
0.0012991
0.0013551
0.00140767
0.0014592
0.00150857
0.00154296
0.00155769
0.00154857
0.0015129
0.00145024
0.00136397
0.00126214
0.000491542
0.000596198
0.000677024
0.000686316
0.000668754
0.000627098
0.000582168
0.00054147
0.000505842
0.000474725
0.000447493
0.000423511
0.000402322
0.000383123
0.000364983
0.000346759
0.000335088
0.00030729
0.00153665
0.00389079
0.00375624
0.00438152
0.00498748
0.00558456
0.00610205
0.00649352
0.00683475
0.00710303
0.00726561
0.00728453
0.00710386
0.00657937
0.00512042
0.00132688
0.00105923
0.000804871
0.000520757
0.00118805
0.00174318
0.00216161
0.00227238
0.00171312
0.00145828
0.00128146
0.00114761
0.00104261
0.000957787
0.000887651
0.000822747
0.00075837
0.000699419
0.000650217
0.000778682
0.000393538
0.00188326
0.00535598
0.00471949
0.00596985
0.00660777
0.00708246
0.00744912
0.00773245
0.00801328
0.00828371
0.00851262
0.00865408
0.00865877
0.00846978
0.00793527
0.00656836
0.00513693
0.0010869
0.000976488
0.0015729
0.00219143
0.00275193
0.00282824
0.000874896
0.000762941
0.000673148
0.000601479
0.000543812
0.000496871
0.000458252
0.000426616
0.000401722
0.000444801
0.000527139
0.000911588
0.000457743
0.00221346
0.00685706
0.00484288
0.00640159
0.00702878
0.00728985
0.00746298
0.00762581
0.00785198
0.00812737
0.00842045
0.00866983
0.00881715
0.00882119
0.00864302
0.00818482
0.00726161
0.00479592
0.00139666
0.00189011
0.00264918
0.00341584
0.00398088
0.00382295
0.000986443
0.000895084
0.000832823
0.000786738
0.000747811
0.000709938
0.000673532
0.000634943
0.000589931
0.000553836
0.000569513
0.00107417
0.000517206
0.00254773
0.00874071
0.00550459
0.00628883
0.00706795
0.00724709
0.00725951
0.0073567
0.00755114
0.00782929
0.00817051
0.008487
0.00869591
0.0087375
0.00861344
0.00834394
0.00789778
0.00710668
0.00594602
0.00567441
0.00572896
0.00585485
0.00590435
0.00567456
0.00465559
0.00418266
0.00391784
0.0037222
0.00352567
0.00327204
0.00288645
0.00241519
0.00190064
0.00142353
0.00107571
0.00106378
0.000889219
0.000684406
0.000728553
0.000795418
0.00289819
0.0107695
0.0076479
0.00662552
0.00708068
0.00734888
0.00727567
0.00732209
0.00744963
0.00769601
0.00804742
0.00841025
0.00865648
0.00869084
0.00850362
0.0081782
0.00784799
0.00760679
0.00744107
0.00741119
0.00737875
0.00726732
0.00705481
0.00670903
0.00618465
0.00573833
0.00537228
0.00504493
0.00472788
0.00440226
0.00401619
0.00353027
0.00295299
0.00233373
0.00179618
0.00135207
0.00111063
0.000961207
0.00120494
0.000828152
0.00320028
0.012114
0.0104478
0.00865639
0.00827104
0.00800696
0.00768041
0.00748474
0.00749719
0.00773524
0.00813413
0.00854969
0.00881175
0.00880263
0.00851694
0.00809342
0.00778733
0.00779348
0.00799646
0.0081209
0.00803251
0.00775205
0.00733762
0.00682835
0.00626504
0.00575313
0.00530474
0.00491206
0.00456559
0.00426704
0.00401781
0.00377021
0.00338819
0.0028868
0.00238682
0.00193741
0.00164371
0.00151772
0.00144779
0.00100494
0.00324314
0.01042
0.00955622
0.0089273
0.00842839
0.0078761
0.00745563
0.00731263
0.00749068
0.00793359
0.00849445
0.00897174
0.00917984
0.00903161
0.00857869
0.00805042
0.00780841
0.0079894
0.00823375
0.0081885
0.00785674
0.00733257
0.00669281
0.00600911
0.00536489
0.00482675
0.0043989
0.00406659
0.00382092
0.00365918
0.00357999
0.00357287
0.00355154
0.00329441
0.00306074
0.00295774
0.00307359
0.00324828
0.00377487
0.00152788
0.00314308
0.00367173
0.00388266
0.00401226
0.00429041
0.00481466
0.00559861
0.00659897
0.00769527
0.00871275
0.00946693
0.0098049
0.00965652
0.0091066
0.00836522
0.00785424
0.0077923
0.00784248
0.00772625
0.00734957
0.00675785
0.00603094
0.0052595
0.00454671
0.00397305
0.0035552
0.00326233
0.00305862
0.00291632
0.00281328
0.0027307
0.00265376
0.00258743
0.00253247
0.00248903
0.00244978
0.00236899
0.00222452
0.00206502
0.00142187
0.00094893
0.00410448
0.00742865
0.00965832
0.0110509
0.0117723
0.0119352
0.0116807
0.0111397
0.0103827
0.00941763
0.00836301
0.00751115
0.00707075
0.00689052
0.00663822
0.00619127
0.00557359
0.00485664
0.00413136
0.0034945
0.003015
0.00269869
0.00250714
0.00239808
0.00234136
0.00231778
0.00231551
0.00232831
0.00235916
0.00239587
0.00242515
0.00243499
0.0024005
0.00228783
0.00209848
0.00185782
0.00115665
0.00258941
0.00885648
0.0103814
0.0109103
0.0110277
0.0108493
0.0103554
0.0096131
0.00872258
0.00777617
0.00685609
0.00605556
0.00548083
0.00510098
0.00474808
0.00431278
0.00379465
0.00324495
0.00273879
0.00234191
0.00207815
0.00192315
0.00184089
0.00181586
0.00183243
0.00187929
0.00194842
0.00203214
0.00212342
0.00222697
0.00233714
0.00244347
0.00252751
0.00257467
0.00253092
0.00250092
0.00239131
0.00117484
0.0019374
0.00213825
0.0022848
0.00238496
0.00234266
0.00231976
0.00227001
0.00216797
0.00200965
0.00181155
0.00159335
0.00137379
0.00117259
0.00100723
0.000882329
0.000791258
0.000722937
0.000668681
0.000624594
0.000590565
0.000567935
0.000557237
0.000557567
0.000567356
0.000585438
0.000609408
0.000638419
0.000672324
0.000711411
0.000756635
0.00080948
0.000868032
0.000932445
0.00100291
0.00107882
0.00117268
0.00119711
0.00116527
0.00108833
0.00100704
)
;

boundaryField
{
    floor
    {
        type            nutkWallFunction;
        Cmu             0.09;
        kappa           0.41;
        E               9.8;
        value           nonuniform List<scalar> 
36
(
0.000151135
5.86364e-05
7.1877e-05
8.19097e-05
8.30559e-05
8.08937e-05
7.57347e-05
7.01235e-05
6.49951e-05
6.04666e-05
5.64792e-05
5.29628e-05
4.98439e-05
4.70696e-05
4.45397e-05
4.21344e-05
3.97024e-05
3.81356e-05
3.43754e-05
3.43753e-05
4.59089e-05
5.42821e-05
6.19059e-05
8.28083e-05
8.82194e-05
9.6341e-05
0.000151135
0.00015853
0.000127666
9.74904e-05
5.86363e-05
9.74904e-05
6.23605e-05
0.000130898
0.000117941
0.000166464
)
;
    }
    ceiling
    {
        type            nutkWallFunction;
        Cmu             0.09;
        kappa           0.41;
        E               9.8;
        value           nonuniform List<scalar> 
43
(
0.000226588
0.000248348
0.000264111
0.000274899
0.000270392
0.00026795
0.000262617
0.000251628
0.000234461
0.000212771
0.000188577
0.000163863
0.000140832
0.00012157
0.000106783
9.58487e-05
8.75474e-05
8.08875e-05
7.54269e-05
7.1179e-05
6.83365e-05
6.69868e-05
6.70263e-05
6.82575e-05
7.05266e-05
7.35228e-05
7.71307e-05
8.13227e-05
8.61244e-05
9.16412e-05
9.80386e-05
0.00010507
0.000112742
0.000121065
0.000129957
0.000140853
0.000143673
0.000139996
0.000131066
0.000121552
0.00035501
0.000409518
0.000296417
)
;
    }
    sWall
    {
        type            nutkWallFunction;
        Cmu             0.09;
        kappa           0.41;
        E               9.8;
        value           uniform 0.000226645;
    }
    nWall
    {
        type            nutkWallFunction;
        Cmu             0.09;
        kappa           0.41;
        E               9.8;
        value           nonuniform List<scalar> 6(9.63413e-05 0.000100288 0.000121308 0.000139012 0.000141115 0.000121558);
    }
    sideWalls
    {
        type            empty;
    }
    glass1
    {
        type            nutkWallFunction;
        Cmu             0.09;
        kappa           0.41;
        E               9.8;
        value           nonuniform List<scalar> 9(0.000134605 0.000182494 0.000220998 0.000256963 0.00029279 0.000329827 0.000361379 0.000365841 0.000355458);
    }
    glass2
    {
        type            nutkWallFunction;
        Cmu             0.09;
        kappa           0.41;
        E               9.8;
        value           nonuniform List<scalar> 2(0.000181348 0.0001694);
    }
    sun
    {
        type            nutkWallFunction;
        Cmu             0.09;
        kappa           0.41;
        E               9.8;
        value           nonuniform List<scalar> 
14
(
0.000134489
0.000146562
0.000148553
0.000155379
0.000161762
0.000167727
0.00017355
0.000179106
0.000182964
0.000184612
0.000183589
0.000179586
0.00017253
0.000162758
)
;
    }
    Table_master
    {
        type            nutkWallFunction;
        Cmu             0.09;
        kappa           0.41;
        E               9.8;
        value           nonuniform List<scalar> 9(0.000105901 9.24173e-05 8.14335e-05 7.2541e-05 6.52926e-05 5.93228e-05 5.43591e-05 5.02541e-05 4.6997e-05);
    }
    Table_slave
    {
        type            nutkWallFunction;
        Cmu             0.09;
        kappa           0.41;
        E               9.8;
        value           nonuniform List<scalar> 9(0.000119138 0.000108311 0.000100859 9.53012e-05 9.05761e-05 8.59515e-05 8.14782e-05 7.67049e-05 7.10929e-05);
    }
    inlet
    {
        type            calculated;
        value           uniform 0.000167705;
    }
    outlet
    {
        type            calculated;
        value           nonuniform List<scalar> 2(0.0019374 0.00213825);
    }
}


// ************************************************************************* //
