/*--------------------------------*- C++ -*----------------------------------*\
  =========                 |
  \\      /  F ield         | OpenFOAM: The Open Source CFD Toolbox
   \\    /   O peration     | Website:  https://openfoam.org
    \\  /    A nd           | Version:  6
     \\/     M anipulation  |
\*---------------------------------------------------------------------------*/
FoamFile
{
    version     2.0;
    format      ascii;
    class       surfaceScalarField;
    location    "1100";
    object      phi;
}
// * * * * * * * * * * * * * * * * * * * * * * * * * * * * * * * * * * * * * //

dimensions      [1 0 -1 0 0 0 0];

internalField   nonuniform List<scalar> 
850
(
-0.00251324
0.00257606
-0.00282764
0.000314447
-0.0032638
0.000436212
-0.00371119
0.000447438
-0.00411693
0.000405788
-0.00445774
0.000340865
-0.00471534
0.00025764
-0.00487035
0.000155064
-0.00490089
3.05857e-05
-0.00477988
-0.000120964
-0.00447951
-0.000300317
-0.00397845
-0.000501015
-0.00323241
-0.000745994
-0.00205603
-0.00117633
-0.002054
-0.000244816
0.000248145
0.00014366
-0.000388436
0.000713657
-0.000569957
0.00134432
-0.000630625
0.00191524
-0.000570878
0.00217316
-0.000257869
0.00222995
-5.67521e-05
0.00222245
7.54301e-06
0.002189
3.3499e-05
0.00213875
5.02908e-05
0.00207908
5.97164e-05
0.00201174
6.73911e-05
0.00192791
8.38735e-05
0.00180224
0.000125716
0.00159335
0.000208936
0.00127809
0.000315309
0.000862059
0.000416077
0.000866149
-0.00186501
0.00460631
-0.00252053
0.000970021
-0.00311232
0.00102805
-0.00361123
0.000946391
-0.00404652
0.000841131
-0.00441513
0.000709521
-0.0047052
0.000547758
-0.00490083
0.00035074
-0.00498449
0.000114298
-0.00494331
-0.000162099
-0.00476934
-0.000474242
-0.00445218
-0.00081812
-0.00398767
-0.00121046
-0.00350396
-0.00165999
-0.00367293
-0.00188498
-0.00209679
-0.00157226
-0.000539213
-0.0015535
-0.000527994
0.000632819
-0.000376485
0.000568315
-0.000323886
0.000690054
-0.00069165
0.00113264
-0.00107317
0.00161188
-0.00105007
0.00172473
-0.000370674
0.00172859
-6.0565e-05
0.0017213
1.48748e-05
0.00170787
4.69768e-05
0.0016922
6.60089e-05
0.00167821
7.37572e-05
0.00166601
7.96358e-05
0.00165147
9.84531e-05
0.00160268
0.000174557
0.00142662
0.000385045
0.00111442
0.000627555
0.000698461
0.000832083
0.00157555
-0.00139147
0.00624478
-0.00215329
0.00173189
-0.00274075
0.00161556
-0.00320562
0.00141131
-0.00361178
0.00124734
-0.0039617
0.00105949
-0.00424604
0.000832138
-0.00445113
0.000555884
-0.00456181
0.000225024
-0.00456542
-0.000158445
-0.00445551
-0.000584104
-0.00423982
-0.00103377
-0.00396237
-0.00148787
-0.0037326
-0.00188971
-0.00352696
-0.00209058
-0.00296157
-0.0021376
-0.00219357
-0.00232145
-0.00271211
-0.000382601
1.77723e-05
-0.000264252
-0.000442192
0.000100667
-0.00105652
0.000534088
-0.00150655
0.00128428
-0.00180022
0.000913802
0.000853434
0.000868505
0.000915678
0.000981884
0.00105584
0.00113567
0.00123432
0.00140908
0.00125254
0.000541635
0.000996193
0.000883944
0.000582215
0.00124611
0.0021746
-0.00104422
0.00760199
-0.00180555
0.00249327
-0.00224421
0.00205426
-0.00261127
0.00177843
-0.00294453
0.00158064
-0.00324123
0.00135624
-0.00349295
0.00108391
-0.00368722
0.000750199
-0.00380698
0.000344827
-0.003833
-0.000132376
-0.00375956
-0.000657503
-0.00361322
-0.00118006
-0.00345202
-0.00164903
-0.00333536
-0.00200633
-0.00322471
-0.00220118
-0.0030693
-0.00229297
-0.00304144
-0.00234927
-0.00375925
-0.00199425
-0.00254424
-0.00120398
-0.00160599
-0.000920426
-0.000912161
-0.00113598
-0.000420655
-0.00154798
-0.000173413
-0.00175374
-0.000413
-0.00156059
0.000430683
-0.000843793
0.00101735
-0.000586773
0.00150703
-0.000489796
0.00192312
-0.000416195
0.0022592
-0.00033619
0.00248775
-0.000228658
0.00256107
-7.34313e-05
0.00242828
0.000132688
0.00202875
0.000399421
0.00174655
0.000823884
0.00133728
0.00129326
0.000785572
0.00179786
0.00298178
-0.000779448
0.00874882
-0.00148991
0.00320378
-0.00167436
0.00223876
-0.00190327
0.00200739
-0.00213559
0.00181301
-0.00234786
0.00156856
-0.00253255
0.00126865
-0.00268161
0.000899299
-0.0027796
0.000442868
-0.00279786
-0.000114079
-0.00272728
-0.000728031
-0.00260907
-0.00129822
-0.00249587
-0.00176218
-0.0024174
-0.00208475
-0.00235769
-0.00226085
-0.00232135
-0.00232927
-0.00238459
-0.00228598
-0.00239296
-0.00198583
-0.00199376
-0.00160313
-0.00145638
-0.00145775
-0.000970492
-0.00162181
-0.000599201
-0.00191922
-0.000372854
-0.00198004
-0.000227792
-0.00170561
0.000230508
-0.00130205
0.000682195
-0.00103842
0.00108228
-0.000889839
0.00144017
-0.000774038
0.00175003
-0.000646008
0.00199286
-0.000471445
0.00213391
-0.00021443
0.0021364
0.000130243
0.00201363
0.000522238
0.00186345
0.000974101
0.00170471
0.00145205
0.00154223
0.00196039
0.00240642
0.00211763
0.00162078
0.000807449
0.00163779
4.29366e-06
0.00171989
-0.000704851
0.00986692
-0.00131744
0.00381642
-0.00108465
0.00200602
-0.00108399
0.00200678
-0.00121946
0.00194852
-0.00134168
0.00169082
-0.00143127
0.00135829
-0.00149471
0.00096279
-0.00152987
0.000478068
-0.00150103
-0.000142875
-0.00141206
-0.000816956
-0.00131706
-0.00139317
-0.00125403
-0.00182517
-0.00123453
-0.0021042
-0.00125042
-0.00224491
-0.00130502
-0.00227462
-0.00139655
-0.0021944
-0.00139694
-0.0019854
-0.00124694
-0.00175307
-0.00102727
-0.00167737
-0.000813286
-0.00183574
-0.000610032
-0.00212242
-0.000442643
-0.00214739
-0.000299565
-0.00184865
-4.77577e-05
-0.00155381
0.000248547
-0.00133468
0.000541362
-0.00118261
0.000822463
-0.00105509
0.00108958
-0.000913083
0.0013385
-0.000720318
0.00155601
-0.000431898
0.00169655
-1.02431e-05
0.00175014
0.000468695
0.00179625
0.00092803
0.00191471
0.00133364
0.00215102
0.00172413
0.00241635
0.00185235
0.00193689
0.00128695
0.00107836
0.000862866
0.00286138
-0.000926914
0.0112474
-0.0010447
0.00393426
-0.000200246
0.00116161
7.81458e-05
0.00172844
-3.14021e-05
0.00205812
-0.000138993
0.00179846
-0.000152894
0.00137224
-0.000110576
0.00092052
-2.46007e-05
0.000392139
8.86075e-05
-0.000256037
0.000184923
-0.000913225
0.000225507
-0.00143371
0.000198757
-0.00179837
0.000112741
-0.00201814
-1.72422e-05
-0.00211488
-0.000178287
-0.00211353
-0.000343662
-0.00202897
-0.00045408
-0.00187493
-0.000495556
-0.00171154
-0.000522947
-0.00164991
-0.000558585
-0.00180004
-0.000544883
-0.00213606
-0.000491497
-0.00220072
-0.000448532
-0.00189157
-0.000367953
-0.00163435
-0.000247338
-0.00145525
-0.000104519
-0.00132539
5.43562e-05
-0.00121393
0.000229193
-0.00108787
0.000425691
-0.00091677
0.000652787
-0.000658947
0.000908501
-0.00026591
0.00115157
0.00022567
0.00137228
0.000707368
0.00164635
0.00105962
0.00199111
0.00137942
0.00237192
0.00147159
0.00254154
0.00111738
0.00192531
0.00147914
0.00485136
0.00206337
0.0096892
0.00253233
0.00346535
0.00271303
0.000980967
0.00249786
0.00194366
0.00213848
0.00241755
0.00190157
0.00203542
0.0018125
0.00146135
0.00183369
0.000899373
0.00195123
0.000274648
0.00207534
-0.000380102
0.00208926
-0.000927101
0.00198858
-0.00133299
0.00179745
-0.0016072
0.00154639
-0.00176704
0.00126191
-0.00183035
0.000964099
-0.00181567
0.000675007
-0.00173983
0.000421117
-0.00162099
0.00020502
-0.00149539
-1.50816e-05
-0.00142975
-0.00027029
-0.00154476
-0.00045361
-0.00195267
-0.000537484
-0.0021168
-0.000633086
-0.00179592
-0.00071802
-0.00154937
-0.000778121
-0.00139511
-0.000816374
-0.00128709
-0.000834465
-0.00119579
-0.000826973
-0.00109532
-0.000781281
-0.000962416
-0.00066533
-0.000774851
-0.000418025
-0.000513166
-5.11322e-05
-0.000141175
0.000341728
0.000314554
0.000731
0.00067039
0.00115146
0.000958999
0.00155899
0.00106411
0.00175033
0.000926094
0.000972583
0.00225693
0.00610929
0.0102425
0.0137
0.0122637
0.00241729
0.00988044
0.00432695
0.00815422
0.00414381
0.00694942
0.00324027
0.00611246
0.00229836
0.00557722
0.00143466
0.00517429
0.000677615
0.00475538
3.88507e-05
0.00430408
-0.000475753
0.00383535
-0.000864216
0.00335902
-0.00113082
0.00288327
-0.00129124
0.00241709
-0.00136413
0.00196918
-0.00136771
0.00154817
-0.00131878
0.00116126
-0.00123404
0.000802616
-0.00113669
0.000440238
-0.00106731
1.65974e-05
-0.00112104
-0.000369466
-0.00156653
-0.0005742
-0.00191201
-0.000812017
-0.00155807
-0.0010685
-0.00129285
-0.00131528
-0.00114828
-0.00154911
-0.00105322
-0.0017742
-0.00097065
-0.00199571
-0.000873775
-0.00222062
-0.000737461
-0.00245912
-0.000536307
-0.00272541
-0.000246824
-0.00301341
0.000146863
-0.00334404
0.000645232
-0.00390335
0.00122974
-0.00482992
0.00188561
-0.00626728
0.00250151
-0.00813721
0.00279606
-0.00794631
0.00206607
-0.00152281
0.00306106
0.00368066
0.00406119
0.00332683
0.00533159
0.00287343
0.00572516
0.00284673
0.00576443
0.00225913
0.00571923
0.00147989
0.00560763
0.000789259
0.00539138
0.000255141
0.00505829
-0.000142628
0.00463073
-0.00043661
0.00414345
-0.000643506
0.00362744
-0.00077519
0.00310694
-0.00084359
0.00259962
-0.000860347
0.00211693
-0.00083604
0.00166325
-0.000780313
0.00123026
-0.000703642
0.000785756
-0.00062275
0.000267238
-0.000602462
-0.00028785
-0.00101136
-0.000594991
-0.00160481
-0.000954194
-0.00119882
-0.00135087
-0.000896133
-0.00173918
-0.000759936
-0.00211428
-0.000678086
-0.00247922
-0.000605663
-0.00283303
-0.000519929
-0.00316709
-0.000403358
-0.00346348
-0.000239868
-0.00369627
-1.3993e-05
-0.00385302
0.000303651
-0.00395326
0.000745516
-0.00404319
0.00131972
-0.00414004
0.0019825
-0.00423141
0.00259292
-0.00417954
0.00274422
-0.00262819
0.000514755
-0.00406639
-0.000523546
0.0042447
0.00123221
0.00157108
0.00234172
0.00176393
0.00326399
0.00192448
0.00401519
0.00150796
0.00452024
0.000974874
0.0047681
0.000541433
0.00480056
0.000222718
0.00466254
-4.57123e-06
0.0043929
-0.000166927
0.00402924
-0.000279803
0.0036066
-0.000352516
0.00315438
-0.000391326
0.00269588
-0.000401812
0.00224834
-0.000388453
0.00182197
-0.0003539
0.00141667
-0.000298293
0.00101456
-0.000220597
0.000563049
-0.000150891
-6.24475e-05
-0.000385784
-0.000616598
-0.0010506
-0.00109126
-0.00072412
-0.00152925
-0.000458106
-0.00192623
-0.000362926
-0.00228763
-0.000316643
-0.00261568
-0.000277576
-0.00290533
-0.000230234
-0.00314371
-0.000164939
-0.0033115
-7.20442e-05
-0.00338518
5.97346e-05
-0.00332359
0.000242095
-0.00308558
0.000507555
-0.00265175
0.000885933
-0.00203809
0.00136887
-0.00111037
0.00166524
0.000549455
0.00108444
0.00147137
-0.000407124
-0.00250154
-0.00671619
-0.00888505
-0.00460965
-0.00302593
-0.00125403
0.000675425
0.00218666
0.00316414
0.00370784
0.00393268
0.0039302
0.00376535
0.0034876
0.00313714
0.00274788
0.00234819
0.00196194
0.00161037
0.00131461
0.00109685
0.000949252
0.000567513
-0.000477167
-0.00119491
-0.00164707
-0.00200442
-0.00231582
-0.00258844
-0.00281398
-0.00297447
-0.00304229
-0.00297855
-0.00273268
-0.00222157
-0.00133231
3.96527e-05
0.00170761
0.00279468
0.00239034
)
;

boundaryField
{
    floor
    {
        type            calculated;
        value           nonuniform List<scalar> 
36
(
0
0
0
0
0
0
0
0
0
0
0
0
0
0
0
0
0
0
0
-4.04342e-06
-1.08922e-05
-1.67926e-05
-2.15603e-05
-2.17571e-05
-2.12647e-05
-2.06883e-05
-1.98409e-06
-3.83242e-06
-4.02666e-06
-4.43762e-06
-3.3007e-06
-6.73298e-06
-8.14623e-06
-9.40855e-06
-1.16179e-05
-1.09921e-05
)
;
    }
    ceiling
    {
        type            calculated;
        value           nonuniform List<scalar> 
43
(
-3.38933e-05
-3.23208e-05
-3.0697e-05
-1.26178e-05
-7.94201e-06
-4.94882e-06
-3.24387e-06
-2.56614e-06
-2.23003e-06
-2.08596e-06
-2.05974e-06
-2.03462e-06
-2.01838e-06
-2.01633e-06
-2.03391e-06
-2.07799e-06
-2.15827e-06
-2.28896e-06
-2.4908e-06
-2.79299e-06
-3.24458e-06
-3.99048e-06
-5.84365e-06
-6.33849e-06
-5.91775e-06
-5.53758e-06
-5.20804e-06
-4.91671e-06
-4.65436e-06
-4.41324e-06
-4.18584e-06
-3.96302e-06
-3.73983e-06
-3.51707e-06
-3.28863e-06
-3.04807e-06
-2.67573e-06
-2.59206e-06
-2.7458e-06
-2.19894e-06
1.10731e-05
7.87333e-06
-4.05272e-05
)
;
    }
    sWall
    {
        type            calculated;
        value           uniform -0.000234304;
    }
    nWall
    {
        type            calculated;
        value           nonuniform List<scalar> 6(-6.13622e-05 -6.30908e-05 -6.46244e-05 -8.45709e-05 -9.34346e-05 -0.00010897);
    }
    sideWalls
    {
        type            empty;
        value           nonuniform 0();
    }
    glass1
    {
        type            calculated;
        value           nonuniform List<scalar> 9(-6.27765e-05 -0.000165188 -0.000246964 -0.000312934 -0.000367342 -0.000413204 -0.000453515 -0.000505139 -0.000564293);
    }
    glass2
    {
        type            calculated;
        value           nonuniform List<scalar> 2(-0.000285307 -0.000314167);
    }
    sun
    {
        type            calculated;
        value           uniform 0;
    }
    Table_master
    {
        type            calculated;
        value           nonuniform List<scalar> 9(-1.53474e-07 -1.53636e-07 -1.53671e-07 -1.53673e-07 -1.53666e-07 -1.53655e-07 -1.53641e-07 -1.53619e-07 -1.53568e-07);
    }
    Table_slave
    {
        type            calculated;
        value           nonuniform List<scalar> 9(1.53615e-07 1.53574e-07 1.53414e-07 1.53278e-07 1.5317e-07 1.53099e-07 1.53082e-07 1.53093e-07 1.53151e-07);
    }
    inlet
    {
        type            calculated;
        value           uniform -0.00432447;
    }
    outlet
    {
        type            calculated;
        value           nonuniform List<scalar> 2(0.00698439 0.00220119);
    }
}


// ************************************************************************* //
