/*--------------------------------*- C++ -*----------------------------------*\
  =========                 |
  \\      /  F ield         | OpenFOAM: The Open Source CFD Toolbox
   \\    /   O peration     | Website:  https://openfoam.org
    \\  /    A nd           | Version:  6
     \\/     M anipulation  |
\*---------------------------------------------------------------------------*/
FoamFile
{
    version     2.0;
    format      ascii;
    class       volScalarField;
    location    "2000";
    object      alphat;
}
// * * * * * * * * * * * * * * * * * * * * * * * * * * * * * * * * * * * * * //

dimensions      [1 -1 -1 0 0 0 0];

internalField   nonuniform List<scalar> 
458
(
0.000781691
0.000806405
0.000776284
0.000802211
0.000825669
0.000845955
0.000863657
0.000879527
0.000894387
0.000909247
0.000921553
0.000929745
0.00093405
0.000936411
0.000937274
0.000502766
0.000623437
0.000670738
0.000690855
0.000688749
0.000664195
0.000636256
0.000610363
0.000586997
0.000565317
0.000544838
0.000525213
0.000506106
0.000487035
0.000467333
0.000445676
0.000425152
0.000385944
0.00126637
0.00194657
0.00155969
0.00189755
0.00202219
0.00215145
0.00227912
0.00239472
0.00248397
0.0025283
0.00253198
0.00246488
0.00229032
0.00195757
0.00144445
0.00097366
0.000924143
0.000827789
0.000691748
0.00165095
0.00215975
0.00230989
0.00214772
0.00168184
0.00153178
0.00145985
0.00138595
0.00130466
0.00122058
0.00113501
0.00104425
0.000943606
0.000849971
0.000773604
0.000867863
0.000463612
0.00171053
0.00313171
0.00167148
0.00275808
0.00300711
0.00316748
0.00329872
0.00340369
0.00348242
0.0035296
0.00354458
0.00350356
0.00337758
0.00313462
0.00275628
0.00226761
0.00167187
0.00104149
0.00083673
0.00260578
0.00265979
0.00239718
0.00193408
0.000707734
0.000627536
0.000564538
0.000522018
0.000492952
0.000471103
0.000453477
0.000439614
0.000431653
0.0005298
0.000644026
0.000998467
0.000525279
0.00216223
0.00490052
0.00174338
0.00310375
0.00361474
0.00378915
0.00390254
0.00398379
0.00404286
0.00408205
0.00410242
0.00409523
0.00403959
0.0039036
0.00363632
0.00317264
0.0024805
0.00165981
0.00107695
0.0026472
0.00248714
0.00218401
0.00195422
0.00158219
0.000674725
0.000681523
0.000694364
0.000706861
0.000714356
0.000712434
0.000697203
0.000675806
0.000649931
0.000640324
0.000661864
0.0010846
0.000598053
0.0026139
0.00715185
0.00239089
0.00290546
0.00388145
0.004128
0.00424053
0.00430557
0.00434447
0.0043721
0.00439002
0.00441556
0.00443131
0.00440775
0.00430894
0.00410989
0.00381955
0.00344892
0.00295634
0.00251254
0.00206593
0.00174374
0.00174169
0.00194698
0.00213906
0.00233054
0.00246906
0.00257841
0.00264524
0.00265323
0.00258343
0.00234027
0.0019651
0.00155002
0.00121375
0.00114062
0.000919973
0.000712666
0.000740093
0.000749569
0.00306695
0.00950436
0.00437635
0.00270286
0.00353657
0.00407261
0.00432704
0.00445834
0.00450085
0.00448887
0.00446484
0.00450407
0.00455466
0.00457858
0.00454016
0.00441036
0.00416698
0.00376468
0.00317175
0.00250161
0.00191712
0.00154566
0.0016154
0.00190094
0.00216499
0.00243103
0.00264812
0.00283609
0.00298068
0.00306807
0.00308721
0.00299165
0.00272087
0.0023017
0.00184622
0.00145337
0.00115505
0.00117628
0.00172796
0.00096937
0.0035064
0.0114286
0.00799791
0.00450077
0.00320119
0.00319745
0.00368284
0.00415683
0.00447461
0.00447871
0.00443402
0.00447854
0.00452931
0.0045591
0.00454158
0.00444748
0.00424937
0.00389529
0.00335308
0.00268737
0.00200248
0.00146617
0.00151134
0.00183018
0.00208916
0.0023272
0.00255575
0.00277336
0.00296199
0.00310695
0.00321424
0.00328195
0.00316202
0.00282898
0.00240575
0.00198569
0.00163165
0.00151506
0.00192282
0.0011842
0.00360797
0.0113221
0.00954992
0.00801784
0.00604525
0.00461942
0.00402878
0.00401249
0.00425475
0.00438588
0.00440002
0.00440691
0.0044179
0.00441657
0.00437949
0.00428485
0.0041123
0.00383077
0.00341514
0.00287194
0.00217061
0.0014299
0.00140915
0.00176621
0.00204021
0.00226291
0.00246718
0.0026558
0.00282703
0.00298576
0.00314884
0.0033371
0.00352034
0.00336199
0.00306547
0.00285884
0.00284306
0.00293903
0.00376626
0.00163002
0.00352016
0.00423072
0.00497947
0.00532054
0.0053353
0.00501295
0.00463667
0.00436792
0.00423906
0.00418072
0.00417868
0.00419905
0.00421099
0.00419091
0.00412276
0.00399753
0.00381049
0.0035563
0.00323124
0.00283493
0.00230174
0.00138783
0.0012756
0.00166347
0.0019547
0.00215917
0.0023223
0.00245399
0.0025554
0.00262763
0.0026711
0.00268256
0.00265448
0.00259436
0.0025392
0.00252399
0.00250676
0.0024321
0.00231822
0.00158952
0.00335164
0.006326
0.00582569
0.00548479
0.00516623
0.0048965
0.00469294
0.00454096
0.00440734
0.00428002
0.00414416
0.00398759
0.00380314
0.00358896
0.00334732
0.00308326
0.0028049
0.00251586
0.00213589
0.00128533
0.00107346
0.0014487
0.00174498
0.00193697
0.00207521
0.00217755
0.00224883
0.00229335
0.00231834
0.00233482
0.00235606
0.00237907
0.00238513
0.00236136
0.00226849
0.00207428
0.0018101
0.00127974
0.00310753
0.00688383
0.00629529
0.00584019
0.00548056
0.00516397
0.004868
0.00459573
0.00433891
0.00403495
0.0037157
0.00339786
0.00308994
0.00279568
0.00251645
0.00225364
0.00201162
0.00179457
0.00154298
0.00100262
0.00080749
0.0010421
0.0012532
0.00142387
0.00157662
0.00172371
0.00186836
0.00200948
0.00214228
0.00225648
0.00235539
0.0024482
0.00252205
0.00255254
0.00253484
0.00248172
0.00219239
0.00128898
0.00244296
0.00264918
0.00282785
0.00298772
0.002773
0.00258852
0.00236339
0.0021796
0.00201182
0.00185659
0.00171188
0.00158884
0.0014771
0.00137119
0.00126796
0.00116565
0.00106342
0.000961359
0.00086078
0.00076475
0.000677163
0.000602318
0.000587833
0.00064445
0.00069676
0.000747344
0.000796946
0.000846192
0.000895739
0.00094655
0.0010002
0.00105949
0.00112502
0.00119427
0.00126723
0.00134241
0.00142708
0.00140611
0.00129219
0.00119099
)
;

boundaryField
{
    floor
    {
        type            compressible::alphatWallFunction;
        Prt             0.85;
        value           nonuniform List<scalar> 
36
(
0.000133432
6.9673e-05
8.78591e-05
9.48745e-05
9.7845e-05
9.75386e-05
9.39174e-05
8.97763e-05
8.59184e-05
8.24196e-05
7.91577e-05
7.60623e-05
7.30824e-05
7.01676e-05
6.72447e-05
6.42097e-05
6.08548e-05
5.76561e-05
5.14897e-05
5.1489e-05
6.36324e-05
7.30884e-05
8.40708e-05
0.000101048
0.000105062
0.000106446
0.000133431
0.000138581
0.000131563
0.000117788
6.96721e-05
0.000117787
9.79994e-05
0.000148118
0.000119059
0.000153073
)
;
    }
    ceiling
    {
        type            compressible::alphatWallFunction;
        Prt             0.85;
        value           nonuniform List<scalar> 
43
(
0.000334132
0.00036031
0.000382821
0.000402951
0.000376076
0.0003528
0.000324142
0.000300527
0.000278778
0.000258481
0.000239391
0.000223019
0.00020803
0.000193703
0.000179621
0.000165533
0.000151313
0.000136958
0.000122635
0.000108774
9.59474e-05
8.48271e-05
8.26656e-05
9.11128e-05
9.88383e-05
0.000106242
0.000113445
0.000120543
0.000127635
0.00013486
0.00014244
0.000150762
0.000159897
0.000169485
0.000179518
0.000189788
0.000201277
0.00019844
0.000182936
0.000169035
0.000469054
0.000555423
0.00041764
)
;
    }
    sWall
    {
        type            compressible::alphatWallFunction;
        Prt             0.85;
        value           uniform 0.000332919;
    }
    nWall
    {
        type            compressible::alphatWallFunction;
        Prt             0.85;
        value           nonuniform List<scalar> 6(0.000106242 0.00013775 0.000167742 0.000180895 0.000182157 0.000168697);
    }
    sideWalls
    {
        type            empty;
    }
    glass1
    {
        type            compressible::alphatWallFunction;
        Prt             0.85;
        value           nonuniform List<scalar> 9(0.000107999 0.000175046 0.000234099 0.000292574 0.000349845 0.000406319 0.000460322 0.000472835 0.000462342);
    }
    glass2
    {
        type            compressible::alphatWallFunction;
        Prt             0.85;
        value           nonuniform List<scalar> 2(0.000226672 0.000221352);
    }
    sun
    {
        type            compressible::alphatWallFunction;
        Prt             0.85;
        value           nonuniform List<scalar> 
14
(
0.000111147
0.000114705
0.000110345
0.000114099
0.000117483
0.000120401
0.00012294
0.000125211
0.000127333
0.000129451
0.000131202
0.000132365
0.000132976
0.000133311
)
;
    }
    Table_master
    {
        type            compressible::alphatWallFunction;
        Prt             0.85;
        value           nonuniform List<scalar> 9(0.00010046 8.86067e-05 7.91646e-05 7.27173e-05 6.82716e-05 6.49079e-05 6.218e-05 6.00251e-05 5.87836e-05);
    }
    Table_slave
    {
        type            compressible::alphatWallFunction;
        Prt             0.85;
        value           nonuniform List<scalar> 9(9.55968e-05 9.65992e-05 9.849e-05 0.000100326 0.000101425 0.000101142 9.89051e-05 9.57534e-05 9.19256e-05);
    }
    inlet
    {
        type            fixedValue;
        value           uniform 1.94e-05;
    }
    outlet
    {
        type            zeroGradient;
    }
}


// ************************************************************************* //
