/*--------------------------------*- C++ -*----------------------------------*\
  =========                 |
  \\      /  F ield         | OpenFOAM: The Open Source CFD Toolbox
   \\    /   O peration     | Website:  https://openfoam.org
    \\  /    A nd           | Version:  6
     \\/     M anipulation  |
\*---------------------------------------------------------------------------*/
FoamFile
{
    version     2.0;
    format      ascii;
    class       surfaceScalarField;
    location    "2000";
    object      phi;
}
// * * * * * * * * * * * * * * * * * * * * * * * * * * * * * * * * * * * * * //

dimensions      [1 0 -1 0 0 0 0];

internalField   nonuniform List<scalar> 
850
(
-0.00251571
0.0025785
-0.00283488
0.000319219
-0.00327482
0.000439987
-0.00372493
0.000450156
-0.00413259
0.000407711
-0.00447469
0.00034215
-0.00473301
0.000258368
-0.00488823
0.000155265
-0.00491844
3.02619e-05
-0.00479655
-0.000121843
-0.00449477
-0.000301733
-0.00399183
-0.00050289
-0.00324336
-0.000748425
-0.00206321
-0.0011801
-0.00206118
-0.000124758
0.000128073
0.000251884
-0.000376605
0.000790333
-0.00053841
0.00138983
-0.000599461
0.00193791
-0.000548036
0.00218728
-0.000249325
0.00224217
-5.48492e-05
0.00223486
7.35582e-06
0.00220281
3.2091e-05
0.00215459
4.82675e-05
0.00209692
5.77167e-05
0.00203115
6.58113e-05
0.00194819
8.30154e-05
0.0018222
0.000126034
0.00161091
0.000211335
0.00129038
0.000320572
0.00086665
0.000423781
0.000870724
-0.00186671
0.00461039
-0.00252478
0.000977339
-0.00311978
0.00103503
-0.00362127
0.00095169
-0.00405852
0.000845012
-0.00442857
0.000712245
-0.00471962
0.000549466
-0.00491579
0.000351485
-0.00499956
0.000114078
-0.00495813
-0.000163221
-0.00478382
-0.000476
-0.00446658
-0.000820078
-0.00400265
-0.00121231
-0.00352139
-0.00166132
-0.00370038
-0.00188214
-0.00213606
-0.00156044
-0.000595372
-0.00153661
-0.000584232
0.000594249
-0.00045814
0.000566019
-0.00034833
0.000726413
-0.000698759
0.00116654
-0.00103954
0.00163638
-0.00101783
0.00174498
-0.00035789
0.0017491
-5.89207e-05
0.0017433
1.32029e-05
0.00173164
4.37995e-05
0.00171739
6.25627e-05
0.00170428
7.08673e-05
0.00169251
7.76309e-05
0.00167795
9.76204e-05
0.00162847
0.000175561
0.00144893
0.000390929
0.00113056
0.000638986
0.00070624
0.000848146
0.00158786
-0.00139221
0.00624958
-0.00215461
0.00173979
-0.00274388
0.00162436
-0.00321013
0.00141799
-0.00361724
0.00125216
-0.00396769
0.00106275
-0.00425216
0.00083398
-0.00445699
0.000556366
-0.004567
0.000224126
-0.00456947
-0.000160701
-0.00445797
-0.000587454
-0.00424028
-0.00103773
-0.00396058
-0.00149196
-0.00372875
-0.00189311
-0.00351964
-0.00209119
-0.00294453
-0.00213551
-0.00215725
-0.00232384
-0.002732
-0.000398928
-4.7522e-05
-0.000241509
-0.000505705
0.000144204
-0.00108442
0.00057747
-0.00147277
0.00131532
-0.00175563
0.000957626
0.000898902
0.000912301
0.000956298
0.00101906
0.00109012
0.00116795
0.00126577
0.00144153
0.0012777
0.000554804
0.00101467
0.000902071
0.000592826
0.00127003
0.00219748
-0.00104446
0.00760702
-0.00180517
0.00250055
-0.0022439
0.00206313
-0.00261111
0.00178525
-0.00294447
0.00158557
-0.00324111
0.00135943
-0.00349254
0.00108546
-0.00368622
0.000750093
-0.00380496
0.000342915
-0.00382933
-0.000136291
-0.0037536
-0.000663138
-0.00360438
-0.0011869
-0.00343983
-0.00165647
-0.00331922
-0.00201367
-0.00320248
-0.00220789
-0.00303747
-0.00230048
-0.00299901
-0.00236226
-0.00371566
-0.0020153
-0.00247379
-0.00123074
-0.00154612
-0.000975144
-0.000858826
-0.00119295
-0.000367133
-0.00157607
-0.000114086
-0.00172577
-0.000338869
-0.00153081
0.00047875
-0.000817729
0.00105256
-0.000573925
0.00153223
-0.000479778
0.00193928
-0.000407161
0.00226613
-0.000326957
0.00248499
-0.000218965
0.00254899
-6.41084e-05
0.0024092
0.000139676
0.00200541
0.000403686
0.0017304
0.000829853
0.00132866
0.00130386
0.000785098
0.00181364
0.00300417
-0.000779438
0.00875383
-0.00148856
0.00320972
-0.00167135
0.00224597
-0.0018995
0.00201344
-0.00213142
0.00181754
-0.00234335
0.00157141
-0.00252764
0.0012698
-0.00267616
0.000898652
-0.0027733
0.000440107
-0.00278972
-0.000119834
-0.00271685
-0.000735957
-0.00259592
-0.00130779
-0.00247957
-0.00177277
-0.00239732
-0.00209588
-0.00233259
-0.00227256
-0.00228986
-0.00234316
-0.00234714
-0.00230494
-0.00234994
-0.00201245
-0.00194036
-0.00164027
-0.00140566
-0.00150979
-0.000922285
-0.00167627
-0.000549345
-0.00194896
-0.000324674
-0.00195039
-0.000183435
-0.001672
0.00027089
-0.00127201
0.000713084
-0.00101608
0.00110572
-0.000872373
0.0014561
-0.000757494
0.00175814
-0.000628955
0.00199239
-0.000453167
0.00212402
-0.000195694
0.00211833
0.000145406
0.00199081
0.000531252
0.00184111
0.000979602
0.001687
0.00145802
0.00153132
0.00196937
0.00240355
0.00213198
0.00161039
0.000814962
0.00163142
2.53787e-07
0.00171342
-0.000704558
0.0098716
-0.00131539
0.00382061
-0.00107975
0.00201037
-0.00107755
0.00201129
-0.00121231
0.00195235
-0.00133409
0.00169324
-0.00142333
0.00135909
-0.00148636
0.000961726
-0.00152106
0.00047485
-0.00149009
-0.000150753
-0.0013995
-0.000826501
-0.00130267
-0.00140458
-0.00123757
-0.00183783
-0.0012156
-0.0021178
-0.00122852
-0.0022596
-0.00127975
-0.00229188
-0.0013686
-0.00221604
-0.00136706
-0.00201394
-0.00121576
-0.00179151
-0.000997291
-0.0017282
-0.000780727
-0.00189277
-0.00057083
-0.0021588
-0.000407699
-0.00211348
-0.000271686
-0.00180797
-2.0844e-05
-0.00152281
0.000271981
-0.00130886
0.000559887
-0.00116024
0.000836051
-0.00103361
0.0010981
-0.000890958
0.00134104
-0.000696064
0.00155034
-0.000404946
0.00168155
1.42366e-05
0.0017303
0.000482551
0.00177569
0.000934256
0.00189676
0.00133699
0.002137
0.00172917
0.00240767
0.00186137
0.00193108
0.00129159
0.00107341
0.000857971
0.0028499
-0.000926613
0.0112517
-0.00104244
0.00393648
-0.000194993
0.00116298
8.57208e-05
0.00173063
-2.24141e-05
0.00206053
-0.000129433
0.0018003
-0.000143022
0.00137272
-0.000100314
0.000919065
-1.33731e-05
0.000387956
0.000100923
-0.000265003
0.000197926
-0.000923459
0.000239028
-0.00144563
0.000212772
-0.00181153
0.000127439
-0.00203242
-1.73396e-06
-0.00213038
-0.000162263
-0.00213131
-0.000327926
-0.00205033
-0.000439972
-0.00190184
-0.000484653
-0.00174677
-0.000515242
-0.00169755
-0.000546758
-0.00186119
-0.000520987
-0.00218451
-0.000471677
-0.00216275
-0.00043535
-0.00184426
-0.000356914
-0.0016012
-0.000237108
-0.00142862
-9.53376e-05
-0.00130196
6.22257e-05
-0.00119113
0.00023564
-0.00106433
0.000431009
-0.000891388
0.000657266
-0.000631157
0.000906633
-0.000235085
0.00114144
0.000247786
0.00135973
0.000716014
0.001634
0.00106277
0.00198063
0.00138259
0.00236558
0.00147646
0.00253929
0.00111793
0.00192478
0.00147253
0.00483931
0.00206714
0.00968965
0.00253683
0.00346684
0.00271788
0.000981983
0.00250431
0.00194425
0.00214675
0.00241814
0.00191131
0.00203579
0.00182318
0.0014609
0.00184511
0.00089718
0.00196387
0.000269249
0.00208742
-0.000388506
0.00210079
-0.00093679
0.00199902
-0.00134381
0.0018066
-0.00161906
0.00155416
-0.00177994
0.00126833
-0.0018445
0.000968737
-0.00183167
0.000677024
-0.00175857
0.000419029
-0.00164379
0.000196835
-0.00152453
-2.98892e-05
-0.00147076
-0.000283234
-0.00160777
-0.000447497
-0.00202019
-0.000534559
-0.00207564
-0.000638131
-0.00174065
-0.000724989
-0.00151431
-0.000784344
-0.00136923
-0.000821047
-0.00126522
-0.000837061
-0.00117508
-0.000827198
-0.00107415
-0.000778573
-0.000939968
-0.000658542
-0.000751142
-0.000404695
-0.000488886
-4.16048e-05
-0.000115256
0.000343169
0.000331285
0.000730187
0.000675794
0.00115166
0.000961168
0.00156284
0.00106533
0.00175601
0.000924797
0.000975923
0.00225266
0.00610004
0.0102427
0.0137017
0.0122675
0.00241618
0.00988569
0.00432614
0.00816121
0.00414265
0.00695816
0.00323889
0.00612274
0.00229637
0.00558858
0.00143139
0.005185
0.000672873
0.00476398
3.25559e-05
0.00431053
-0.0004833
0.00383945
-0.000872686
0.00336055
-0.00114011
0.00288204
-0.00130139
0.00241289
-0.0013753
0.00196147
-0.00138021
0.00153601
-0.00133307
0.00114315
-0.00125088
0.00077635
-0.00115767
0.000402982
-0.00109733
-2.61735e-05
-0.00117854
-0.000381557
-0.00166473
-0.000588777
-0.00186837
-0.000839311
-0.00149007
-0.00109754
-0.00125604
-0.00134154
-0.00112518
-0.00157124
-0.00103547
-0.00179175
-0.000954528
-0.00200844
-0.000857408
-0.00222842
-0.000719948
-0.00246202
-0.000517501
-0.00272348
-0.000227377
-0.00300345
0.000164752
-0.00333048
0.000658362
-0.0038924
0.00123776
-0.00482071
0.00188951
-0.00625814
0.0025028
-0.0081281
0.00279479
-0.00793822
0.00206282
-0.00152457
0.00306103
0.00367934
0.00406343
0.00332375
0.00533542
0.00287068
0.00572981
0.00284453
0.00576923
0.00225698
0.00572353
0.00147713
0.00561078
0.000785663
0.00539253
0.000250846
0.0050569
-0.000147629
0.00462651
-0.000442259
0.00413619
-0.000649753
0.00361687
-0.000782034
0.00309269
-0.000851066
0.00258104
-0.000868518
0.00209298
-0.000844964
0.00163223
-0.000790073
0.00118936
-0.000714758
0.000730666
-0.000638578
0.000193588
-0.000641398
-0.000327066
-0.001144
-0.000628877
-0.00156651
-0.00100535
-0.00111356
-0.00140176
-0.000859597
-0.00178477
-0.000742135
-0.00215384
-0.00066635
-0.0025126
-0.000595732
-0.00285985
-0.000510114
-0.00318681
-0.000392952
-0.00347552
-0.000228744
-0.00370037
-2.48272e-06
-0.00385069
0.000315111
-0.00394763
0.000755346
-0.00403609
0.00132625
-0.00413211
0.00198558
-0.00422248
0.0025932
-0.00416992
0.00274227
-0.00262007
0.000513016
-0.00406018
-0.00052105
0.00424088
0.00123473
0.00156797
0.00234348
0.00176195
0.00326502
0.00192302
0.00401524
0.00150679
0.004519
0.000973406
0.00476516
0.000539545
0.00479555
0.000220493
0.00465509
-7.1396e-06
0.00438262
-0.000169745
0.00401578
-0.000282879
0.00358963
-0.000355844
0.0031335
-0.000394892
0.00267058
-0.000405558
0.00221786
-0.000392197
0.00178502
-0.000357193
0.00137064
-0.000300332
0.000953571
-0.000221456
0.000474803
-0.000162571
-0.000164499
-0.000504624
-0.000686321
-0.00104463
-0.00115789
-0.00064195
-0.00158809
-0.000429362
-0.00197779
-0.000352399
-0.00233315
-0.000310952
-0.00265576
-0.000273086
-0.00293997
-0.000225862
-0.00317254
-0.000160342
-0.00333409
-6.71522e-05
-0.00340127
6.474e-05
-0.00333346
0.000247333
-0.00309023
0.00051216
-0.00265273
0.000888788
-0.00203667
0.00136956
-0.00110764
0.00166422
0.0005518
0.00108287
0.00147286
-0.000408004
-0.00249401
-0.00670926
-0.00887726
-0.00460569
-0.00302512
-0.00125525
0.000672706
0.00218272
0.00315867
0.00370042
0.00392297
0.00391786
0.00375012
0.00346922
0.00311535
0.00272245
0.00231892
0.00192884
0.00157389
0.00127601
0.00105732
0.000897993
0.000397452
-0.000641155
-0.00127705
-0.00170076
-0.00204788
-0.00235385
-0.00262224
-0.00284366
-0.00299978
-0.00306293
-0.0029944
-0.00274349
-0.00222797
-0.00133603
3.64433e-05
0.00170321
0.00278854
0.00238313
)
;

boundaryField
{
    floor
    {
        type            calculated;
        value           nonuniform List<scalar> 
36
(
0
0
0
0
0
0
0
0
0
0
0
0
0
0
0
0
0
0
0
-4.02747e-06
-1.08511e-05
-1.6747e-05
-2.15469e-05
-2.1761e-05
-2.12325e-05
-2.06339e-05
-1.98169e-06
-3.83387e-06
-4.03171e-06
-4.4065e-06
-3.27715e-06
-6.6863e-06
-7.99191e-06
-9.43838e-06
-1.16524e-05
-1.10876e-05
)
;
    }
    ceiling
    {
        type            calculated;
        value           nonuniform List<scalar> 
43
(
-3.38736e-05
-3.23013e-05
-3.06772e-05
-1.25806e-05
-7.90146e-06
-4.904e-06
-3.19136e-06
-2.50944e-06
-2.16992e-06
-2.02284e-06
-1.99255e-06
-1.96363e-06
-1.94368e-06
-1.93795e-06
-1.95193e-06
-1.9927e-06
-2.07041e-06
-2.20028e-06
-2.40505e-06
-2.71807e-06
-3.19911e-06
-4.02501e-06
-5.94995e-06
-6.02454e-06
-5.6113e-06
-5.24994e-06
-4.93671e-06
-4.65974e-06
-4.41025e-06
-4.18087e-06
-3.96442e-06
-3.75221e-06
-3.53984e-06
-3.32689e-06
-3.10722e-06
-2.87438e-06
-2.50885e-06
-2.42313e-06
-2.56502e-06
-2.00478e-06
1.11175e-05
7.90953e-06
-4.05261e-05
)
;
    }
    sWall
    {
        type            calculated;
        value           uniform -0.000234327;
    }
    nWall
    {
        type            calculated;
        value           nonuniform List<scalar> 6(-6.13246e-05 -6.30243e-05 -6.45847e-05 -8.44263e-05 -9.3274e-05 -0.000108837);
    }
    sideWalls
    {
        type            empty;
        value           nonuniform 0();
    }
    glass1
    {
        type            calculated;
        value           nonuniform List<scalar> 9(-6.27373e-05 -0.000165132 -0.000246931 -0.000312923 -0.000367332 -0.000413173 -0.000453444 -0.00050504 -0.000564155);
    }
    glass2
    {
        type            calculated;
        value           nonuniform List<scalar> 2(-0.000284775 -0.000313568);
    }
    sun
    {
        type            calculated;
        value           uniform 0;
    }
    Table_master
    {
        type            calculated;
        value           nonuniform List<scalar> 9(-1.53452e-07 -1.53611e-07 -1.53645e-07 -1.53648e-07 -1.53642e-07 -1.53632e-07 -1.53619e-07 -1.53598e-07 -1.53547e-07);
    }
    Table_slave
    {
        type            calculated;
        value           nonuniform List<scalar> 9(1.53614e-07 1.53553e-07 1.53396e-07 1.53264e-07 1.53158e-07 1.53091e-07 1.53077e-07 1.53088e-07 1.53148e-07);
    }
    inlet
    {
        type            calculated;
        value           uniform -0.00432423;
    }
    outlet
    {
        type            calculated;
        value           nonuniform List<scalar> 2(0.00697746 0.00220031);
    }
}


// ************************************************************************* //
