/*--------------------------------*- C++ -*----------------------------------*\
  =========                 |
  \\      /  F ield         | OpenFOAM: The Open Source CFD Toolbox
   \\    /   O peration     | Website:  https://openfoam.org
    \\  /    A nd           | Version:  6
     \\/     M anipulation  |
\*---------------------------------------------------------------------------*/
FoamFile
{
    version     2.0;
    format      ascii;
    class       volScalarField;
    location    "800";
    object      k;
}
// * * * * * * * * * * * * * * * * * * * * * * * * * * * * * * * * * * * * * //

dimensions      [0 2 -2 0 0 0 0];

internalField   nonuniform List<scalar> 
458
(
0.00342247
0.00434916
0.0052319
0.00495969
0.00354269
0.00245122
0.00169793
0.00135609
0.00115242
0.00104452
0.000998848
0.000988219
0.00099642
0.00101663
0.00103858
0.000186199
0.000206314
0.000192603
0.000154987
0.000127457
0.000102667
9.63367e-05
0.000107609
0.000127647
0.000151391
0.000173613
0.000186857
0.000189238
0.000200798
0.000220493
0.000270633
0.000305326
0.000213143
0.00396448
0.00804114
0.0133296
0.0182862
0.0173975
0.0124975
0.00749738
0.00415234
0.00255788
0.00194729
0.00173015
0.0016616
0.0016377
0.00158199
0.00143011
0.00127301
0.00115246
0.000600067
0.000327147
0.000661571
0.000579592
0.000379599
0.000216832
0.000136055
0.000144284
0.000200309
0.000282572
0.000371177
0.000452354
0.000524101
0.00058793
0.00064853
0.000713419
0.000743326
0.000851925
0.000297406
0.0076477
0.0101428
0.0103229
0.0110332
0.0126171
0.0131615
0.0123893
0.00988535
0.00523668
0.00299655
0.00237244
0.00219076
0.00215255
0.00213102
0.00205933
0.0019324
0.0017157
0.00141283
0.000807695
0.00113132
0.00082739
0.000645843
0.000478951
0.000156678
0.000161969
0.000197499
0.000238757
0.000286831
0.000345081
0.000420808
0.000528368
0.000703454
0.00103535
0.00100225
0.000986705
0.000743937
0.0199087
0.0185951
0.0155337
0.0130142
0.0118877
0.0118299
0.0118555
0.0110166
0.00813304
0.0045972
0.00313603
0.00273119
0.00265235
0.00265483
0.00263109
0.00252638
0.00230172
0.00195201
0.00166736
0.00162858
0.00131061
0.0010874
0.000916365
0.000799668
0.000743279
0.000744071
0.000746237
0.000750348
0.000761885
0.00078835
0.000839693
0.000929096
0.00111194
0.00169709
0.00196026
0.0019954
0.00134514
0.0239271
0.0234942
0.0176373
0.013431
0.0113522
0.0108248
0.0109215
0.0106265
0.00882755
0.00551178
0.00378497
0.0032155
0.00311928
0.0031852
0.00327274
0.00331145
0.00325979
0.00308561
0.00276044
0.00232301
0.0019784
0.00175055
0.00162116
0.00155162
0.00151563
0.00149952
0.00149838
0.00151522
0.00155892
0.0016442
0.00178907
0.00200773
0.00230292
0.00261677
0.00295156
0.00316808
0.00306591
0.00249428
0.00198806
0.0015417
0.0273574
0.0283394
0.0184793
0.012337
0.0100673
0.00961983
0.00987408
0.00986567
0.00858224
0.00588232
0.00410718
0.00351494
0.00344242
0.00358316
0.0037794
0.00394412
0.00401404
0.00392259
0.00363792
0.00323592
0.00284852
0.00254044
0.00232514
0.00218385
0.00209413
0.00203982
0.00201553
0.00202179
0.00206707
0.00216899
0.00235041
0.00262423
0.00297633
0.0033586
0.003739
0.00407582
0.00419692
0.00374215
0.00256492
0.00169378
0.0313096
0.0330448
0.0178254
0.00975665
0.00857051
0.00855432
0.0089715
0.00908494
0.00804704
0.00590146
0.00425075
0.00365912
0.00363226
0.00384115
0.004129
0.00440235
0.00458772
0.00460861
0.00442904
0.00409885
0.00371729
0.00336513
0.00308119
0.0028712
0.00272593
0.00263413
0.00258955
0.00259099
0.00264366
0.00276102
0.00296148
0.00324482
0.00357912
0.00390866
0.00417346
0.00429447
0.00413508
0.00362431
0.00285441
0.00164237
0.03694
0.0409026
0.0285773
0.00956011
0.0079229
0.00807005
0.00836312
0.00844684
0.00753474
0.00578834
0.00444179
0.00386486
0.00381618
0.00403941
0.00437434
0.00472022
0.0049984
0.00512656
0.00506622
0.00484205
0.0045263
0.00419328
0.00389314
0.00364983
0.00346935
0.00335053
0.00329324
0.00330166
0.00338541
0.00356052
0.00385023
0.00422321
0.00459506
0.00486547
0.00497896
0.00495607
0.00486989
0.00473684
0.00465097
0.0030988
0.0470227
0.0666228
0.0864026
0.0237491
0.00908789
0.00862065
0.00831815
0.00816644
0.00727027
0.00585284
0.00480162
0.00430153
0.00421977
0.0043998
0.00470915
0.00504941
0.00534983
0.00554701
0.0055986
0.00550386
0.00530313
0.00505189
0.00479774
0.00457184
0.00439012
0.00425955
0.00418507
0.00417493
0.00424267
0.0044067
0.00467874
0.00505537
0.00555222
0.0062145
0.00710177
0.00807116
0.00835998
0.00804218
0.00981719
0.00421823
0.176964
0.0668764
0.01388
0.0103416
0.00904309
0.00845245
0.00747924
0.00634393
0.00554826
0.00516027
0.00509393
0.00523302
0.00549275
0.00580388
0.00610353
0.00633856
0.00647252
0.00649494
0.00642302
0.00629026
0.00613203
0.00597643
0.00584176
0.00573826
0.00567189
0.00564768
0.00566827
0.00572148
0.00579741
0.00592173
0.00611904
0.00640926
0.00676354
0.00698455
0.00687283
0.00633019
0.00633912
0.00430164
0.0481599
0.0159187
0.0124358
0.00935772
0.00828019
0.00755112
0.00668613
0.00600495
0.00568102
0.0057269
0.00609549
0.00665928
0.00728104
0.00786525
0.00834233
0.00867286
0.00884929
0.00889316
0.00884533
0.00875173
0.00865122
0.00856914
0.00851628
0.00849114
0.0084829
0.00847338
0.00843547
0.00827188
0.00795497
0.00756203
0.00721887
0.00703775
0.00703764
0.00692976
0.00656556
0.00579759
0.00609871
0.00432764
0.00513725
0.00799057
0.02171
0.00647934
0.004532
0.00505456
0.00522425
0.00494222
0.00447804
0.00405648
0.00371746
0.00345663
0.00326179
0.00314665
0.00310999
0.00312829
0.00317833
0.00323844
0.00329125
0.00332621
0.00334025
0.00333639
0.00332093
0.00330071
0.00328116
0.00326545
0.00325443
0.00324682
0.00323968
0.00324796
0.00325981
0.00325647
0.00322521
0.00315186
0.00302416
0.00290804
0.00274243
0.00247294
0.00238717
0.00301362
)
;

boundaryField
{
    floor
    {
        type            kqRWallFunction;
        value           nonuniform List<scalar> 
36
(
0.00103858
0.000186199
0.000206314
0.000192603
0.000154987
0.000127457
0.000102667
9.63367e-05
0.000107609
0.000127647
0.000151391
0.000173613
0.000186857
0.000189238
0.000200798
0.000220493
0.000270633
0.000305326
0.000213143
0.000213143
0.000297406
0.000743937
0.00134514
0.00249428
0.00198806
0.0015417
0.00103858
0.00127301
0.00115246
0.000600067
0.000186199
0.000600067
0.000327147
0.00141283
0.000807695
0.00166736
)
;
    }
    ceiling
    {
        type            kqRWallFunction;
        value           nonuniform List<scalar> 
43
(
0.00513725
0.00799057
0.02171
0.00647934
0.004532
0.00505456
0.00522425
0.00494222
0.00447804
0.00405648
0.00371746
0.00345663
0.00326179
0.00314665
0.00310999
0.00312829
0.00317833
0.00323844
0.00329125
0.00332621
0.00334025
0.00333639
0.00332093
0.00330071
0.00328116
0.00326545
0.00325443
0.00324682
0.00323968
0.00324796
0.00325981
0.00325647
0.00322521
0.00315186
0.00302416
0.00290804
0.00274243
0.00247294
0.00238717
0.00301362
0.0470227
0.0666228
0.0481599
)
;
    }
    sWall
    {
        type            kqRWallFunction;
        value           uniform 0.00513725;
    }
    nWall
    {
        type            kqRWallFunction;
        value           nonuniform List<scalar> 6(0.0015417 0.00169378 0.00164237 0.00430164 0.00432764 0.00301362);
    }
    sideWalls
    {
        type            empty;
    }
    glass1
    {
        type            kqRWallFunction;
        value           nonuniform List<scalar> 9(0.00342247 0.00396448 0.0076477 0.0199087 0.0239271 0.0273574 0.0313096 0.03694 0.0470227);
    }
    glass2
    {
        type            kqRWallFunction;
        value           nonuniform List<scalar> 2(0.0030988 0.00421823);
    }
    sun
    {
        type            kqRWallFunction;
        value           nonuniform List<scalar> 
14
(
0.00342247
0.00434916
0.0052319
0.00495969
0.00354269
0.00245122
0.00169793
0.00135609
0.00115242
0.00104452
0.000998848
0.000988219
0.00099642
0.00101663
)
;
    }
    Table_master
    {
        type            kqRWallFunction;
        value           nonuniform List<scalar> 9(0.000156678 0.000161969 0.000197499 0.000238757 0.000286831 0.000345081 0.000420808 0.000528368 0.000703454);
    }
    Table_slave
    {
        type            kqRWallFunction;
        value           nonuniform List<scalar> 9(0.000743279 0.000744071 0.000746237 0.000750348 0.000761885 0.00078835 0.000839693 0.000929096 0.00111194);
    }
    inlet
    {
        type            turbulentIntensityKineticEnergyInlet;
        intensity       0.05;
        value           uniform 0.176964;
    }
    outlet
    {
        type            zeroGradient;
    }
}


// ************************************************************************* //
