/*--------------------------------*- C++ -*----------------------------------*\
  =========                 |
  \\      /  F ield         | OpenFOAM: The Open Source CFD Toolbox
   \\    /   O peration     | Website:  https://openfoam.org
    \\  /    A nd           | Version:  6
     \\/     M anipulation  |
\*---------------------------------------------------------------------------*/
FoamFile
{
    version     2.0;
    format      ascii;
    class       volScalarField;
    location    "800";
    object      T;
}
// * * * * * * * * * * * * * * * * * * * * * * * * * * * * * * * * * * * * * //

dimensions      [0 0 0 1 0 0 0];

internalField   nonuniform List<scalar> 
458
(
305.281
305.131
305.112
304.929
304.748
304.649
304.598
304.577
304.565
304.557
304.552
304.548
304.545
304.541
304.535
303.233
303.24
303.242
303.228
303.232
303.235
303.207
303.169
303.15
303.141
303.139
303.138
303.138
303.152
303.183
303.232
303.219
303.18
305.643
305.883
305.967
305.76
305.498
305.145
304.888
304.734
304.656
304.624
304.61
304.6
304.588
304.571
304.546
304.519
304.486
304.407
303.377
303.444
303.496
303.473
303.406
303.383
303.348
303.318
303.303
303.301
303.312
303.342
303.396
303.459
303.53
303.52
303.389
303.223
306.194
306.355
306.371
306.312
306.125
305.839
305.526
305.171
304.821
304.703
304.674
304.662
304.649
304.629
304.597
304.553
304.501
304.45
303.864
303.787
303.791
303.813
303.819
303.494
303.483
303.501
303.522
303.552
303.594
303.651
303.727
303.845
304.003
303.907
303.858
303.878
306.896
306.727
306.679
306.604
306.445
306.198
305.883
305.515
305.101
304.822
304.746
304.73
304.722
304.706
304.677
304.629
304.558
304.458
304.351
304.252
304.282
304.359
304.466
304.563
304.62
304.628
304.632
304.636
304.64
304.643
304.646
304.644
304.621
304.513
304.466
304.43
304.391
306.805
306.536
306.498
306.512
306.46
306.293
306.02
305.666
305.263
304.919
304.822
304.8
304.799
304.795
304.781
304.756
304.72
304.676
304.633
304.6
304.598
304.622
304.653
304.676
304.687
304.691
304.694
304.698
304.703
304.71
304.717
304.723
304.723
304.71
304.707
304.707
304.694
304.718
304.713
304.716
306.712
306.355
306.323
306.403
306.418
306.297
306.051
305.713
305.33
305.005
304.891
304.869
304.871
304.875
304.873
304.86
304.837
304.809
304.779
304.756
304.744
304.742
304.743
304.744
304.743
304.742
304.741
304.743
304.747
304.754
304.763
304.774
304.785
304.794
304.804
304.812
304.817
304.817
304.776
304.741
306.617
306.271
306.259
306.357
306.375
306.265
306.025
305.703
305.352
305.077
304.96
304.935
304.939
304.949
304.954
304.95
304.936
304.915
304.891
304.868
304.849
304.835
304.824
304.814
304.805
304.796
304.789
304.784
304.782
304.786
304.795
304.808
304.821
304.833
304.843
304.85
304.852
304.846
304.821
304.752
306.516
306.252
306.261
306.303
306.294
306.19
305.975
305.685
305.363
305.144
305.044
305.014
305.013
305.021
305.029
305.03
305.022
305.007
304.987
304.965
304.944
304.925
304.907
304.89
304.874
304.859
304.844
304.83
304.819
304.814
304.816
304.825
304.836
304.848
304.859
304.869
304.878
304.887
304.895
304.907
306.425
306.236
306.234
306.176
306.174
306.088
305.913
305.666
305.385
305.221
305.141
305.11
305.102
305.103
305.105
305.105
305.099
305.088
305.071
305.052
305.031
305.01
304.99
304.97
304.951
304.931
304.91
304.889
304.869
304.852
304.841
304.836
304.837
304.841
304.844
304.847
304.852
304.861
304.876
304.93
306.324
305.991
305.997
305.971
305.85
305.649
305.433
305.314
305.25
305.219
305.204
305.196
305.19
305.184
305.174
305.161
305.145
305.126
305.106
305.085
305.065
305.044
305.024
305.003
304.981
304.957
304.932
304.908
304.886
304.869
304.857
304.851
304.848
304.847
304.847
304.848
304.848
304.858
306.079
305.853
305.839
305.858
305.796
305.636
305.498
305.414
305.362
305.33
305.309
305.292
305.276
305.261
305.244
305.227
305.207
305.187
305.166
305.145
305.124
305.103
305.082
305.061
305.04
305.017
304.992
304.967
304.94
304.916
304.896
304.881
304.871
304.865
304.86
304.854
304.847
304.854
307.915
307.459
306.161
305.814
305.742
305.762
305.74
305.628
305.552
305.499
305.46
305.43
305.405
305.381
305.358
305.335
305.312
305.289
305.264
305.24
305.216
305.193
305.17
305.148
305.127
305.107
305.086
305.065
305.043
305.019
304.994
304.968
304.944
304.923
304.906
304.889
304.874
304.858
304.843
304.86
)
;

boundaryField
{
    floor
    {
        type            wallHeatTransfer;
        Tinf            uniform 305.2;
        alphaWall       uniform 0.24;
        value           nonuniform List<scalar> 
36
(
304.63
303.722
303.713
303.724
303.746
303.778
303.813
303.804
303.759
303.719
303.685
303.662
303.651
303.649
303.65
303.66
303.669
303.643
303.663
303.663
303.649
304.089
304.496
304.768
304.768
304.775
304.63
304.609
304.584
304.543
303.722
304.543
303.758
304.545
304.071
304.453
)
;
    }
    ceiling
    {
        type            wallHeatTransfer;
        Tinf            uniform 303.2;
        alphaWall       uniform 0.24;
        value           nonuniform List<scalar> 
43
(
307.546
307.18
306.032
305.628
305.534
305.561
305.543
305.436
305.359
305.302
305.26
305.227
305.199
305.175
305.154
305.133
305.114
305.094
305.073
305.052
305.03
305.009
304.988
304.968
304.949
304.93
304.911
304.891
304.871
304.85
304.827
304.804
304.782
304.761
304.742
304.725
304.708
304.687
304.671
304.701
306.324
306.154
305.989
)
;
    }
    sWall
    {
        type            wallHeatTransfer;
        Tinf            uniform 315.2;
        alphaWall       uniform 0.36;
        value           uniform 308.741;
    }
    nWall
    {
        type            wallHeatTransfer;
        Tinf            uniform 307.2;
        alphaWall       uniform 0.36;
        value           nonuniform List<scalar> 6(305.149 305.156 305.169 305.139 305.135 305.181);
    }
    sideWalls
    {
        type            empty;
    }
    glass1
    {
        type            wallHeatTransfer;
        Tinf            uniform 315.2;
        alphaWall       uniform 4.3;
        value           nonuniform List<scalar> 9(311.697 311.687 311.278 310.721 310.504 310.329 310.149 309.937 309.66);
    }
    glass2
    {
        type            wallHeatTransfer;
        Tinf            uniform 307.2;
        alphaWall       uniform 4.3;
        value           nonuniform List<scalar> 2(306.405 306.344);
    }
    sun
    {
        type            wallHeatTransfer;
        Tinf            uniform 305.2;
        alphaWall       uniform 0.24;
        value           nonuniform List<scalar> 
14
(
305.273
305.137
305.119
304.95
304.788
304.706
304.669
304.658
304.652
304.648
304.645
304.642
304.639
304.635
)
;
    }
    Table_master
    {
        type            zeroGradient;
    }
    Table_slave
    {
        type            zeroGradient;
    }
    inlet
    {
        type            fixedValue;
        value           uniform 290.15;
    }
    outlet
    {
        type            zeroGradient;
    }
}


// ************************************************************************* //
