/*--------------------------------*- C++ -*----------------------------------*\
  =========                 |
  \\      /  F ield         | OpenFOAM: The Open Source CFD Toolbox
   \\    /   O peration     | Website:  https://openfoam.org
    \\  /    A nd           | Version:  6
     \\/     M anipulation  |
\*---------------------------------------------------------------------------*/
FoamFile
{
    version     2.0;
    format      ascii;
    class       volScalarField;
    location    "1400";
    object      T;
}
// * * * * * * * * * * * * * * * * * * * * * * * * * * * * * * * * * * * * * //

dimensions      [0 0 0 1 0 0 0];

internalField   nonuniform List<scalar> 
458
(
304.053
303.775
303.766
303.765
303.764
303.763
303.761
303.76
303.758
303.756
303.752
303.747
303.739
303.731
303.721
303.651
303.644
303.641
303.639
303.638
303.636
303.635
303.634
303.633
303.632
303.63
303.629
303.627
303.625
303.623
303.621
303.619
303.622
304.254
303.809
303.788
303.791
303.796
303.799
303.801
303.802
303.802
303.8
303.794
303.782
303.765
303.742
303.715
303.696
303.682
303.674
303.643
303.637
303.634
303.633
303.632
303.629
303.626
303.622
303.618
303.615
303.612
303.608
303.605
303.603
303.601
303.6
303.601
303.611
304.453
303.853
303.814
303.823
303.836
303.848
303.858
303.866
303.871
303.872
303.865
303.849
303.822
303.787
303.748
303.713
303.685
303.665
303.641
303.638
303.638
303.639
303.64
303.635
303.629
303.623
303.618
303.612
303.607
303.601
303.597
303.593
303.591
303.59
303.591
303.604
304.642
303.911
303.839
303.852
303.873
303.894
303.915
303.932
303.945
303.95
303.945
303.924
303.888
303.84
303.786
303.736
303.693
303.66
303.647
303.639
303.641
303.644
303.647
303.648
303.647
303.646
303.644
303.642
303.64
303.638
303.635
303.632
303.628
303.613
303.6
303.591
303.6
304.818
303.985
303.869
303.874
303.899
303.928
303.957
303.985
304.007
304.02
304.018
303.995
303.951
303.891
303.824
303.759
303.704
303.664
303.644
303.639
303.644
303.651
303.655
303.657
303.657
303.656
303.655
303.652
303.65
303.646
303.642
303.637
303.631
303.621
303.608
303.595
303.595
303.594
303.594
303.635
304.968
304.082
303.928
303.899
303.917
303.946
303.978
304.012
304.044
304.068
304.073
304.048
303.997
303.927
303.85
303.775
303.711
303.665
303.642
303.639
303.648
303.657
303.663
303.665
303.666
303.665
303.663
303.66
303.656
303.652
303.646
303.64
303.633
303.624
303.613
303.6
303.595
303.592
303.591
303.635
305.09
304.242
304.091
304.005
303.977
303.979
303.999
304.028
304.06
304.097
304.103
304.074
304.016
303.94
303.857
303.777
303.709
303.662
303.639
303.639
303.652
303.663
303.669
303.672
303.673
303.672
303.67
303.667
303.662
303.656
303.649
303.641
303.633
303.624
303.615
303.604
303.597
303.593
303.593
303.629
305.293
304.664
304.5
304.345
304.221
304.147
304.115
304.11
304.124
304.137
304.121
304.073
304.002
303.919
303.834
303.755
303.692
303.65
303.632
303.639
303.656
303.668
303.675
303.679
303.68
303.68
303.678
303.675
303.67
303.664
303.657
303.649
303.638
303.63
303.623
303.616
303.613
303.614
303.622
303.74
305.577
305.304
305.006
304.771
304.583
304.443
304.347
304.285
304.243
304.187
304.11
304.024
303.935
303.849
303.771
303.704
303.655
303.627
303.623
303.641
303.66
303.673
303.68
303.685
303.687
303.688
303.688
303.686
303.683
303.68
303.677
303.675
303.677
303.682
303.694
303.712
303.738
303.766
303.791
303.847
297.074
301.51
302.98
303.501
303.723
303.817
303.843
303.844
303.824
303.791
303.75
303.705
303.66
303.623
303.603
303.6
303.616
303.644
303.663
303.676
303.684
303.69
303.695
303.698
303.7
303.701
303.703
303.704
303.706
303.709
303.712
303.719
303.729
303.745
303.764
303.784
303.802
303.819
297.997
301.355
302.448
303.028
303.328
303.472
303.535
303.556
303.569
303.573
303.571
303.562
303.551
303.546
303.561
303.585
303.62
303.645
303.663
303.676
303.685
303.692
303.698
303.703
303.708
303.712
303.715
303.719
303.722
303.725
303.728
303.734
303.741
303.752
303.764
303.778
303.779
303.802
300.332
300.255
300.25
302.143
302.69
303.018
303.285
303.365
303.404
303.422
303.436
303.448
303.459
303.469
303.479
303.503
303.569
303.601
303.623
303.639
303.652
303.662
303.671
303.679
303.686
303.693
303.698
303.704
303.709
303.713
303.718
303.722
303.727
303.731
303.737
303.743
303.755
303.76
303.758
303.791
)
;

boundaryField
{
    floor
    {
        type            wallHeatTransfer;
        Tinf            uniform 305.2;
        alphaWall       uniform 0.24;
        value           nonuniform List<scalar> 
36
(
303.899
303.911
303.916
303.92
303.921
303.923
303.927
303.932
303.937
303.941
303.946
303.951
303.955
303.96
303.965
303.97
303.977
303.985
304.01
304.01
303.964
303.937
303.914
303.88
303.869
303.897
303.899
303.873
303.872
303.875
303.911
303.875
303.874
303.843
303.852
303.833
)
;
    }
    ceiling
    {
        type            wallHeatTransfer;
        Tinf            uniform 303.2;
        alphaWall       uniform 0.24;
        value           nonuniform List<scalar> 
43
(
300.52
300.436
300.421
302.201
302.72
303.029
303.28
303.353
303.389
303.404
303.415
303.425
303.433
303.44
303.445
303.462
303.518
303.547
303.567
303.579
303.588
303.596
303.602
303.608
303.614
303.62
303.626
303.632
303.638
303.644
303.65
303.656
303.663
303.669
303.676
303.684
303.698
303.701
303.696
303.722
305.464
305.218
298.277
)
;
    }
    sWall
    {
        type            wallHeatTransfer;
        Tinf            uniform 315.2;
        alphaWall       uniform 0.36;
        value           uniform 301.754;
    }
    nWall
    {
        type            wallHeatTransfer;
        Tinf            uniform 307.2;
        alphaWall       uniform 0.36;
        value           nonuniform List<scalar> 6(304.461 304.321 304.234 304.333 304.312 304.355);
    }
    sideWalls
    {
        type            empty;
    }
    glass1
    {
        type            wallHeatTransfer;
        Tinf            uniform 315.2;
        alphaWall       uniform 4.3;
        value           nonuniform List<scalar> 9(312.413 311.673 311.175 310.772 310.438 310.15 309.91 309.952 310.149);
    }
    glass2
    {
        type            wallHeatTransfer;
        Tinf            uniform 307.2;
        alphaWall       uniform 4.3;
        value           nonuniform List<scalar> 2(305.984 306.03);
    }
    sun
    {
        type            wallHeatTransfer;
        Tinf            uniform 305.2;
        alphaWall       uniform 0.24;
        value           nonuniform List<scalar> 
14
(
304.215
303.969
303.963
303.957
303.952
303.948
303.944
303.94
303.936
303.932
303.928
303.922
303.915
303.908
)
;
    }
    Table_master
    {
        type            zeroGradient;
    }
    Table_slave
    {
        type            zeroGradient;
    }
    inlet
    {
        type            fixedValue;
        value           uniform 292.15;
    }
    outlet
    {
        type            zeroGradient;
    }
}


// ************************************************************************* //
