/*--------------------------------*- C++ -*----------------------------------*\
  =========                 |
  \\      /  F ield         | OpenFOAM: The Open Source CFD Toolbox
   \\    /   O peration     | Website:  https://openfoam.org
    \\  /    A nd           | Version:  6
     \\/     M anipulation  |
\*---------------------------------------------------------------------------*/
FoamFile
{
    version     2.0;
    format      ascii;
    class       volScalarField;
    location    "1300";
    object      alphat;
}
// * * * * * * * * * * * * * * * * * * * * * * * * * * * * * * * * * * * * * //

dimensions      [1 -1 -1 0 0 0 0];

internalField   nonuniform List<scalar> 
458
(
0.00137371
0.00151774
0.00156842
0.00165186
0.00173153
0.00181114
0.00189004
0.00194806
0.00197644
0.00196939
0.00192396
0.00183691
0.00166739
0.00143678
0.00119943
0.000623082
0.000743198
0.000874971
0.000945727
0.000944197
0.000882855
0.000813542
0.000751919
0.000699006
0.000653432
0.000613946
0.000579364
0.000548794
0.000521011
0.00049448
0.000467037
0.000437198
0.000390635
0.00179801
0.00459507
0.0045331
0.00530277
0.0060862
0.00679139
0.00731704
0.00779425
0.00818682
0.00846158
0.00858949
0.00853791
0.00824697
0.00757253
0.00541257
0.00158488
0.00134573
0.0010826
0.000601166
0.00166891
0.00255896
0.00324653
0.0034204
0.00234097
0.00193462
0.00166987
0.0014796
0.00133651
0.0012248
0.00113554
0.00105247
0.000962238
0.000873027
0.0007936
0.000799013
0.000436153
0.0021458
0.00625227
0.00568145
0.00674698
0.00732331
0.00775868
0.00811141
0.00850031
0.00891834
0.00933623
0.009704
0.00992795
0.00992993
0.00962687
0.00876687
0.00684756
0.00504977
0.00136987
0.000904586
0.0018463
0.00294386
0.00394978
0.00413979
0.00120018
0.00103563
0.000899662
0.000790435
0.000702973
0.000632594
0.000575531
0.000530132
0.000496819
0.00055875
0.000649912
0.000879662
0.000468294
0.00247618
0.00777239
0.00579296
0.00700444
0.0072959
0.00744763
0.00764979
0.00796429
0.00839071
0.00890674
0.00943529
0.00980647
0.00999717
0.00996727
0.0096528
0.0088887
0.00741535
0.00399725
0.00157226
0.00196017
0.00291973
0.00421971
0.00536082
0.00540067
0.00136565
0.00123478
0.00113819
0.00106146
0.000995442
0.000937816
0.000883335
0.000827927
0.000766818
0.000708386
0.000679129
0.000944043
0.000514748
0.00281501
0.00971234
0.00631521
0.00698207
0.00724076
0.0072101
0.00731533
0.0075643
0.00799415
0.00855542
0.00912388
0.00956226
0.00979578
0.00982625
0.0096947
0.00938883
0.00868381
0.00719888
0.00632516
0.00665101
0.0072589
0.00787358
0.00823963
0.00807862
0.0066938
0.00590099
0.00539726
0.00502128
0.0046752
0.00425015
0.00374093
0.00314682
0.0024875
0.00184665
0.00134969
0.00116152
0.000802171
0.000601736
0.00062992
0.00065595
0.00317913
0.0118829
0.00842775
0.00743223
0.00765386
0.00743571
0.0073565
0.00748196
0.0078936
0.00850417
0.00913165
0.0095949
0.00980561
0.00980006
0.00970064
0.0096228
0.00956892
0.00942045
0.00959245
0.0100511
0.0103767
0.0104562
0.0102533
0.00976282
0.00898629
0.00828245
0.00769876
0.00718154
0.00667547
0.00610763
0.00546515
0.00473158
0.00390738
0.00304533
0.00228238
0.00170685
0.00124243
0.00116449
0.00154167
0.00088284
0.00350182
0.0133442
0.0114059
0.00941476
0.00866825
0.00789419
0.00749412
0.0075674
0.00806039
0.00878858
0.00949585
0.0099674
0.0101316
0.0100905
0.0100687
0.010287
0.0107408
0.011223
0.0117101
0.0120356
0.0120064
0.0116632
0.011076
0.010332
0.00953113
0.00879764
0.00814592
0.00754728
0.00697711
0.00641969
0.00586149
0.00524886
0.00456287
0.00381354
0.00309174
0.00245422
0.00192083
0.00166562
0.00180697
0.00107132
0.00355921
0.0114465
0.0104575
0.00922538
0.00807409
0.00734813
0.00722332
0.00767385
0.00852461
0.00948805
0.0102571
0.0106487
0.010699
0.0106565
0.0108682
0.0114524
0.0119739
0.0123576
0.012595
0.0125692
0.0121842
0.0115066
0.0106426
0.00970091
0.00878447
0.0079656
0.00724664
0.0066014
0.00601865
0.00551194
0.00510706
0.00479165
0.00440447
0.00393269
0.00349344
0.00314696
0.0029262
0.00273896
0.00337876
0.00141994
0.00346341
0.00408624
0.00442101
0.0045218
0.00485334
0.00565653
0.0068918
0.00837047
0.00980225
0.0108719
0.0113634
0.0113346
0.0111947
0.0113761
0.011661
0.0119131
0.0120673
0.0120962
0.0119477
0.0115412
0.0108644
0.00997204
0.00896861
0.00796793
0.00705691
0.00626756
0.00557556
0.00494878
0.0043786
0.00387215
0.00343333
0.00307399
0.00279894
0.002582
0.00242761
0.00233322
0.00226458
0.00218198
0.00207746
0.00138332
0.00139153
0.00354714
0.00721271
0.00976185
0.0114123
0.0123489
0.0126574
0.0124721
0.0119199
0.0112937
0.0109482
0.0108876
0.0108393
0.0107071
0.0104982
0.0101786
0.00968026
0.00897901
0.00813628
0.00726167
0.00643588
0.0057071
0.0050829
0.00453788
0.00404199
0.00358211
0.00317122
0.00283322
0.0025835
0.00241376
0.0023079
0.00225045
0.00222653
0.00221345
0.00217261
0.00206006
0.00184153
0.0011796
0.00222541
0.007917
0.0107342
0.0117331
0.0119109
0.0115616
0.0108853
0.010113
0.00943127
0.00887968
0.00846436
0.00812724
0.00782811
0.00755874
0.00728792
0.00696786
0.00657134
0.00611841
0.0056625
0.00524864
0.00488963
0.00457389
0.00428074
0.00399236
0.00370143
0.00341197
0.0031345
0.00288192
0.00266654
0.00249723
0.00237908
0.00231064
0.00227836
0.00225318
0.0022055
0.00215795
0.00176906
0.00122311
0.00207254
0.00220844
0.00230524
0.00253396
0.00244056
0.00235683
0.00226567
0.00213315
0.00197174
0.00180419
0.00165175
0.00153235
0.00144958
0.00139527
0.00135894
0.00133181
0.00130713
0.00128038
0.00124979
0.00121655
0.0011832
0.00115154
0.00112193
0.00109388
0.00106703
0.0010418
0.00101959
0.00100251
0.000992549
0.00099097
0.000998309
0.00101458
0.00103962
0.0010733
0.00111468
0.00115881
0.00118823
0.00111379
0.00106857
0.00132498
)
;

boundaryField
{
    floor
    {
        type            compressible::alphatWallFunction;
        Prt             0.85;
        value           nonuniform List<scalar> 
36
(
0.000170104
8.78577e-05
0.00010556
0.000124588
0.000134663
0.000134446
0.000125716
0.000115764
0.000106832
9.90915e-05
9.23679e-05
8.64964e-05
8.13159e-05
7.67046e-05
7.24862e-05
6.84314e-05
6.42083e-05
5.95805e-05
5.22766e-05
5.2276e-05
5.94177e-05
6.4403e-05
7.15334e-05
8.46766e-05
8.88844e-05
9.27539e-05
0.000170102
0.000222396
0.000190146
0.000153899
8.78567e-05
0.000153897
8.45854e-05
0.000193431
0.000128825
0.000220714
)
;
    }
    ceiling
    {
        type            compressible::alphatWallFunction;
        Prt             0.85;
        value           nonuniform List<scalar> 
43
(
0.000286493
0.000304065
0.000316511
0.000345843
0.000334008
0.000323336
0.000311658
0.000294579
0.000273615
0.000251651
0.000231472
0.00021552
0.000204381
0.000197033
0.000192101
0.000188406
0.000185041
0.000181383
0.000177191
0.000172622
0.000168023
0.000163645
0.000159537
0.000155632
0.000151885
0.000148353
0.000145235
0.000142832
0.000141428
0.000141205
0.000142239
0.000144528
0.000148044
0.000152757
0.000158524
0.000164648
0.000168716
0.000158402
0.0001521
0.000187491
0.000462088
0.000537992
0.000306001
)
;
    }
    sWall
    {
        type            compressible::alphatWallFunction;
        Prt             0.85;
        value           uniform 0.000285305;
    }
    nWall
    {
        type            compressible::alphatWallFunction;
        Prt             0.85;
        value           nonuniform List<scalar> 6(9.25808e-05 0.000125544 0.000152156 0.000167223 0.000173219 0.000187181);
    }
    sideWalls
    {
        type            empty;
    }
    glass1
    {
        type            compressible::alphatWallFunction;
        Prt             0.85;
        value           nonuniform List<scalar> 9(0.000189461 0.000245482 0.000290424 0.000332467 0.000375025 0.000420204 0.000459842 0.000466981 0.000455505);
    }
    glass2
    {
        type            compressible::alphatWallFunction;
        Prt             0.85;
        value           nonuniform List<scalar> 2(0.000199064 0.000194171);
    }
    sun
    {
        type            compressible::alphatWallFunction;
        Prt             0.85;
        value           nonuniform List<scalar> 
14
(
0.000193962
0.000213396
0.000220187
0.000231319
0.000241889
0.000252398
0.000262764
0.000270357
0.000274062
0.000273142
0.000267208
0.000255792
0.000233395
0.000202496
)
;
    }
    Table_master
    {
        type            compressible::alphatWallFunction;
        Prt             0.85;
        value           nonuniform List<scalar> 9(0.000170303 0.000147423 0.000128197 0.000112503 9.97503e-05 8.93483e-05 8.081e-05 7.39419e-05 6.88554e-05);
    }
    Table_slave
    {
        type            compressible::alphatWallFunction;
        Prt             0.85;
        value           nonuniform List<scalar> 9(0.000192956 0.000175069 0.00016173 0.000151041 0.000141773 0.000133625 0.000125866 0.000117918 0.000109078);
    }
    inlet
    {
        type            fixedValue;
        value           uniform 1.94e-05;
    }
    outlet
    {
        type            zeroGradient;
    }
}


// ************************************************************************* //
