/*--------------------------------*- C++ -*----------------------------------*\
  =========                 |
  \\      /  F ield         | OpenFOAM: The Open Source CFD Toolbox
   \\    /   O peration     | Website:  https://openfoam.org
    \\  /    A nd           | Version:  6
     \\/     M anipulation  |
\*---------------------------------------------------------------------------*/
FoamFile
{
    version     2.0;
    format      ascii;
    class       volScalarField;
    location    "3000";
    object      k;
}
// * * * * * * * * * * * * * * * * * * * * * * * * * * * * * * * * * * * * * //

dimensions      [0 2 -2 0 0 0 0];

internalField   nonuniform List<scalar> 
458
(
0.00226476
0.00269551
0.00276125
0.00302647
0.0032841
0.00353216
0.00377941
0.00404115
0.00423882
0.00434109
0.00432044
0.00416256
0.00387814
0.00351068
0.00312074
0.000424652
0.000666409
0.000841876
0.000835699
0.000792688
0.000711
0.00062671
0.00055337
0.000491529
0.000439351
0.000395538
0.000358191
0.000325745
0.000296762
0.000269704
0.000242544
0.000220906
0.000180432
0.0043355
0.00822519
0.0045819
0.00484338
0.00528737
0.00578657
0.00632016
0.00686283
0.00736797
0.00773532
0.00786661
0.0076916
0.00718211
0.0063532
0.00521347
0.00351272
0.00215574
0.0010925
0.00052632
0.00115923
0.00137192
0.00142875
0.00137438
0.00118716
0.000998381
0.000842271
0.000717525
0.000617504
0.000535702
0.000467873
0.000410743
0.000363494
0.000331406
0.000313199
0.000476342
0.000291139
0.00656812
0.0152904
0.00589809
0.00564849
0.00608167
0.00665796
0.00731116
0.0080123
0.0086656
0.00914376
0.00935395
0.00924032
0.00879755
0.00808286
0.00721714
0.00621776
0.00476329
0.0022615
0.00213025
0.00204568
0.00196537
0.00186733
0.00172507
0.0013487
0.00105152
0.00083722
0.00068259
0.000569227
0.00048464
0.000420447
0.000371409
0.000335012
0.000311093
0.000310615
0.000642971
0.000380322
0.00914126
0.0250224
0.00773992
0.00609226
0.00640023
0.007046
0.00785072
0.00875172
0.00952159
0.0100364
0.0102635
0.0101741
0.0097671
0.00908827
0.0082115
0.00728015
0.00625984
0.00558833
0.00385954
0.00323594
0.00285163
0.00256348
0.00231228
0.00205917
0.00158877
0.00132175
0.00116751
0.00107018
0.000997666
0.000928502
0.000855466
0.000782483
0.000700019
0.000538896
0.000434394
0.000786295
0.000477221
0.0121838
0.0376284
0.0117937
0.00696145
0.00686778
0.0075782
0.00868229
0.00982631
0.010607
0.0110349
0.0111901
0.0110589
0.0106076
0.00983753
0.00881355
0.00765789
0.0064884
0.00549921
0.00464088
0.00398612
0.00344577
0.00299536
0.00262034
0.00230226
0.00204292
0.00189926
0.00182762
0.00177813
0.00171983
0.00163085
0.00149186
0.0013188
0.00112615
0.000896111
0.000687871
0.000736165
0.000718889
0.000682815
0.000746759
0.000770134
0.0158421
0.0506594
0.0208648
0.0104287
0.00905183
0.00962182
0.0110396
0.0119428
0.012332
0.0124484
0.0124093
0.0121742
0.011627
0.0106989
0.00942913
0.00796912
0.00654637
0.00540315
0.00460386
0.00403906
0.00354272
0.00308279
0.00268706
0.00237825
0.00219217
0.00213275
0.00213059
0.00213382
0.00211524
0.0020527
0.00192408
0.001715
0.001475
0.0012183
0.000986297
0.000850757
0.000787104
0.000958566
0.00236257
0.00135227
0.0194535
0.0586205
0.0347597
0.0212623
0.0174351
0.0164868
0.016099
0.0154792
0.0148777
0.0144322
0.0140943
0.0136687
0.0129272
0.0117399
0.0101482
0.00835052
0.00664635
0.00533265
0.00446942
0.00388186
0.00338565
0.00293617
0.00256879
0.00231734
0.00220569
0.00221165
0.00226845
0.00233411
0.00238911
0.00241583
0.00239076
0.0022544
0.00203124
0.00177879
0.00156227
0.00142352
0.00138441
0.00160864
0.00342617
0.00209231
0.0200779
0.0563821
0.0408639
0.0342186
0.0294788
0.0252179
0.0216447
0.0191359
0.017613
0.01679
0.0162667
0.0156226
0.0145322
0.0128779
0.0107912
0.00855565
0.00652208
0.00504952
0.00411823
0.00348606
0.00299686
0.00259996
0.00231869
0.00216599
0.002133
0.00218637
0.00228593
0.00241018
0.00255291
0.002714
0.00289467
0.0030913
0.0031852
0.00319384
0.00333173
0.00378766
0.00476613
0.00589423
0.0117809
0.00387172
0.0188986
0.026127
0.0250386
0.0221762
0.0200659
0.0188191
0.0184083
0.0186205
0.0191165
0.019459
0.0192395
0.0181858
0.0162309
0.0135743
0.0106692
0.00791787
0.00560345
0.00426774
0.00345971
0.00290143
0.00248224
0.00218233
0.00200534
0.00193842
0.00195521
0.00202808
0.00213762
0.0022761
0.00244314
0.00264114
0.00287174
0.0031322
0.00341374
0.00374732
0.0042064
0.00478439
0.00537217
0.00580939
0.00611282
0.00367409
0.00743841
0.0197789
0.0248817
0.0279299
0.0294372
0.0295824
0.0283513
0.0259064
0.0225798
0.0187207
0.0145812
0.0105481
0.00752095
0.0053739
0.00396869
0.00313513
0.00260323
0.00223035
0.00196709
0.00179887
0.00171066
0.00168224
0.00169468
0.00173611
0.00180136
0.0018901
0.00200522
0.00215213
0.00233888
0.00257711
0.00288785
0.00325413
0.00366942
0.00407793
0.00434317
0.00430272
0.00395107
0.00244195
0.00855678
0.0235802
0.0271852
0.0263653
0.0258009
0.0243516
0.0218248
0.018661
0.015292
0.0120164
0.00904841
0.00659744
0.00485211
0.00371993
0.00303837
0.00264299
0.00240049
0.00223782
0.00211543
0.00201325
0.00193119
0.00187454
0.00184074
0.00182974
0.0018434
0.00188498
0.00195921
0.00207246
0.00223243
0.002449
0.00273851
0.00310211
0.00352089
0.00392784
0.00425011
0.00443328
0.00403494
0.00251615
0.0062757
0.00732906
0.0081317
0.00958935
0.00943926
0.00919269
0.00882948
0.00817425
0.00725532
0.00618181
0.00506371
0.0039953
0.00305816
0.00231521
0.00179002
0.00144468
0.00122129
0.00107359
0.00097337
0.000906064
0.000864718
0.000847155
0.000849282
0.000865159
0.000894449
0.000937399
0.000994578
0.00106693
0.00115609
0.00126502
0.0013993
0.00156606
0.00175809
0.001979
0.00223153
0.0025085
0.00278955
0.00269036
0.00228017
0.00193979
)
;

boundaryField
{
    floor
    {
        type            kqRWallFunction;
        value           nonuniform List<scalar> 
36
(
0.00312074
0.000424652
0.000666409
0.000841876
0.000835699
0.000792688
0.000711
0.00062671
0.00055337
0.000491529
0.000439351
0.000395538
0.000358191
0.000325745
0.000296762
0.000269704
0.000242544
0.000220906
0.000180432
0.000180432
0.000291139
0.000380322
0.000477221
0.000682815
0.000746759
0.000770134
0.00312074
0.00351272
0.00215574
0.0010925
0.000424652
0.0010925
0.00052632
0.0022615
0.00213025
0.00385954
)
;
    }
    ceiling
    {
        type            kqRWallFunction;
        value           nonuniform List<scalar> 
43
(
0.0062757
0.00732906
0.0081317
0.00958935
0.00943926
0.00919269
0.00882948
0.00817425
0.00725532
0.00618181
0.00506371
0.0039953
0.00305816
0.00231521
0.00179002
0.00144468
0.00122129
0.00107359
0.00097337
0.000906064
0.000864718
0.000847155
0.000849282
0.000865159
0.000894449
0.000937399
0.000994578
0.00106693
0.00115609
0.00126502
0.0013993
0.00156606
0.00175809
0.001979
0.00223153
0.0025085
0.00278955
0.00269036
0.00228017
0.00193979
0.0188986
0.026127
0.00855678
)
;
    }
    sWall
    {
        type            kqRWallFunction;
        value           uniform 0.0062757;
    }
    nWall
    {
        type            kqRWallFunction;
        value           nonuniform List<scalar> 6(0.000770134 0.00135227 0.00209231 0.00244195 0.00251615 0.00193979);
    }
    sideWalls
    {
        type            empty;
    }
    glass1
    {
        type            kqRWallFunction;
        value           nonuniform List<scalar> 9(0.00226476 0.0043355 0.00656812 0.00914126 0.0121838 0.0158421 0.0194535 0.0200779 0.0188986);
    }
    glass2
    {
        type            kqRWallFunction;
        value           nonuniform List<scalar> 2(0.00387172 0.00367409);
    }
    sun
    {
        type            kqRWallFunction;
        value           nonuniform List<scalar> 
14
(
0.00226476
0.00269551
0.00276125
0.00302647
0.0032841
0.00353216
0.00377941
0.00404115
0.00423882
0.00434109
0.00432044
0.00416256
0.00387814
0.00351068
)
;
    }
    Table_master
    {
        type            kqRWallFunction;
        value           nonuniform List<scalar> 9(0.0013487 0.00105152 0.00083722 0.00068259 0.000569227 0.00048464 0.000420447 0.000371409 0.000335012);
    }
    Table_slave
    {
        type            kqRWallFunction;
        value           nonuniform List<scalar> 9(0.00158877 0.00132175 0.00116751 0.00107018 0.000997666 0.000928502 0.000855466 0.000782483 0.000700019);
    }
    inlet
    {
        type            turbulentIntensityKineticEnergyInlet;
        intensity       0.05;
        value           uniform 0.0003375;
    }
    outlet
    {
        type            zeroGradient;
    }
}


// ************************************************************************* //
