/*--------------------------------*- C++ -*----------------------------------*\
  =========                 |
  \\      /  F ield         | OpenFOAM: The Open Source CFD Toolbox
   \\    /   O peration     | Website:  https://openfoam.org
    \\  /    A nd           | Version:  6
     \\/     M anipulation  |
\*---------------------------------------------------------------------------*/
FoamFile
{
    version     2.0;
    format      ascii;
    class       surfaceScalarField;
    location    "1200";
    object      phi;
}
// * * * * * * * * * * * * * * * * * * * * * * * * * * * * * * * * * * * * * //

dimensions      [1 0 -1 0 0 0 0];

internalField   nonuniform List<scalar> 
850
(
-0.00309364
0.003148
-0.00432688
0.001233
-0.00506432
0.000737215
-0.0054299
0.000365417
-0.00541053
-1.94702e-05
-0.00499033
-0.000420203
-0.00419035
-0.000799931
-0.0031015
-0.00108875
-0.00187545
-0.00122597
-0.000695963
-0.00117948
0.000240767
-0.000936822
0.000842643
-0.000602005
0.00110187
-0.000259358
0.000935047
0.000166701
0.000936736
-0.000878785
0.000881077
-0.000692894
-0.000185954
-5.31959e-05
-0.000639763
0.000607583
-0.000660846
0.00113212
-0.000524608
0.0014336
-0.000301537
0.00156615
-0.000132619
0.00163467
-6.85773e-05
0.00167685
-4.22397e-05
0.00170134
-2.45449e-05
0.00171286
-1.15703e-05
0.00171185
9.54204e-07
0.00169026
2.15349e-05
0.0016244
6.58047e-05
0.00147326
0.00015109
0.00121009
0.000263112
0.000818356
0.000391677
0.000821232
-0.00222687
0.00552263
-0.00336939
0.00237532
-0.00414674
0.00151445
-0.00456158
0.000780286
-0.00459791
1.70458e-05
-0.00424859
-0.000769169
-0.00355309
-0.00149495
-0.00261838
-0.0020229
-0.00159057
-0.00225323
-0.000609784
-0.00215982
0.000208934
-0.00175531
0.000811742
-0.00120477
0.00118962
-0.000637299
0.00142942
-7.32095e-05
0.00196044
0.000405601
0.00154536
0.000417908
0.000958451
0.000590063
0.000967704
-3.44393e-07
0.000888531
0.000423383
-0.000609746
0.000818986
-0.00103544
0.00116583
-0.00100776
0.0014502
-0.000809044
0.00152288
-0.000374293
0.00153515
-0.000144956
0.0015479
-8.13864e-05
0.00155797
-5.23738e-05
0.0015638
-3.04317e-05
0.00156681
-1.46341e-05
0.00156683
8.81088e-07
0.00156024
2.80699e-05
0.00151913
0.000106856
0.00135149
0.000318672
0.0010562
0.000558347
0.000661774
0.000786049
0.00149102
-0.00157072
0.00732083
-0.00254129
0.00334574
-0.00326588
0.00223902
-0.00366794
0.00118253
-0.00372192
7.14368e-05
-0.00339836
-0.00109213
-0.00276654
-0.00212602
-0.00195547
-0.00283307
-0.0010988
-0.00310895
-0.000297656
-0.00296011
0.000383927
-0.00243628
0.000919236
-0.00173973
0.0013028
-0.00102073
0.00158302
-0.000353438
0.00178135
0.000207188
0.00161823
0.000580924
0.00115314
0.00105506
0.00212891
0.0012732
-0.000375087
0.00155303
-0.000889638
0.00160685
-0.00108933
0.00169277
-0.00109376
0.0019204
-0.00103675
0.00154619
0.00140131
0.00132001
0.00126773
0.00123739
0.00122286
0.00122384
0.001252
0.00135896
0.00114229
0.000535289
0.000869917
0.000830659
0.000508611
0.0011473
0.00201223
-0.00109381
0.00871111
-0.00184246
0.00409426
-0.0023654
0.00276197
-0.00266122
0.00147859
-0.00264254
5.31998e-05
-0.00227698
-0.00145709
-0.00169809
-0.0027041
-0.00104045
-0.0034897
-0.000398953
-0.00374933
0.000177105
-0.00353505
0.000680695
-0.00293897
0.00109221
-0.0021506
0.00140173
-0.00132986
0.00162798
-0.000579521
0.001786
4.91786e-05
0.00183443
0.000532444
0.00193065
0.000958751
0.00287587
0.00118359
0.00253255
0.000351927
0.00242275
-0.000265367
0.00224547
-0.000712441
0.00205243
-0.000896372
0.00186386
-0.000905266
0.00157235
-0.000745322
0.00189604
-0.000323915
0.00203124
-0.00013543
0.002097
-6.59802e-05
0.00212014
-2.3367e-05
0.00209978
2.01424e-05
0.00202763
7.19336e-05
0.00188707
0.000140348
0.0016469
0.00023995
0.00124846
0.000398231
0.0010645
0.00071919
0.000787577
0.00110752
0.000428597
0.00150622
0.00245738
-0.000750554
0.00981781
-0.00127839
0.00462198
-0.00142448
0.00290804
-0.00146168
0.00151594
-0.0012158
-0.00019242
-0.000765811
-0.00190666
-0.000278657
-0.00319061
0.000150675
-0.00391811
0.000497045
-0.00409461
0.000778888
-0.00381575
0.0010303
-0.00318933
0.00124177
-0.00236122
0.00140803
-0.00149552
0.00154359
-0.000714734
0.00167036
-7.74452e-05
0.00180647
0.000396352
0.00204834
0.000716831
0.00244131
0.000790554
0.00245023
0.000342928
0.00235048
-0.00016569
0.00213744
-0.000499478
0.00189369
-0.000652698
0.00165217
-0.000663817
0.00145403
-0.000547254
0.00144959
-0.000319555
0.00146639
-0.000152291
0.00146809
-6.77559e-05
0.00146193
-1.72755e-05
0.00144924
3.27685e-05
0.00142209
9.90169e-05
0.00136706
0.000195319
0.0012715
0.000335449
0.00113614
0.000533531
0.00102402
0.000831247
0.000920852
0.00121064
0.000725979
0.00170103
0.0010359
0.00214739
-0.000918897
0.00196945
-0.00155185
0.000645555
-0.00149455
-0.000606434
0.0108317
-0.000888352
0.00490378
-0.000438669
0.00245827
7.44029e-05
0.00100285
0.000657885
-0.000775848
0.00114133
-0.00238987
0.00144331
-0.00349214
0.00155824
-0.00403234
0.00154145
-0.00407691
0.00145811
-0.00373137
0.00136631
-0.00309651
0.00128935
-0.00228338
0.00123762
-0.00144312
0.0012237
-0.000700365
0.00126275
-0.000116267
0.00136165
0.000297529
0.00154084
0.000537638
0.00177737
0.000553977
0.00184864
0.000271599
0.00174694
-6.40558e-05
0.00155163
-0.000304232
0.00132342
-0.000424548
0.00109831
-0.000438774
0.000915091
-0.000364108
0.000824726
-0.000229259
0.000792962
-0.000120595
0.000788103
-6.29637e-05
0.000802911
-3.21481e-05
0.000833232
2.38398e-06
0.000870373
6.18123e-05
0.000906459
0.000159171
0.000939169
0.000302678
0.000971837
0.000500803
0.00103734
0.000765685
0.00117825
0.00106967
0.00142216
0.00145707
0.00184311
0.00172637
0.00214127
0.00167123
0.00168021
0.00110655
0.000240706
-0.000492968
0.0117806
-0.000193937
0.00460462
0.00113407
0.00113013
0.00221008
-7.33464e-05
0.0029932
-0.00155902
0.00337533
-0.00277188
0.00338274
-0.0034992
0.00309523
-0.00374428
0.00262099
-0.00360194
0.00207496
-0.00318449
0.00155865
-0.00257933
0.00112993
-0.00185388
0.000820289
-0.00113288
0.000636558
-0.000516225
0.000580072
-5.95583e-05
0.000632568
0.000245123
0.000765417
0.000404803
0.000919037
0.000400332
0.000966361
0.000224231
0.000890103
1.21433e-05
0.000735611
-0.0001498
0.000545331
-0.000234331
0.000353823
-0.00024733
0.000195499
-0.00020585
0.000102871
-0.000136697
6.82815e-05
-8.6071e-05
7.2771e-05
-6.75178e-05
0.000108181
-6.76223e-05
0.000175847
-6.53447e-05
0.000273294
-3.56964e-05
0.000390524
4.18776e-05
0.000527917
0.000165224
0.000693618
0.000335039
0.000906925
0.000552317
0.00119455
0.000781981
0.00159916
0.0010524
0.00215926
0.00116622
0.00285495
0.000975482
0.00298615
0.000975277
0.00328511
0.00298886
0.0093037
0.00394617
0.00364718
0.00476383
0.000312321
0.00577973
-0.00108935
0.00622185
-0.00200109
0.00607451
-0.00262433
0.00545875
-0.00288308
0.0045261
-0.00281116
0.00343479
-0.00251005
0.00234002
-0.00208907
0.00137546
-0.00161412
0.000617998
-0.00109586
0.000105891
-0.000620349
-0.000171721
-0.000238341
-0.000263583
3.24482e-05
-0.000231257
0.000212873
-0.000132581
0.000306146
-3.12496e-05
0.000298986
-4.01835e-06
0.000196965
-6.08878e-05
6.89649e-05
-0.000178575
-3.21701e-05
-0.000326153
-8.68151e-05
-0.000472408
-0.000101139
-0.000590495
-8.78281e-05
-0.000661529
-6.5728e-05
-0.000690607
-5.70586e-05
-0.000690669
-6.75198e-05
-0.000668682
-8.96733e-05
-0.000622552
-0.000111539
-0.000539945
-0.000118368
-0.000408681
-8.94497e-05
-0.000237107
-6.41373e-06
-2.29598e-05
0.000120829
0.000247655
0.00028164
0.000563387
0.000466188
0.000949666
0.000666057
0.00139571
0.000720119
0.00177277
0.000598357
0.00113199
0.001616
0.00465111
0.00986772
0.0135077
0.0124857
0.00133424
0.0115407
-0.000144186
0.0102816
-0.000741717
0.00870533
-0.00104766
0.00690826
-0.00108563
0.00504689
-0.000949441
0.0032626
-0.000725431
0.00169779
-0.000523889
0.000460189
-0.00037617
-0.000376992
-0.000258419
-0.000847881
-0.000149249
-0.00106752
-1.85643e-05
-0.00113579
0.00010081
-0.00111387
0.00019101
-0.00104972
0.000242005
-0.00099004
0.000239293
-0.000978643
0.000185535
-0.00102237
0.000112646
-0.0011049
5.02974e-05
-0.00120477
1.29828e-05
-0.00130453
-1.43932e-06
-0.00138931
-3.12199e-06
-0.00145225
-2.84448e-06
-0.00150096
-8.42333e-06
-0.00154934
-1.91998e-05
-0.00161134
-2.77423e-05
-0.00170028
-2.26593e-05
-0.00182815
9.43895e-06
-0.00199907
8.13965e-05
-0.00221145
0.000205912
-0.00249281
0.000402119
-0.00289953
0.000688301
-0.00350517
0.00107176
-0.0043815
0.00154233
-0.00565871
0.00199727
-0.00721828
0.00215786
-0.00688907
0.00128673
-0.00198248
0.00378501
0.00226861
0.00292551
0.000715509
0.0028564
-0.000672665
0.00240801
-0.0005995
0.00161392
-0.000291828
0.000676085
-1.18791e-05
-0.000211415
0.000161924
-0.000900029
0.00016484
-0.00137283
9.6778e-05
-0.00168072
4.95889e-05
-0.00187227
4.23883e-05
-0.00196393
7.31566e-05
-0.00198267
0.0001196
-0.00195844
0.000166797
-0.00191578
0.000199336
-0.00188207
0.000205562
-0.00188108
0.000184507
-0.00191732
0.000148835
-0.00198023
0.000113147
-0.00205368
8.63626e-05
-0.00212486
6.96742e-05
-0.00218771
5.96643e-05
-0.00224296
5.23393e-05
-0.00229688
4.54232e-05
-0.00235687
4.07261e-05
-0.00242781
4.31289e-05
-0.00251003
5.95013e-05
-0.00259947
9.88049e-05
-0.00269028
0.00017215
-0.00278168
0.000297238
-0.00287279
0.000493173
-0.00296209
0.00077753
-0.0030394
0.00114902
-0.00306662
0.00156948
-0.00300751
0.00193809
-0.00267557
0.00182587
-0.00137765
-1.12555e-05
-0.00329519
-0.000582976
0.00289091
-0.0004287
0.000560539
-0.00117428
7.25296e-05
-0.00182239
4.83646e-05
-0.00226328
0.000148896
-0.00250116
0.000225899
-0.00259053
0.000251233
-0.00263912
0.000213431
-0.00268751
0.000145195
-0.00273107
9.31733e-05
-0.00275971
7.1055e-05
-0.00276138
7.48419e-05
-0.00273522
9.34437e-05
-0.00268603
0.000117596
-0.00262527
0.000138541
-0.00256929
0.000149538
-0.00253312
0.000148289
-0.00252223
0.00013788
-0.00253249
0.00012335
-0.00255522
0.000109023
-0.00258274
9.71275e-05
-0.00261112
8.79744e-05
-0.00263964
8.07875e-05
-0.00266898
7.46953e-05
-0.00269836
7.00432e-05
-0.00272408
6.87815e-05
-0.0027393
7.4651e-05
-0.002734
9.3435e-05
-0.00269488
0.000132967
-0.00260186
0.000204154
-0.00242983
0.00032108
-0.00215354
0.000501177
-0.00174663
0.000742035
-0.00116302
0.000985811
-0.000228724
0.00100373
0.00110615
0.000490932
0.00170497
-0.000610137
-0.00151955
0.00280956
-0.00836534
-0.00545519
-0.00488999
-0.00481804
-0.00477253
-0.00462801
-0.00440783
-0.0041636
-0.00395838
-0.00382245
-0.00373937
-0.00367905
-0.00361549
-0.00353384
-0.00342858
-0.00330295
-0.00316694
-0.00303283
-0.00290976
-0.00280179
-0.00270862
-0.00262771
-0.00255623
-0.00249215
-0.00243432
-0.00238122
-0.00232938
-0.00227156
-0.00219473
-0.00207801
-0.00188964
-0.00158381
-0.00109728
-0.000369299
0.000603031
0.00159337
0.00207043
0.00144558
)
;

boundaryField
{
    floor
    {
        type            calculated;
        value           nonuniform List<scalar> 
36
(
0
0
0
0
0
0
0
0
0
0
0
0
0
0
0
0
0
0
0
-2.93399e-06
-8.07517e-06
-1.26588e-05
-1.6606e-05
-1.47095e-05
-1.26697e-05
-1.18805e-05
-1.79713e-06
-2.94025e-06
-3.24755e-06
-3.70622e-06
-2.35219e-06
-5.63585e-06
-7.16784e-06
-8.15289e-06
-9.64348e-06
-8.69227e-06
)
;
    }
    ceiling
    {
        type            calculated;
        value           nonuniform List<scalar> 
43
(
1.41724e-05
-1.10436e-05
-1.96887e-05
-4.92905e-06
3.93497e-07
2.73258e-06
4.28376e-06
5.64586e-06
6.93611e-06
8.16398e-06
9.22422e-06
1.00575e-05
1.07069e-05
1.12511e-05
1.17615e-05
1.22864e-05
1.28534e-05
1.34687e-05
1.41134e-05
1.47442e-05
1.53113e-05
1.57814e-05
1.61486e-05
1.64277e-05
1.66379e-05
1.67887e-05
1.68735e-05
1.6873e-05
1.6765e-05
1.65348e-05
1.61827e-05
1.57226e-05
1.51784e-05
1.4583e-05
1.39874e-05
1.34164e-05
1.33245e-05
1.38045e-05
1.46505e-05
1.64034e-05
9.74337e-06
7.06081e-06
-3.97671e-05
)
;
    }
    sWall
    {
        type            calculated;
        value           uniform -0.000187981;
    }
    nWall
    {
        type            calculated;
        value           nonuniform List<scalar> 6(-4.54777e-05 -5.51118e-05 -5.83155e-05 -6.50059e-05 -7.07379e-05 -9.04412e-05);
    }
    sideWalls
    {
        type            empty;
        value           nonuniform 0();
    }
    glass1
    {
        type            calculated;
        value           nonuniform List<scalar> 9(-5.45402e-05 -0.000147906 -0.000227593 -0.000296567 -0.000356228 -0.00040759 -0.000455974 -0.000512044 -0.000573847);
    }
    glass2
    {
        type            calculated;
        value           nonuniform List<scalar> 2(-0.000234069 -0.000255546);
    }
    sun
    {
        type            calculated;
        value           uniform 0;
    }
    Table_master
    {
        type            calculated;
        value           nonuniform List<scalar> 9(-1.52798e-07 -1.52975e-07 -1.53025e-07 -1.5305e-07 -1.53063e-07 -1.53067e-07 -1.53064e-07 -1.53047e-07 -1.53002e-07);
    }
    Table_slave
    {
        type            calculated;
        value           nonuniform List<scalar> 9(1.52634e-07 1.52645e-07 1.52611e-07 1.52591e-07 1.52581e-07 1.5258e-07 1.52599e-07 1.52643e-07 1.52724e-07);
    }
    inlet
    {
        type            calculated;
        value           uniform -0.00471907;
    }
    outlet
    {
        type            calculated;
        value           nonuniform List<scalar> 2(-0.0026363 0.0111855);
    }
}


// ************************************************************************* //
