/*--------------------------------*- C++ -*----------------------------------*\
  =========                 |
  \\      /  F ield         | OpenFOAM: The Open Source CFD Toolbox
   \\    /   O peration     | Website:  https://openfoam.org
    \\  /    A nd           | Version:  6
     \\/     M anipulation  |
\*---------------------------------------------------------------------------*/
FoamFile
{
    version     2.0;
    format      ascii;
    class       volScalarField;
    location    "2200";
    object      k;
}
// * * * * * * * * * * * * * * * * * * * * * * * * * * * * * * * * * * * * * //

dimensions      [0 2 -2 0 0 0 0];

internalField   nonuniform List<scalar> 
458
(
0.00392426
0.00484974
0.00529328
0.00594853
0.0066661
0.00747206
0.00820319
0.00874093
0.00892725
0.00799567
0.00699082
0.00595656
0.00494761
0.00409186
0.00325541
0.000755108
0.00102512
0.00140783
0.00167173
0.00166895
0.00144822
0.00122284
0.00104056
0.000897492
0.000784338
0.000694038
0.000621064
0.0005608
0.000510294
0.000465884
0.000423622
0.00038441
0.000322703
0.00630017
0.0113447
0.00789302
0.0086076
0.00973906
0.0111162
0.0125347
0.013609
0.0141295
0.0133018
0.0115677
0.00979091
0.00808103
0.00642148
0.00469707
0.00395667
0.00314397
0.00225382
0.000714362
0.00133833
0.00222822
0.00275489
0.0028925
0.00245549
0.00196841
0.00157984
0.00128877
0.00106988
0.000903382
0.000775162
0.000675219
0.000590519
0.000527175
0.000487585
0.000612982
0.000410075
0.00864965
0.0186624
0.00911905
0.00913891
0.0101215
0.0114871
0.0127212
0.0136516
0.0143213
0.0140263
0.0125755
0.0107948
0.00912859
0.00751492
0.00594847
0.00482484
0.00397707
0.0026758
0.000919944
0.0017376
0.00252531
0.00314546
0.00334994
0.00258467
0.00193892
0.00147266
0.00114249
0.000906524
0.000734795
0.000607336
0.000511643
0.000447215
0.000419438
0.000430331
0.00082228
0.000483481
0.011191
0.0284191
0.0108215
0.00951074
0.0103557
0.0117969
0.0127159
0.0135331
0.014372
0.0143095
0.0129489
0.0110162
0.00921745
0.00769407
0.00634335
0.00521529
0.00428708
0.0032691
0.0029073
0.00274508
0.00312271
0.00372321
0.00420209
0.00430457
0.00354583
0.00298166
0.00256535
0.00224703
0.00197545
0.0017264
0.00148796
0.00125331
0.00101225
0.000675364
0.000522072
0.00114713
0.000565436
0.0140693
0.0412991
0.0147853
0.0107124
0.0116445
0.0130939
0.0135026
0.0142438
0.0151393
0.0150705
0.0134975
0.0111517
0.00901137
0.0074261
0.00628415
0.00540276
0.00470967
0.00425623
0.00458741
0.00485572
0.0052733
0.00569054
0.00586294
0.0056799
0.00521185
0.00475953
0.00438948
0.00398205
0.00351397
0.00299762
0.00245528
0.00191411
0.00140451
0.000945141
0.000680185
0.000968728
0.000978467
0.000905651
0.00102441
0.00124875
0.0174679
0.0552584
0.0238293
0.014475
0.0153257
0.0154104
0.0151145
0.015682
0.0165605
0.0163417
0.0143054
0.0113067
0.00868976
0.00702099
0.00617649
0.00573845
0.00557969
0.00578789
0.00644681
0.00712921
0.00757812
0.00767599
0.00738589
0.00678181
0.00606897
0.00546915
0.00493768
0.00440268
0.00383405
0.00324347
0.00265507
0.00209608
0.00160157
0.00118939
0.000953198
0.000961622
0.00108083
0.00112347
0.00166447
0.0013748
0.0206794
0.0638278
0.0374056
0.024692
0.0213367
0.0185557
0.0173306
0.017742
0.0185604
0.0180058
0.0151962
0.0113038
0.00828186
0.00681619
0.00644343
0.00649912
0.00684759
0.00751641
0.00837759
0.00900116
0.00906985
0.00867251
0.00792502
0.00698723
0.00604251
0.00532777
0.00475828
0.00422924
0.00371531
0.00322723
0.00277949
0.00236815
0.00203543
0.00176825
0.00162851
0.00160829
0.00173236
0.0019829
0.00261103
0.00213448
0.021356
0.0589028
0.0430698
0.0334419
0.0256777
0.021037
0.0196114
0.0202976
0.021046
0.0197955
0.0156515
0.0105311
0.00795883
0.00715034
0.0071222
0.00744271
0.0079899
0.008699
0.00931709
0.00946603
0.00903962
0.00820295
0.00717427
0.00615841
0.005316
0.00468761
0.00419669
0.00378907
0.00345977
0.00322278
0.00308821
0.00305584
0.00312381
0.0032966
0.00362144
0.00432359
0.00548677
0.00706175
0.0144687
0.00425728
0.0203123
0.0284585
0.0259672
0.0227621
0.0202237
0.0197967
0.0213537
0.023434
0.0237276
0.0207063
0.0137253
0.00943308
0.00791675
0.00754511
0.00764885
0.00796464
0.00836016
0.00869889
0.00876819
0.00841412
0.00768803
0.0067624
0.00582036
0.00498728
0.0043171
0.00379203
0.00337144
0.00304055
0.00281442
0.00272019
0.00277708
0.00298485
0.00332831
0.00378819
0.00433785
0.00493953
0.00550825
0.00594464
0.00621115
0.00362516
0.00634026
0.0108504
0.0173711
0.0237878
0.0275948
0.0279402
0.0223165
0.0146264
0.0100746
0.00826367
0.00761977
0.00747718
0.00754415
0.00766781
0.00773851
0.00765185
0.00731966
0.00674122
0.00601262
0.00525848
0.00457021
0.00398538
0.00350142
0.00309898
0.00276849
0.00251911
0.00236968
0.00233558
0.00242342
0.00263483
0.00296984
0.00342154
0.00396051
0.0045128
0.00494541
0.00512092
0.00468341
0.00240794
0.0120427
0.0448465
0.0449714
0.0347324
0.0258543
0.0183519
0.0125951
0.0092231
0.00751271
0.00679623
0.00652541
0.0064496
0.00644154
0.00642456
0.00634322
0.00615658
0.00584797
0.00544135
0.00499179
0.00455468
0.00416507
0.00383488
0.00356211
0.00334102
0.00316743
0.00303823
0.00294899
0.0028961
0.00288436
0.00293297
0.00306998
0.00331152
0.00363591
0.00398904
0.0041551
0.00428668
0.0030128
0.002522
0.0127235
0.013689
0.0146068
0.0183076
0.0134207
0.00888858
0.00677222
0.00548953
0.00456848
0.00395567
0.00360525
0.0034212
0.00332616
0.00327114
0.00322339
0.00315937
0.0030631
0.00292728
0.00275635
0.00256646
0.002378
0.00220665
0.00205931
0.00193582
0.00183281
0.00174683
0.00167585
0.00161942
0.00157873
0.00155747
0.00156266
0.00160449
0.00169461
0.00184238
0.00204558
0.00229964
0.00229474
0.00188631
0.00171139
0.00225421
)
;

boundaryField
{
    floor
    {
        type            kqRWallFunction;
        value           nonuniform List<scalar> 
36
(
0.00325541
0.000755108
0.00102512
0.00140783
0.00167173
0.00166895
0.00144822
0.00122284
0.00104056
0.000897492
0.000784338
0.000694038
0.000621064
0.0005608
0.000510294
0.000465884
0.000423622
0.00038441
0.000322703
0.000322703
0.000410075
0.000483481
0.000565436
0.000905651
0.00102441
0.00124875
0.00325541
0.00395667
0.00314397
0.00225382
0.000755108
0.00225382
0.000714362
0.0026758
0.000919944
0.0029073
)
;
    }
    ceiling
    {
        type            kqRWallFunction;
        value           nonuniform List<scalar> 
43
(
0.0127235
0.013689
0.0146068
0.0183076
0.0134207
0.00888858
0.00677222
0.00548953
0.00456848
0.00395567
0.00360525
0.0034212
0.00332616
0.00327114
0.00322339
0.00315937
0.0030631
0.00292728
0.00275635
0.00256646
0.002378
0.00220665
0.00205931
0.00193582
0.00183281
0.00174683
0.00167585
0.00161942
0.00157873
0.00155747
0.00156266
0.00160449
0.00169461
0.00184238
0.00204558
0.00229964
0.00229474
0.00188631
0.00171139
0.00225421
0.0203123
0.0284585
0.0120427
)
;
    }
    sWall
    {
        type            kqRWallFunction;
        value           uniform 0.0127235;
    }
    nWall
    {
        type            kqRWallFunction;
        value           nonuniform List<scalar> 6(0.00124875 0.0013748 0.00213448 0.00240794 0.002522 0.00225421);
    }
    sideWalls
    {
        type            empty;
    }
    glass1
    {
        type            kqRWallFunction;
        value           nonuniform List<scalar> 9(0.00392426 0.00630017 0.00864965 0.011191 0.0140693 0.0174679 0.0206794 0.021356 0.0203123);
    }
    glass2
    {
        type            kqRWallFunction;
        value           nonuniform List<scalar> 2(0.00425728 0.00362516);
    }
    sun
    {
        type            kqRWallFunction;
        value           nonuniform List<scalar> 
14
(
0.00392426
0.00484974
0.00529328
0.00594853
0.0066661
0.00747206
0.00820319
0.00874093
0.00892725
0.00799567
0.00699082
0.00595656
0.00494761
0.00409186
)
;
    }
    Table_master
    {
        type            kqRWallFunction;
        value           nonuniform List<scalar> 9(0.00258467 0.00193892 0.00147266 0.00114249 0.000906524 0.000734795 0.000607336 0.000511643 0.000447215);
    }
    Table_slave
    {
        type            kqRWallFunction;
        value           nonuniform List<scalar> 9(0.00354583 0.00298166 0.00256535 0.00224703 0.00197545 0.0017264 0.00148796 0.00125331 0.00101225);
    }
    inlet
    {
        type            turbulentIntensityKineticEnergyInlet;
        intensity       0.05;
        value           uniform 0.0009375;
    }
    outlet
    {
        type            zeroGradient;
    }
}


// ************************************************************************* //
