/*--------------------------------*- C++ -*----------------------------------*\
  =========                 |
  \\      /  F ield         | OpenFOAM: The Open Source CFD Toolbox
   \\    /   O peration     | Website:  https://openfoam.org
    \\  /    A nd           | Version:  6
     \\/     M anipulation  |
\*---------------------------------------------------------------------------*/
FoamFile
{
    version     2.0;
    format      ascii;
    class       surfaceScalarField;
    location    "1600";
    object      phi;
}
// * * * * * * * * * * * * * * * * * * * * * * * * * * * * * * * * * * * * * //

dimensions      [1 0 -1 0 0 0 0];

internalField   nonuniform List<scalar> 
850
(
-0.00328602
0.0033347
-0.00452584
0.0012394
-0.00453642
1.01821e-05
-0.00320016
-0.00133662
-0.000202537
-0.00299789
0.00308461
-0.00328774
0.00548161
-0.00239754
0.00702071
-0.00153963
0.00787314
-0.000852934
0.00818266
-0.000310021
0.00803606
0.000146099
0.00745012
0.000585438
0.00633173
0.00111788
0.00430601
0.00202521
0.00430606
-0.00129381
0.00129155
-0.00142093
0.000126203
-0.000472969
-0.000948836
0.000832145
-0.00130596
0.00197789
-0.00114659
0.00267197
-0.000694931
0.00300121
-0.000330089
0.00319565
-0.000195289
0.00333839
-0.000143606
0.00344639
-0.000108862
0.00352805
-8.25513e-05
0.00358069
-5.35294e-05
0.00357712
2.64663e-06
0.003459
0.000117182
0.00313291
0.000325119
0.00251459
0.000617314
0.00149721
0.00101633
0.0014935
-0.00225074
0.00571891
-0.00323978
0.00222805
-0.00324806
1.80862e-05
-0.00214603
-0.00243899
3.71425e-06
-0.00514805
0.00235251
-0.00563726
0.00426383
-0.00430965
0.00553575
-0.00281231
0.00623057
-0.00154848
0.00648536
-0.000565489
0.00640792
0.00022288
0.0060743
0.000918419
0.00557126
0.00162031
0.00519312
0.00240277
0.00628236
0.00321626
0.0039155
0.00236715
0.00197785
0.00193793
0.00197944
-2.85366e-05
0.00131474
0.000587883
-0.000491143
0.00141269
-0.00177449
0.00215205
-0.00204615
0.00276169
-0.00175706
0.0029157
-0.000849776
0.00294429
-0.000359505
0.0029759
-0.000227734
0.0030035
-0.000172051
0.00302349
-0.000129704
0.00303984
-9.97584e-05
0.00305361
-6.81927e-05
0.00304752
7.81428e-06
0.002957
0.000206753
0.00261409
0.000667034
0.00200347
0.0012269
0.00110888
0.00190984
0.0025934
-0.00155481
0.00747955
-0.00232806
0.00300093
-0.00237665
6.63525e-05
-0.00144308
-0.00337284
0.000183898
-0.00677543
0.00185744
-0.00731169
0.00327886
-0.00573214
0.00419816
-0.00373264
0.00465749
-0.00200874
0.00479877
-0.000707617
0.00474739
0.000273469
0.00460896
0.00105611
0.0044887
0.00173987
0.00449733
0.00239349
0.00464536
0.00306762
0.00395258
0.00305934
0.0026959
0.00319401
0.00467665
0.00121612
9.07456e-05
0.00244083
-0.00171667
0.00299705
-0.0023315
0.00334194
-0.00239184
0.00388311
-0.00229904
0.00303266
0.00267248
0.00244407
0.00227134
0.00214095
0.00204047
0.00197151
0.00197848
0.00218432
0.00187562
0.000974645
0.00147561
0.00162579
0.000844119
0.0025402
0.00342285
-0.00108837
0.00883628
-0.0016872
0.00359941
-0.00167798
5.68506e-05
-0.000738481
-0.00431252
0.000451357
-0.00796562
0.00155841
-0.00841976
0.00247484
-0.00664993
0.00297551
-0.00423462
0.00311781
-0.00215219
0.00307298
-0.000663775
0.00299111
0.000354457
0.0029689
0.00107754
0.00304334
0.0016647
0.00322212
0.00221403
0.00352993
0.00275917
0.0037053
0.00288334
0.00397762
0.00292106
0.00578777
0.00286587
0.0047985
0.000990216
0.00522465
-0.000336074
0.00486281
-0.00135552
0.0044344
-0.00190384
0.00398462
-0.00194285
0.00325615
-0.00157139
0.0038578
-0.000602651
0.00400762
-0.000150823
0.00397968
2.69227e-05
0.00384246
0.000136205
0.00361699
0.00022446
0.00331336
0.000302622
0.0029258
0.000386564
0.00242057
0.000504228
0.00170721
0.00071237
0.00144683
0.00123406
0.00115675
0.0019148
0.000818864
0.00287694
0.00422116
-0.000771144
0.00993102
-0.00119175
0.00401968
-0.000873949
-0.000261212
0.000156847
-0.00534339
0.000893474
-0.00870257
0.00146083
-0.00898821
0.00184015
-0.00703087
0.00186807
-0.00426413
0.00163667
-0.00192212
0.00138381
-0.000411973
0.0012859
0.0004515
0.00137864
0.000984023
0.00162336
0.00141926
0.00200588
0.00183082
0.00255982
0.00220457
0.00315555
0.00228696
0.00387256
0.0022034
0.00480695
0.00193083
0.00501788
0.000778615
0.00504054
-0.000359425
0.00473399
-0.00104972
0.00420621
-0.00137684
0.00361634
-0.00135383
0.00307754
-0.00103346
0.00293555
-0.00046156
0.00278611
-2.27603e-06
0.00256255
0.000249575
0.00231841
0.000379437
0.00207174
0.000470228
0.00181917
0.00055429
0.00155307
0.000651771
0.00126898
0.000787422
0.000992172
0.000988284
0.000866079
0.00135919
0.000909433
0.00187039
0.00120331
0.00258192
0.00173534
0.00368792
-0.000168209
0.00187646
2.70469e-06
-0.000199108
-5.647e-05
-0.000613646
0.0109193
-0.000634435
0.00404017
0.00035824
-0.0012541
0.00130372
-0.00628885
0.00161341
-0.00901254
0.00161715
-0.00899312
0.00139672
-0.00681229
0.0008953
-0.00376454
0.000288512
-0.00131671
-6.06237e-05
-6.38515e-05
-0.000105097
0.000495149
7.79599e-05
0.000800184
0.000424494
0.00107199
0.000909585
0.00134501
0.00153196
0.00158148
0.00219419
0.00162404
0.00289005
0.00150684
0.00363301
0.00118717
0.00396492
0.000445957
0.00385176
-0.000247046
0.0034838
-0.000682601
0.00296055
-0.000854469
0.00239187
-0.000786061
0.00187754
-0.000520063
0.00151997
-0.00010494
0.00126364
0.000253113
0.00105946
0.000452815
0.000875111
0.000562845
0.000703389
0.000641018
0.000543164
0.000713585
0.000398643
0.00079536
0.00028487
0.000900262
0.000230446
0.00104177
0.000313556
0.0012751
0.000564085
0.00161879
0.000963581
0.00218129
0.00149615
0.00315414
0.00174017
0.00163121
0.000354349
0.00118545
0.000268933
-0.000163626
0.0115131
0.000524217
0.00335203
0.00222202
-0.00295203
0.00290597
-0.0069727
0.00274515
-0.00885201
0.00204738
-0.00829661
0.00109178
-0.0058587
-2.43905e-05
-0.0026504
-0.000795
-0.000547354
-0.00107938
0.000219548
-0.00106535
0.000480241
-0.000878699
0.000612692
-0.000550094
0.000742558
-8.83294e-05
0.00088243
0.000484059
0.00100829
0.00107543
0.00103187
0.00164615
0.000935309
0.00213872
0.000693771
0.00230079
0.000283014
0.00213912
-8.62903e-05
0.00177627
-0.000320687
0.00130086
-0.00038003
0.000790844
-0.000277025
0.000319757
-4.99628e-05
-1.64612e-05
0.000230292
-0.000210577
0.000446253
-0.000334031
0.000575301
-0.000431474
0.000659325
-0.000513127
0.00072171
-0.000574404
0.000773901
-0.000603067
0.000823059
-0.000580092
0.000876315
-0.000482718
0.00094341
-0.000266261
0.00105763
7.12596e-05
0.00128021
0.000527054
0.00172437
0.0010783
0.0026017
0.000888026
0.00182027
-9.27167e-06
0.00208148
0.000226534
0.00337526
0.00862932
0.00460881
0.00211817
0.00537029
-0.0037135
0.00531745
-0.00691971
0.00427059
-0.00780555
0.00253519
-0.00656264
0.000604969
-0.00393066
-0.000967823
-0.00107962
-0.00166179
0.00014533
-0.00186936
0.000426086
-0.00184005
0.000449947
-0.00167839
0.000450063
-0.00141664
0.000479846
-0.0010704
0.000535232
-0.000656238
0.000593176
-0.00023314
0.000607822
0.000140634
0.000560574
0.000390516
0.000442908
0.000413606
0.000258922
0.000234
9.23027e-05
-9.20698e-05
4.35972e-06
-0.000494844
2.1716e-05
-0.000890873
0.000117976
-0.00120085
0.000258991
-0.00137951
0.000407938
-0.00146583
0.000531572
-0.00150932
0.000617798
-0.00152899
0.000678
-0.00152714
0.000718861
-0.00149705
0.000742812
-0.00142717
0.000752172
-0.00130412
0.00075225
-0.00111779
0.000756058
-0.00085993
0.000798724
-0.000521597
0.000940798
-2.51795e-05
0.00122683
0.00063169
0.00194366
0.000737172
0.00171361
0.00101335
0.00180415
0.00111993
0.00917751
0.0112883
0.0101108
-0.00253573
0.00796368
-0.0047725
0.00524558
-0.0050882
0.00210781
-0.0034267
-0.000742054
-0.00108323
-0.00221042
0.000387131
-0.00267047
0.000604162
-0.00275293
0.000507408
-0.00269594
0.000391828
-0.00256862
0.000321622
-0.00239168
0.000301788
-0.002176
0.000318446
-0.00193598
0.000352057
-0.00170748
0.000378223
-0.00153037
0.000382377
-0.00144531
0.000356758
-0.00148902
0.00030153
-0.00164581
0.000248006
-0.0018691
0.000226574
-0.00209829
0.000249823
-0.00228867
0.000307291
-0.00241404
0.000383308
-0.00246971
0.000462563
-0.00247156
0.000532381
-0.00244057
0.000585771
-0.00238524
0.000621631
-0.00230554
0.000638116
-0.00219747
0.000633678
-0.00205576
0.000609395
-0.00187603
0.000571432
-0.0016561
0.000535033
-0.00138866
0.000530172
-0.00104539
0.000596413
-0.000589859
0.000770167
0.000140525
0.00121213
0.000488482
0.00136453
0.000915116
0.00137641
0.00190492
0.008948
-0.000635711
0.00557864
-0.0014042
0.00180275
-0.00131409
-0.00153827
-8.84786e-05
-0.00341696
0.000793655
-0.00384733
0.000816136
-0.00387276
0.000628323
-0.00380363
0.000437038
-0.00371339
0.000300348
-0.00361761
0.00022462
-0.00351568
0.000198631
-0.00340667
0.000208233
-0.00329503
0.000239227
-0.00319496
0.000276968
-0.00312329
0.000309546
-0.00309508
0.000327395
-0.0031206
0.000325909
-0.00318847
0.000314747
-0.00327149
0.000308474
-0.003339
0.000316223
-0.00337098
0.000338172
-0.00335926
0.000370491
-0.00330523
0.000407445
-0.00321644
0.000442503
-0.00310161
0.000469842
-0.00296618
0.000485093
-0.00281371
0.000484533
-0.00264707
0.000465905
-0.00246853
0.000429704
-0.00227927
0.000381008
-0.0020771
0.000331693
-0.00184973
0.000301628
-0.00157474
0.000320255
-0.00125017
0.000444449
-0.00081894
0.000779767
-0.000576818
0.0011213
-0.000166039
0.000964555
0.00171055
-0.00210472
0.00144749
-0.00371738
0.000206931
-0.00518645
0.000153351
-0.00569356
0.000417024
-0.0055278
0.000626467
-0.00528158
0.00056859
-0.00507094
0.000416383
-0.00491912
0.000283938
-0.004816
0.000195962
-0.004741
0.000148363
-0.00467586
0.00013224
-0.00460828
0.000139429
-0.00453268
0.000162402
-0.00445036
0.000193451
-0.0043672
0.000225197
-0.00429136
0.000250392
-0.00423041
0.000263791
-0.00418351
0.000266704
-0.00414101
0.000264831
-0.00408968
0.000263757
-0.00401897
0.000266323
-0.00392277
0.000273152
-0.00379932
0.000282859
-0.00365046
0.000292505
-0.00348054
0.000298765
-0.00329558
0.000298973
-0.00310353
0.000291303
-0.00291402
0.000275211
-0.00273752
0.000252
-0.00258311
0.000225384
-0.00245394
0.00020131
-0.00234002
0.000186495
-0.00221159
0.000190636
-0.0020125
0.000244204
-0.00163876
0.000404893
-0.00112051
0.000601952
-0.000775144
0.000618112
0.000898596
0.00362746
-0.00974494
-0.00834868
-0.00819624
-0.00810344
-0.00775206
-0.0071953
-0.00669924
-0.00635707
-0.00614832
-0.00602807
-0.00595563
-0.00589937
-0.00583591
-0.00574951
-0.00563227
-0.00548371
-0.00531066
-0.00512518
-0.00493792
-0.00475368
-0.00457156
-0.0043877
-0.0041976
-0.00399816
-0.00378919
-0.0035739
-0.00335814
-0.00314965
-0.00295674
-0.00278655
-0.0026426
-0.0025226
-0.00241759
-0.00230876
-0.00214628
-0.00182208
-0.00129922
-0.000760911
)
;

boundaryField
{
    floor
    {
        type            calculated;
        value           nonuniform List<scalar> 
36
(
0
0
0
0
0
0
0
0
0
0
0
0
0
0
0
0
0
0
0
2.58681e-06
7.81689e-06
1.34747e-05
1.93478e-05
2.58482e-05
2.70084e-05
2.94562e-05
-5.65516e-07
-8.50345e-07
-8.58061e-07
-8.46472e-07
1.29954e-06
-1.34547e-06
4.33514e-06
-1.92989e-06
6.88573e-06
-1.58257e-06
)
;
    }
    ceiling
    {
        type            calculated;
        value           nonuniform List<scalar> 
43
(
0.000238969
8.14128e-05
4.97414e-05
5.31009e-05
5.91993e-05
6.43163e-05
6.84028e-05
7.12397e-05
7.29464e-05
7.39329e-05
7.44601e-05
7.46905e-05
7.475e-05
7.47529e-05
7.4808e-05
7.50151e-05
7.5453e-05
7.61654e-05
7.71373e-05
7.82734e-05
7.94284e-05
8.04645e-05
8.12929e-05
8.18789e-05
8.22245e-05
8.23469e-05
8.22636e-05
8.19939e-05
8.15717e-05
8.1059e-05
8.05519e-05
8.01751e-05
8.00553e-05
8.02512e-05
8.05965e-05
8.05485e-05
7.95411e-05
7.79809e-05
7.87069e-05
8.88796e-05
8.65305e-06
7.03428e-06
2.01019e-05
)
;
    }
    sWall
    {
        type            calculated;
        value           uniform 6.22835e-05;
    }
    nWall
    {
        type            calculated;
        value           nonuniform List<scalar> 6(2.88099e-05 2.76172e-05 3.21895e-05 2.73321e-05 3.57759e-05 4.77309e-05);
    }
    sideWalls
    {
        type            empty;
        value           nonuniform 0();
    }
    glass1
    {
        type            calculated;
        value           nonuniform List<scalar> 9(-4.91129e-05 -0.000133888 -0.000206228 -0.000268727 -0.000323954 -0.000374942 -0.000430534 -0.000491771 -0.000557141);
    }
    glass2
    {
        type            calculated;
        value           nonuniform List<scalar> 2(0.000119112 0.000129156);
    }
    sun
    {
        type            calculated;
        value           uniform 0;
    }
    Table_master
    {
        type            calculated;
        value           nonuniform List<scalar> 9(-1.49316e-07 -1.49597e-07 -1.4964e-07 -1.49629e-07 -1.49588e-07 -1.49523e-07 -1.49435e-07 -1.49321e-07 -1.49124e-07);
    }
    Table_slave
    {
        type            calculated;
        value           nonuniform List<scalar> 9(1.48883e-07 1.48794e-07 1.48686e-07 1.48592e-07 1.48539e-07 1.48519e-07 1.48526e-07 1.4856e-07 1.48629e-07);
    }
    inlet
    {
        type            calculated;
        value           uniform -0.0108485;
    }
    outlet
    {
        type            calculated;
        value           nonuniform List<scalar> 2(-0.00393198 0.0132885);
    }
}


// ************************************************************************* //
