/*--------------------------------*- C++ -*----------------------------------*=========                 |
  \      /  F ield         | OpenFOAM: The Open Source CFD Toolbox
   \    /   O peration     | Website:  https://openfoam.org
    \  /    A nd           | Version:  6
     \/     M anipulation  |
\*---------------------------------------------------------------------------*/
FoamFile
{
    version     2.0;
    format      ascii;
    class       volScalarField;
    location    "1400";
    object      PPD;
}
// * * * * * * * * * * * * * * * * * * * * * * * * * * * * * * * * * * * * * //

dimensions      [0 0 0 0 0 0 0];

internalField   nonuniform List<scalar> 
458
(
92.49317786902552
88.68728609413189
88.38195410133578
88.06334413788225
87.79754343556976
87.59043951253709
87.43863403637054
87.32568423368724
87.27577538965593
87.29906028997884
87.36071769872508
87.51062191760424
87.78403770669262
88.10221195121268
87.92581064174317
87.2171409973634
87.91935549243648
87.81411278870524
87.31015425697666
86.6660864639194
85.88688528738889
85.11482303816172
84.51090534229031
84.1240661372521
83.87500595060592
83.67774595369404
83.51532732999318
83.35198979511182
83.15111101156133
82.98574109343198
83.11444093369138
83.33378457191746
82.85649073021213
93.20426222713787
89.190708522871
89.09478272501394
88.83914518082445
88.67820174654835
88.54288040546298
88.45855350106895
88.39215397823529
88.3321848421468
88.30154121076625
88.23892381347662
88.1699814382595
88.06748787592988
87.904881981878
87.62488799520058
87.90871710446051
88.77961981892119
89.31799484905613
88.80757329654365
88.91151171936956
88.81190559139749
88.6398033196905
88.33452217166088
87.91935549243648
87.49490325567795
87.10808757959285
86.77745418595748
86.45772846017731
86.16594904024288
85.88688528738889
85.6211439034781
85.3355162425311
85.02941792410398
84.68489913273102
84.0353734497592
81.39968193093736
94.59782608531788
89.4468851272104
89.70863965047246
89.58661672766641
89.60210311728517
89.61896908322277
89.65490695176504
89.68273776039143
89.67941967803091
89.65212352832704
89.52089850660742
89.25219012455912
88.8857309394808
88.4338951722239
88.087391798417
88.18193555730848
88.49276489599004
88.68585338872947
88.8816581951041
89.12300226143957
89.09495718576217
89.02463767908351
88.93986415840024
88.76903978834895
88.5049136336318
88.20665097014215
87.94637720104025
87.68433432092256
87.44707774573884
87.21411768937821
86.95895919106066
86.63655403398661
86.31358119802
86.04096107976721
85.52160602592522
84.58064304432837
95.95238549504678
89.83392843507627
90.18931132319514
90.2270898864741
90.44173988361655
90.67178237420968
90.87615554402937
91.03636752030891
91.13703568000196
91.14767682949912
90.92865130966624
90.46602549673275
89.79962526183343
89.06187439191585
88.4682078739113
88.24997070399641
88.28302377233058
88.48816013552769
89.12300226143957
89.07729356302085
89.15100007466596
89.16498126004394
89.15100007466596
89.12300226143957
89.13700707542517
89.15100007466596
89.17895063245571
89.22078788102337
89.26251884628667
89.04986067802051
88.80249703331351
88.60719277359976
88.49668372197627
88.01124235429208
87.28329409601109
86.32909107077674
86.18474097489698
97.06703671637914
90.5253798080693
90.64580865767718
90.74642629290562
91.13620223643802
91.55724327139336
91.96173589395002
92.30888425505432
92.55170383041401
92.57841003111561
92.24366584314701
91.53894824340023
90.5703846806818
89.54134337698348
88.68601545097366
88.1785703322092
88.06676034514298
88.27695255112707
88.88047988338054
89.09495718576217
89.15100007466596
89.19290819280731
89.20685394201931
89.22078788102337
89.234710010762
89.26251884628667
89.30414355439358
89.34566203247978
89.38707430866347
89.414623506062
89.18008828080939
88.95539058613849
88.72015896062454
88.36414428084278
87.79110466430083
86.82908074231048
85.98264090691349
85.68710575479764
85.42454807571154
84.82615126556767
97.85556828712673
91.57118169631796
91.52371106502768
91.34632462008528
91.68258748879458
92.20668134236016
92.8325509871974
93.43587706462901
93.77516130296299
93.6732642313952
93.04909668029859
92.09151294664444
90.92374367571747
89.71065869255668
88.67852477290656
88.04828565488286
87.86529076920033
88.09930498765695
88.64618164577162
89.06686484081469
89.15100007466596
89.22078788102337
89.24862033219388
89.27640555402004
89.30414355439358
89.34566203247978
89.38707430866347
89.4283804120498
89.4558588442373
89.4832901110234
89.51067422175636
89.3878683602997
89.17230526052265
88.75968127940394
88.21455985606258
87.4589393741372
86.79224642668524
86.71156654930574
86.17062725964692
85.3857833399931
98.41066707311735
93.35309291455219
93.73671452974324
92.78357124907204
92.45458143728219
92.62933289778675
93.05998372069142
93.57243907543452
93.73874314542492
93.51621869412719
92.9381822563059
91.98730501776068
90.76207868737343
89.47904687003872
88.4222559704502
87.78065540229449
87.66030527613613
87.99309866978658
88.63771130133881
89.05280094028936
89.16498126004394
89.24862033219388
89.30414355439358
89.33183434140402
89.37328201503716
89.40085480530381
89.4283804120498
89.46958037272567
89.49698806030393
89.52434859657824
89.55166199118781
89.55166199118781
89.53801118598174
89.4832901110234
89.00061633157502
88.25015277985261
87.63611231378482
87.2965390254662
86.19472759606157
85.71589412566394
99.04572867615582
96.94754873068962
96.2860326695993
95.21041585202536
94.4014417223617
93.89323850991332
93.6592228193392
93.5969720479219
93.52787424032289
93.18241891609053
92.39993824744886
91.24599975307093
89.89346187534585
88.6306945639664
87.72639132739556
87.3266516218587
87.47577563089028
88.05755634250212
88.86889435514868
89.05280094028936
89.20685394201931
89.29028045638694
89.33183434140402
89.37328201503716
89.40085480530381
89.4283804120498
89.4558588442373
89.4832901110234
89.51067422175636
89.55166199118781
89.56530101343435
89.5153075857228
89.55121511351564
89.52434859657824
89.4283804120498
89.24862033219388
89.05280094028936
88.88311197153935
86.74156068066846
84.55842644040325
100.0
99.10416528700227
98.36953545794225
97.38057237098262
96.31157859153575
95.36673554637022
94.6245199059174
94.06620877219237
93.49134930726818
92.36514186551858
90.89570465171815
89.31831008992168
87.9389631750224
87.00567085278323
86.64487017289002
86.84763328002376
87.53267193212957
88.52218387106032
88.84042363416542
89.09495718576217
89.234710010762
89.30414355439358
89.34566203247978
89.37328201503716
89.38707430866347
89.40085480530381
89.4283804120498
89.46958037272567
89.44767691010317
89.22880334210177
88.98277569236754
88.70261755709112
88.38878018895295
88.02116879215043
87.64907369384314
87.29506832392549
86.9353794912241
86.60002502855949
86.2578046963154
85.46481006206716
22.49584904472235
23.71119644036355
57.01210367657873
73.50514444779581
80.2636177618164
82.91904752489789
83.64750560929723
84.04582357545682
84.09730806302134
84.09463700678847
84.3133817003193
84.84171370198118
85.71628583034943
86.89513784471394
88.098421246436
88.56759097824623
88.92569385214269
89.12300226143957
89.234710010762
89.27640555402004
89.30414355439358
89.31799484905613
89.33183434140402
89.34566203247978
89.37328201503716
89.40025466576417
89.19248697986103
88.98374403893948
88.77563341756775
88.56020162610479
88.35534268173603
88.16529958910955
88.00249657049707
87.87378019958135
87.81000042169552
87.94614726829789
88.52567961282936
87.26572338634244
5.672763010971551
28.418264810668703
53.84649278237403
67.76473676542275
74.73964299899376
78.01723836849868
79.37641530447047
80.13328181004022
80.89732557860154
81.87407397743493
83.2419845931537
84.77235336665538
86.24037570734436
87.3978331480588
88.10099562246008
88.37599165580227
88.52190017176252
88.60652079049154
88.65042842314406
88.65817826950283
88.63521174823988
88.61631141476313
88.57048609272643
88.53818377427501
88.52637175005442
88.49694079088658
88.4420806621765
88.36796610742786
88.27133631419035
88.23812718665755
88.28901709537786
88.45795121428756
88.77372810867618
89.25926261401092
89.76847326849713
89.84900093172193
88.0417414308726
88.31300799984515
67.59429542683873
32.335253184979265
19.90778957540583
49.743025211492025
62.172799206506554
70.58453785845533
75.89552906477901
78.90115646526812
79.42618930764125
79.42931987248966
79.86840989011839
80.83432216093584
82.77304298582081
83.93410217476867
84.65566429319176
85.13934587650675
85.43942443284219
85.59712754983269
85.6661741420324
85.70037097426884
85.68265396204471
85.66060618111315
85.6486672315267
85.62277770677184
85.59820194965006
85.61969947679188
85.68030392816502
85.74580072877718
85.80672563756632
85.84096009728432
85.87602921328158
85.9333370716898
86.05949853852844
86.24714387129274
86.44068234990809
86.58342869208
86.64374948309349
86.55645035485199
86.03873642397647
85.45645383747471
)
;

boundaryField
{
    ".*"
    {
        type            zeroGradient;
    }
}


// ************************************************************************* //
