/*--------------------------------*- C++ -*----------------------------------*\
  =========                 |
  \\      /  F ield         | OpenFOAM: The Open Source CFD Toolbox
   \\    /   O peration     | Website:  https://openfoam.org
    \\  /    A nd           | Version:  6
     \\/     M anipulation  |
\*---------------------------------------------------------------------------*/
FoamFile
{
    version     2.0;
    format      ascii;
    class       volScalarField;
    location    "1400";
    object      T;
}
// * * * * * * * * * * * * * * * * * * * * * * * * * * * * * * * * * * * * * //

dimensions      [0 0 0 1 0 0 0];

internalField   nonuniform List<scalar> 
458
(
305.133
304.899
304.889
304.888
304.886
304.884
304.882
304.879
304.876
304.873
304.867
304.859
304.849
304.839
304.829
304.655
304.701
304.694
304.661
304.62
304.572
304.526
304.491
304.469
304.455
304.444
304.435
304.426
304.415
304.406
304.413
304.425
304.399
305.3
304.938
304.918
304.922
304.926
304.928
304.93
304.93
304.927
304.922
304.911
304.895
304.873
304.849
304.825
304.81
304.801
304.798
304.772
304.769
304.762
304.75
304.729
304.701
304.673
304.648
304.627
304.607
304.589
304.572
304.556
304.539
304.521
304.501
304.464
304.406
305.468
304.981
304.946
304.955
304.967
304.977
304.986
304.992
304.993
304.989
304.975
304.949
304.915
304.876
304.841
304.816
304.8
304.791
304.786
304.784
304.782
304.777
304.771
304.759
304.744
304.729
304.716
304.702
304.689
304.676
304.662
304.645
304.625
304.594
304.557
304.508
305.631
305.034
304.973
304.984
305.003
305.024
305.043
305.058
305.067
305.067
305.049
305.013
304.963
304.908
304.858
304.822
304.799
304.787
304.784
304.784
304.786
304.787
304.786
304.784
304.785
304.786
304.788
304.791
304.794
304.797
304.799
304.8
304.799
304.766
304.717
304.66
304.608
305.786
305.102
305.004
305.007
305.03
305.058
305.087
305.114
305.135
305.141
305.122
305.075
305.008
304.936
304.872
304.824
304.796
304.782
304.78
304.782
304.786
304.789
304.79
304.791
304.792
304.794
304.797
304.8
304.803
304.805
304.807
304.808
304.806
304.795
304.769
304.726
304.672
304.673
304.674
304.703
305.92
305.19
305.064
305.04
305.054
305.08
305.112
305.146
305.181
305.196
305.177
305.117
305.036
304.951
304.876
304.822
304.79
304.777
304.776
304.78
304.786
304.791
304.793
304.795
304.797
304.8
304.803
304.806
304.808
304.81
304.812
304.812
304.811
304.805
304.791
304.764
304.73
304.716
304.707
304.716
306.037
305.333
305.211
305.153
305.131
305.132
305.149
305.177
305.213
305.226
305.196
305.128
305.038
304.945
304.866
304.809
304.778
304.768
304.771
304.779
304.787
304.793
304.797
304.799
304.802
304.804
304.806
304.809
304.811
304.813
304.815
304.815
304.814
304.81
304.8
304.783
304.761
304.745
304.731
304.73
306.219
305.693
305.564
305.453
305.362
305.304
305.278
305.274
305.278
305.254
305.19
305.098
304.995
304.9
304.826
304.778
304.757
304.756
304.766
304.779
304.79
304.796
304.799
304.802
304.804
304.806
304.808
304.81
304.812
304.815
304.816
304.817
304.816
304.813
304.806
304.793
304.779
304.767
304.758
304.81
306.475
306.238
306.016
305.821
305.66
305.538
305.451
305.39
305.33
305.226
305.104
304.983
304.879
304.801
304.752
304.73
304.731
304.745
304.764
304.782
304.792
304.797
304.8
304.802
304.803
304.804
304.806
304.809
304.812
304.815
304.817
304.818
304.819
304.819
304.82
304.821
304.826
304.835
304.848
304.881
298.994
302.241
303.669
304.263
304.537
304.653
304.68
304.69
304.679
304.661
304.649
304.647
304.658
304.682
304.713
304.745
304.77
304.784
304.792
304.795
304.797
304.798
304.799
304.8
304.802
304.805
304.808
304.812
304.816
304.819
304.822
304.824
304.826
304.829
304.834
304.841
304.85
304.863
299.949
302.27
303.283
303.861
304.167
304.32
304.386
304.422
304.45
304.48
304.525
304.576
304.628
304.678
304.725
304.755
304.773
304.783
304.788
304.79
304.79
304.791
304.791
304.792
304.794
304.797
304.801
304.806
304.81
304.815
304.819
304.822
304.825
304.828
304.831
304.837
304.835
304.85
304.264
302.941
302.289
303.322
303.713
303.98
304.162
304.288
304.326
304.347
304.376
304.433
304.555
304.628
304.677
304.713
304.738
304.753
304.761
304.766
304.767
304.767
304.767
304.766
304.765
304.766
304.768
304.771
304.775
304.779
304.784
304.789
304.795
304.801
304.806
304.81
304.814
304.813
304.818
304.889
)
;

boundaryField
{
    floor
    {
        type            wallHeatTransfer;
        Tinf            uniform 305.2;
        alphaWall       uniform 0.24;
        value           nonuniform List<scalar> 
36
(
304.868
304.785
304.814
304.812
304.796
304.774
304.75
304.728
304.712
304.701
304.693
304.686
304.678
304.669
304.659
304.649
304.63
304.585
304.594
304.594
304.578
304.638
304.715
304.759
304.76
304.784
304.868
304.85
304.846
304.849
304.785
304.849
304.843
304.834
304.843
304.83
)
;
    }
    ceiling
    {
        type            wallHeatTransfer;
        Tinf            uniform 303.2;
        alphaWall       uniform 0.24;
        value           nonuniform List<scalar> 
43
(
304.189
302.96
302.354
303.314
303.679
303.928
304.096
304.208
304.236
304.246
304.268
304.317
304.429
304.498
304.544
304.577
304.598
304.609
304.613
304.615
304.615
304.615
304.614
304.614
304.614
304.615
304.617
304.619
304.623
304.626
304.628
304.63
304.633
304.636
304.64
304.643
304.644
304.634
304.633
304.724
306.316
306.111
300.179
)
;
    }
    sWall
    {
        type            wallHeatTransfer;
        Tinf            uniform 315.2;
        alphaWall       uniform 0.36;
        value           uniform 305.389;
    }
    nWall
    {
        type            wallHeatTransfer;
        Tinf            uniform 307.2;
        alphaWall       uniform 0.36;
        value           nonuniform List<scalar> 6(305.273 305.183 305.134 305.214 305.186 305.213);
    }
    sideWalls
    {
        type            empty;
    }
    glass1
    {
        type            wallHeatTransfer;
        Tinf            uniform 315.2;
        alphaWall       uniform 4.3;
        value           nonuniform List<scalar> 9(312.468 311.859 311.457 311.137 310.869 310.632 310.444 310.491 310.674);
    }
    glass2
    {
        type            wallHeatTransfer;
        Tinf            uniform 307.2;
        alphaWall       uniform 4.3;
        value           nonuniform List<scalar> 2(306.404 306.43);
    }
    sun
    {
        type            wallHeatTransfer;
        Tinf            uniform 305.2;
        alphaWall       uniform 0.24;
        value           nonuniform List<scalar> 
14
(
305.142
304.935
304.927
304.925
304.922
304.92
304.917
304.914
304.911
304.907
304.902
304.894
304.886
304.877
)
;
    }
    Table_master
    {
        type            zeroGradient;
    }
    Table_slave
    {
        type            zeroGradient;
    }
    inlet
    {
        type            fixedValue;
        value           uniform 296.15;
    }
    outlet
    {
        type            zeroGradient;
    }
}


// ************************************************************************* //
