/*--------------------------------*- C++ -*----------------------------------*\
  =========                 |
  \\      /  F ield         | OpenFOAM: The Open Source CFD Toolbox
   \\    /   O peration     | Website:  https://openfoam.org
    \\  /    A nd           | Version:  6
     \\/     M anipulation  |
\*---------------------------------------------------------------------------*/
FoamFile
{
    version     2.0;
    format      ascii;
    class       surfaceScalarField;
    location    "200";
    object      phi;
}
// * * * * * * * * * * * * * * * * * * * * * * * * * * * * * * * * * * * * * //

dimensions      [1 0 -1 0 0 0 0];

internalField   nonuniform List<scalar> 
850
(
-0.00382741
0.00387806
-0.00394947
0.000121896
-0.00119137
-0.00275824
0.00166504
-0.00285654
0.00384243
-0.00217754
0.00529616
-0.00145389
0.00617336
-0.000877357
0.00660787
-0.000434673
0.00670088
-9.31729e-05
0.00652536
0.000175361
0.00611934
0.000405867
0.00548427
0.000634919
0.00455611
0.000928012
0.00306979
0.00148617
0.00307131
-0.000995279
0.000997328
-0.00135457
0.000359099
-0.000911198
-0.000443554
-3.57041e-06
-0.000907808
0.000982172
-0.00098592
0.00157118
-0.000589189
0.00183824
-0.000267243
0.0019925
-0.000154443
0.00210638
-0.000114066
0.00219205
-8.58483e-05
0.00225398
-6.21214e-05
0.00228691
-3.31262e-05
0.00227206
1.46608e-05
0.00218111
9.0758e-05
0.00197728
0.00020363
0.0016216
0.000355489
0.00104288
0.000578519
0.00104491
-0.00260781
0.00663187
-0.000795839
-0.00169035
0.00178348
-0.00533761
0.00372877
-0.00480192
0.0051507
-0.00359959
0.00613228
-0.0024356
0.00671343
-0.00145866
0.00696008
-0.000681481
0.00694149
-7.47373e-05
0.00670335
0.000413342
0.00628157
0.000827491
0.00570942
0.00120691
0.00503644
0.00160084
0.00447097
0.0020515
0.0050292
0.00251292
0.00315388
0.00187837
0.00158676
0.00157037
0.00159609
-0.000496894
0.0015008
-0.000238698
0.00010071
0.000414882
-0.00109732
0.000994189
-0.00148729
0.00148328
-0.00147519
0.00163182
-0.000737904
0.00166108
-0.000296679
0.00168694
-0.000180486
0.00171023
-0.000137545
0.00172952
-0.000105325
0.00174786
-8.0658e-05
0.00175969
-4.51584e-05
0.00174401
3.01394e-05
0.00166894
0.00016562
0.00148009
0.000392266
0.00116637
0.000668998
0.000714283
0.0010304
0.00176539
0.00084504
0.00602572
0.00354496
-0.00439035
0.00498379
-0.00677645
0.00594934
-0.00576748
0.00654596
-0.00419627
0.00689572
-0.00278547
0.0070416
-0.00160466
0.00701246
-0.000652476
0.0068186
0.000118966
0.00647691
0.000754879
0.00602481
0.00127943
0.00551201
0.00171955
0.00500631
0.00210638
0.00459732
0.00246033
0.00431433
0.00279576
0.00346002
0.00273252
0.00223783
0.00279242
0.00384279
0.00072303
0.000788845
0.00135492
-0.000531369
0.00156063
-0.0013032
0.00180511
-0.00173194
0.00231587
-0.00198612
0.00157794
0.00128124
0.00110072
0.000963141
0.00085777
0.000777051
0.000731814
0.000761863
0.000927393
0.000901314
0.000418112
0.000771525
0.000798563
0.000492047
0.00130965
0.00226744
0.00540897
0.00093631
0.0079548
-0.00693604
0.00802693
-0.00684844
0.00753798
-0.00527849
0.00710259
-0.0037609
0.00673404
-0.002417
0.00641296
-0.00128369
0.0060851
-0.000324766
0.00570872
0.00049519
0.00530365
0.00115977
0.0048974
0.00168552
0.00451062
0.00210617
0.00416385
0.00245299
0.00387304
0.00275098
0.00365809
0.00301055
0.00336658
0.00302387
0.00315499
0.00300385
0.00410225
0.00289538
0.00259039
0.00152243
0.00281646
0.000562608
0.00271535
-0.000430439
0.00256179
-0.00114981
0.00230253
-0.00147285
0.00169058
-0.00137434
0.00232363
-0.000633372
0.00259252
-0.00026922
0.00271988
-0.000127688
0.00276207
-4.25173e-05
0.00272854
3.31994e-05
0.00262248
0.000105731
0.00243897
0.000183172
0.00215287
0.000285761
0.00170544
0.000447093
0.00136042
0.000762926
0.000981682
0.00117709
0.000580526
0.00171059
0.0028611
0.00963017
-0.00831738
0.00986283
-0.00716829
0.00797362
-0.00495904
0.00629429
-0.00359916
0.00511243
-0.00257916
0.00427322
-0.00157794
0.00372498
-0.000735645
0.0033615
3.85026e-05
0.00313664
0.000719836
0.00300806
0.00128816
0.00291148
0.0017819
0.00282553
0.00219194
0.00275677
0.00252157
0.00272608
0.0027815
0.00277254
0.00296392
0.00285674
0.00293951
0.00305079
0.00280964
0.00339936
0.00254665
0.00331204
0.00160959
0.00336104
0.000513444
0.00325245
-0.000322009
0.00296365
-0.000861159
0.00256747
-0.00107683
0.00217398
-0.00098101
0.00213944
-0.000599009
0.0021364
-0.000266347
0.00208352
-7.49927e-05
0.00199662
4.42061e-05
0.00189477
0.000134875
0.00178509
0.000215227
0.00166269
0.000305387
0.00151958
0.000428678
0.00135385
0.000612631
0.00121456
0.000902025
0.00108659
0.00130485
0.000952721
0.00184425
0.00140926
0.00240434
-0.000630469
0.00205123
-0.00130852
0.000686409
-0.00125971
0.00348584
-0.0113401
0.0031407
-0.006823
0.00249335
-0.00431187
0.00132341
-0.00242966
0.000524341
-0.00178048
0.000152971
-0.00120683
0.000101717
-0.000684605
0.000248287
-0.000108272
0.000461116
0.000506799
0.000652397
0.00109668
0.000824515
0.00160959
0.000989157
0.00202712
0.00116078
0.00234977
0.0013581
0.00258401
0.00160213
0.00271972
0.00187181
0.00266967
0.00218292
0.00249837
0.00258021
0.00214921
0.00286338
0.00132626
0.00291129
0.000465372
0.00275628
-0.000167153
0.002437
-0.000542038
0.00203648
-0.000676472
0.00165404
-0.000598735
0.00141651
-0.000361656
0.00127252
-0.000122538
0.0011585
3.88543e-05
0.00106727
0.000135249
0.00100229
0.00019967
0.000959021
0.000258303
0.000934525
0.000329692
0.000929408
0.000433603
0.000949392
0.000592453
0.00101732
0.000833902
0.00116589
0.00115608
0.00142959
0.00158034
0.00188441
0.0019493
0.0021273
0.00180812
0.00166506
0.00114843
0.000455395
-0.000906302
-0.00987307
-0.00129788
-0.00643163
-0.00100717
-0.00460292
-0.00174491
-0.00169217
-0.00206274
-0.00146286
-0.00211452
-0.00115526
-0.00204282
-0.000756499
-0.0018767
-0.000274601
-0.0016463
0.000276207
-0.00138024
0.000830426
-0.00109137
0.00132053
-0.00078549
0.00172106
-0.00046019
0.00202429
-0.000105108
0.00222876
0.000284845
0.0023296
0.000682534
0.00227182
0.00109614
0.0020846
0.00154101
0.00170419
0.0018189
0.00104822
0.00184478
0.000439337
0.00166576
1.17012e-05
0.00135756
-0.000233997
0.000992639
-0.00031172
0.000645937
-0.00025221
0.000392649
-0.000108551
0.000237564
3.23597e-05
0.000154056
0.000122172
0.000119964
0.000169149
0.000120623
0.000198818
0.000153051
0.00022568
0.000219829
0.00026272
0.000327045
0.000326191
0.000482865
0.000436435
0.000700256
0.000616311
0.000997127
0.000859001
0.00141149
0.00116577
0.00199308
0.00136749
0.00262054
0.00118045
0.00269073
0.00107801
0.0032009
-0.00224627
-0.00694999
-0.00413226
-0.00454585
-0.00400047
-0.00473495
-0.00392448
-0.00176837
-0.00378498
-0.00160256
-0.00369483
-0.0012456
-0.00362141
-0.000830114
-0.00351354
-0.000382668
-0.00333417
9.66504e-05
-0.0030793
0.000575362
-0.00276132
0.00100237
-0.00239474
0.00135429
-0.00198955
0.00161893
-0.00155105
0.00179009
-0.00108146
0.00185985
-0.000608507
0.0017987
-0.000140667
0.0016166
0.000268946
0.00129442
0.000464344
0.000852662
0.000440949
0.000462571
0.000269637
0.000182844
1.2904e-05
2.25599e-05
-0.000274084
-2.49152e-05
-0.000527417
9.32434e-07
-0.000697091
6.09291e-05
-0.000777764
0.000112836
-0.000798372
0.000142582
-0.000784781
0.00015536
-0.000744067
0.000157905
-0.000675042
0.000156456
-0.000572368
0.000159845
-0.000428218
0.00018184
-0.000232014
0.000240029
3.32537e-05
0.00035084
0.000369914
0.000522136
0.000803726
0.000731753
0.0013363
0.000834706
0.00174445
0.000772088
0.00106985
0.00175239
0.00448372
-0.00612148
-0.0106509
-0.00712346
-0.00826259
-0.00523585
-0.00365617
-0.00487057
-0.00196803
-0.00481868
-0.00129769
-0.00482288
-0.000826105
-0.00479474
-0.00041099
-0.00468372
-1.45622e-05
-0.00447217
0.000363626
-0.00417048
0.00070049
-0.00379576
0.000979406
-0.00336551
0.00118849
-0.0028961
0.00132051
-0.00240487
0.00136846
-0.00192777
0.00132143
-0.0014986
0.00118727
-0.0011785
0.000974151
-0.00103915
0.000713145
-0.00105645
0.000479695
-0.00117601
0.000302223
-0.00134156
0.000187912
-0.00150043
0.000133761
-0.00162058
0.00012088
-0.00168778
0.000127924
-0.00171369
0.000138551
-0.00171779
0.000146474
-0.00171606
0.000153421
-0.00172164
0.000163289
-0.00174793
0.000182533
-0.00181068
0.000222391
-0.00192933
0.00030028
-0.00212912
0.000439612
-0.00244681
0.000668333
-0.00293909
0.00101421
-0.00369187
0.00148432
-0.00486326
0.00200588
-0.0064272
0.00233582
-0.00642936
0.00175435
-0.00171986
-0.00381883
-0.000247048
-0.00491986
-0.00255534
-0.0052958
-0.00159229
-0.0055651
-0.00102858
-0.00573868
-0.000652719
-0.00580646
-0.000343399
-0.00576088
-6.03267e-05
-0.00559925
0.00020181
-0.00533541
0.000436464
-0.00498594
0.000629757
-0.00457258
0.000774959
-0.00411992
0.000867671
-0.0036563
0.000904668
-0.00321945
0.000884404
-0.00284615
0.000813792
-0.00257472
0.000702541
-0.00242956
0.000567803
-0.00238814
0.00043808
-0.00241411
0.000327992
-0.00247134
0.00024494
-0.00252883
0.000191048
-0.00256935
0.000161193
-0.00258907
0.000147434
-0.00259371
0.000142974
-0.0025922
0.000144757
-0.00259238
0.000153387
-0.00260089
0.000171589
-0.00262283
0.000204263
-0.00266031
0.000259661
-0.00271145
0.000351203
-0.00277118
0.000499135
-0.00283231
0.000729255
-0.0028793
0.00106099
-0.00287673
0.00148154
-0.00279165
0.0019206
-0.00245658
0.00200054
-0.00110697
0.000404546
-0.00277291
-0.00233471
0.0020864
-0.00459205
-0.000298199
-0.00565765
-0.000526887
-0.00623284
-0.000453578
-0.00655914
-0.000326622
-0.00671443
-0.000188302
-0.0067236
-5.13488e-05
-0.0066072
8.52268e-05
-0.00637962
0.000208694
-0.00605998
0.000309925
-0.00567196
0.00038676
-0.0052424
0.000437917
-0.00480072
0.000462807
-0.0043787
0.000462197
-0.00400481
0.000439711
-0.00370203
0.000399567
-0.00348213
0.000347698
-0.0033374
0.000293149
-0.00325149
0.000241877
-0.00320543
0.000198675
-0.00318151
0.000166915
-0.00316741
0.00014688
-0.00315676
0.000136573
-0.00314706
0.000133056
-0.00313659
0.000134069
-0.00312229
0.000138875
-0.00309929
0.00014837
-0.00306063
0.000165387
-0.00299624
0.000195057
-0.00289045
0.000245202
-0.00271912
0.000327588
-0.00245055
0.000460469
-0.00205174
0.000661964
-0.00145727
0.000886859
-0.000496355
0.000959478
0.000899668
0.000604305
0.00175124
-0.000447236
-0.000963611
-0.00574571
-0.0078713
-0.00579485
-0.00610754
-0.00664914
-0.00711733
-0.00745847
-0.00766123
-0.00772702
-0.00765627
-0.0074622
-0.00716723
-0.00679595
-0.00637418
-0.00592837
-0.00548414
-0.00506347
-0.00468408
-0.00435771
-0.00408698
-0.0038685
-0.00369405
-0.00355203
-0.0034306
-0.00331994
-0.00321321
-0.00310586
-0.00299407
-0.00287306
-0.0027352
-0.00256769
-0.00234988
-0.00204932
-0.00161535
-0.000979227
-0.000117562
0.000817045
0.00139562
0.000920866
)
;

boundaryField
{
    floor
    {
        type            calculated;
        value           nonuniform List<scalar> 
36
(
0
0
0
0
0
0
0
0
0
0
0
0
0
0
0
0
0
0
0
-2.24357e-06
-6.40227e-06
-1.022e-05
-1.33477e-05
-1.1709e-05
-8.58566e-06
-8.18131e-06
-1.67024e-06
-3.19383e-06
-3.40467e-06
-3.76061e-06
-2.24144e-06
-5.71739e-06
-6.77793e-06
-9.02695e-06
-1.12697e-05
-1.07228e-05
)
;
    }
    ceiling
    {
        type            calculated;
        value           nonuniform List<scalar> 
43
(
1.20057e-05
1.01487e-05
9.75297e-06
1.42887e-05
1.45179e-05
1.44215e-05
1.4317e-05
1.42592e-05
1.42488e-05
1.42733e-05
1.44257e-05
1.47619e-05
1.52753e-05
1.59568e-05
1.67932e-05
1.77638e-05
1.88373e-05
1.99735e-05
2.11193e-05
2.22088e-05
2.31855e-05
2.40129e-05
2.46857e-05
2.5232e-05
2.56959e-05
2.61156e-05
2.65071e-05
2.68606e-05
2.71446e-05
2.73163e-05
2.73347e-05
2.71714e-05
2.68162e-05
2.62816e-05
2.56209e-05
2.49779e-05
2.46571e-05
2.5512e-05
2.72979e-05
2.95626e-05
-1.10642e-05
-1.66785e-05
1.09621e-06
)
;
    }
    sWall
    {
        type            calculated;
        value           uniform -0.000250951;
    }
    nWall
    {
        type            calculated;
        value           nonuniform List<scalar> 6(-4.08569e-05 -5.02677e-05 -5.49936e-05 -5.41414e-05 -5.82672e-05 -7.2528e-05);
    }
    sideWalls
    {
        type            empty;
        value           nonuniform 0();
    }
    glass1
    {
        type            calculated;
        value           nonuniform List<scalar> 9(-5.08358e-05 -0.00014627 -0.000239175 -0.000319852 -0.0003759 -0.000463239 -0.000560879 -0.000676963 -0.000817605);
    }
    glass2
    {
        type            calculated;
        value           nonuniform List<scalar> 2(-0.000213189 -0.000225992);
    }
    sun
    {
        type            calculated;
        value           uniform 0;
    }
    Table_master
    {
        type            calculated;
        value           nonuniform List<scalar> 9(-1.52717e-07 -1.52967e-07 -1.53033e-07 -1.53051e-07 -1.53044e-07 -1.53015e-07 -1.52966e-07 -1.52894e-07 -1.52789e-07);
    }
    Table_slave
    {
        type            calculated;
        value           nonuniform List<scalar> 9(1.52577e-07 1.52482e-07 1.52401e-07 1.52353e-07 1.52323e-07 1.52307e-07 1.52318e-07 1.52358e-07 1.52432e-07);
    }
    inlet
    {
        type            calculated;
        value           uniform -0.00419694;
    }
    outlet
    {
        type            calculated;
        value           nonuniform List<scalar> 2(0.00598446 0.00211526);
    }
}


// ************************************************************************* //
