/*--------------------------------*- C++ -*----------------------------------*\
  =========                 |
  \\      /  F ield         | OpenFOAM: The Open Source CFD Toolbox
   \\    /   O peration     | Website:  https://openfoam.org
    \\  /    A nd           | Version:  6
     \\/     M anipulation  |
\*---------------------------------------------------------------------------*/
FoamFile
{
    version     2.0;
    format      ascii;
    class       volScalarField;
    location    "2100";
    object      k;
}
// * * * * * * * * * * * * * * * * * * * * * * * * * * * * * * * * * * * * * //

dimensions      [0 2 -2 0 0 0 0];

internalField   nonuniform List<scalar> 
458
(
0.000947232
0.00101632
0.0009505
0.00101827
0.00108207
0.00113946
0.00119145
0.00123973
0.00128641
0.00133441
0.00137548
0.00140502
0.00142326
0.00143575
0.0014435
0.000435092
0.00071537
0.000699097
0.000667021
0.000617096
0.000551191
0.000496055
0.000451158
0.000413264
0.000379898
0.000349763
0.000322096
0.000296332
0.000271857
0.000247988
0.000223771
0.000205363
0.000171568
0.00242302
0.0046127
0.00140655
0.00139463
0.00144477
0.0015077
0.00157634
0.00165322
0.00174005
0.00183514
0.00192654
0.00198913
0.00199479
0.00190979
0.00172456
0.0015888
0.00147184
0.000668655
0.000528841
0.00155345
0.0011873
0.000991938
0.000832517
0.000677538
0.000581708
0.000551445
0.000520832
0.00048234
0.000440136
0.000396351
0.000351621
0.000306744
0.000271527
0.000250289
0.000417764
0.000255699
0.00437419
0.0105941
0.00203865
0.0017465
0.00178549
0.00186863
0.00196085
0.00206427
0.00218024
0.00230432
0.00242329
0.00250197
0.00251102
0.00243699
0.00229565
0.00212034
0.00190207
0.00171966
0.000956178
0.00203027
0.00127942
0.00091947
0.000667931
0.000504459
0.000329353
0.000243467
0.000221604
0.000213622
0.000204538
0.000194099
0.000184731
0.000182286
0.000228173
0.000264412
0.000749163
0.000362417
0.0069428
0.0201287
0.00320523
0.00204038
0.00204958
0.00216769
0.00229579
0.00243272
0.00258232
0.00274417
0.00290729
0.00302251
0.00305578
0.00299711
0.00285024
0.00262635
0.00236523
0.00209723
0.0018349
0.00201601
0.00132439
0.000950839
0.000689301
0.000593348
0.000599356
0.000608135
0.000645475
0.000688914
0.00073034
0.00075768
0.000756978
0.000716647
0.000671059
0.000593413
0.00052869
0.0010292
0.00055534
0.0101091
0.0328548
0.00590116
0.00238686
0.00224677
0.00237986
0.00254709
0.00273386
0.00294547
0.00318648
0.0034329
0.00360532
0.00366697
0.00361926
0.00347197
0.00324592
0.00299048
0.00271086
0.00227172
0.00161444
0.0011084
0.000799371
0.000663138
0.000669405
0.00079223
0.000915792
0.00104727
0.00116614
0.00127348
0.00134261
0.0013449
0.00126156
0.00110688
0.000941553
0.00078919
0.000895206
0.000898991
0.000832125
0.000853567
0.000852125
0.0138932
0.0457447
0.0126566
0.00365841
0.00267435
0.00265107
0.00280722
0.00302954
0.00330367
0.00366154
0.0040148
0.00422056
0.00426752
0.00418568
0.00399823
0.00372433
0.00338929
0.00295126
0.00235672
0.00168845
0.00114597
0.000834158
0.000698185
0.000672302
0.000764554
0.000910515
0.00110772
0.0013013
0.00149365
0.00165285
0.00174178
0.00172032
0.00152612
0.00128693
0.00106587
0.000953806
0.000900776
0.00101073
0.00233705
0.00138844
0.0181063
0.0543316
0.0263708
0.0103516
0.00551566
0.00395527
0.00367769
0.00378596
0.0040393
0.00449293
0.00483137
0.00493696
0.00486645
0.00467752
0.00440067
0.004044
0.00363172
0.00312874
0.00251425
0.00185967
0.00130495
0.000951189
0.000769409
0.000699981
0.000784798
0.000953391
0.00116232
0.00139911
0.00166006
0.00191181
0.00212166
0.00225957
0.00222361
0.00193339
0.00165244
0.00148972
0.00144208
0.00161671
0.00338429
0.00208173
0.019158
0.0590353
0.0393234
0.0291368
0.0190744
0.0121514
0.00862526
0.00706896
0.00649855
0.00632177
0.00609981
0.00580585
0.00546034
0.00507659
0.00465831
0.00420675
0.00371994
0.00318472
0.00259814
0.00200481
0.00148458
0.00109938
0.000866622
0.000745778
0.000833933
0.00103275
0.00126705
0.00153042
0.0018195
0.00212815
0.00245404
0.00280114
0.00317841
0.00338873
0.00339713
0.00385021
0.00481798
0.00582992
0.0116173
0.00384974
0.0182494
0.0262051
0.0269382
0.0242856
0.0208821
0.0169753
0.0135927
0.0110935
0.0094142
0.00818883
0.00725993
0.00651492
0.00587468
0.00528846
0.0047262
0.00417269
0.0036216
0.00307073
0.00252624
0.00201111
0.00156054
0.00121343
0.000965598
0.000783193
0.000866299
0.00108881
0.0013347
0.00159978
0.001887
0.00219864
0.00253957
0.00291537
0.00332709
0.00376439
0.00421346
0.00480711
0.0054222
0.00587479
0.0061874
0.00369198
0.0153728
0.0295184
0.022218
0.017982
0.0147814
0.0123017
0.0104144
0.00895773
0.00777114
0.0067826
0.00593764
0.00519356
0.00452
0.00389772
0.00331685
0.00277532
0.00227873
0.00183998
0.00147568
0.00120359
0.0010213
0.000782592
0.000837162
0.00106647
0.0012985
0.00153174
0.0017732
0.00202598
0.00229478
0.00258872
0.00292227
0.0033127
0.00373015
0.00412422
0.00436569
0.00429497
0.00391286
0.00241281
0.0130402
0.0272362
0.0208528
0.0170607
0.0142655
0.0120406
0.01019
0.00866897
0.0074189
0.00633162
0.00539815
0.00459522
0.00389862
0.00328804
0.00274909
0.00227445
0.00186505
0.00153141
0.00129227
0.00115674
0.00107597
0.000733959
0.000715877
0.000941729
0.0011536
0.0013611
0.00158269
0.00182899
0.0021097
0.0024344
0.00280511
0.00322812
0.00368461
0.00410169
0.00442325
0.0045911
0.00384309
0.00246206
0.00814991
0.0096232
0.0109786
0.0125042
0.0109826
0.00973719
0.00812066
0.00690829
0.00587492
0.00498538
0.00421846
0.00361939
0.00311555
0.00267216
0.00227143
0.00190446
0.00156767
0.00126134
0.000989285
0.000759373
0.000582316
0.000462831
0.000382957
0.000288229
0.000380695
0.000524846
0.000662629
0.000801435
0.000946366
0.00110107
0.0012705
0.00146369
0.00169966
0.00197548
0.00227494
0.00258653
0.00293498
0.00283757
0.00238711
0.00202136
)
;

boundaryField
{
    floor
    {
        type            kqRWallFunction;
        value           nonuniform List<scalar> 
36
(
0.0014435
0.000435092
0.00071537
0.000699097
0.000667021
0.000617096
0.000551191
0.000496055
0.000451158
0.000413264
0.000379898
0.000349763
0.000322096
0.000296332
0.000271857
0.000247988
0.000223771
0.000205363
0.000171568
0.000171568
0.000255699
0.000362417
0.00055534
0.000832125
0.000853567
0.000852125
0.0014435
0.0015888
0.00147184
0.000668655
0.000435092
0.000668655
0.000528841
0.00171966
0.000956178
0.0018349
)
;
    }
    ceiling
    {
        type            kqRWallFunction;
        value           nonuniform List<scalar> 
43
(
0.00814991
0.0096232
0.0109786
0.0125042
0.0109826
0.00973719
0.00812066
0.00690829
0.00587492
0.00498538
0.00421846
0.00361939
0.00311555
0.00267216
0.00227143
0.00190446
0.00156767
0.00126134
0.000989285
0.000759373
0.000582316
0.000462831
0.000382957
0.000288229
0.000380695
0.000524846
0.000662629
0.000801435
0.000946366
0.00110107
0.0012705
0.00146369
0.00169966
0.00197548
0.00227494
0.00258653
0.00293498
0.00283757
0.00238711
0.00202136
0.0182494
0.0262051
0.0130402
)
;
    }
    sWall
    {
        type            kqRWallFunction;
        value           uniform 0.00814991;
    }
    nWall
    {
        type            kqRWallFunction;
        value           nonuniform List<scalar> 6(0.000852125 0.00138844 0.00208173 0.00241281 0.00246206 0.00202136);
    }
    sideWalls
    {
        type            empty;
    }
    glass1
    {
        type            kqRWallFunction;
        value           nonuniform List<scalar> 9(0.000947232 0.00242302 0.00437419 0.0069428 0.0101091 0.0138932 0.0181063 0.019158 0.0182494);
    }
    glass2
    {
        type            kqRWallFunction;
        value           nonuniform List<scalar> 2(0.00384974 0.00369198);
    }
    sun
    {
        type            kqRWallFunction;
        value           nonuniform List<scalar> 
14
(
0.000947232
0.00101632
0.0009505
0.00101827
0.00108207
0.00113946
0.00119145
0.00123973
0.00128641
0.00133441
0.00137548
0.00140502
0.00142326
0.00143575
)
;
    }
    Table_master
    {
        type            kqRWallFunction;
        value           nonuniform List<scalar> 9(0.000504459 0.000329353 0.000243467 0.000221604 0.000213622 0.000204538 0.000194099 0.000184731 0.000182286);
    }
    Table_slave
    {
        type            kqRWallFunction;
        value           nonuniform List<scalar> 9(0.000599356 0.000608135 0.000645475 0.000688914 0.00073034 0.00075768 0.000756978 0.000716647 0.000671059);
    }
    inlet
    {
        type            turbulentIntensityKineticEnergyInlet;
        intensity       0.05;
        value           uniform 0.0003375;
    }
    outlet
    {
        type            zeroGradient;
    }
}


// ************************************************************************* //
