/*--------------------------------*- C++ -*----------------------------------*\
  =========                 |
  \\      /  F ield         | OpenFOAM: The Open Source CFD Toolbox
   \\    /   O peration     | Website:  https://openfoam.org
    \\  /    A nd           | Version:  6
     \\/     M anipulation  |
\*---------------------------------------------------------------------------*/
FoamFile
{
    version     2.0;
    format      ascii;
    class       volVectorField;
    location    "400";
    object      U;
}
// * * * * * * * * * * * * * * * * * * * * * * * * * * * * * * * * * * * * * //

dimensions      [0 1 -1 0 0 0 0];

internalField   nonuniform List<vector> 
458
(
(0.0336287 0.0924174 0)
(-0.179201 0.0286227 0)
(-0.20841 0.0201611 0)
(-0.243949 0.0140242 0)
(-0.270936 0.00728831 0)
(-0.288365 9.95659e-06 0)
(-0.294373 -0.0080763 0)
(-0.2861 -0.0173231 0)
(-0.262184 -0.0280203 0)
(-0.222108 -0.0388903 0)
(-0.16893 -0.0477027 0)
(-0.109396 -0.0516703 0)
(-0.052394 -0.0471966 0)
(-0.00111118 -0.0254693 0)
(-0.00218736 0.0141214 0)
(-0.00885519 0.0121483 0)
(-0.0402304 -0.017907 0)
(-0.0158877 -0.0292968 0)
(0.0105976 -0.0241636 0)
(0.029476 -0.0160821 0)
(0.0424172 -0.00829888 0)
(0.050021 -0.00428509 0)
(0.0533057 -0.00287478 0)
(0.0544192 -0.00239843 0)
(0.0548244 -0.00214562 0)
(0.0549597 -0.00197539 0)
(0.0548638 -0.00182764 0)
(0.0544556 -0.00158035 0)
(0.053401 -0.000919322 0)
(0.0508251 0.000578237 0)
(0.0459508 0.00175304 0)
(0.0451022 0.00277995 0)
(-0.0220539 0.0221282 0)
(0.216073 0.189064 0)
(-0.16693 0.0755868 0)
(-0.169397 0.0602848 0)
(-0.206382 0.0484147 0)
(-0.233511 0.0350514 0)
(-0.251747 0.0198476 0)
(-0.259518 0.00196715 0)
(-0.25396 -0.0194142 0)
(-0.234033 -0.0434687 0)
(-0.199554 -0.066863 0)
(-0.153732 -0.0843304 0)
(-0.102769 -0.0905683 0)
(-0.0538365 -0.0811622 0)
(-0.0104769 -0.0526779 0)
(0.0249244 -0.0110982 0)
(0.0532689 0.0107241 0)
(0.0625473 0.0390196 0)
(-0.0127653 0.0776509 0)
(0.0768761 0.047184 0)
(0.00919158 -0.0227606 0)
(0.0264936 -0.0381916 0)
(0.0399987 -0.0337533 0)
(0.0508144 -0.0239918 0)
(0.0557391 -0.010544 0)
(0.0570814 -0.00240169 0)
(0.0572758 0.000707682 0)
(0.0575388 0.00186363 0)
(0.0578722 0.00247296 0)
(0.0580982 0.00284909 0)
(0.0581932 0.00312402 0)
(0.0581827 0.00356792 0)
(0.0576382 0.00490377 0)
(0.0544291 0.00936625 0)
(0.0461791 0.0120814 0)
(0.0494241 0.0137997 0)
(-0.0736326 0.0478312 0)
(0.383557 0.283227 0)
(-0.182235 0.12039 0)
(-0.127707 0.0975614 0)
(-0.163514 0.0763878 0)
(-0.188226 0.0543629 0)
(-0.206221 0.0298205 0)
(-0.215752 0.00122501 0)
(-0.212987 -0.0323109 0)
(-0.196207 -0.0699808 0)
(-0.166033 -0.105735 0)
(-0.126317 -0.130764 0)
(-0.0830852 -0.137896 0)
(-0.0422704 -0.12322 0)
(-0.00620694 -0.0873813 0)
(0.0243339 -0.0441991 0)
(0.0431302 -0.0145415 0)
(0.0494293 0.0179909 0)
(-0.0204252 0.0695998 0)
(0.135594 -0.00846291 0)
(0.0780742 -0.0331734 0)
(0.0679737 -0.0414996 0)
(0.069639 -0.0386628 0)
(0.0725868 -0.0323947 0)
(0.0719682 -0.0246691 0)
(0.0639393 -0.016057 0)
(0.0583559 -0.0114483 0)
(0.0563569 -0.00889097 0)
(0.0558517 -0.00726786 0)
(0.0557032 -0.00619547 0)
(0.0557558 -0.00543954 0)
(0.0563136 -0.00465515 0)
(0.0580691 -0.00181105 0)
(0.0552614 0.0140535 0)
(0.041315 0.0223425 0)
(0.0572315 0.026768 0)
(-0.123224 0.0720447 0)
(0.535918 0.359142 0)
(-0.216128 0.159734 0)
(-0.0824289 0.129405 0)
(-0.115651 0.101021 0)
(-0.134302 0.0738105 0)
(-0.149619 0.0430443 0)
(-0.159841 0.00562738 0)
(-0.159164 -0.0399327 0)
(-0.144201 -0.0916114 0)
(-0.118087 -0.139395 0)
(-0.0855 -0.17099 0)
(-0.0517363 -0.178694 0)
(-0.0207159 -0.159728 0)
(0.00708858 -0.117215 0)
(0.0303688 -0.067924 0)
(0.0482016 -0.0243096 0)
(0.0660233 0.0169488 0)
(0.0677305 0.0597638 0)
(0.111932 0.0653341 0)
(0.108703 -0.00282361 0)
(0.0918094 -0.0292343 0)
(0.0832424 -0.0357191 0)
(0.0775673 -0.0342088 0)
(0.071671 -0.0275923 0)
(0.0715554 -0.0164503 0)
(0.0794864 -0.0109114 0)
(0.0859077 -0.00794565 0)
(0.0895029 -0.00615522 0)
(0.0915265 -0.00463242 0)
(0.092028 -0.00281198 0)
(0.0896614 -0.000206617 0)
(0.0827722 0.00368286 0)
(0.0688137 0.00951787 0)
(0.0523888 0.0267243 0)
(0.0355844 0.0391151 0)
(0.0650916 0.0472478 0)
(-0.176537 0.0893582 0)
(0.669433 0.417648 0)
(-0.259422 0.191027 0)
(-0.0360918 0.14759 0)
(-0.0635352 0.11611 0)
(-0.0729255 0.0873494 0)
(-0.082376 0.0538311 0)
(-0.0910578 0.0108631 0)
(-0.0900141 -0.0445065 0)
(-0.0746584 -0.109288 0)
(-0.0537418 -0.166185 0)
(-0.0311414 -0.200965 0)
(-0.0101816 -0.207436 0)
(0.00829329 -0.183964 0)
(0.0240421 -0.139315 0)
(0.0385078 -0.0866563 0)
(0.0513353 -0.0381048 0)
(0.0662135 0.00216378 0)
(0.082162 0.0229516 0)
(0.0967261 0.00171196 0)
(0.0946905 -0.0198432 0)
(0.0856064 -0.0277425 0)
(0.0751326 -0.0289534 0)
(0.0657844 -0.0267066 0)
(0.0582813 -0.0209247 0)
(0.0552208 -0.0111623 0)
(0.0565985 -0.00581447 0)
(0.0588417 -0.00384016 0)
(0.0610475 -0.00292741 0)
(0.0634806 -0.00154784 0)
(0.0660313 0.00133833 0)
(0.0675507 0.00626146 0)
(0.0667359 0.013576 0)
(0.0629058 0.0236239 0)
(0.0567041 0.0379693 0)
(0.0454781 0.0518367 0)
(0.0771455 0.0673524 0)
(-0.0193912 0.0903492 0)
(0.0656262 0.166668 0)
(-0.0800131 0.103681 0)
(-0.293015 0.0181162 0)
(0.768308 0.465614 0)
(-0.30313 0.210291 0)
(0.00161837 0.141392 0)
(-0.00792199 0.119304 0)
(-0.00648078 0.0962153 0)
(-0.00896249 0.0633167 0)
(-0.0145548 0.0183301 0)
(-0.00596475 -0.0469262 0)
(0.0113182 -0.125155 0)
(0.0243333 -0.185006 0)
(0.0336022 -0.217475 0)
(0.0387793 -0.220096 0)
(0.0409626 -0.194883 0)
(0.0422442 -0.149079 0)
(0.0438081 -0.0951856 0)
(0.0463804 -0.0463488 0)
(0.052063 -0.0100493 0)
(0.0617125 0.00740693 0)
(0.0675848 0.00178032 0)
(0.0653384 -0.0081628 0)
(0.0574153 -0.0151733 0)
(0.0477578 -0.0181011 0)
(0.0388989 -0.0177497 0)
(0.0319644 -0.0145961 0)
(0.0282403 -0.00964921 0)
(0.0278789 -0.00700358 0)
(0.0294029 -0.00651597 0)
(0.0321386 -0.00666275 0)
(0.0360125 -0.00607829 0)
(0.0408928 -0.00340745 0)
(0.0468625 0.00271767 0)
(0.0519896 0.0122665 0)
(0.0558106 0.024557 0)
(0.0592618 0.038831 0)
(0.0600026 0.0529081 0)
(0.0836316 0.0703161 0)
(0.0685266 0.075228 0)
(0.106818 0.0899943 0)
(0.121621 0.0568333 0)
(-0.133813 -0.0258838 0)
(0.829998 0.509129 0)
(-0.324541 0.190372 0)
(0.0380041 0.0776382 0)
(0.0633177 0.0964666 0)
(0.0712936 0.0978531 0)
(0.0723132 0.0693875 0)
(0.0737469 0.0171203 0)
(0.0932474 -0.0608885 0)
(0.107374 -0.136084 0)
(0.110321 -0.190589 0)
(0.103913 -0.217222 0)
(0.0906665 -0.215396 0)
(0.0737168 -0.188129 0)
(0.0566016 -0.142255 0)
(0.0416671 -0.0892279 0)
(0.0310098 -0.0427974 0)
(0.0262328 -0.0110052 0)
(0.027222 0.00381773 0)
(0.0282647 0.00343642 0)
(0.025848 -0.00230786 0)
(0.0199755 -0.00747593 0)
(0.0126495 -0.0102066 0)
(0.00567558 -0.0107334 0)
(0.000193508 -0.00964354 0)
(-0.00274424 -0.0079771 0)
(-0.00304604 -0.00769148 0)
(-0.00155881 -0.00877577 0)
(0.00130034 -0.010352 0)
(0.00546237 -0.0113104 0)
(0.0111516 -0.0103557 0)
(0.0187472 -0.00569595 0)
(0.0297917 0.00444819 0)
(0.0402746 0.017266 0)
(0.0511034 0.0305962 0)
(0.0613508 0.0427241 0)
(0.0814647 0.0561958 0)
(0.0944065 0.0568585 0)
(0.12629 0.0525274 0)
(0.171876 0.0487428 0)
(-0.0151292 0.100295 0)
(0.940509 0.506439 0)
(-0.0530314 0.168006 0)
(0.137335 -0.0105418 0)
(0.21025 -0.00729868 0)
(0.207164 0.0144146 0)
(0.19424 0.00100274 0)
(0.194944 -0.0482804 0)
(0.213786 -0.0992209 0)
(0.216878 -0.147723 0)
(0.201831 -0.183114 0)
(0.173229 -0.197472 0)
(0.13618 -0.189171 0)
(0.0959432 -0.16037 0)
(0.0577507 -0.116305 0)
(0.025124 -0.0670496 0)
(0.0022996 -0.027059 0)
(-0.00920519 -0.00380188 0)
(-0.0123472 0.00514714 0)
(-0.0130661 0.00512715 0)
(-0.0153429 0.0015804 0)
(-0.0190049 -0.00192491 0)
(-0.0239496 -0.00417026 0)
(-0.0287339 -0.00535891 0)
(-0.0324601 -0.00596371 0)
(-0.034529 -0.00664609 0)
(-0.0350343 -0.00818827 0)
(-0.0345573 -0.0105855 0)
(-0.0335206 -0.0133675 0)
(-0.0320105 -0.0159031 0)
(-0.029759 -0.0174314 0)
(-0.0261152 -0.0169422 0)
(-0.0196035 -0.013241 0)
(-0.00458627 -0.00522024 0)
(0.0103513 0.00481979 0)
(0.0218349 0.0121213 0)
(0.0358705 0.0185612 0)
(0.0456062 0.0140711 0)
(0.0656692 0.00431984 0)
(0.137178 0.0616799 0)
(-0.49243 0.235451 0)
(1.09352 0.43972 0)
(0.515971 0.292664 0)
(0.559596 0.3237 0)
(0.5825 0.280746 0)
(0.538406 0.214872 0)
(0.483082 0.140448 0)
(0.445389 0.0637678 0)
(0.399192 -0.0168588 0)
(0.345015 -0.0844324 0)
(0.284617 -0.12766 0)
(0.219645 -0.143636 0)
(0.152846 -0.136254 0)
(0.0881558 -0.110583 0)
(0.0309572 -0.0720686 0)
(-0.0146588 -0.0305827 0)
(-0.0378273 -0.00740189 0)
(-0.0479878 0.00305009 0)
(-0.0503748 0.00649062 0)
(-0.0511259 0.0060014 0)
(-0.0525623 0.00381191 0)
(-0.0550409 0.00150515 0)
(-0.0580184 -0.000354851 0)
(-0.0611512 -0.00192091 0)
(-0.0639176 -0.00352816 0)
(-0.0660636 -0.00543882 0)
(-0.0679258 -0.00779677 0)
(-0.0701723 -0.0103754 0)
(-0.0734855 -0.0127064 0)
(-0.0784796 -0.0141642 0)
(-0.0857753 -0.013926 0)
(-0.0961759 -0.0108184 0)
(-0.110607 -0.00335562 0)
(-0.128448 0.00940359 0)
(-0.148549 0.0264955 0)
(-0.178461 0.0467341 0)
(-0.222537 0.0678634 0)
(-0.280955 0.0850298 0)
(-0.341237 0.0938737 0)
(-0.415442 0.0927192 0)
(-0.697183 0.0801976 0)
(0.61207 -0.314839 0)
(0.546563 -0.0445016 0)
(0.482819 0.0717593 0)
(0.42203 0.083728 0)
(0.373958 0.0438446 0)
(0.332631 -0.00747788 0)
(0.28457 -0.0488542 0)
(0.223412 -0.0727791 0)
(0.155435 -0.0783432 0)
(0.0853595 -0.068574 0)
(0.0165771 -0.0460122 0)
(-0.0407974 -0.0175613 0)
(-0.0685199 -0.00245438 0)
(-0.0802257 0.00294984 0)
(-0.0834885 0.00451581 0)
(-0.0836794 0.00425431 0)
(-0.0831958 0.00273632 0)
(-0.0832384 0.000377057 0)
(-0.0841387 -0.00237434 0)
(-0.0857301 -0.00520289 0)
(-0.087704 -0.00793175 0)
(-0.0898134 -0.0103552 0)
(-0.0920372 -0.0121806 0)
(-0.0945908 -0.0136098 0)
(-0.098046 -0.0144839 0)
(-0.102845 -0.0144394 0)
(-0.109083 -0.012896 0)
(-0.116348 -0.00908709 0)
(-0.123714 -0.00210615 0)
(-0.130287 0.0082333 0)
(-0.135977 0.0228221 0)
(-0.141273 0.0425935 0)
(-0.147776 0.0661505 0)
(-0.156409 0.0883502 0)
(-0.162352 0.0985229 0)
(-0.14613 0.0750187 0)
(-0.0944466 -0.030013 0)
(-0.288112 -0.242269 0)
(0.0688242 0.440756 0)
(-0.0932065 0.28272 0)
(-0.0283621 0.226488 0)
(0.0131551 0.156229 0)
(0.0347523 0.0909012 0)
(0.0372047 0.0395008 0)
(0.0329379 0.009081 0)
(0.0126093 -0.00443262 0)
(-0.0276724 0.00274105 0)
(-0.0677686 0.016275 0)
(-0.0969841 0.0270216 0)
(-0.111663 0.0319733 0)
(-0.114989 0.0319872 0)
(-0.114807 0.0317552 0)
(-0.113016 0.0323803 0)
(-0.110766 0.0339511 0)
(-0.10861 0.0362929 0)
(-0.10682 0.0392959 0)
(-0.105402 0.0428084 0)
(-0.104236 0.046439 0)
(-0.103276 0.0494758 0)
(-0.102578 0.050849 0)
(-0.102149 0.0504741 0)
(-0.10213 0.0497369 0)
(-0.102639 0.0489368 0)
(-0.103699 0.0478728 0)
(-0.105248 0.0461915 0)
(-0.107024 0.0433269 0)
(-0.108216 0.039771 0)
(-0.107193 0.0387144 0)
(-0.101928 0.0423215 0)
(-0.0909911 0.052488 0)
(-0.0749077 0.0694647 0)
(-0.0546324 0.0879423 0)
(-0.0325532 0.10002 0)
(0.0083111 0.0883871 0)
(0.143189 0.00974325 0)
(-0.20112 -0.157438 0)
(-0.745602 -0.736583 0)
(-0.906172 -0.192001 0)
(-0.721641 0.225149 0)
(-0.614043 0.104663 0)
(-0.431329 0.0650148 0)
(-0.310097 0.0209619 0)
(-0.225235 -0.0265671 0)
(-0.178938 -0.0635616 0)
(-0.163299 -0.0796647 0)
(-0.161776 -0.0792715 0)
(-0.164129 -0.0753579 0)
(-0.16138 -0.0726658 0)
(-0.155074 -0.0724677 0)
(-0.14657 -0.0746251 0)
(-0.138174 -0.0790738 0)
(-0.131008 -0.0840554 0)
(-0.124681 -0.0895544 0)
(-0.118922 -0.0960807 0)
(-0.113681 -0.104192 0)
(-0.109084 -0.113977 0)
(-0.1053 -0.124972 0)
(-0.10247 -0.136254 0)
(-0.100697 -0.146435 0)
(-0.100133 -0.153729 0)
(-0.100929 -0.157929 0)
(-0.102837 -0.159588 0)
(-0.105197 -0.158626 0)
(-0.107305 -0.15486 0)
(-0.108503 -0.14783 0)
(-0.108189 -0.136711 0)
(-0.105531 -0.121774 0)
(-0.0984858 -0.10437 0)
(-0.0837061 -0.0847088 0)
(-0.0587699 -0.062304 0)
(-0.0262301 -0.0366795 0)
(0.0366407 -0.00225678 0)
(0.0868536 -0.00178678 0)
(0.137097 -0.0257382 0)
(0.187375 -0.0747143 0)
(-0.148736 -0.148719 0)
)
;

boundaryField
{
    floor
    {
        type            noSlip;
    }
    ceiling
    {
        type            noSlip;
    }
    sWall
    {
        type            noSlip;
    }
    nWall
    {
        type            noSlip;
    }
    sideWalls
    {
        type            empty;
    }
    glass1
    {
        type            noSlip;
    }
    glass2
    {
        type            noSlip;
    }
    sun
    {
        type            noSlip;
    }
    Table_master
    {
        type            noSlip;
    }
    Table_slave
    {
        type            noSlip;
    }
    inlet
    {
        type            fixedValue;
        value           uniform (0.707107 -0.707107 0);
    }
    outlet
    {
        type            zeroGradient;
    }
}


// ************************************************************************* //
