/*--------------------------------*- C++ -*----------------------------------*\
  =========                 |
  \\      /  F ield         | OpenFOAM: The Open Source CFD Toolbox
   \\    /   O peration     | Website:  https://openfoam.org
    \\  /    A nd           | Version:  6
     \\/     M anipulation  |
\*---------------------------------------------------------------------------*/
FoamFile
{
    version     2.0;
    format      ascii;
    class       volVectorField;
    location    "700";
    object      U;
}
// * * * * * * * * * * * * * * * * * * * * * * * * * * * * * * * * * * * * * //

dimensions      [0 1 -1 0 0 0 0];

internalField   nonuniform List<vector> 
458
(
(0.0301913 0.0833503 0)
(-0.161319 0.0261863 0)
(-0.188578 0.0198267 0)
(-0.222535 0.0148859 0)
(-0.249763 0.00968048 0)
(-0.26983 0.00425231 0)
(-0.281772 -0.00160877 0)
(-0.283952 -0.00815285 0)
(-0.274422 -0.015653 0)
(-0.252479 -0.0238992 0)
(-0.218386 -0.0318054 0)
(-0.174438 -0.0381639 0)
(-0.124665 -0.0422796 0)
(-0.0761101 -0.0445963 0)
(-0.0448127 -0.0460578 0)
(-0.00719323 0.0141456 0)
(-0.0326898 0.00115895 0)
(-0.0302498 -0.00285476 0)
(-0.0259167 -0.0030089 0)
(-0.0222585 -0.00195668 0)
(-0.0195789 -0.0014619 0)
(-0.0176871 -0.000993748 0)
(-0.0168361 -0.000880573 0)
(-0.0165163 -0.00105571 0)
(-0.0163322 -0.00130858 0)
(-0.0161183 -0.00155867 0)
(-0.0157862 -0.00182505 0)
(-0.0151273 -0.00224123 0)
(-0.0136122 -0.00310225 0)
(-0.0104763 -0.00507403 0)
(-0.00484367 -0.0100663 0)
(0.0214292 -0.0135607 0)
(-0.0360782 0.00407177 0)
(0.198587 0.170197 0)
(-0.151078 0.0671843 0)
(-0.152183 0.0562586 0)
(-0.186843 0.0467551 0)
(-0.213346 0.036541 0)
(-0.233135 0.0253927 0)
(-0.245438 0.01263 0)
(-0.24864 -0.00246489 0)
(-0.240565 -0.020162 0)
(-0.221015 -0.0389371 0)
(-0.190575 -0.0558628 0)
(-0.152082 -0.0678656 0)
(-0.109944 -0.0729395 0)
(-0.0701501 -0.070605 0)
(-0.0394358 -0.0605824 0)
(-0.0119963 -0.0352156 0)
(0.0202279 0.00450201 0)
(-0.00938968 0.0367138 0)
(0.0369915 0.0322094 0)
(-0.0061358 0.0022277 0)
(0.0131945 -0.00900467 0)
(0.0166127 -0.00712466 0)
(0.0189916 -0.00356947 0)
(0.0193531 -0.00222271 0)
(0.0202245 -0.000868167 0)
(0.0205954 0.000318702 0)
(0.0205197 0.00108837 0)
(0.0201572 0.00139103 0)
(0.0194219 0.00135574 0)
(0.0183702 0.00114416 0)
(0.0170386 0.000855338 0)
(0.0149866 0.000421322 0)
(0.00982202 0.000155036 0)
(0.00988426 -0.00862992 0)
(0.0209796 -0.0111557 0)
(-0.0887802 0.0135995 0)
(0.354897 0.254894 0)
(-0.167938 0.106538 0)
(-0.113142 0.0905988 0)
(-0.146459 0.0733998 0)
(-0.169414 0.0564102 0)
(-0.187367 0.0382314 0)
(-0.199522 0.0175032 0)
(-0.203773 -0.00685699 0)
(-0.196665 -0.0349905 0)
(-0.178618 -0.0645043 0)
(-0.150859 -0.0901883 0)
(-0.11684 -0.107114 0)
(-0.0808386 -0.112376 0)
(-0.0475168 -0.105081 0)
(-0.0204609 -0.0850491 0)
(0.00200132 -0.050217 0)
(0.0184227 -0.0109411 0)
(-0.000225727 0.0373803 0)
(0.0755627 0.00158795 0)
(0.0581184 -0.00965385 0)
(0.0571295 -0.0126168 0)
(0.057911 -0.00942468 0)
(0.0566334 -0.00525354 0)
(0.0521791 -0.00665657 0)
(0.0498054 -0.0052559 0)
(0.0489546 -0.00429253 0)
(0.04893 -0.00365194 0)
(0.0492699 -0.00324183 0)
(0.0498203 -0.00299798 0)
(0.0504473 -0.00286511 0)
(0.0511816 -0.00280379 0)
(0.0517326 -0.00171517 0)
(0.0484725 0.0087667 0)
(0.0399368 0.0149499 0)
(-0.00445264 0.00609296 0)
(-0.11878 -0.000960291 0)
(0.497574 0.322994 0)
(-0.203455 0.140541 0)
(-0.0712763 0.118948 0)
(-0.103013 0.095525 0)
(-0.118936 0.0745567 0)
(-0.132455 0.0520692 0)
(-0.143 0.0254145 0)
(-0.147596 -0.00741252 0)
(-0.140258 -0.0462833 0)
(-0.123004 -0.0865483 0)
(-0.09847 -0.120151 0)
(-0.0704127 -0.140841 0)
(-0.0422653 -0.145634 0)
(-0.0172476 -0.134172 0)
(0.00402437 -0.107109 0)
(0.022251 -0.0687417 0)
(0.0426048 -0.0268107 0)
(0.0625345 0.0163137 0)
(0.0972099 0.0129026 0)
(0.103256 -0.00901751 0)
(0.0965147 -0.0135539 0)
(0.0915634 -0.0120216 0)
(0.08872 -0.00799853 0)
(0.0874356 -0.00226402 0)
(0.0883957 -0.000795122 0)
(0.0884276 -0.00108945 0)
(0.088071 -0.00144194 0)
(0.0878921 -0.00179208 0)
(0.0880503 -0.00207603 0)
(0.0883507 -0.00213427 0)
(0.0881141 -0.00165154 0)
(0.0860647 -8.07317e-05 0)
(0.0806695 0.00322475 0)
(0.0715684 0.0157044 0)
(0.0658485 0.0280491 0)
(0.0570279 0.0296252 0)
(-0.00481378 0.0258378 0)
(0.622238 0.375571 0)
(-0.247768 0.16779 0)
(-0.0288474 0.134482 0)
(-0.0579584 0.108076 0)
(-0.0644418 0.0857354 0)
(-0.0708301 0.0614965 0)
(-0.0775806 0.0315943 0)
(-0.0804623 -0.00755519 0)
(-0.0701154 -0.05641 0)
(-0.053323 -0.105812 0)
(-0.0338449 -0.144371 0)
(-0.01438 -0.166078 0)
(0.00341083 -0.168727 0)
(0.01783 -0.153213 0)
(0.0297367 -0.124006 0)
(0.0411785 -0.0860171 0)
(0.0552157 -0.0468191 0)
(0.0737791 -0.0183316 0)
(0.088275 -0.0144997 0)
(0.0914532 -0.0150542 0)
(0.0879447 -0.0123166 0)
(0.0829451 -0.00825408 0)
(0.0785368 -0.00433222 0)
(0.0749626 -0.00105296 0)
(0.0720525 0.000664805 0)
(0.0696847 0.00115981 0)
(0.0676171 0.00101505 0)
(0.0661161 0.000576255 0)
(0.0653892 0.000139014 0)
(0.0653949 0.000143438 0)
(0.0661494 0.00128542 0)
(0.067374 0.00446947 0)
(0.0690747 0.0107163 0)
(0.0715676 0.020997 0)
(0.0762145 0.0311953 0)
(0.0851831 0.0358857 0)
(0.0806295 0.0368743 0)
(0.0985606 0.0472969 0)
(0.105359 0.0602289 0)
(-0.104602 0.0917904 0)
(0.713152 0.419447 0)
(-0.291038 0.185723 0)
(0.00457113 0.12891 0)
(-0.01208 0.110186 0)
(-0.00858367 0.0908718 0)
(-0.00729778 0.0667364 0)
(-0.00916633 0.036749 0)
(-0.00488102 -0.00649067 0)
(0.0124005 -0.0682454 0)
(0.0272174 -0.122512 0)
(0.0388753 -0.160579 0)
(0.0470974 -0.179448 0)
(0.0517136 -0.178979 0)
(0.0535929 -0.161439 0)
(0.0541087 -0.131096 0)
(0.0549785 -0.0939257 0)
(0.0581065 -0.0570511 0)
(0.0642694 -0.028809 0)
(0.0687726 -0.0158141 0)
(0.0678407 -0.0102364 0)
(0.0631061 -0.0063526 0)
(0.0574089 -0.00266012 0)
(0.051891 0.000629625 0)
(0.0474831 0.00306093 0)
(0.0441805 0.00418599 0)
(0.0414272 0.00400807 0)
(0.0390004 0.0030725 0)
(0.0370391 0.00175342 0)
(0.035821 0.000346494 0)
(0.035682 -0.00075854 0)
(0.0369865 -0.000922913 0)
(0.0406846 0.000836693 0)
(0.0474798 0.00551701 0)
(0.0570937 0.0129041 0)
(0.0694714 0.0205773 0)
(0.0841571 0.0252763 0)
(0.0942789 0.0233226 0)
(0.0982919 0.0176282 0)
(0.107423 0.0382783 0)
(-0.0893345 0.0986179 0)
(0.76071 0.458997 0)
(-0.313185 0.169157 0)
(0.0307188 0.0744424 0)
(0.0459324 0.0917358 0)
(0.0547719 0.0909505 0)
(0.0602457 0.06882 0)
(0.0650026 0.0333409 0)
(0.083306 -0.0207113 0)
(0.101943 -0.0819633 0)
(0.112146 -0.132454 0)
(0.113899 -0.165536 0)
(0.108827 -0.179669 0)
(0.0986443 -0.175567 0)
(0.0856352 -0.155965 0)
(0.0719346 -0.125174 0)
(0.0595826 -0.0893123 0)
(0.0501101 -0.0548475 0)
(0.0443082 -0.0283187 0)
(0.0400973 -0.0131182 0)
(0.0350341 -0.00536248 0)
(0.0289763 -0.000696466 0)
(0.0231376 0.00275994 0)
(0.0188295 0.00516304 0)
(0.015546 0.00657048 0)
(0.0128252 0.00699065 0)
(0.0101821 0.00650105 0)
(0.00738614 0.00534512 0)
(0.00452433 0.00363527 0)
(0.00189522 0.00140915 0)
(0.000174337 -0.00119755 0)
(-0.000264956 -0.00375171 0)
(0.00126973 -0.00572552 0)
(0.00626868 -0.0062623 0)
(0.0162523 -0.00467747 0)
(0.0301472 -0.00213083 0)
(0.0456297 -0.00129876 0)
(0.0579411 -0.00561334 0)
(0.0704352 -0.00749713 0)
(0.0975495 0.0376092 0)
(-0.0820205 0.147497 0)
(0.86098 0.461824 0)
(-0.0763488 0.145914 0)
(0.107967 -0.0103116 0)
(0.169185 -0.00310217 0)
(0.168154 0.0172186 0)
(0.163088 0.00930927 0)
(0.16671 -0.0251597 0)
(0.191053 -0.0655998 0)
(0.204268 -0.104668 0)
(0.201921 -0.136956 0)
(0.187075 -0.157372 0)
(0.163466 -0.163421 0)
(0.13463 -0.154918 0)
(0.104241 -0.134061 0)
(0.0749407 -0.104228 0)
(0.0491119 -0.0711112 0)
(0.028057 -0.040396 0)
(0.0134388 -0.0179231 0)
(0.0040236 -0.00503426 0)
(-0.00308069 0.00163066 0)
(-0.00773907 0.00489837 0)
(-0.0110372 0.00686762 0)
(-0.0135557 0.00818896 0)
(-0.0157294 0.00906858 0)
(-0.0180055 0.00950462 0)
(-0.0208056 0.00945606 0)
(-0.0244169 0.00883989 0)
(-0.0289736 0.00741688 0)
(-0.0344799 0.00492184 0)
(-0.0407017 0.00140699 0)
(-0.0466536 -0.00261864 0)
(-0.0521866 -0.00618573 0)
(-0.0575326 -0.00798066 0)
(-0.0627498 -0.00662924 0)
(-0.0692528 -0.000831465 0)
(-0.0774697 0.0102351 0)
(-0.0833341 0.0286894 0)
(-0.0823191 0.061949 0)
(-0.109918 0.117879 0)
(-0.397089 0.194763 0)
(0.996511 0.425162 0)
(0.473498 0.28999 0)
(0.503684 0.269684 0)
(0.515297 0.218504 0)
(0.474004 0.166381 0)
(0.428053 0.112159 0)
(0.400082 0.056395 0)
(0.369846 -0.00238011 0)
(0.332095 -0.0552588 0)
(0.288941 -0.0940308 0)
(0.241522 -0.115916 0)
(0.19151 -0.121709 0)
(0.141238 -0.113474 0)
(0.0940374 -0.0947159 0)
(0.0515056 -0.0684402 0)
(0.0164428 -0.0404957 0)
(-0.0111721 -0.0158494 0)
(-0.0259957 -0.00260378 0)
(-0.0344341 0.00400574 0)
(-0.0381981 0.00693954 0)
(-0.0402424 0.00845991 0)
(-0.0415632 0.00960539 0)
(-0.0425784 0.0106618 0)
(-0.0435883 0.0116902 0)
(-0.0448751 0.0126547 0)
(-0.0467059 0.0134693 0)
(-0.0493325 0.0139973 0)
(-0.0530692 0.0140378 0)
(-0.0584326 0.0134156 0)
(-0.0662313 0.0121919 0)
(-0.0774119 0.0108219 0)
(-0.0927853 0.00990552 0)
(-0.11241 0.00991063 0)
(-0.13589 0.0114932 0)
(-0.161888 0.0150495 0)
(-0.188977 0.0206155 0)
(-0.214881 0.0265615 0)
(-0.240324 0.0259937 0)
(-0.291124 0.00681467 0)
(-0.458875 -0.037917 0)
(0.377608 -0.172094 0)
(0.389913 0.00572969 0)
(0.380353 0.070762 0)
(0.354049 0.0691108 0)
(0.330049 0.0367242 0)
(0.307226 -0.00246569 0)
(0.277946 -0.0355134 0)
(0.237922 -0.0583682 0)
(0.189988 -0.0705875 0)
(0.137491 -0.0724536 0)
(0.0838707 -0.0641657 0)
(0.0346865 -0.0480508 0)
(-0.0105084 -0.0242032 0)
(-0.0401459 -0.00397015 0)
(-0.0570148 0.00736148 0)
(-0.0647104 0.012356 0)
(-0.0673677 0.0145298 0)
(-0.0680596 0.0157222 0)
(-0.0678822 0.0165941 0)
(-0.0672753 0.0174081 0)
(-0.0664086 0.0182237 0)
(-0.0653776 0.0190306 0)
(-0.0642611 0.0197843 0)
(-0.0631402 0.0204236 0)
(-0.0621183 0.0208857 0)
(-0.0613603 0.0211338 0)
(-0.0611248 0.0212279 0)
(-0.0617256 0.0214191 0)
(-0.0633984 0.0221455 0)
(-0.0661857 0.023812 0)
(-0.06992 0.0266702 0)
(-0.0742989 0.0311113 0)
(-0.0783974 0.0379556 0)
(-0.0797699 0.0479091 0)
(-0.0767874 0.0590423 0)
(-0.0721046 0.0617157 0)
(0.0453398 -0.0117994 0)
(-0.105386 -0.155534 0)
(0.101562 0.290319 0)
(-0.0116074 0.192303 0)
(0.0388777 0.144449 0)
(0.0697996 0.0989838 0)
(0.0901637 0.0504089 0)
(0.0955162 0.00676766 0)
(0.0931332 -0.0240599 0)
(0.0772553 -0.0403961 0)
(0.0495084 -0.0479072 0)
(0.0147857 -0.0488631 0)
(-0.0238293 -0.0459253 0)
(-0.0527749 -0.043857 0)
(-0.0742193 -0.0428143 0)
(-0.0852081 -0.0449321 0)
(-0.0891963 -0.0474043 0)
(-0.090199 -0.0499211 0)
(-0.0897739 -0.0518423 0)
(-0.088628 -0.0529451 0)
(-0.0869875 -0.0533751 0)
(-0.0849362 -0.0532008 0)
(-0.0824823 -0.052456 0)
(-0.079604 -0.0511706 0)
(-0.0762764 -0.0493831 0)
(-0.0724894 -0.0471409 0)
(-0.0682619 -0.0444945 0)
(-0.0636461 -0.0414782 0)
(-0.0587071 -0.0380625 0)
(-0.0534627 -0.0341171 0)
(-0.0477982 -0.0294969 0)
(-0.0413631 -0.0243409 0)
(-0.0335261 -0.0194518 0)
(-0.023879 -0.0155323 0)
(-0.0113014 -0.0128557 0)
(0.00791206 -0.0139064 0)
(0.0326517 -0.0272834 0)
(0.0636496 -0.0518613 0)
(0.125035 -0.0772301 0)
(-0.0310857 -0.122933 0)
(-0.376589 -0.478079 0)
(-0.584781 -0.12278 0)
(-0.458059 0.16922 0)
(-0.38858 0.106792 0)
(-0.263014 0.0855502 0)
(-0.180174 0.0670574 0)
(-0.123437 0.0547477 0)
(-0.0959362 0.0598644 0)
(-0.0900377 0.0776643 0)
(-0.0947105 0.0913054 0)
(-0.107798 0.106904 0)
(-0.119401 0.12231 0)
(-0.126795 0.136368 0)
(-0.128681 0.149146 0)
(-0.126241 0.160486 0)
(-0.121791 0.171523 0)
(-0.116545 0.179891 0)
(-0.111459 0.186125 0)
(-0.106775 0.190868 0)
(-0.102339 0.194553 0)
(-0.0979019 0.197547 0)
(-0.0932591 0.200016 0)
(-0.0882454 0.20203 0)
(-0.0827336 0.20362 0)
(-0.0766315 0.204797 0)
(-0.069882 0.205564 0)
(-0.0624586 0.205929 0)
(-0.0543505 0.205912 0)
(-0.0455327 0.205553 0)
(-0.0359537 0.204939 0)
(-0.0256038 0.204284 0)
(-0.0144466 0.204011 0)
(-0.000538275 0.2032 0)
(0.0136222 0.201431 0)
(0.0285912 0.200632 0)
(0.0437555 0.201304 0)
(0.0553197 0.208625 0)
(0.0507543 0.204934 0)
(0.148399 0.175617 0)
(-0.432416 0.28996 0)
)
;

boundaryField
{
    floor
    {
        type            noSlip;
    }
    ceiling
    {
        type            noSlip;
    }
    sWall
    {
        type            noSlip;
    }
    nWall
    {
        type            noSlip;
    }
    sideWalls
    {
        type            empty;
    }
    glass1
    {
        type            noSlip;
    }
    glass2
    {
        type            noSlip;
    }
    sun
    {
        type            noSlip;
    }
    Table_master
    {
        type            noSlip;
    }
    Table_slave
    {
        type            noSlip;
    }
    inlet
    {
        type            fixedValue;
        value           uniform (0.494975 -0.494975 0);
    }
    outlet
    {
        type            zeroGradient;
    }
}


// ************************************************************************* //
