/*--------------------------------*- C++ -*----------------------------------*\
  =========                 |
  \\      /  F ield         | OpenFOAM: The Open Source CFD Toolbox
   \\    /   O peration     | Website:  https://openfoam.org
    \\  /    A nd           | Version:  6
     \\/     M anipulation  |
\*---------------------------------------------------------------------------*/
FoamFile
{
    version     2.0;
    format      ascii;
    class       volScalarField;
    location    "2200";
    object      T;
}
// * * * * * * * * * * * * * * * * * * * * * * * * * * * * * * * * * * * * * //

dimensions      [0 0 0 1 0 0 0];

internalField   nonuniform List<scalar> 
458
(
303.939
303.647
303.638
303.638
303.637
303.636
303.636
303.635
303.633
303.632
303.63
303.626
303.62
303.613
303.605
303.486
303.469
303.462
303.458
303.456
303.453
303.451
303.449
303.447
303.445
303.443
303.44
303.438
303.435
303.432
303.429
303.425
303.429
304.147
303.679
303.656
303.659
303.663
303.666
303.668
303.67
303.67
303.669
303.665
303.657
303.643
303.623
303.6
303.58
303.565
303.556
303.484
303.47
303.46
303.456
303.455
303.45
303.445
303.439
303.434
303.428
303.423
303.417
303.412
303.408
303.405
303.403
303.402
303.415
304.35
303.724
303.679
303.688
303.699
303.71
303.72
303.728
303.733
303.735
303.731
303.72
303.699
303.669
303.634
303.6
303.569
303.545
303.485
303.468
303.461
303.46
303.461
303.455
303.446
303.437
303.427
303.418
303.409
303.401
303.393
303.387
303.386
303.386
303.388
303.406
304.541
303.783
303.704
303.715
303.734
303.753
303.772
303.789
303.802
303.809
303.807
303.794
303.767
303.729
303.682
303.633
303.586
303.541
303.513
303.489
303.473
303.465
303.466
303.469
303.468
303.467
303.467
303.466
303.465
303.463
303.461
303.458
303.453
303.433
303.411
303.395
303.402
304.717
303.859
303.735
303.736
303.76
303.786
303.813
303.839
303.862
303.876
303.88
303.867
303.837
303.791
303.736
303.677
303.62
303.57
303.531
303.5
303.478
303.469
303.471
303.477
303.48
303.481
303.482
303.481
303.48
303.478
303.474
303.469
303.462
303.449
303.429
303.408
303.401
303.4
303.4
303.441
304.866
303.958
303.796
303.763
303.779
303.805
303.836
303.867
303.898
303.924
303.936
303.926
303.893
303.841
303.779
303.714
303.651
303.594
303.546
303.508
303.48
303.471
303.476
303.484
303.489
303.492
303.493
303.493
303.491
303.488
303.483
303.477
303.468
303.457
303.44
303.421
303.408
303.403
303.401
303.442
304.987
304.122
303.965
303.871
303.837
303.837
303.857
303.885
303.916
303.952
303.971
303.96
303.924
303.869
303.803
303.735
303.669
303.608
303.556
303.513
303.48
303.472
303.481
303.491
303.497
303.501
303.502
303.502
303.5
303.496
303.491
303.482
303.472
303.46
303.447
303.431
303.418
303.411
303.409
303.44
305.192
304.548
304.38
304.218
304.086
304.006
303.971
303.963
303.972
303.994
303.997
303.972
303.925
303.864
303.796
303.729
303.665
303.607
303.557
303.513
303.479
303.473
303.485
303.496
303.504
303.508
303.51
303.51
303.508
303.505
303.499
303.492
303.481
303.467
303.456
303.446
303.439
303.438
303.443
303.559
305.477
305.2
304.903
304.665
304.471
304.324
304.222
304.155
304.114
304.076
304.019
303.952
303.883
303.813
303.747
303.687
303.632
303.583
303.54
303.502
303.473
303.472
303.487
303.5
303.509
303.514
303.517
303.519
303.518
303.517
303.514
303.512
303.511
303.514
303.523
303.539
303.563
303.591
303.615
303.672
297.131
301.524
302.96
303.46
303.67
303.758
303.788
303.787
303.774
303.748
303.715
303.678
303.641
303.603
303.568
303.536
303.507
303.48
303.462
303.47
303.488
303.503
303.513
303.52
303.525
303.528
303.531
303.534
303.536
303.539
303.542
303.547
303.556
303.57
303.588
303.608
303.625
303.642
298.068
301.37
302.451
303.011
303.295
303.433
303.497
303.521
303.532
303.535
303.533
303.526
303.517
303.505
303.493
303.48
303.466
303.452
303.449
303.466
303.486
303.501
303.512
303.52
303.527
303.533
303.538
303.542
303.546
303.55
303.554
303.558
303.565
303.575
303.588
303.601
303.601
303.625
300.316
300.243
300.239
302.107
302.661
302.995
303.229
303.31
303.351
303.372
303.384
303.394
303.404
303.412
303.419
303.424
303.428
303.43
303.425
303.42
303.435
303.456
303.474
303.488
303.5
303.509
303.517
303.524
303.53
303.535
303.54
303.545
303.55
303.554
303.56
303.566
303.578
303.583
303.581
303.614
)
;

boundaryField
{
    floor
    {
        type            wallHeatTransfer;
        Tinf            uniform 305.2;
        alphaWall       uniform 0.24;
        value           nonuniform List<scalar> 
36
(
303.807
303.83
303.795
303.777
303.765
303.761
303.765
303.772
303.779
303.786
303.792
303.799
303.805
303.812
303.819
303.826
303.836
303.845
303.873
303.873
303.817
303.78
303.746
303.703
303.693
303.723
303.807
303.781
303.777
303.779
303.83
303.779
303.753
303.743
303.723
303.716
)
;
    }
    ceiling
    {
        type            wallHeatTransfer;
        Tinf            uniform 303.2;
        alphaWall       uniform 0.24;
        value           nonuniform List<scalar> 
43
(
300.503
300.422
300.408
302.167
302.692
303.007
303.227
303.302
303.34
303.359
303.368
303.377
303.384
303.39
303.395
303.398
303.399
303.397
303.389
303.384
303.397
303.414
303.429
303.441
303.452
303.461
303.469
303.476
303.483
303.49
303.496
303.502
303.508
303.514
303.521
303.528
303.541
303.544
303.54
303.567
305.37
305.12
298.341
)
;
    }
    sWall
    {
        type            wallHeatTransfer;
        Tinf            uniform 315.2;
        alphaWall       uniform 0.36;
        value           uniform 301.723;
    }
    nWall
    {
        type            wallHeatTransfer;
        Tinf            uniform 307.2;
        alphaWall       uniform 0.36;
        value           nonuniform List<scalar> 6(304.279 304.141 304.048 304.174 304.155 304.193);
    }
    sideWalls
    {
        type            empty;
    }
    glass1
    {
        type            wallHeatTransfer;
        Tinf            uniform 315.2;
        alphaWall       uniform 4.3;
        value           nonuniform List<scalar> 9(312.473 311.674 311.136 310.707 310.359 310.066 309.825 309.869 310.071);
    }
    glass2
    {
        type            wallHeatTransfer;
        Tinf            uniform 307.2;
        alphaWall       uniform 4.3;
        value           nonuniform List<scalar> 2(305.882 305.936);
    }
    sun
    {
        type            wallHeatTransfer;
        Tinf            uniform 305.2;
        alphaWall       uniform 0.24;
        value           nonuniform List<scalar> 
14
(
304.123
303.868
303.864
303.858
303.853
303.849
303.845
303.842
303.838
303.834
303.83
303.826
303.82
303.814
)
;
    }
    Table_master
    {
        type            zeroGradient;
    }
    Table_slave
    {
        type            zeroGradient;
    }
    inlet
    {
        type            fixedValue;
        value           uniform 292.15;
    }
    outlet
    {
        type            zeroGradient;
    }
}


// ************************************************************************* //
