/*--------------------------------*- C++ -*----------------------------------*\
  =========                 |
  \\      /  F ield         | OpenFOAM: The Open Source CFD Toolbox
   \\    /   O peration     | Website:  https://openfoam.org
    \\  /    A nd           | Version:  6
     \\/     M anipulation  |
\*---------------------------------------------------------------------------*/
FoamFile
{
    version     2.0;
    format      ascii;
    class       volScalarField;
    location    "300";
    object      k;
}
// * * * * * * * * * * * * * * * * * * * * * * * * * * * * * * * * * * * * * //

dimensions      [0 2 -2 0 0 0 0];

internalField   nonuniform List<scalar> 
458
(
0.00107601
0.00113411
0.000975804
0.00104871
0.001127
0.00120217
0.0012742
0.0013447
0.00141628
0.00149325
0.00156147
0.00161604
0.00165676
0.0016897
0.00171489
0.000418952
0.000586934
0.000610769
0.000399311
0.000258354
0.000166313
0.000146015
0.000147495
0.000157977
0.000153796
0.000137231
0.000119356
0.000108007
0.000129427
0.00019137
0.000309551
0.000369588
0.000312429
0.00309763
0.00614002
0.00164576
0.00155848
0.00163946
0.00174231
0.00185317
0.00197294
0.0021018
0.00223597
0.00236599
0.00246673
0.00250281
0.00242191
0.00219826
0.00200939
0.00184401
0.00106643
0.000877286
0.00134248
0.00125726
0.00117143
0.000911915
0.000649142
0.000491549
0.000428859
0.000399901
0.000358999
0.000286519
0.00020479
0.00015052
0.000203533
0.000555448
0.00107998
0.00156639
0.000695526
0.00573938
0.014363
0.00259504
0.00199953
0.00203903
0.00214731
0.00227104
0.00240839
0.00255904
0.00271808
0.00287558
0.00300246
0.00307149
0.00306076
0.0029703
0.00283041
0.00258651
0.00224133
0.00184961
0.00292349
0.00229347
0.00199631
0.00173724
0.000768727
0.000520212
0.000407228
0.000337498
0.00028653
0.000243966
0.00020476
0.00017151
0.000291766
0.00163193
0.00218361
0.00253102
0.000862981
0.00902756
0.02633
0.00424787
0.00237389
0.00233322
0.00245363
0.0025991
0.00276042
0.00293733
0.00312684
0.00332053
0.00348389
0.00359639
0.00364797
0.00362457
0.00350804
0.00328968
0.00297495
0.00269836
0.00282432
0.00226748
0.00198647
0.00181483
0.00169262
0.00166059
0.0017391
0.00187649
0.00206244
0.00229615
0.00262732
0.00285571
0.00295943
0.00289064
0.00268905
0.00272174
0.00343385
0.00224208
0.0128082
0.040819
0.00742635
0.0027915
0.00255315
0.0026769
0.00285596
0.00306261
0.00329421
0.00354807
0.00380514
0.00401766
0.00417973
0.00430412
0.00438867
0.0044179
0.00437848
0.00421938
0.00379358
0.00309
0.0026548
0.00246241
0.00246101
0.00257859
0.00275731
0.00298612
0.0033117
0.00373526
0.00424169
0.00481158
0.00529537
0.0055325
0.00547514
0.00509368
0.00438169
0.00395555
0.00354432
0.00312325
0.00280787
0.00234305
0.0170348
0.0540975
0.0137842
0.0039266
0.00293978
0.00295521
0.00314762
0.00340495
0.00370329
0.00404256
0.00434934
0.00454884
0.00467355
0.00477408
0.0048722
0.00495326
0.00495443
0.00474725
0.00426132
0.00365269
0.00317311
0.00291758
0.00286359
0.00294154
0.00310909
0.00337687
0.00377847
0.00431432
0.00494924
0.00561188
0.00620048
0.00662057
0.00680674
0.00683147
0.00649681
0.00586262
0.00545723
0.00539265
0.00571858
0.0033801
0.0215216
0.0620047
0.0262043
0.00956697
0.00508802
0.00404894
0.00399192
0.00421963
0.00454269
0.00493899
0.00515303
0.00518493
0.00513142
0.00507276
0.00505234
0.00507514
0.00507915
0.0049256
0.00453482
0.00401972
0.00356296
0.0032742
0.00316119
0.00318411
0.00332545
0.00361382
0.00408448
0.00473679
0.0055142
0.00629982
0.00696314
0.00744763
0.00781454
0.0082525
0.00900167
0.00956202
0.00964994
0.00873549
0.0087519
0.00453959
0.0225425
0.0680387
0.0425342
0.0288235
0.0177648
0.0109709
0.00800771
0.00702555
0.00680133
0.00665539
0.00632848
0.00595179
0.00559477
0.00528927
0.00505374
0.00490171
0.0048168
0.00470851
0.00445899
0.00410616
0.00376493
0.00352223
0.0034076
0.00341432
0.00355163
0.00386973
0.00441936
0.00520964
0.00617062
0.00712942
0.00788526
0.0083655
0.00870562
0.00920438
0.0101376
0.0113575
0.011704
0.0110117
0.0107439
0.00471188
0.021266
0.0302472
0.0293337
0.0258394
0.0215068
0.016971
0.0133202
0.0107885
0.00915794
0.00797191
0.00707164
0.00636527
0.00579336
0.00531969
0.00492723
0.0046151
0.00438625
0.00422126
0.00407343
0.00391635
0.00376982
0.0036682
0.00363483
0.00368012
0.00382947
0.00416308
0.00475312
0.00564894
0.00682869
0.00808009
0.00903042
0.00940472
0.00915899
0.00846644
0.00768946
0.00702152
0.00657352
0.00630327
0.00610073
0.004992
0.0160316
0.0252208
0.0207195
0.0170267
0.0139537
0.0115386
0.00971776
0.00833927
0.00727562
0.00643712
0.00575734
0.00519262
0.00472013
0.00433455
0.00404255
0.00385252
0.00376295
0.00375953
0.00382093
0.00392366
0.00404888
0.00419229
0.00437657
0.00465793
0.00510515
0.00580815
0.00690306
0.00839639
0.0100172
0.0116576
0.0133885
0.0150742
0.0159528
0.0155698
0.0141138
0.0125649
0.0103897
0.0052185
0.0137475
0.0243135
0.019722
0.0161956
0.0135376
0.0113602
0.00958219
0.00814811
0.00699024
0.00601576
0.00520085
0.00453199
0.00399921
0.00359869
0.00333426
0.00321591
0.00325159
0.00343128
0.00371462
0.00403832
0.00434502
0.00461015
0.00484719
0.00509057
0.00537963
0.0057814
0.00642304
0.0073757
0.00847106
0.00941553
0.01053
0.0119389
0.0134035
0.0143475
0.0142379
0.0132863
0.0100246
0.00532865
0.00914537
0.0104805
0.0117358
0.0129753
0.0111257
0.0093569
0.00797096
0.00684935
0.00590791
0.00511579
0.00444678
0.00390921
0.00346253
0.00308013
0.00274894
0.0024632
0.00222147
0.00202499
0.00187651
0.00177867
0.00173113
0.001728
0.00175799
0.0018087
0.00187186
0.00194607
0.00203669
0.00215972
0.00234935
0.00263504
0.00298826
0.00345695
0.00400329
0.00472758
0.00560313
0.0063417
0.00654435
0.00596245
0.0051825
0.00418826
)
;

boundaryField
{
    floor
    {
        type            kqRWallFunction;
        value           nonuniform List<scalar> 
36
(
0.00171489
0.000418952
0.000586934
0.000610769
0.000399311
0.000258354
0.000166313
0.000146015
0.000147495
0.000157977
0.000153796
0.000137231
0.000119356
0.000108007
0.000129427
0.00019137
0.000309551
0.000369588
0.000312429
0.000312429
0.000695526
0.000862981
0.00224208
0.00312325
0.00280787
0.00234305
0.00171489
0.00200939
0.00184401
0.00106643
0.000418952
0.00106643
0.000877286
0.00224133
0.00184961
0.00269836
)
;
    }
    ceiling
    {
        type            kqRWallFunction;
        value           nonuniform List<scalar> 
43
(
0.00914537
0.0104805
0.0117358
0.0129753
0.0111257
0.0093569
0.00797096
0.00684935
0.00590791
0.00511579
0.00444678
0.00390921
0.00346253
0.00308013
0.00274894
0.0024632
0.00222147
0.00202499
0.00187651
0.00177867
0.00173113
0.001728
0.00175799
0.0018087
0.00187186
0.00194607
0.00203669
0.00215972
0.00234935
0.00263504
0.00298826
0.00345695
0.00400329
0.00472758
0.00560313
0.0063417
0.00654435
0.00596245
0.0051825
0.00418826
0.021266
0.0302472
0.0137475
)
;
    }
    sWall
    {
        type            kqRWallFunction;
        value           uniform 0.00914537;
    }
    nWall
    {
        type            kqRWallFunction;
        value           nonuniform List<scalar> 6(0.00234305 0.0033801 0.00453959 0.0052185 0.00532865 0.00418826);
    }
    sideWalls
    {
        type            empty;
    }
    glass1
    {
        type            kqRWallFunction;
        value           nonuniform List<scalar> 9(0.00107601 0.00309763 0.00573938 0.00902756 0.0128082 0.0170348 0.0215216 0.0225425 0.021266);
    }
    glass2
    {
        type            kqRWallFunction;
        value           nonuniform List<scalar> 2(0.00471188 0.004992);
    }
    sun
    {
        type            kqRWallFunction;
        value           nonuniform List<scalar> 
14
(
0.00107601
0.00113411
0.000975804
0.00104871
0.001127
0.00120217
0.0012742
0.0013447
0.00141628
0.00149325
0.00156147
0.00161604
0.00165676
0.0016897
)
;
    }
    Table_master
    {
        type            kqRWallFunction;
        value           nonuniform List<scalar> 9(0.000768727 0.000520212 0.000407228 0.000337498 0.00028653 0.000243966 0.00020476 0.00017151 0.000291766);
    }
    Table_slave
    {
        type            kqRWallFunction;
        value           nonuniform List<scalar> 9(0.00166059 0.0017391 0.00187649 0.00206244 0.00229615 0.00262732 0.00285571 0.00295943 0.00289064);
    }
    inlet
    {
        type            turbulentIntensityKineticEnergyInlet;
        intensity       0.05;
        value           uniform 0.0003375;
    }
    outlet
    {
        type            zeroGradient;
    }
}


// ************************************************************************* //
