/*--------------------------------*- C++ -*----------------------------------*\
  =========                 |
  \\      /  F ield         | OpenFOAM: The Open Source CFD Toolbox
   \\    /   O peration     | Website:  https://openfoam.org
    \\  /    A nd           | Version:  6
     \\/     M anipulation  |
\*---------------------------------------------------------------------------*/
FoamFile
{
    version     2.0;
    format      ascii;
    class       volScalarField;
    location    "900";
    object      epsilon;
}
// * * * * * * * * * * * * * * * * * * * * * * * * * * * * * * * * * * * * * //

dimensions      [0 2 -3 0 0 0 0];

internalField   nonuniform List<scalar> 
458
(
0.00143713
0.00441974
0.00393083
0.00349691
0.00316413
0.00290064
0.00268242
0.00249406
0.00232376
0.00216227
0.00200192
0.00183497
0.0016513
0.00143256
0.00117818
2.2811e-06
2.76152e-06
3.06481e-06
2.63963e-06
2.19158e-06
1.78901e-06
1.17907e-06
1.01115e-06
8.542e-07
8.24177e-07
9.05727e-07
1.2289e-06
1.92575e-06
2.32118e-06
3.00115e-06
4.32608e-06
4.08985e-06
3.11234e-06
0.00608862
0.00530094
0.00419873
0.00325507
0.00261767
0.00220226
0.00191391
0.00170161
0.00154392
0.00142421
0.00133236
0.00126005
0.00119521
0.00111334
0.000989394
0.00105398
0.000794178
0.000418158
7.18245e-06
7.88253e-06
6.48944e-06
5.37459e-06
4.46805e-06
2.5964e-06
1.7944e-06
1.37225e-06
1.28789e-06
1.59173e-06
2.18923e-06
3.21834e-06
4.69023e-06
7.90163e-06
1.04156e-05
1.13407e-05
1.24055e-05
5.96399e-06
0.0079474
0.00689664
0.00466989
0.00310905
0.00229043
0.00185551
0.00160589
0.00144909
0.00132074
0.00120993
0.00111383
0.00103314
0.000966976
0.000902123
0.000839536
0.000863059
0.000742125
0.000540253
2.87047e-05
2.11207e-05
1.20663e-05
9.52713e-06
8.8313e-06
8.48698e-06
4.43741e-06
2.26154e-06
2.47576e-06
3.82398e-06
5.92164e-06
9.3218e-06
1.53413e-05
2.78575e-05
2.62288e-05
2.72167e-05
3.68494e-05
3.168e-05
0.00912694
0.00847104
0.00451917
0.00229247
0.00141921
0.00106259
0.000917141
0.000869046
0.000864728
0.000861876
0.000846982
0.00082077
0.000789081
0.000751266
0.00072473
0.000754822
0.000688644
0.000564219
0.000203611
5.83795e-05
1.8361e-05
1.62412e-05
1.86843e-05
2.33965e-05
3.21703e-05
3.71066e-05
4.29664e-05
4.94694e-05
5.64428e-05
6.47759e-05
7.58029e-05
9.20373e-05
0.000121435
7.37764e-05
8.02695e-05
7.96293e-05
0.000108075
0.0101425
0.0101088
0.0039309
0.00137359
0.000735297
0.000572028
0.000547551
0.00055982
0.000594694
0.000626122
0.000645077
0.000650109
0.000643812
0.000627056
0.000620904
0.000653543
0.000612796
0.000540302
0.000202661
4.33956e-05
2.16604e-05
2.00502e-05
2.18697e-05
2.48084e-05
2.83764e-05
3.21405e-05
3.67384e-05
4.22371e-05
4.90513e-05
5.79909e-05
7.0088e-05
8.64165e-05
0.000107415
0.000129522
0.000160797
0.000199735
0.000228612
0.000343884
0.000232692
0.000151452
0.0112015
0.0116151
0.0036717
0.000749929
0.00050565
0.000421467
0.000417581
0.000432057
0.000459051
0.000486667
0.000510322
0.000524696
0.000529017
0.000523898
0.000530729
0.000560278
0.000528845
0.000478695
0.000199835
5.49052e-05
3.10951e-05
3.00344e-05
3.29092e-05
3.66952e-05
4.09817e-05
4.5876e-05
5.14556e-05
5.80207e-05
6.65939e-05
7.86371e-05
9.60142e-05
0.000120732
0.000154557
0.00019848
0.000253698
0.000319139
0.000383244
0.000391978
0.000255344
0.000199656
0.012547
0.0128471
0.00553065
0.000840953
0.000486028
0.000359318
0.000341111
0.000352051
0.000372895
0.000394211
0.000414484
0.000429871
0.000439132
0.00044413
0.000457196
0.000474779
0.000452702
0.000412484
0.000187754
6.5509e-05
4.86798e-05
5.34592e-05
6.07103e-05
6.70446e-05
7.24681e-05
7.76772e-05
8.27169e-05
8.90225e-05
9.81851e-05
0.000112583
0.000135325
0.000169057
0.000215423
0.00027434
0.00034394
0.000418319
0.000479609
0.000496527
0.000449068
0.000208877
0.0146002
0.0164975
0.0128868
0.00154386
0.000484417
0.000299059
0.000272857
0.000283361
0.000304078
0.000325403
0.000344785
0.000361425
0.000375052
0.000386802
0.000399894
0.000406965
0.000390128
0.00035179
0.000173463
8.69904e-05
9.13211e-05
0.000114161
0.000134425
0.000146838
0.000150737
0.000150791
0.000151045
0.000153305
0.00015935
0.000172655
0.000199792
0.000245108
0.000312384
0.000400554
0.000501601
0.00060689
0.000718426
0.000853714
0.00103046
0.000896228
0.0186061
0.0268384
0.0396554
0.00560418
0.000635228
0.000304116
0.000251174
0.000247898
0.000259355
0.000279992
0.000300815
0.00032083
0.000339356
0.000355362
0.000366423
0.000365506
0.000347074
0.000307257
0.000175848
0.00014827
0.000205813
0.000282928
0.000334629
0.000345848
0.000336695
0.000322451
0.000309951
0.000301124
0.000296272
0.000296976
0.000310368
0.000336711
0.000383779
0.000461391
0.00058089
0.000754713
0.000947337
0.00104456
0.00187174
0.00128606
0.0870346
0.0122549
0.00120178
0.000463514
0.000338553
0.000307518
0.000310014
0.000323139
0.000340379
0.000360428
0.000380412
0.000396303
0.000401942
0.000390771
0.000366696
0.00034786
0.00027761
0.000364563
0.000548006
0.000732381
0.000818642
0.000827709
0.000798196
0.000758954
0.000724142
0.000697531
0.000677586
0.000660743
0.00064633
0.000632993
0.000629614
0.000648319
0.000693802
0.000752915
0.000804566
0.00081892
0.000962383
0.00140298
0.00740698
0.00223887
0.00175139
0.00087374
0.000600833
0.000453987
0.000372765
0.000334506
0.000324377
0.000329221
0.000341645
0.000355329
0.000362445
0.0003553
0.00033946
0.000335076
0.000466126
0.000822507
0.00131208
0.00171428
0.00190995
0.00193286
0.00187208
0.00179448
0.00173024
0.00168419
0.00164858
0.00161171
0.00154593
0.00144446
0.00133293
0.00125114
0.0012263
0.00122613
0.00121691
0.00115983
0.00139575
0.00163127
0.00107741
0.000996779
0.00130956
0.000537106
0.000536254
0.000514449
0.000512283
0.00051407
0.000518449
0.000525778
0.000531169
0.000535134
0.000538259
0.000539676
0.000537458
0.000528424
0.000508755
0.0004981
0.000528648
0.000595624
0.000690585
0.000815579
0.000934226
0.00101313
0.00104819
0.00105254
0.00104218
0.00102844
0.0010166
0.00100706
0.00100225
0.000996712
0.000982258
0.000955245
0.00091511
0.00088007
0.000828324
0.000738733
0.000681326
0.000733637
)
;

boundaryField
{
    floor
    {
        Cmu             0.09;
        kappa           0.41;
        E               9.8;
        type            epsilonWallFunction;
        value           nonuniform List<scalar> 
36
(
0.00117818
2.2811e-06
2.76152e-06
3.06481e-06
2.63963e-06
2.19158e-06
1.78901e-06
1.17907e-06
1.01115e-06
8.542e-07
8.24177e-07
9.05727e-07
1.2289e-06
1.92575e-06
2.32118e-06
3.00115e-06
4.32608e-06
4.08985e-06
3.11234e-06
3.11234e-06
5.96399e-06
3.168e-05
0.000108075
0.000343884
0.000232692
0.000151452
0.00117818
0.00105398
0.000794178
0.000418158
2.2811e-06
0.000418158
7.18245e-06
0.000540253
2.87047e-05
0.000203611
)
;
    }
    ceiling
    {
        Cmu             0.09;
        kappa           0.41;
        E               9.8;
        type            epsilonWallFunction;
        value           nonuniform List<scalar> 
43
(
0.00107741
0.000996779
0.00130956
0.000537106
0.000536254
0.000514449
0.000512283
0.00051407
0.000518449
0.000525778
0.000531169
0.000535134
0.000538259
0.000539676
0.000537458
0.000528424
0.000508755
0.0004981
0.000528648
0.000595624
0.000690585
0.000815579
0.000934226
0.00101313
0.00104819
0.00105254
0.00104218
0.00102844
0.0010166
0.00100706
0.00100225
0.000996712
0.000982258
0.000955245
0.00091511
0.00088007
0.000828324
0.000738733
0.000681326
0.000733637
0.0186061
0.0268384
0.00740698
)
;
    }
    sWall
    {
        Cmu             0.09;
        kappa           0.41;
        E               9.8;
        type            epsilonWallFunction;
        value           uniform 0.00107741;
    }
    nWall
    {
        Cmu             0.09;
        kappa           0.41;
        E               9.8;
        type            epsilonWallFunction;
        value           nonuniform List<scalar> 6(0.000151452 0.000199656 0.000208877 0.00140298 0.00163127 0.000733637);
    }
    sideWalls
    {
        type            empty;
    }
    glass1
    {
        Cmu             0.09;
        kappa           0.41;
        E               9.8;
        type            epsilonWallFunction;
        value           nonuniform List<scalar> 9(0.00143713 0.00608862 0.0079474 0.00912694 0.0101425 0.0112015 0.012547 0.0146002 0.0186061);
    }
    glass2
    {
        Cmu             0.09;
        kappa           0.41;
        E               9.8;
        type            epsilonWallFunction;
        value           nonuniform List<scalar> 2(0.000896228 0.00128606);
    }
    sun
    {
        Cmu             0.09;
        kappa           0.41;
        E               9.8;
        type            epsilonWallFunction;
        value           nonuniform List<scalar> 
14
(
0.00143713
0.00441974
0.00393083
0.00349691
0.00316413
0.00290064
0.00268242
0.00249406
0.00232376
0.00216227
0.00200192
0.00183497
0.0016513
0.00143256
)
;
    }
    Table_master
    {
        Cmu             0.09;
        kappa           0.41;
        E               9.8;
        type            epsilonWallFunction;
        value           nonuniform List<scalar> 9(8.48698e-06 4.43741e-06 2.26154e-06 2.47576e-06 3.82398e-06 5.92164e-06 9.3218e-06 1.53413e-05 2.78575e-05);
    }
    Table_slave
    {
        Cmu             0.09;
        kappa           0.41;
        E               9.8;
        type            epsilonWallFunction;
        value           nonuniform List<scalar> 9(3.21703e-05 3.71066e-05 4.29664e-05 4.94694e-05 5.64428e-05 6.47759e-05 7.58029e-05 9.20373e-05 0.000121435);
    }
    inlet
    {
        type            turbulentMixingLengthDissipationRateInlet;
        mixingLength    0.01;
        phi             phi;
        k               k;
        value           uniform 3.77336e-06;
    }
    outlet
    {
        type            zeroGradient;
    }
}


// ************************************************************************* //
