/*--------------------------------*- C++ -*----------------------------------*\
  =========                 |
  \\      /  F ield         | OpenFOAM: The Open Source CFD Toolbox
   \\    /   O peration     | Website:  https://openfoam.org
    \\  /    A nd           | Version:  6
     \\/     M anipulation  |
\*---------------------------------------------------------------------------*/
FoamFile
{
    version     2.0;
    format      ascii;
    class       volScalarField;
    location    "900";
    object      k;
}
// * * * * * * * * * * * * * * * * * * * * * * * * * * * * * * * * * * * * * //

dimensions      [0 2 -2 0 0 0 0];

internalField   nonuniform List<scalar> 
458
(
0.00504737
0.0106741
0.00987169
0.00913113
0.00854224
0.00806117
0.00765162
0.0072891
0.00695337
0.00662738
0.00629554
0.00594047
0.00553715
0.00503669
0.00442123
6.8679e-05
7.80116e-05
8.36238e-05
7.5698e-05
6.68681e-05
5.84046e-05
4.42308e-05
3.99257e-05
3.56796e-05
3.48394e-05
3.7102e-05
4.54726e-05
6.13491e-05
6.94839e-05
8.24641e-05
0.000105225
0.000101359
8.44854e-05
0.0132154
0.0132531
0.0118856
0.0103157
0.0091435
0.00834711
0.00777493
0.00732592
0.00694482
0.00660553
0.00629117
0.00598263
0.00563964
0.00516837
0.00447992
0.00410479
0.00339897
0.0022163
0.000147543
0.000191491
0.00018791
0.000183136
0.000171528
0.00010339
6.52743e-05
5.20725e-05
5.04983e-05
5.99376e-05
7.77309e-05
0.000108484
0.000157306
0.000242517
0.000324718
0.000318869
0.00029061
0.000130341
0.0157841
0.0163588
0.0129778
0.010084
0.00850162
0.00769703
0.00728141
0.00703527
0.00678967
0.00651358
0.00620085
0.0058578
0.00548385
0.00503166
0.00452315
0.00428684
0.00377835
0.00262906
0.000371559
0.000504515
0.000368154
0.000308916
0.000272983
0.0001649
0.000107021
6.8285e-05
7.25318e-05
9.69179e-05
0.000129725
0.000175548
0.000244704
0.000364217
0.000645405
0.000690618
0.000768877
0.000396805
0.0173096
0.0191358
0.01242
0.00801539
0.00634394
0.00580085
0.00573274
0.00582698
0.00591017
0.00588467
0.00573944
0.00550013
0.00519458
0.00481463
0.00443719
0.00428152
0.00389523
0.00311575
0.00137172
0.000926252
0.000518197
0.000448189
0.000419653
0.000401398
0.000400901
0.000440928
0.000486205
0.000534103
0.000583185
0.000639258
0.00070989
0.000807934
0.000971916
0.00134705
0.00145955
0.00134294
0.000899253
0.0185709
0.0213147
0.0104912
0.00576548
0.00502314
0.00507606
0.00535439
0.00558052
0.0056099
0.00548922
0.00529812
0.00507014
0.00480742
0.004489
0.0041992
0.00408972
0.00378015
0.00323268
0.00167425
0.000922968
0.000723854
0.000696388
0.000717946
0.000768011
0.000841195
0.000930386
0.00101943
0.00110643
0.00120136
0.00131372
0.00145383
0.00163037
0.0018453
0.00207885
0.00230809
0.00250951
0.00240208
0.00194538
0.0014994
0.0011261
0.019842
0.0224777
0.00891236
0.00471104
0.0049859
0.00489988
0.00501777
0.00512971
0.00511277
0.00494319
0.00475427
0.00456027
0.0043444
0.00408499
0.00387732
0.00379304
0.00352196
0.00312795
0.00192662
0.00119747
0.00099415
0.000999557
0.00106329
0.00114717
0.00124172
0.00134207
0.00144063
0.00153993
0.00164998
0.00178242
0.00195042
0.00216402
0.00242339
0.00271471
0.00302086
0.00331476
0.00349901
0.00323056
0.00228868
0.0013539
0.0214007
0.0225308
0.0106664
0.00479073
0.00479049
0.00434781
0.00426514
0.00430063
0.0043215
0.00425312
0.00414829
0.00402041
0.00386769
0.00369198
0.00355613
0.00346316
0.00325415
0.00299236
0.00210231
0.00144236
0.00133159
0.00143092
0.00156173
0.00168102
0.00178711
0.00188615
0.00197808
0.00207847
0.00219808
0.00234867
0.00254302
0.00278492
0.00306384
0.00335428
0.0036222
0.00381532
0.00382894
0.00353477
0.00292533
0.00139527
0.023676
0.0254156
0.0181713
0.00559017
0.00422031
0.0035702
0.00342641
0.00347454
0.00355874
0.00359906
0.00358783
0.00354035
0.00346539
0.00337215
0.00328459
0.00318829
0.0030421
0.00287872
0.00223671
0.00178239
0.00190925
0.00219783
0.00244912
0.00261538
0.00269793
0.00274135
0.00278888
0.00286227
0.00297669
0.00315018
0.00341141
0.00376065
0.00417344
0.0045881
0.00491915
0.00510809
0.00518091
0.00524454
0.00534346
0.00368425
0.0278296
0.0355284
0.0414839
0.011493
0.00423289
0.00328068
0.00302646
0.00300379
0.00304913
0.00313514
0.00319384
0.00322433
0.00322855
0.0032059
0.00315334
0.0030594
0.00294483
0.00284405
0.0024641
0.00246636
0.00305057
0.00371171
0.00414272
0.00427583
0.00425337
0.00418526
0.00413093
0.00411657
0.00415488
0.00425913
0.00445624
0.0047429
0.00514711
0.00570369
0.00646393
0.00745879
0.008368
0.00838874
0.0106218
0.00468717
0.075605
0.0200798
0.00619121
0.004007
0.003464
0.00331697
0.00332229
0.00336283
0.00341276
0.0034665
0.00350694
0.00351444
0.00346542
0.00334973
0.00323729
0.00330855
0.00340876
0.00420218
0.00547536
0.00656217
0.00707675
0.0071677
0.00703927
0.00684766
0.00667884
0.00656581
0.00651162
0.00650211
0.00651584
0.00655765
0.00667665
0.00692279
0.00729094
0.00764679
0.00778426
0.00749816
0.00734545
0.0049671
0.0150602
0.0084911
0.00831741
0.00571897
0.00465914
0.00397757
0.00354128
0.00328932
0.00319006
0.00318422
0.00322306
0.00326638
0.00327147
0.00320777
0.00313856
0.00330177
0.00438953
0.0064483
0.00883778
0.0106216
0.0114511
0.0115577
0.011322
0.0110188
0.0107768
0.0106215
0.0105245
0.0104357
0.0102314
0.00988015
0.00949661
0.00924588
0.00920351
0.00911156
0.00882225
0.00813401
0.00828302
0.00549232
0.00416535
0.00395487
0.0047441
0.00261885
0.00261608
0.00254467
0.00253752
0.00254342
0.00255784
0.00258189
0.00259951
0.00261243
0.00262259
0.00262719
0.00261999
0.00259055
0.00252586
0.00249047
0.00259128
0.00280577
0.00309658
0.00345978
0.00378768
0.00399806
0.00408975
0.00410107
0.0040741
0.00403824
0.00400717
0.00398207
0.00396938
0.00395474
0.00391641
0.00384428
0.00373583
0.00363985
0.00349573
0.00323889
0.00306885
0.00322396
)
;

boundaryField
{
    floor
    {
        type            kqRWallFunction;
        value           nonuniform List<scalar> 
36
(
0.00442123
6.8679e-05
7.80116e-05
8.36238e-05
7.5698e-05
6.68681e-05
5.84046e-05
4.42308e-05
3.99257e-05
3.56796e-05
3.48394e-05
3.7102e-05
4.54726e-05
6.13491e-05
6.94839e-05
8.24641e-05
0.000105225
0.000101359
8.44854e-05
8.44854e-05
0.000130341
0.000396805
0.000899253
0.00194538
0.0014994
0.0011261
0.00442123
0.00410479
0.00339897
0.0022163
6.8679e-05
0.0022163
0.000147543
0.00262906
0.000371559
0.00137172
)
;
    }
    ceiling
    {
        type            kqRWallFunction;
        value           nonuniform List<scalar> 
43
(
0.00416535
0.00395487
0.0047441
0.00261885
0.00261608
0.00254467
0.00253752
0.00254342
0.00255784
0.00258189
0.00259951
0.00261243
0.00262259
0.00262719
0.00261999
0.00259055
0.00252586
0.00249047
0.00259128
0.00280577
0.00309658
0.00345978
0.00378768
0.00399806
0.00408975
0.00410107
0.0040741
0.00403824
0.00400717
0.00398207
0.00396938
0.00395474
0.00391641
0.00384428
0.00373583
0.00363985
0.00349573
0.00323889
0.00306885
0.00322396
0.0278296
0.0355284
0.0150602
)
;
    }
    sWall
    {
        type            kqRWallFunction;
        value           uniform 0.00416535;
    }
    nWall
    {
        type            kqRWallFunction;
        value           nonuniform List<scalar> 6(0.0011261 0.0013539 0.00139527 0.0049671 0.00549232 0.00322396);
    }
    sideWalls
    {
        type            empty;
    }
    glass1
    {
        type            kqRWallFunction;
        value           nonuniform List<scalar> 9(0.00504737 0.0132154 0.0157841 0.0173096 0.0185709 0.019842 0.0214007 0.023676 0.0278296);
    }
    glass2
    {
        type            kqRWallFunction;
        value           nonuniform List<scalar> 2(0.00368425 0.00468717);
    }
    sun
    {
        type            kqRWallFunction;
        value           nonuniform List<scalar> 
14
(
0.00504737
0.0106741
0.00987169
0.00913113
0.00854224
0.00806117
0.00765162
0.0072891
0.00695337
0.00662738
0.00629554
0.00594047
0.00553715
0.00503669
)
;
    }
    Table_master
    {
        type            kqRWallFunction;
        value           nonuniform List<scalar> 9(0.0001649 0.000107021 6.8285e-05 7.25318e-05 9.69179e-05 0.000129725 0.000175548 0.000244704 0.000364217);
    }
    Table_slave
    {
        type            kqRWallFunction;
        value           nonuniform List<scalar> 9(0.000400901 0.000440928 0.000486205 0.000534103 0.000583185 0.000639258 0.00070989 0.000807934 0.000971916);
    }
    inlet
    {
        type            turbulentIntensityKineticEnergyInlet;
        intensity       0.05;
        value           uniform 3.75e-05;
    }
    outlet
    {
        type            zeroGradient;
    }
}


// ************************************************************************* //
