// -*- C++ -*-
// File generated by PyFoam - sorry for the ugliness

FoamFile
{
 version 2.0;
 format ascii;
 class volVectorField;
 location "900";
 object U;
}

dimensions [ 0 1 -1 0 0 0 0 ];

internalField nonuniform List<vector> 458
(
  (0.00183117 0.27996 0)
  (0.204329 -0.236079 0)
  (0.315832 -0.16075 0)
  (0.430232 -0.103634 0)
  (0.500098 -0.0706756 0)
  (0.532659 -0.0508107 0)
  (0.545712 -0.0368047 0)
  (0.547442 -0.0257589 0)
  (0.53872 -0.0158707 0)
  (0.51946 -0.00626957 0)
  (0.488752 0.00394139 0)
  (0.444744 0.0160799 0)
  (0.383481 0.0331579 0)
  (0.292253 0.0658399 0)
  (0.220145 0.156354 0)
  (0.015453 0.0100652 0)
  (-0.0263032 -0.00491244 0)
  (-0.019477 -0.00597406 0)
  (-0.0182112 -0.0044722 0)
  (-0.0160646 -0.00431916 0)
  (-0.0118084 -0.00616047 0)
  (-0.00673405 -0.00625565 0)
  (0.000416878 -0.00910313 0)
  (0.00558727 -0.00603788 0)
  (0.0105444 -0.00421441 0)
  (0.0134826 -0.0033547 0)
  (0.0160775 -0.00325335 0)
  (0.0187742 -0.0036294 0)
  (0.0220992 -0.00282824 0)
  (0.0231634 -0.00183432 0)
  (0.0221603 -0.00382894 0)
  (0.0266005 -0.00432912 0)
  (-0.0103709 0.00927099 0)
  (0.531358 -0.236165 0)
  (0.303309 -0.270153 0)
  (0.356096 -0.174174 0)
  (0.42105 -0.090963 0)
  (0.452814 -0.0450623 0)
  (0.466491 -0.0186448 0)
  (0.47285 0.000925811 0)
  (0.473195 0.0177724 0)
  (0.465099 0.032627 0)
  (0.448202 0.0470039 0)
  (0.421889 0.0623737 0)
  (0.385817 0.0804579 0)
  (0.341415 0.104 0)
  (0.293527 0.138576 0)
  (0.268224 0.20308 0)
  (0.256672 0.169884 0)
  (0.133439 0.121433 0)
  (0.0220626 0.0564965 0)
  (0.0725217 0.011778 0)
  (0.0336888 0.00825587 0)
  (0.0198531 0.00450323 0)
  (0.0129706 0.00338179 0)
  (0.00630404 0.00352465 0)
  (-0.00276786 -0.00464811 0)
  (-0.00231331 -0.00673797 0)
  (-0.000371328 -0.0118252 0)
  (-0.00111638 -0.00729523 0)
  (0.00431318 -0.00389337 0)
  (0.0056922 -0.00277721 0)
  (0.00494661 -0.00298575 0)
  (0.00218259 -0.00275225 0)
  (-0.00398344 0.00326957 0)
  (-0.00798207 0.00668822 0)
  (-0.0129715 0.00549397 0)
  (-0.0275425 0.0092878 0)
  (-0.0769979 0.0161165 0)
  (0.576417 -0.440574 0)
  (0.133636 -0.351056 0)
  (0.241343 -0.207442 0)
  (0.295112 -0.117909 0)
  (0.30595 -0.072421 0)
  (0.31264 -0.0443106 0)
  (0.31981 -0.0217841 0)
  (0.326126 2.42787e-05 0)
  (0.327165 0.0233047 0)
  (0.321956 0.0483418 0)
  (0.309838 0.0754949 0)
  (0.290764 0.105194 0)
  (0.266216 0.137925 0)
  (0.238293 0.173589 0)
  (0.217591 0.210785 0)
  (0.191801 0.171587 0)
  (0.11988 0.13531 0)
  (0.0643001 0.100951 0)
  (0.0444359 -0.0106822 0)
  (-0.0110377 -0.00301705 0)
  (-0.00151982 0.00170459 0)
  (0.00404581 0.00338396 0)
  (0.00698778 0.0050019 0)
  (0.0130386 0.000958014 0)
  (0.0129984 -0.00493262 0)
  (0.00155154 -0.0130087 0)
  (-0.0122495 -0.0110554 0)
  (-0.0159653 -0.00808505 0)
  (-0.0195251 -0.00575083 0)
  (-0.0222286 -0.0034291 0)
  (-0.0228803 -0.00107927 0)
  (-0.0184155 0.00157477 0)
  (-0.0107141 0.0038434 0)
  (-0.00163368 0.00529165 0)
  (0.0081222 0.00408861 0)
  (-0.0599662 -0.0013323 0)
  (0.599599 -0.576335 0)
  (-0.0490435 -0.382445 0)
  (0.146138 -0.212178 0)
  (0.177472 -0.124469 0)
  (0.167094 -0.0802081 0)
  (0.170968 -0.0490089 0)
  (0.179473 -0.0234464 0)
  (0.187819 0.00151448 0)
  (0.195092 0.0281198 0)
  (0.197756 0.0571496 0)
  (0.195454 0.0888896 0)
  (0.187889 0.123018 0)
  (0.175389 0.158577 0)
  (0.157619 0.19356 0)
  (0.141634 0.224655 0)
  (0.121593 0.209525 0)
  (0.0782411 0.184932 0)
  (0.0436641 0.15281 0)
  (-0.0219153 0.0484578 0)
  (-0.038091 -0.00049835 0)
  (-0.0343934 -0.00178121 0)
  (-0.0325234 0.000216948 0)
  (-0.0338368 0.00240054 0)
  (-0.0373953 0.00234461 0)
  (-0.0427377 0.000167824 0)
  (-0.0443715 -0.00192862 0)
  (-0.0444223 -0.00328069 0)
  (-0.0428954 -0.00425008 0)
  (-0.040173 -0.0050635 0)
  (-0.0364563 -0.00584416 0)
  (-0.0317084 -0.00670487 0)
  (-0.0256039 -0.00770391 0)
  (-0.0174441 -0.00863393 0)
  (-0.00994948 -0.00758212 0)
  (-6.04221e-05 -0.00508259 0)
  (0.012197 0.000750716 0)
  (0.00772454 0.0164111 0)
  (0.598113 -0.643618 0)
  (-0.173647 -0.402881 0)
  (0.0943657 -0.223803 0)
  (0.0836464 -0.123315 0)
  (0.0515201 -0.0844104 0)
  (0.0601601 -0.0562122 0)
  (0.0701109 -0.0323017 0)
  (0.077268 -0.00727082 0)
  (0.0859858 0.0218624 0)
  (0.0905882 0.054927 0)
  (0.0920668 0.0913188 0)
  (0.0900517 0.12982 0)
  (0.0844735 0.168909 0)
  (0.0744349 0.206632 0)
  (0.065956 0.240287 0)
  (0.0534604 0.240325 0)
  (0.0261626 0.223509 0)
  (0.00772406 0.186626 0)
  (-0.0316175 0.0607589 0)
  (-0.0311767 0.00723278 0)
  (-0.0408796 0.00155819 0)
  (-0.0457058 0.00321709 0)
  (-0.047699 0.0052659 0)
  (-0.0482627 0.00584689 0)
  (-0.0480823 0.00437503 0)
  (-0.0473847 0.00152165 0)
  (-0.0464495 -0.000894339 0)
  (-0.0450358 -0.00280397 0)
  (-0.0431334 -0.00436814 0)
  (-0.0407663 -0.00584219 0)
  (-0.0378683 -0.00752459 0)
  (-0.034245 -0.00971388 0)
  (-0.0296383 -0.0125627 0)
  (-0.0237338 -0.0156901 0)
  (-0.0152798 -0.0174387 0)
  (-8.27701e-05 -0.0170991 0)
  (0.0261892 -0.00763204 0)
  (0.053843 -0.0220956 0)
  (0.0825537 -0.0131547 0)
  (-0.0580819 0.0211035 0)
  (0.552905 -0.655417 0)
  (-0.22139 -0.410671 0)
  (0.0401292 -0.220144 0)
  (-0.000173383 -0.0935353 0)
  (-0.0412527 -0.0833552 0)
  (-0.0278304 -0.0634209 0)
  (-0.0207873 -0.0414646 0)
  (-0.0151454 -0.0158356 0)
  (-0.008767 0.0150072 0)
  (-0.00573538 0.05091 0)
  (-0.00305639 0.0902544 0)
  (-0.00167332 0.131691 0)
  (-0.00178785 0.173718 0)
  (-0.00459222 0.214308 0)
  (-0.00435435 0.249888 0)
  (-0.00855328 0.256166 0)
  (-0.021767 0.242251 0)
  (-0.0243588 0.197152 0)
  (-0.0401915 0.0736386 0)
  (-0.0366026 0.0197617 0)
  (-0.0443437 0.00815426 0)
  (-0.0481669 0.00589786 0)
  (-0.0490941 0.00543315 0)
  (-0.0482918 0.00453176 0)
  (-0.0468156 0.00253147 0)
  (-0.0453829 -0.00015977 0)
  (-0.0442796 -0.00257207 0)
  (-0.0435 -0.00449948 0)
  (-0.0430432 -0.00605579 0)
  (-0.0429921 -0.00750128 0)
  (-0.0434163 -0.0092244 0)
  (-0.0443026 -0.0116863 0)
  (-0.0454544 -0.0152756 0)
  (-0.0461586 -0.0200747 0)
  (-0.0447695 -0.0257398 0)
  (-0.0386858 -0.0326782 0)
  (-0.0262575 -0.0406762 0)
  (-0.010156 -0.0477234 0)
  (0.0591182 -0.00880036 0)
  (-0.089803 0.0702299 0)
  (0.444119 -0.600008 0)
  (-0.21393 -0.37671 0)
  (-0.0718295 -0.193135 0)
  (-0.0761097 -0.0657096 0)
  (-0.128933 -0.0817497 0)
  (-0.116238 -0.068842 0)
  (-0.11082 -0.0471711 0)
  (-0.105756 -0.0195505 0)
  (-0.100722 0.0128125 0)
  (-0.0971165 0.0489578 0)
  (-0.0925836 0.0881364 0)
  (-0.0872854 0.129597 0)
  (-0.081331 0.171976 0)
  (-0.0751872 0.212819 0)
  (-0.0655969 0.246902 0)
  (-0.0589107 0.257043 0)
  (-0.0566284 0.243884 0)
  (-0.0464163 0.191953 0)
  (-0.0457004 0.0760761 0)
  (-0.0405608 0.0260829 0)
  (-0.0439122 0.0118203 0)
  (-0.0447122 0.00687755 0)
  (-0.0435483 0.0044707 0)
  (-0.0412894 0.00254899 0)
  (-0.0388382 0.000467486 0)
  (-0.03688 -0.00164086 0)
  (-0.0358564 -0.0033724 0)
  (-0.0357141 -0.00458809 0)
  (-0.0365647 -0.00529926 0)
  (-0.0387099 -0.00569396 0)
  (-0.0426064 -0.00623052 0)
  (-0.0487667 -0.00757502 0)
  (-0.0573599 -0.0103248 0)
  (-0.0678611 -0.0147716 0)
  (-0.079163 -0.0211046 0)
  (-0.0896075 -0.0296854 0)
  (-0.0957872 -0.0391512 0)
  (-0.0929165 -0.0393357 0)
  (-0.0865255 0.000726185 0)
  (-0.151009 0.127934 0)
  (0.277991 -0.468461 0)
  (-0.303667 -0.298351 0)
  (-0.279405 -0.183988 0)
  (-0.170566 -0.0505552 0)
  (-0.235147 -0.0927377 0)
  (-0.208155 -0.0801685 0)
  (-0.198699 -0.0551792 0)
  (-0.19246 -0.0246701 0)
  (-0.186695 0.0092064 0)
  (-0.180944 0.0448626 0)
  (-0.173327 0.082492 0)
  (-0.162984 0.122032 0)
  (-0.149643 0.162418 0)
  (-0.133308 0.201126 0)
  (-0.112986 0.232701 0)
  (-0.0934273 0.244558 0)
  (-0.0762777 0.231101 0)
  (-0.0558756 0.175686 0)
  (-0.0439377 0.0710109 0)
  (-0.0369884 0.0266991 0)
  (-0.0362352 0.0117931 0)
  (-0.0335696 0.0053384 0)
  (-0.0296613 0.0018874 0)
  (-0.0255069 -0.000182451 0)
  (-0.022221 -0.00157715 0)
  (-0.0201741 -0.00261737 0)
  (-0.0192311 -0.00329036 0)
  (-0.0192555 -0.00344067 0)
  (-0.0202254 -0.00287334 0)
  (-0.0223411 -0.00146514 0)
  (-0.0259144 0.000741689 0)
  (-0.0321473 0.00328427 0)
  (-0.0427655 0.00488717 0)
  (-0.0594778 0.00341646 0)
  (-0.0834463 -0.00350617 0)
  (-0.11412 -0.0172304 0)
  (-0.146476 -0.0367416 0)
  (-0.17435 -0.0584488 0)
  (-0.216792 -0.0788546 0)
  (-0.391945 -0.0951344 0)
  (0.0378398 -0.338013 0)
  (-0.590127 -0.300778 0)
  (-0.766618 -0.296867 0)
  (-0.217329 -0.158816 0)
  (-0.324314 -0.129026 0)
  (-0.277987 -0.0961816 0)
  (-0.266919 -0.0635714 0)
  (-0.262631 -0.0322757 0)
  (-0.258741 -9.71201e-05 0)
  (-0.251722 0.0347446 0)
  (-0.240682 0.0702219 0)
  (-0.224548 0.10653 0)
  (-0.202886 0.143085 0)
  (-0.175674 0.177861 0)
  (-0.14338 0.206158 0)
  (-0.110007 0.218354 0)
  (-0.0790253 0.205844 0)
  (-0.0497846 0.152392 0)
  (-0.0285393 0.0619726 0)
  (-0.0194068 0.0244445 0)
  (-0.0157163 0.010701 0)
  (-0.00986308 0.00414559 0)
  (-0.00405505 0.000950536 0)
  (-6.57182e-05 -0.000265381 0)
  (0.00254769 -0.000610705 0)
  (0.00397848 -0.00070225 0)
  (0.00453268 -0.000628333 0)
  (0.00445119 -0.000208684 0)
  (0.00393489 0.000834668 0)
  (0.0031561 0.00276939 0)
  (0.0024558 0.00583553 0)
  (0.0016393 0.0101511 0)
  (0.000757633 0.0150543 0)
  (-0.000175283 0.019081 0)
  (-0.00104261 0.0205201 0)
  (-0.0013368 0.0187131 0)
  (0.00115284 0.0138645 0)
  (0.00751029 0.00194232 0)
  (0.0348415 -0.0526761 0)
  (-0.275778 -0.165188 0)
  (-1.61471 -0.3117 0)
  (-0.108418 -0.262401 0)
  (-0.315118 -0.159096 0)
  (-0.30432 -0.0979594 0)
  (-0.308366 -0.0499245 0)
  (-0.311191 -0.0104987 0)
  (-0.309869 0.0212522 0)
  (-0.302557 0.0451044 0)
  (-0.289177 0.0691587 0)
  (-0.268063 0.0946209 0)
  (-0.238605 0.121036 0)
  (-0.200933 0.146886 0)
  (-0.156372 0.168615 0)
  (-0.108955 0.179068 0)
  (-0.0643019 0.169571 0)
  (-0.0240041 0.125003 0)
  (0.0114628 0.0465193 0)
  (0.0205001 0.0200649 0)
  (0.0246439 0.00896623 0)
  (0.0291217 0.000687243 0)
  (0.030905 -0.00228016 0)
  (0.031581 -0.00261923 0)
  (0.0318088 -0.00210392 0)
  (0.0317888 -0.00139279 0)
  (0.0315763 -0.000554538 0)
  (0.0312295 0.000599992 0)
  (0.0309007 0.00232707 0)
  (0.0308748 0.00480241 0)
  (0.0314722 0.00760993 0)
  (0.0330859 0.0110933 0)
  (0.0361129 0.014571 0)
  (0.0408484 0.0162929 0)
  (0.0472843 0.0139746 0)
  (0.0550545 0.00613974 0)
  (0.0641054 -0.00707631 0)
  (0.071369 -0.0222729 0)
  (0.0853361 -0.0528147 0)
  (-0.0283731 -0.118213 0)
  (-0.211903 0.0352933 0)
  (-0.0531229 -0.232852 0)
  (-0.235983 -0.16949 0)
  (-0.29048 -0.144947 0)
  (-0.326202 -0.127866 0)
  (-0.345679 -0.109641 0)
  (-0.351572 -0.0861236 0)
  (-0.345294 -0.0542212 0)
  (-0.329176 -0.0234137 0)
  (-0.302577 0.00480481 0)
  (-0.264984 0.0317153 0)
  (-0.216609 0.057481 0)
  (-0.159213 0.0805395 0)
  (-0.0970571 0.0956798 0)
  (-0.0366875 0.0923789 0)
  (0.0306525 0.0357097 0)
  (0.0676544 -0.0291325 0)
  (0.078589 -0.0665143 0)
  (0.0787076 -0.0863568 0)
  (0.0740555 -0.0904257 0)
  (0.0687164 -0.0871435 0)
  (0.0645478 -0.0824457 0)
  (0.0618524 -0.0785901 0)
  (0.0601416 -0.0759943 0)
  (0.0589099 -0.0743876 0)
  (0.0579119 -0.0733388 0)
  (0.0571913 -0.0724658 0)
  (0.0570823 -0.0713948 0)
  (0.0577742 -0.0686725 0)
  (0.0596999 -0.0644069 0)
  (0.063267 -0.0603666 0)
  (0.0683504 -0.0590024 0)
  (0.0741958 -0.061941 0)
  (0.0796389 -0.0655603 0)
  (0.0831433 -0.0686681 0)
  (0.0832953 -0.0702184 0)
  (0.104134 -0.0780899 0)
  (-0.00718648 -0.124755 0)
  (0.628837 0.214861 0)
  (0.168895 -0.262256 0)
  (-0.212451 0.242424 0)
  (-0.0852983 0.136155 0)
  (-0.214273 0.171625 0)
  (-0.273858 0.19529 0)
  (-0.316303 0.207208 0)
  (-0.343178 0.211364 0)
  (-0.356084 0.208844 0)
  (-0.354689 0.200358 0)
  (-0.338776 0.194868 0)
  (-0.308664 0.194248 0)
  (-0.264361 0.197653 0)
  (-0.206526 0.204805 0)
  (-0.138617 0.215506 0)
  (-0.0679544 0.22858 0)
  (0.0199326 0.237843 0)
  (0.0806205 0.238688 0)
  (0.114348 0.248207 0)
  (0.126823 0.259216 0)
  (0.127705 0.265268 0)
  (0.123854 0.260629 0)
  (0.119133 0.251087 0)
  (0.114361 0.242393 0)
  (0.109513 0.236623 0)
  (0.104715 0.233756 0)
  (0.100219 0.232959 0)
  (0.0962467 0.23327 0)
  (0.0929571 0.233924 0)
  (0.0904864 0.234404 0)
  (0.0889253 0.23283 0)
  (0.0885267 0.228935 0)
  (0.0892519 0.224276 0)
  (0.0903534 0.220779 0)
  (0.0901018 0.219544 0)
  (0.0858391 0.214701 0)
  (0.0749579 0.206689 0)
  (0.0538136 0.19532 0)
  (0.110492 0.187822 0)
  (-0.34351 0.329106 0)
)
;

boundaryField
{
  floor
  {
    type noSlip;
  }
  ceiling
  {
    type noSlip;
  }
  sWall
  {
    type noSlip;
  }
  nWall
  {
    type noSlip;
  }
  sideWalls
  {
    type empty;
  }
  glass1
  {
    type noSlip;
  }
  glass2
  {
    type noSlip;
  }
  sun
  {
    type noSlip;
  }
  Table_master
  {
    type noSlip;
  }
  Table_slave
  {
    type noSlip;
  }
  inlet
  {
    type fixedValue;
    value uniform (0.212132 -0.212132 0);
  }
  outlet
  {
    type zeroGradient;
  }
} 	// ************************************************************************* //

