/*--------------------------------*- C++ -*----------------------------------*\
  =========                 |
  \\      /  F ield         | OpenFOAM: The Open Source CFD Toolbox
   \\    /   O peration     | Website:  https://openfoam.org
    \\  /    A nd           | Version:  6
     \\/     M anipulation  |
\*---------------------------------------------------------------------------*/
FoamFile
{
    version     2.0;
    format      ascii;
    class       volVectorField;
    location    "3000";
    object      U;
}
// * * * * * * * * * * * * * * * * * * * * * * * * * * * * * * * * * * * * * //

dimensions      [0 1 -1 0 0 0 0];

internalField   nonuniform List<vector> 
458
(
(0.0253296 0.0868184 0)
(-0.169552 0.0273452 0)
(-0.197185 0.0173604 0)
(-0.227145 0.0103378 0)
(-0.24646 0.00286074 0)
(-0.254 -0.00487612 0)
(-0.248119 -0.0128192 0)
(-0.229577 -0.0207413 0)
(-0.199938 -0.0274647 0)
(-0.162425 -0.0319767 0)
(-0.121093 -0.0337526 0)
(-0.0801132 -0.0325051 0)
(-0.0433717 -0.0278175 0)
(-0.0143625 -0.0183636 0)
(-0.00922671 -0.000350217 0)
(-0.0149322 0.00968897 0)
(-0.0306478 -0.0150491 0)
(-0.00982366 -0.0271764 0)
(0.0173788 -0.0239963 0)
(0.0365493 -0.0175148 0)
(0.0512024 -0.00974477 0)
(0.0602312 -0.0055567 0)
(0.0645403 -0.00401473 0)
(0.066485 -0.00341258 0)
(0.0676349 -0.00302219 0)
(0.0683958 -0.00269821 0)
(0.0687223 -0.00236943 0)
(0.0683786 -0.00182655 0)
(0.0668075 -0.000694287 0)
(0.062808 0.00155125 0)
(0.0549528 0.00446452 0)
(0.0441153 0.00823875 0)
(0.00216525 0.021744 0)
(0.192283 0.177102 0)
(-0.154199 0.0719027 0)
(-0.156765 0.0529856 0)
(-0.187117 0.0382275 0)
(-0.206048 0.0217732 0)
(-0.213719 0.00372738 0)
(-0.208311 -0.0156382 0)
(-0.191075 -0.0342621 0)
(-0.164205 -0.0492147 0)
(-0.13119 -0.0585426 0)
(-0.0957467 -0.0617188 0)
(-0.061249 -0.0588951 0)
(-0.0304542 -0.0503299 0)
(-0.00420462 -0.035524 0)
(0.0158155 -0.0172651 0)
(0.0336488 0.000217163 0)
(0.0422039 0.0245998 0)
(-0.0118424 0.0549437 0)
(0.0380189 0.037336 0)
(0.0195224 -0.0208367 0)
(0.0312382 -0.0355527 0)
(0.0444905 -0.0340432 0)
(0.0563442 -0.0265044 0)
(0.0625023 -0.0122376 0)
(0.0641661 -0.00343125 0)
(0.0642728 -0.000109974 0)
(0.0644659 0.00111473 0)
(0.0648094 0.00180656 0)
(0.0650565 0.0023273 0)
(0.0651641 0.00292082 0)
(0.0650685 0.00390878 0)
(0.0643008 0.00613935 0)
(0.0607267 0.0118657 0)
(0.0517572 0.0178418 0)
(0.0427605 0.0243468 0)
(-0.0283738 0.0461528 0)
(0.345597 0.264103 0)
(-0.165531 0.112592 0)
(-0.116781 0.084486 0)
(-0.145247 0.0591293 0)
(-0.161674 0.0321509 0)
(-0.1678 0.00283332 0)
(-0.160464 -0.0280927 0)
(-0.142549 -0.0568432 0)
(-0.117232 -0.0786068 0)
(-0.0883488 -0.0908919 0)
(-0.0589909 -0.0937244 0)
(-0.0314442 -0.0879389 0)
(-0.0075632 -0.0747923 0)
(0.0130376 -0.0547054 0)
(0.0284005 -0.033044 0)
(0.0388795 -0.0125516 0)
(0.0417086 0.0125132 0)
(-0.00170299 0.0538691 0)
(0.0934354 -0.0162379 0)
(0.0686499 -0.0369618 0)
(0.0668783 -0.0435685 0)
(0.0705803 -0.0416475 0)
(0.0751241 -0.0372915 0)
(0.0758374 -0.0279659 0)
(0.0663418 -0.0180997 0)
(0.0590092 -0.0127882 0)
(0.0559201 -0.00983717 0)
(0.0547118 -0.00794788 0)
(0.0539949 -0.00666714 0)
(0.0536097 -0.00569016 0)
(0.0541335 -0.00444155 0)
(0.0566923 -0.000796304 0)
(0.0560871 0.0157039 0)
(0.046286 0.0284098 0)
(0.0443182 0.0402819 0)
(-0.0566532 0.0714734 0)
(0.484423 0.333624 0)
(-0.194697 0.147714 0)
(-0.0758018 0.1108 0)
(-0.10105 0.0765411 0)
(-0.111888 0.0409693 0)
(-0.112675 0.00108437 0)
(-0.0991544 -0.0416403 0)
(-0.0792043 -0.079212 0)
(-0.0561648 -0.105536 0)
(-0.0332341 -0.118714 0)
(-0.011987 -0.120084 0)
(0.00706767 -0.110758 0)
(0.0222883 -0.0936329 0)
(0.0351101 -0.0708107 0)
(0.0457391 -0.045146 0)
(0.0548242 -0.0185264 0)
(0.0664022 0.0104449 0)
(0.0743244 0.0430518 0)
(0.111856 0.0364081 0)
(0.111567 -0.0115977 0)
(0.0975904 -0.0323241 0)
(0.0879359 -0.0384683 0)
(0.0805755 -0.0376565 0)
(0.0727612 -0.0323053 0)
(0.0708307 -0.0189669 0)
(0.0791833 -0.0120226 0)
(0.0856795 -0.00833834 0)
(0.0884741 -0.00614097 0)
(0.0892336 -0.004417 0)
(0.0883219 -0.00264479 0)
(0.0852149 -0.000511199 0)
(0.078711 0.00242794 0)
(0.0668122 0.00677132 0)
(0.0536433 0.0241715 0)
(0.0426654 0.0408776 0)
(0.0498209 0.0574536 0)
(-0.0750915 0.095059 0)
(0.60426 0.386973 0)
(-0.232326 0.175529 0)
(-0.036631 0.125086 0)
(-0.0548688 0.0856958 0)
(-0.0562747 0.0439995 0)
(-0.0425986 -0.00565472 0)
(-0.0211343 -0.058651 0)
(-0.000245938 -0.100775 0)
(0.017441 -0.126812 0)
(0.0310151 -0.137112 0)
(0.0413146 -0.135185 0)
(0.048644 -0.123256 0)
(0.0537587 -0.103896 0)
(0.0577333 -0.0796005 0)
(0.0614428 -0.0530145 0)
(0.0661063 -0.0263519 0)
(0.0747906 -0.00174713 0)
(0.0881421 0.0117972 0)
(0.0999817 -0.00489244 0)
(0.0986489 -0.0213999 0)
(0.0904914 -0.0288671 0)
(0.0805781 -0.0307581 0)
(0.0712031 -0.0290553 0)
(0.0630838 -0.023413 0)
(0.0595511 -0.0121119 0)
(0.0607865 -0.00537429 0)
(0.0625755 -0.00245547 0)
(0.0636285 -0.000873284 0)
(0.0643137 0.000874361 0)
(0.0646629 0.00339586 0)
(0.0639891 0.00706777 0)
(0.061724 0.0123615 0)
(0.0573551 0.0201076 0)
(0.0518501 0.0338731 0)
(0.0451439 0.0505862 0)
(0.0622464 0.0708775 0)
(0.0104025 0.102408 0)
(0.0574715 0.124787 0)
(-0.0675315 0.0473901 0)
(-0.256412 -0.0103433 0)
(0.691641 0.430689 0)
(-0.269579 0.192899 0)
(-0.00680293 0.118227 0)
(-0.00580334 0.0816334 0)
(0.00918323 0.0330531 0)
(0.0456883 -0.027812 0)
(0.0713552 -0.0795876 0)
(0.0880226 -0.116038 0)
(0.0963852 -0.136705 0)
(0.0981926 -0.14315 0)
(0.0953193 -0.137869 0)
(0.0893606 -0.12353 0)
(0.0820078 -0.102954 0)
(0.0748372 -0.0786796 0)
(0.0691118 -0.053173 0)
(0.0660336 -0.0290213 0)
(0.0672053 -0.00913678 0)
(0.0728066 0.00106614 0)
(0.0761916 -0.0035796 0)
(0.0732637 -0.0119282 0)
(0.0657151 -0.018113 0)
(0.0566114 -0.0207545 0)
(0.0479134 -0.0202106 0)
(0.0406299 -0.0166134 0)
(0.0363427 -0.0104375 0)
(0.0353439 -0.00624253 0)
(0.0359404 -0.00431967 0)
(0.0371932 -0.0032016 0)
(0.0389504 -0.00164233 0)
(0.0413378 0.0012564 0)
(0.0435366 0.00592564 0)
(0.0452388 0.0126288 0)
(0.046501 0.0218461 0)
(0.0482261 0.0347611 0)
(0.0497273 0.0506809 0)
(0.0675709 0.0709622 0)
(0.0617228 0.0881202 0)
(0.0922616 0.0897924 0)
(0.107723 0.0548854 0)
(-0.123599 -0.0183566 0)
(0.751312 0.470345 0)
(-0.286189 0.175767 0)
(0.0278022 0.05808 0)
(0.0674162 0.0378055 0)
(0.114004 -0.00774833 0)
(0.15247 -0.0595727 0)
(0.174252 -0.0994918 0)
(0.181333 -0.124614 0)
(0.176099 -0.135981 0)
(0.161939 -0.135606 0)
(0.14233 -0.125879 0)
(0.120292 -0.109436 0)
(0.0984051 -0.0888722 0)
(0.0786608 -0.0662298 0)
(0.062421 -0.0434283 0)
(0.0507048 -0.0230246 0)
(0.0441634 -0.00754403 0)
(0.0421259 0.000267753 0)
(0.0410214 -0.00101488 0)
(0.0375085 -0.00610313 0)
(0.0314122 -0.0106656 0)
(0.0242239 -0.0129984 0)
(0.0171967 -0.0130659 0)
(0.011295 -0.0111961 0)
(0.00762533 -0.00814863 0)
(0.00646916 -0.0060585 0)
(0.00695898 -0.00529586 0)
(0.00844228 -0.0050409 0)
(0.0107772 -0.00433614 0)
(0.0140538 -0.00217841 0)
(0.0190937 0.00241208 0)
(0.0243497 0.00915261 0)
(0.0301171 0.0179014 0)
(0.0374757 0.0290235 0)
(0.0459133 0.0419751 0)
(0.063693 0.0579456 0)
(0.0779024 0.0670462 0)
(0.106747 0.0617003 0)
(0.146493 0.0508148 0)
(-0.0306904 0.088827 0)
(0.858036 0.466537 0)
(-0.0450771 0.150253 0)
(0.124322 -0.0435448 0)
(0.234699 -0.0848626 0)
(0.278236 -0.0973964 0)
(0.293195 -0.109254 0)
(0.291014 -0.118337 0)
(0.273709 -0.121609 0)
(0.244112 -0.118526 0)
(0.206812 -0.109653 0)
(0.166436 -0.0959874 0)
(0.126754 -0.0791311 0)
(0.0905415 -0.0607924 0)
(0.0594774 -0.0420812 0)
(0.0347128 -0.0241294 0)
(0.0173031 -0.00942222 0)
(0.00665852 0.000167622 0)
(0.00234224 0.00371889 0)
(0.000307248 0.00202869 0)
(-0.00228308 -0.00179232 0)
(-0.0065696 -0.00514161 0)
(-0.0117029 -0.00709149 0)
(-0.0168086 -0.00766074 0)
(-0.0210803 -0.00723104 0)
(-0.0238136 -0.00643672 0)
(-0.0249437 -0.00617384 0)
(-0.0250166 -0.0065905 0)
(-0.0244673 -0.0073024 0)
(-0.0233753 -0.00779387 0)
(-0.021519 -0.00745141 0)
(-0.0182129 -0.00549354 0)
(-0.0112944 -0.00124843 0)
(-0.00372665 0.00468186 0)
(0.0062948 0.0116082 0)
(0.0174212 0.0178652 0)
(0.0339878 0.0243433 0)
(0.0513395 0.0215801 0)
(0.0753751 0.00692325 0)
(0.137792 0.0429391 0)
(-0.374087 0.188523 0)
(1.00841 0.416442 0)
(0.473147 0.27259 0)
(0.500268 0.166389 0)
(0.531367 0.0793557 0)
(0.506405 0.0194265 0)
(0.452981 -0.0220274 0)
(0.392417 -0.0473461 0)
(0.328225 -0.0591912 0)
(0.261773 -0.0609033 0)
(0.196886 -0.0556989 0)
(0.137195 -0.0459147 0)
(0.0853894 -0.0338348 0)
(0.0424023 -0.0212749 0)
(0.00739902 -0.00923535 0)
(-0.0178053 0.000266545 0)
(-0.0308188 0.00511372 0)
(-0.0367438 0.00690201 0)
(-0.0388645 0.00641215 0)
(-0.0400815 0.00415409 0)
(-0.041909 0.00130687 0)
(-0.0444621 -0.00115484 0)
(-0.0478946 -0.00286921 0)
(-0.0514837 -0.00397163 0)
(-0.054719 -0.00469734 0)
(-0.0572868 -0.0053388 0)
(-0.059301 -0.00615976 0)
(-0.0612402 -0.00711589 0)
(-0.0636163 -0.00791523 0)
(-0.0668704 -0.00809481 0)
(-0.0714511 -0.0069952 0)
(-0.0780021 -0.00376599 0)
(-0.0865023 0.00215861 0)
(-0.0959142 0.0107239 0)
(-0.108901 0.0223337 0)
(-0.128991 0.0375044 0)
(-0.158795 0.0559598 0)
(-0.200383 0.0750231 0)
(-0.248444 0.0918663 0)
(-0.317882 0.104622 0)
(-0.580255 0.111538 0)
(-0.207157 -0.107741 0)
(0.0934358 -0.095906 0)
(0.158965 -0.079078 0)
(0.143493 -0.0563418 0)
(0.121052 -0.0354875 0)
(0.0939823 -0.0192427 0)
(0.0596479 -0.00702949 0)
(0.0239706 0.00122018 0)
(-0.0104279 0.00689839 0)
(-0.0363341 0.0102231 0)
(-0.0549141 0.0124551 0)
(-0.0663857 0.0134922 0)
(-0.0725915 0.0133952 0)
(-0.0754725 0.0126743 0)
(-0.0765736 0.0119364 0)
(-0.0769253 0.0110878 0)
(-0.0775302 0.0100897 0)
(-0.0789394 0.0092768 0)
(-0.0810949 0.00898921 0)
(-0.0836067 0.00923353 0)
(-0.0863173 0.00985681 0)
(-0.0890377 0.0106189 0)
(-0.0917465 0.0112607 0)
(-0.0945451 0.0117425 0)
(-0.0976426 0.0121082 0)
(-0.101242 0.0124027 0)
(-0.105486 0.0126465 0)
(-0.110223 0.0133244 0)
(-0.114909 0.0151268 0)
(-0.119153 0.0190546 0)
(-0.122949 0.0263896 0)
(-0.12624 0.0379476 0)
(-0.12936 0.0536598 0)
(-0.132478 0.0714705 0)
(-0.132699 0.0839099 0)
(-0.117963 0.071673 0)
(-0.0907865 -0.00515681 0)
(-0.254187 -0.180532 0)
(0.0887045 0.126815 0)
(0.00908673 0.0259767 0)
(-0.0305931 -0.0128209 0)
(-0.0625046 -0.00744 0)
(-0.0846553 0.000958395 0)
(-0.099362 0.00586595 0)
(-0.107217 0.00809051 0)
(-0.112449 0.00798197 0)
(-0.11562 0.0055175 0)
(-0.116767 0.00134113 0)
(-0.116326 -0.00304912 0)
(-0.11453 -0.00721993 0)
(-0.111985 -0.0113426 0)
(-0.109366 -0.0155653 0)
(-0.107057 -0.0197574 0)
(-0.105284 -0.0241237 0)
(-0.104296 -0.0289147 0)
(-0.104207 -0.0340619 0)
(-0.104913 -0.0392375 0)
(-0.106213 -0.0441076 0)
(-0.107929 -0.0484544 0)
(-0.109944 -0.0521169 0)
(-0.112222 -0.0548853 0)
(-0.11475 -0.0565947 0)
(-0.117374 -0.0568968 0)
(-0.119816 -0.0553125 0)
(-0.121744 -0.0513103 0)
(-0.122848 -0.0447205 0)
(-0.122652 -0.0355012 0)
(-0.12037 -0.0235795 0)
(-0.114852 -0.00881418 0)
(-0.104771 0.00900069 0)
(-0.0891609 0.0295251 0)
(-0.0680774 0.0502197 0)
(-0.043218 0.0646262 0)
(-0.00850519 0.0558154 0)
(0.138242 -0.016113 0)
(-0.192138 -0.0950214 0)
(0.0943606 -0.246984 0)
(-0.345753 -0.120991 0)
(-0.270935 0.0195735 0)
(-0.264099 -0.00402977 0)
(-0.24746 0.00361349 0)
(-0.245001 0.0148432 0)
(-0.239868 0.0242381 0)
(-0.231368 0.0325534 0)
(-0.2197 0.0407089 0)
(-0.206068 0.0488081 0)
(-0.191883 0.0566597 0)
(-0.178546 0.0642661 0)
(-0.166779 0.0717196 0)
(-0.156679 0.078893 0)
(-0.148129 0.0858166 0)
(-0.140927 0.092712 0)
(-0.13479 0.0998051 0)
(-0.1295 0.107241 0)
(-0.124981 0.115021 0)
(-0.121212 0.122918 0)
(-0.118139 0.130563 0)
(-0.11566 0.137616 0)
(-0.11365 0.143844 0)
(-0.111987 0.149073 0)
(-0.110571 0.153083 0)
(-0.109337 0.155618 0)
(-0.108239 0.156251 0)
(-0.107186 0.154527 0)
(-0.105962 0.15018 0)
(-0.104134 0.14353 0)
(-0.10092 0.135381 0)
(-0.0949239 0.12689 0)
(-0.0840705 0.119488 0)
(-0.0662907 0.114741 0)
(-0.0409921 0.113966 0)
(-0.00697562 0.116909 0)
(0.0355094 0.118734 0)
(0.0711835 0.11194 0)
(0.154421 0.0970101 0)
(-0.275528 0.0631319 0)
)
;

boundaryField
{
    floor
    {
        type            noSlip;
    }
    ceiling
    {
        type            noSlip;
    }
    sWall
    {
        type            noSlip;
    }
    nWall
    {
        type            noSlip;
    }
    sideWalls
    {
        type            empty;
    }
    glass1
    {
        type            noSlip;
    }
    glass2
    {
        type            noSlip;
    }
    sun
    {
        type            noSlip;
    }
    Table_master
    {
        type            noSlip;
    }
    Table_slave
    {
        type            noSlip;
    }
    inlet
    {
        type            fixedValue;
        value           uniform (0.212132 -0.212132 0);
    }
    outlet
    {
        type            zeroGradient;
    }
}


// ************************************************************************* //
