/*--------------------------------*- C++ -*----------------------------------*=========                 |
  \      /  F ield         | OpenFOAM: The Open Source CFD Toolbox
   \    /   O peration     | Website:  https://openfoam.org
    \  /    A nd           | Version:  6
     \/     M anipulation  |
\*---------------------------------------------------------------------------*/
FoamFile
{
    version     2.0;
    format      ascii;
    class       volScalarField;
    location    "2600";
    object      PPD;
}
// * * * * * * * * * * * * * * * * * * * * * * * * * * * * * * * * * * * * * //

dimensions      [0 0 0 0 0 0 0];

internalField   nonuniform List<scalar> 
458
(
41.73599483984696
29.68187700890728
27.9831966799986
26.749889996991755
26.096151889256575
25.983256551102045
26.45981403475416
27.627216363287943
29.74568515445874
33.142343770515325
37.2678837274083
38.3014705631961
37.76792583810867
37.811604010707974
38.301905138691254
52.03813958729818
50.843625494757035
50.19548036393347
50.58426463802374
51.10311154897038
50.70989288851211
50.08118060838028
50.03191590329389
50.28214671815117
50.589969540984804
50.9596393724415
51.36938293700674
51.84433347663543
52.439845428426146
53.33028011458231
54.71755017515707
56.687472109010315
58.11833808016346
38.166945226649666
30.43196819307947
29.68599504994488
28.492838893266565
27.85773305348164
27.680168641111962
27.951491856018535
28.453483035655054
29.36431585043394
31.051239865236838
33.98855113073611
37.72315607167455
38.80444929997571
37.542227179725316
35.681746161861525
34.91910726736545
36.42191082557721
39.10061001578314
51.55618455362052
49.393104762276145
49.03129605023566
48.63705557239394
48.73002641657805
49.0429414545138
49.38080988470281
49.76380548378477
50.12848403195354
50.47267954447677
50.85292850892871
51.24890625892826
51.69168345064992
52.220084839201526
53.050914297610134
54.46662434104296
55.94938408779022
56.896919805164174
39.27246501624104
30.281304611043794
31.473687110216275
31.01131534048659
30.839791447374225
30.77556097555629
30.59607076072504
29.620500859237367
28.425079700330542
28.566944685061046
30.97720653025705
35.03103812874096
38.21369127750143
38.87312021412046
37.49057351507587
37.075151075250254
37.56665141204012
38.14968468500704
45.48274239478659
45.412975667713525
44.984636835584034
45.84001345394141
47.05861065237901
47.5859382624404
49.263602357854325
50.6806400552608
51.532024096604935
52.145278574419656
52.68247507981532
53.204318126026905
53.636014760606486
53.7856076718328
54.13856314646427
55.08993368322715
55.042282507325325
53.5734809077289
42.73895927641008
30.207813855126957
32.91114368553589
34.009428331922976
35.21826618207301
35.761750739844786
34.5515738428807
30.913383897786304
27.37721565313737
26.53538183775791
28.954706162763458
33.22370609838681
37.5485479550921
40.005732035755656
39.602029594361866
38.48761280809013
36.99193851334254
35.715408748704576
34.66733633964638
37.648416219269706
40.25910977366773
42.93934411060453
46.002758151882155
49.18762064030111
51.835905167387345
52.46526146504325
52.984515528763765
53.737012488621716
54.547888258184315
55.41733332928131
56.399392368823605
57.574615347880055
59.149540342477
58.6207946733685
57.20633949536688
54.71344477420024
51.9474375807638
47.459863843325344
30.80888557742658
34.06890606627705
36.87540472688988
40.81057785922241
43.28835858400737
38.45018658258161
31.524751084572117
26.279513021008768
25.11449374959787
27.590455115291164
32.453483921533945
37.836266350651094
41.80317229364661
42.48745024141762
41.19213531004341
39.31865705337868
38.07046114407834
38.58588280958632
40.2060895405461
42.91022461577703
46.41671923043698
50.21792600739439
53.9024197447105
57.01851722780787
58.65731062802949
59.7559277954038
60.70344913998752
61.42958784475109
61.94251271655036
62.27404341859662
62.469297783641586
62.393600785423494
61.129360167314424
58.83820122030897
54.93731011396703
54.16353305876867
52.26361127097525
52.31969479843479
52.537895388652295
52.600952786471254
32.37489529528315
36.02682513304869
39.13124602717655
44.90475374417845
47.485364359554794
38.64187611563945
30.595137732455242
25.167572819716355
23.990234937341896
26.929191170137756
32.86702132231545
39.67595505236151
45.322680908675224
46.357376724471955
46.15288014744734
44.519638905816144
43.53109332486063
44.457947036321464
46.65159297517754
49.89084368266025
53.62321236930441
57.42262002265722
60.51639502371489
62.43349220431705
63.852154150364775
64.93274144516474
65.70652763679723
66.22802730405445
66.4508362060864
66.42610053770878
66.15366441443874
65.52896805976948
63.6041955049566
60.9860214166112
57.24162452164606
56.087264310180196
57.02904948533882
56.26359394203504
53.802884155404904
57.769052872651294
36.74935280635182
42.75958759092721
43.2354065342449
46.88206730174485
43.361821289334245
36.134809073620445
28.10343046612803
23.089075845118415
22.85487564662047
27.239100838496327
35.078951447908125
44.00115738430057
49.341395363050545
50.32503916243067
50.11776307402842
49.910585296385264
50.53240838724134
52.37606183212653
55.003312515654464
57.859440685606494
60.61906935438426
63.04296425986643
64.95777317581721
66.40135962596625
67.43584442392076
68.14434406458794
68.605830580582
68.8478305006521
68.8478305006521
68.55735644885557
68.09564014938252
67.411326976337
66.40135962596625
63.947680889154775
60.61918304187211
58.58091256888584
58.09125770869902
55.706454878775666
55.05957578298814
65.15327371368147
55.706723453170426
53.018910955793366
47.882422850083955
46.45038754250072
40.96280141607582
31.316696928510922
23.06025835078991
19.789992851042854
22.101192409133958
29.51320142185348
40.79000028327678
50.9474054643651
54.24896951987496
55.10734831796962
55.08134004112352
55.36740363255254
56.51081997866975
58.713130909857625
61.33650561384704
63.72598970254528
65.80603184316601
67.48486230938263
68.7027049360522
69.546059216005
70.09592872960786
70.4051497728856
70.50006152299494
70.45261946068361
70.23878942150755
69.88118189901084
69.35398343806806
68.7027049360522
67.77848905932609
66.72257952437697
65.58203630474006
64.68145665314333
63.768347344654615
58.34963328338694
53.125392482846486
75.50027242760123
68.9439196359128
61.20418811537905
54.5139369383517
48.35654108510017
32.290949408249205
19.467452275434013
14.61257053180347
16.08023104019125
23.941728630703167
37.61132959123548
51.57046928744337
57.574467719074605
59.0980425525309
59.28415861563022
59.8141207345052
60.96609594025279
62.8334494261385
64.88266415595251
66.84426022661688
68.12679617103058
68.96401478867216
69.4760012862447
69.74540474004975
69.85960210415065
69.8153355679134
69.63503378476312
69.3006122703647
68.80554775403508
68.1720655066884
67.41818339347223
66.52449748302067
65.5402976837889
64.52999690359283
63.38808185522875
62.20329670525431
61.21019404920232
60.5023678279537
59.72827496244898
58.27716436222994
75.38529451462995
41.504460663031544
28.241986092017612
14.776168626056602
5.8285561668456864
7.141680754622229
19.554618436958364
39.85909417750313
54.72137754234639
58.383301334181645
60.1836415342014
61.075917505710144
61.79159658924301
62.68487438046526
63.904904498589
65.35531781461518
66.85261080244496
68.08940137047729
68.92863440940066
69.37673810079194
69.53039348212172
69.4519193224144
69.21861031886976
68.86707164357854
68.43123745527102
67.95141066338915
67.39774360274538
66.87483344346876
66.34299293693896
65.84983736497227
65.39868483277317
65.0125376541501
64.68438404814947
64.46852669081039
64.63212882935485
65.70580662633085
68.34920449438621
67.86394956177267
73.9157661713966
21.789502424633127
5.816897622988833
8.685464780947868
22.869952238912404
38.222835033860946
47.91770447233083
55.368629949977546
59.812759135046555
62.03058444588126
63.32855203223468
64.24567835862561
65.11580050387818
66.03935320322981
67.03423097135087
68.03025820219736
68.9040791615794
69.54870648885148
69.87761366969498
69.98693516117643
69.89383434152245
69.67968521523804
69.3931755328014
69.10454776947142
68.7581118532793
68.40012313138206
68.03555742303858
67.7014401992938
67.39025477779771
67.15632124011199
67.07119787461981
67.17383485864454
67.49502994477177
67.87292159645364
68.54953011263143
70.78516670431044
69.07923140438625
73.09068634403761
25.55736215573951
26.013472084341046
21.218495077684793
5.202723056591779
20.001154888542274
40.87115768127184
52.473049890173066
58.1212129422671
61.65022411131266
63.97474476594922
65.53769940334587
66.62945163722227
67.49785406655693
68.20362745314736
68.8693125858826
69.48657365726378
70.06518562107762
70.6036719259431
71.0415368280963
71.34243542853437
71.49633663592078
71.54366072050955
71.45281773446959
71.26860806538981
71.0157230072568
70.72408336899426
70.37904083147697
70.02131077005487
69.67022449434728
69.35029584651727
69.12323448991097
69.03062101177532
69.24561884541875
69.94479496145236
71.34918254591337
72.02641616821951
72.23530659822454
70.35730092247384
70.36083813389588
67.68764236521518
)
;

boundaryField
{
    ".*"
    {
        type            zeroGradient;
    }
}


// ************************************************************************* //
