/*--------------------------------*- C++ -*----------------------------------*\
  =========                 |
  \\      /  F ield         | OpenFOAM: The Open Source CFD Toolbox
   \\    /   O peration     | Website:  https://openfoam.org
    \\  /    A nd           | Version:  6
     \\/     M anipulation  |
\*---------------------------------------------------------------------------*/
FoamFile
{
    version     2.0;
    format      ascii;
    class       volScalarField;
    location    "1300";
    object      nut;
}
// * * * * * * * * * * * * * * * * * * * * * * * * * * * * * * * * * * * * * //

dimensions      [0 2 -1 0 0 0 0];

internalField   nonuniform List<scalar> 
458
(
0.000701361
0.000723122
0.000687419
0.000712002
0.000735624
0.000756838
0.000776028
0.000793838
0.000811044
0.000828683
0.000843612
0.000854499
0.000861372
0.00086579
0.000867896
0.000408508
0.000492948
0.000498997
0.000446211
0.000374342
0.000277086
0.000219888
0.000221513
0.000232002
0.000239116
0.000234553
0.000223492
0.000210013
0.000219666
0.000286395
0.000340913
0.000347522
0.000319603
0.00115474
0.00188246
0.00148499
0.00185546
0.0019958
0.00213926
0.00228276
0.00241506
0.00252023
0.00257671
0.0025926
0.00253647
0.00236562
0.00201793
0.00145558
0.000916683
0.000875509
0.000636682
0.000547847
0.00116751
0.00134676
0.00134869
0.00109083
0.00079024
0.00066431
0.000642178
0.000674226
0.000689161
0.000632649
0.000517677
0.000386419
0.000330387
0.000598893
0.000876247
0.0011113
0.000464413
0.00156431
0.00304866
0.00158908
0.002706
0.00299897
0.00316905
0.00330934
0.00342385
0.00351183
0.003568
0.00359618
0.00357401
0.00346861
0.00323667
0.00284251
0.00230124
0.00162474
0.000934543
0.000777487
0.00213453
0.00191859
0.00155616
0.00121035
0.000478101
0.000407516
0.000369369
0.00034346
0.000322735
0.00030438
0.000285742
0.000266381
0.000288161
0.000967082
0.00136616
0.0011446
0.000501545
0.00197006
0.00468262
0.00170495
0.00298499
0.00358835
0.00376854
0.00387823
0.0039567
0.00401508
0.00405732
0.00408973
0.00411009
0.00410095
0.00402745
0.00382504
0.00339892
0.00266744
0.0017021
0.000948339
0.00207019
0.00221127
0.00186311
0.00138725
0.000936878
0.000610388
0.000617286
0.000637329
0.000673096
0.000726373
0.000764445
0.000795898
0.000811474
0.00079989
0.000941657
0.0012171
0.00157459
0.000817275
0.00236606
0.0066601
0.00234318
0.00276064
0.00380568
0.00406603
0.00416858
0.00422252
0.00425215
0.00427252
0.00429342
0.00434168
0.00441321
0.00449181
0.00454953
0.00455245
0.00447376
0.004275
0.00390004
0.00354131
0.0031649
0.00280786
0.00254809
0.00238223
0.00229238
0.00229221
0.00235534
0.00249606
0.00272874
0.00293068
0.00308226
0.00315252
0.00311743
0.00284434
0.00247774
0.00217476
0.0017051
0.000915502
0.000848116
0.000889019
0.00275581
0.00865084
0.00408333
0.00261582
0.00341938
0.00394573
0.00419517
0.00431888
0.00435685
0.00433845
0.00430619
0.00434339
0.00442441
0.00453067
0.00464547
0.00474723
0.00479575
0.00470854
0.00441807
0.00398855
0.00355645
0.00321443
0.00296832
0.00277208
0.00260542
0.00248952
0.00245981
0.00256933
0.00288799
0.0032053
0.00344072
0.00359275
0.00368072
0.00367888
0.00343419
0.00305725
0.00257916
0.0019058
0.00155628
0.000905735
0.00312439
0.0102385
0.00714655
0.00419654
0.00306811
0.00311356
0.00357974
0.00402066
0.00430006
0.00431698
0.00424056
0.00425418
0.00430402
0.00437341
0.00445357
0.00453536
0.00458924
0.00454396
0.00433934
0.00400126
0.00363067
0.00332294
0.00308987
0.0028769
0.00264504
0.00242244
0.00228338
0.00236682
0.00276828
0.0031636
0.00344599
0.00364098
0.00381481
0.00401208
0.00412034
0.00389777
0.00351171
0.00299071
0.00237168
0.00109945
0.00320479
0.0100607
0.00846379
0.00715701
0.00547118
0.00425934
0.0037852
0.00382056
0.00405984
0.00416693
0.00414465
0.00412016
0.00411619
0.00412619
0.0041398
0.00415063
0.00414898
0.00410222
0.00396764
0.00374088
0.00347312
0.00323415
0.00306298
0.00291851
0.00271922
0.00243259
0.00215052
0.00217932
0.00269973
0.00314172
0.00339882
0.00357827
0.00377889
0.00409018
0.00456431
0.00489725
0.00477375
0.00427347
0.00397276
0.00144421
0.00311961
0.00372293
0.00435676
0.00466169
0.00470022
0.00444712
0.00414229
0.00392679
0.00382497
0.00378249
0.00378137
0.00379689
0.003808
0.00380079
0.00376878
0.0037124
0.00363544
0.0035366
0.00340774
0.00324806
0.00307781
0.00293476
0.00285786
0.00284297
0.00278963
0.00251948
0.0020474
0.00193795
0.00259959
0.00309115
0.00326744
0.00331419
0.00330638
0.00325769
0.00316957
0.00304457
0.00283018
0.00251932
0.00226366
0.00140299
0.00281738
0.00539378
0.00504651
0.00478913
0.004533
0.00430837
0.00413246
0.00399561
0.00387869
0.00377009
0.00365844
0.00353522
0.0033971
0.00324609
0.00308825
0.00293085
0.00278031
0.00264367
0.00253352
0.00247181
0.00248717
0.00258962
0.00270611
0.00258754
0.00191344
0.00153561
0.00230643
0.00292736
0.0031008
0.00314871
0.003157
0.00311619
0.00301725
0.00282813
0.00252955
0.00215721
0.00179778
0.00116866
0.00263109
0.00585307
0.00542111
0.00506209
0.00476636
0.00449721
0.0042389
0.00399694
0.00376996
0.003514
0.00324467
0.00297817
0.00272397
0.00248785
0.00227403
0.00208664
0.00193068
0.00181266
0.00174179
0.00173092
0.00179384
0.00193012
0.00208189
0.00206048
0.00159332
0.00102952
0.00163143
0.00227382
0.00249201
0.00267813
0.00288543
0.00304759
0.0031497
0.00313858
0.00297243
0.00272515
0.00232569
0.00118779
0.0020864
0.00226003
0.00241018
0.00255788
0.00237937
0.00222564
0.0020341
0.00187727
0.00173425
0.00160274
0.00148081
0.00137573
0.00128165
0.00119399
0.00111036
0.0010297
0.000951872
0.00087751
0.000807851
0.000744542
0.000689355
0.000643949
0.000609785
0.000587877
0.000577103
0.000569911
0.000553546
0.000542582
0.000621383
0.000683166
0.000739476
0.000807779
0.000895406
0.00100811
0.00112597
0.00125985
0.00130756
0.00127739
0.00117504
0.001078
)
;

boundaryField
{
    floor
    {
        type            nutkWallFunction;
        Cmu             0.09;
        kappa           0.41;
        E               9.8;
        value           nonuniform List<scalar> 
36
(
0.000105055
4.78785e-05
5.88134e-05
5.9587e-05
5.27917e-05
4.33739e-05
3.02413e-05
2.22448e-05
2.24764e-05
2.39619e-05
2.49638e-05
2.4321e-05
2.27562e-05
2.08351e-05
2.22128e-05
3.15294e-05
3.89248e-05
3.98107e-05
3.60544e-05
3.60543e-05
5.51524e-05
5.9918e-05
9.8982e-05
0.000110733
0.000102688
0.000107579
0.000105055
0.000110872
0.000105966
7.69159e-05
4.78784e-05
7.69159e-05
6.57965e-05
0.000112993
9.41747e-05
0.000114628
)
;
    }
    ceiling
    {
        type            nutkWallFunction;
        Cmu             0.09;
        kappa           0.41;
        E               9.8;
        value           nonuniform List<scalar> 
43
(
0.00024268
0.000261413
0.000277492
0.000293325
0.000274341
0.000257858
0.000237135
0.000220008
0.000204252
0.000189639
0.000175973
0.000164097
0.000153378
0.00014331
0.000133628
0.00012421
0.000115044
0.000106204
9.78443e-05
9.0173e-05
8.34228e-05
7.78209e-05
7.35749e-05
7.08374e-05
6.94872e-05
6.85849e-05
6.65245e-05
6.51323e-05
7.50168e-05
8.26626e-05
8.95564e-05
9.78358e-05
0.00010834
0.000121677
0.000135443
0.000150885
0.000156342
0.000152893
0.000141126
0.000129862
0.000352592
0.000414784
0.000300828
)
;
    }
    sWall
    {
        type            nutkWallFunction;
        Cmu             0.09;
        kappa           0.41;
        E               9.8;
        value           uniform 0.000242745;
    }
    nWall
    {
        type            nutkWallFunction;
        Cmu             0.09;
        kappa           0.41;
        E               9.8;
        value           nonuniform List<scalar> 6(0.000107582 0.000109574 0.000132368 0.000140398 0.000142608 0.00012987);
    }
    sideWalls
    {
        type            empty;
    }
    glass1
    {
        type            nutkWallFunction;
        Cmu             0.09;
        kappa           0.41;
        E               9.8;
        value           nonuniform List<scalar> 9(8.48551e-05 0.000138912 0.000185603 0.000230522 0.000273398 0.000314857 0.000353501 0.000361876 0.000353029);
    }
    glass2
    {
        type            nutkWallFunction;
        Cmu             0.09;
        kappa           0.41;
        E               9.8;
        value           nonuniform List<scalar> 2(0.000171925 0.000167261);
    }
    sun
    {
        type            nutkWallFunction;
        Cmu             0.09;
        kappa           0.41;
        E               9.8;
        value           nonuniform List<scalar> 
14
(
8.48921e-05
8.75573e-05
8.31808e-05
8.61969e-05
8.90835e-05
9.16664e-05
9.39955e-05
9.6151e-05
9.82281e-05
0.000100352
0.000102146
0.000103451
0.000104274
0.000104803
)
;
    }
    Table_master
    {
        type            nutkWallFunction;
        Cmu             0.09;
        kappa           0.41;
        E               9.8;
        value           nonuniform List<scalar> 9(5.69184e-05 4.77613e-05 4.27306e-05 3.92762e-05 3.64888e-05 3.40009e-05 3.14544e-05 2.87859e-05 3.17893e-05);
    }
    Table_slave
    {
        type            nutkWallFunction;
        Cmu             0.09;
        kappa           0.41;
        E               9.8;
        value           nonuniform List<scalar> 9(7.36512e-05 7.45109e-05 7.70019e-05 8.14234e-05 8.79614e-05 9.25967e-05 9.64056e-05 9.82855e-05 9.68882e-05);
    }
    inlet
    {
        type            calculated;
        value           uniform 0.000100623;
    }
    outlet
    {
        type            calculated;
        value           nonuniform List<scalar> 2(0.0020864 0.00226003);
    }
}


// ************************************************************************* //
