/*--------------------------------*- C++ -*----------------------------------*\
  =========                 |
  \\      /  F ield         | OpenFOAM: The Open Source CFD Toolbox
   \\    /   O peration     | Website:  https://openfoam.org
    \\  /    A nd           | Version:  6
     \\/     M anipulation  |
\*---------------------------------------------------------------------------*/
FoamFile
{
    version     2.0;
    format      ascii;
    class       volScalarField;
    location    "1300";
    object      epsilon;
}
// * * * * * * * * * * * * * * * * * * * * * * * * * * * * * * * * * * * * * //

dimensions      [0 2 -3 0 0 0 0];

internalField   nonuniform List<scalar> 
458
(
0.00015518
0.00016884
7.36938e-05
6.04057e-05
6.22385e-05
6.64653e-05
7.19205e-05
7.82737e-05
8.52561e-05
9.25206e-05
9.95626e-05
0.000105794
0.000110937
0.000115294
0.000117593
1.46407e-05
3.71757e-05
1.84383e-05
5.41647e-06
2.74033e-06
2.46283e-06
2.6477e-06
3.16281e-06
3.97808e-06
5.08261e-06
6.40977e-06
7.93863e-06
9.46574e-06
1.14154e-05
1.38425e-05
1.5722e-05
1.70184e-05
1.37369e-05
0.00097107
0.00212443
0.00023019
5.83962e-05
4.57213e-05
4.72723e-05
5.13444e-05
5.6499e-05
6.25406e-05
6.95184e-05
7.75677e-05
8.68458e-05
9.73687e-05
0.000109025
0.000126497
0.000181865
0.000144407
6.97471e-05
3.43413e-05
8.95776e-05
4.66001e-05
2.33018e-05
1.17025e-05
4.1417e-06
3.05094e-06
4.47384e-06
7.10492e-06
1.08462e-05
1.54881e-05
2.06432e-05
2.57593e-05
2.77464e-05
2.70715e-05
2.85806e-05
4.6599e-05
2.02362e-05
0.00271911
0.00730767
0.000887304
0.00013873
6.71754e-05
5.90965e-05
6.10202e-05
6.60394e-05
7.27896e-05
8.10344e-05
9.08445e-05
0.000102344
0.000115498
0.000129933
0.000146045
0.00016749
0.000194824
0.000239881
0.00016789
0.000187854
9.45642e-05
8.10191e-05
7.54034e-05
1.53656e-05
4.79681e-06
8.13383e-06
1.30645e-05
1.88739e-05
2.52038e-05
3.21372e-05
4.05994e-05
5.33766e-05
3.7734e-05
3.90334e-05
5.10177e-05
5.21932e-05
0.00542075
0.0154301
0.00272866
0.000458718
0.000143662
9.19579e-05
8.22193e-05
8.3885e-05
9.01265e-05
9.90918e-05
0.000110262
0.000123435
0.000138344
0.000154651
0.000173065
0.000197872
0.000239888
0.000327025
0.000507746
0.000235507
0.000133531
0.000122114
0.000125646
0.000141857
0.000182315
0.000172018
0.000162757
0.000153341
0.000144507
0.000137595
0.000134626
0.000138511
0.000154168
8.07619e-05
8.43637e-05
9.66575e-05
0.000164696
0.00877268
0.0248493
0.00616668
0.00150302
0.00046696
0.000200535
0.00013163
0.000115895
0.000116742
0.000124753
0.000137103
0.000152571
0.000169933
0.000187274
0.000202031
0.00021173
0.000214121
0.000207513
0.000190387
0.000157525
0.000139369
0.000133731
0.000132192
0.000131533
0.000130122
0.000125655
0.000120964
0.000116579
0.000113067
0.000111246
0.000112179
0.000117061
0.000126982
0.000141896
0.000171232
0.000210657
0.000257463
0.000367583
0.000274694
0.000182297
0.0125365
0.0319549
0.0117443
0.00413448
0.00165097
0.000651128
0.000285373
0.000186746
0.000162755
0.000162634
0.000173716
0.000191816
0.000214505
0.000239054
0.000261809
0.000278598
0.000285138
0.000278102
0.00025907
0.000236391
0.000219199
0.000208499
0.000201864
0.000196302
0.000189964
0.000182545
0.000174779
0.000167056
0.000159942
0.000154453
0.000152261
0.000155872
0.000168654
0.000194622
0.000237731
0.000296954
0.000358199
0.000395646
0.000354506
0.00019743
0.016307
0.032213
0.0206587
0.0107913
0.00542714
0.00237782
0.000856632
0.000393642
0.000263599
0.000229508
0.000229557
0.000246781
0.000274438
0.000308472
0.000344524
0.000377163
0.000399936
0.000407024
0.000398083
0.000379856
0.000360398
0.000344195
0.000331544
0.000320434
0.000309092
0.000297031
0.00028441
0.000271388
0.000258318
0.000246049
0.000236329
0.000232328
0.000239185
0.000263778
0.000312425
0.000385703
0.000471698
0.000543431
0.000552868
0.000277479
0.015672
0.0320061
0.0404464
0.0271257
0.013997
0.00613043
0.00252542
0.00108262
0.000553358
0.000381132
0.000341641
0.000349548
0.000378812
0.00042048
0.000469317
0.000519484
0.000563052
0.000591463
0.000600609
0.000593735
0.00057817
0.000560366
0.000543059
0.000526106
0.000508687
0.000490539
0.000471736
0.000452331
0.000432482
0.000412796
0.000394748
0.000381242
0.000378021
0.000395575
0.00044883
0.000548912
0.000699604
0.000916546
0.00122164
0.00119371
0.0131469
0.0227731
0.155033
0.0865966
0.0330893
0.0116657
0.00445263
0.00200349
0.00110906
0.000766719
0.00064405
0.000621651
0.000645773
0.000689236
0.000742186
0.000799
0.000852972
0.00089632
0.000923232
0.000932066
0.000926412
0.000911842
0.000891874
0.000868423
0.000842673
0.000815494
0.000787453
0.00075874
0.000729259
0.000699291
0.000669869
0.000642717
0.000621669
0.000613904
0.000631297
0.000686252
0.000773205
0.000896234
0.00161413
0.00144227
0.429199
0.2542
0.0440854
0.0112169
0.00493784
0.00287241
0.00199932
0.00161378
0.00147159
0.00144967
0.00147729
0.00151644
0.00155403
0.0015857
0.00160944
0.00162612
0.00163814
0.00164126
0.00163332
0.0016148
0.0015852
0.00154662
0.00150254
0.00145588
0.00140851
0.00136131
0.00131441
0.00126749
0.00122006
0.00117188
0.00112358
0.00107757
0.00103908
0.00101581
0.00101483
0.00106758
0.00137978
0.00151337
0.247904
0.130592
0.0414771
0.016592
0.00855476
0.00546032
0.0040969
0.0034868
0.00327029
0.00329026
0.0034196
0.00355585
0.00364567
0.00367844
0.00366688
0.00362794
0.00357037
0.00350064
0.00342363
0.00334292
0.00325426
0.00315741
0.00305664
0.0029563
0.00285908
0.00276567
0.00267496
0.00258431
0.00248993
0.00238776
0.00227536
0.00215489
0.00203593
0.00193312
0.0018587
0.00182509
0.00248677
0.0015707
0.00091991
0.0025492
0.0642049
0.0491404
0.0307774
0.0189066
0.0121425
0.00823122
0.00587525
0.0044211
0.00351883
0.00297167
0.00266851
0.00252448
0.00247
0.00245708
0.00245634
0.00245287
0.00244075
0.00241724
0.00238184
0.00233541
0.00228408
0.00222783
0.00216548
0.00209788
0.00202668
0.00195346
0.00187921
0.00180419
0.00172781
0.00164874
0.00156523
0.00147571
0.00137951
0.00127681
0.00116736
0.00105099
0.000986518
0.000639428
)
;

boundaryField
{
    floor
    {
        Cmu             0.09;
        kappa           0.41;
        E               9.8;
        type            epsilonWallFunction;
        value           nonuniform List<scalar> 
36
(
0.000117593
1.46407e-05
3.71757e-05
1.84383e-05
5.41647e-06
2.74033e-06
2.46283e-06
2.6477e-06
3.16281e-06
3.97808e-06
5.08261e-06
6.40977e-06
7.93863e-06
9.46574e-06
1.14154e-05
1.38425e-05
1.5722e-05
1.70184e-05
1.37369e-05
1.37369e-05
2.02362e-05
5.21932e-05
0.000164696
0.000367583
0.000274694
0.000182297
0.000117593
0.000181865
0.000144407
6.97471e-05
1.46407e-05
6.97471e-05
3.43413e-05
0.000239881
0.00016789
0.000507746
)
;
    }
    ceiling
    {
        Cmu             0.09;
        kappa           0.41;
        E               9.8;
        type            epsilonWallFunction;
        value           nonuniform List<scalar> 
43
(
0.00091991
0.0025492
0.0642049
0.0491404
0.0307774
0.0189066
0.0121425
0.00823122
0.00587525
0.0044211
0.00351883
0.00297167
0.00266851
0.00252448
0.00247
0.00245708
0.00245634
0.00245287
0.00244075
0.00241724
0.00238184
0.00233541
0.00228408
0.00222783
0.00216548
0.00209788
0.00202668
0.00195346
0.00187921
0.00180419
0.00172781
0.00164874
0.00156523
0.00147571
0.00137951
0.00127681
0.00116736
0.00105099
0.000986518
0.000639428
0.0131469
0.0227731
0.247904
)
;
    }
    sWall
    {
        Cmu             0.09;
        kappa           0.41;
        E               9.8;
        type            epsilonWallFunction;
        value           uniform 0.00091991;
    }
    nWall
    {
        Cmu             0.09;
        kappa           0.41;
        E               9.8;
        type            epsilonWallFunction;
        value           nonuniform List<scalar> 6(0.000182297 0.00019743 0.000277479 0.00151337 0.0015707 0.000639428);
    }
    sideWalls
    {
        type            empty;
    }
    glass1
    {
        Cmu             0.09;
        kappa           0.41;
        E               9.8;
        type            epsilonWallFunction;
        value           nonuniform List<scalar> 9(0.00015518 0.00097107 0.00271911 0.00542075 0.00877268 0.0125365 0.016307 0.015672 0.0131469);
    }
    glass2
    {
        Cmu             0.09;
        kappa           0.41;
        E               9.8;
        type            epsilonWallFunction;
        value           nonuniform List<scalar> 2(0.00119371 0.00144227);
    }
    sun
    {
        Cmu             0.09;
        kappa           0.41;
        E               9.8;
        type            epsilonWallFunction;
        value           nonuniform List<scalar> 
14
(
0.00015518
0.00016884
7.36938e-05
6.04057e-05
6.22385e-05
6.64653e-05
7.19205e-05
7.82737e-05
8.52561e-05
9.25206e-05
9.95626e-05
0.000105794
0.000110937
0.000115294
)
;
    }
    Table_master
    {
        Cmu             0.09;
        kappa           0.41;
        E               9.8;
        type            epsilonWallFunction;
        value           nonuniform List<scalar> 9(1.53656e-05 4.79681e-06 8.13383e-06 1.30645e-05 1.88739e-05 2.52038e-05 3.21372e-05 4.05994e-05 5.33766e-05);
    }
    Table_slave
    {
        Cmu             0.09;
        kappa           0.41;
        E               9.8;
        type            epsilonWallFunction;
        value           nonuniform List<scalar> 9(0.000182315 0.000172018 0.000162757 0.000153341 0.000144507 0.000137595 0.000134626 0.000138511 0.000154168);
    }
    inlet
    {
        type            turbulentMixingLengthDissipationRateInlet;
        mixingLength    0.01;
        phi             phi;
        k               k;
        value           uniform 0.429199;
    }
    outlet
    {
        type            zeroGradient;
    }
}


// ************************************************************************* //
