/*--------------------------------*- C++ -*----------------------------------*\
  =========                 |
  \\      /  F ield         | OpenFOAM: The Open Source CFD Toolbox
   \\    /   O peration     | Website:  https://openfoam.org
    \\  /    A nd           | Version:  6
     \\/     M anipulation  |
\*---------------------------------------------------------------------------*/
FoamFile
{
    version     2.0;
    format      ascii;
    class       volScalarField;
    location    "1300";
    object      k;
}
// * * * * * * * * * * * * * * * * * * * * * * * * * * * * * * * * * * * * * //

dimensions      [0 2 -2 0 0 0 0];

internalField   nonuniform List<scalar> 
458
(
0.00114464
0.00121089
0.000696754
0.00061022
0.000622487
0.000650347
0.000685449
0.000725228
0.000767724
0.000810722
0.000851338
0.000886486
0.000914975
0.000938775
0.000951223
0.000237308
0.000441637
0.00027684
0.000122289
7.7617e-05
7.22778e-05
7.5847e-05
8.53913e-05
9.94974e-05
0.000117149
0.000136736
0.000157689
0.000177304
0.00020087
0.000228406
0.00024864
0.000262146
0.000227272
0.00388689
0.00834951
0.00198711
0.00121998
0.00119139
0.00124267
0.00131251
0.00139098
0.00147426
0.00155861
0.00163818
0.00170214
0.00172801
0.00167036
0.00148421
0.00127216
0.00109092
0.000671575
0.000419184
0.00118635
0.00079874
0.000467798
0.000258631
0.000118093
9.91802e-05
0.000127029
0.000175505
0.000241232
0.00032281
0.000418901
0.000508238
0.000542904
0.000576889
0.000569534
0.000691978
0.000294245
0.00772167
0.0213196
0.00495627
0.00199835
0.0016792
0.00168211
0.00175176
0.00184544
0.00195048
0.00206067
0.00216969
0.00226722
0.00233432
0.00233971
0.00225808
0.00210625
0.001871
0.00153022
0.0012067
0.00222725
0.00144545
0.00116441
0.000936186
0.000245203
0.000112738
0.000160303
0.000219847
0.000280927
0.000340635
0.000400519
0.000468041
0.0005617
0.00074014
0.000714777
0.000727216
0.00055328
0.012231
0.0385295
0.0119211
0.00402791
0.00247614
0.00219685
0.00219342
0.0022796
0.00240198
0.00254172
0.00268859
0.00283105
0.00295023
0.00301677
0.00300012
0.00288632
0.00268004
0.00246941
0.0025225
0.00293206
0.00213689
0.001858
0.00162224
0.00141089
0.00127413
0.00122568
0.00118127
0.00113526
0.00109122
0.00105614
0.0010409
0.00106083
0.00113935
0.00131864
0.00132321
0.00129012
0.00119048
0.0168592
0.0565375
0.0230546
0.00926657
0.00465815
0.00314635
0.0027621
0.00274978
0.00286462
0.00303417
0.00323314
0.00344667
0.00365654
0.00383528
0.00395019
0.00397488
0.00389213
0.00370505
0.0034554
0.00321278
0.00298135
0.00284954
0.00276121
0.00268456
0.00260692
0.00252243
0.00243127
0.00233507
0.00223839
0.00214968
0.00208159
0.00205024
0.00207234
0.00215537
0.00230352
0.00247685
0.00258865
0.00203357
0.00167455
0.00127403
0.0213893
0.0697648
0.0376443
0.0189546
0.0102055
0.00570431
0.00382308
0.00334962
0.003347
0.00350949
0.00374994
0.0040359
0.00434469
0.00464689
0.0049043
0.00507735
0.00512864
0.00503018
0.00480163
0.00453036
0.0042959
0.00412668
0.0040047
0.00389666
0.00377933
0.00364691
0.00350319
0.00334955
0.00318867
0.003027
0.00287713
0.00276011
0.0027054
0.00274404
0.00289008
0.00310083
0.00324041
0.00314933
0.00269014
0.00134364
0.0254873
0.070818
0.0516327
0.0339396
0.021306
0.012232
0.00653068
0.00447079
0.00396857
0.00399558
0.00423034
0.00456843
0.00496627
0.00539026
0.00579955
0.00614548
0.00637363
0.00643604
0.00633274
0.00612778
0.00589887
0.00569527
0.00552477
0.0053683
0.00520649
0.00503251
0.00484665
0.00464881
0.00443919
0.00421979
0.0039967
0.00378387
0.00360956
0.00351893
0.00355285
0.00369035
0.00381125
0.00375604
0.00334831
0.00168594
0.0248212
0.0627198
0.0689475
0.0559336
0.0367926
0.0213721
0.012005
0.00723843
0.00524237
0.00471815
0.00482777
0.00517638
0.00563674
0.00615651
0.00669401
0.00720029
0.00761381
0.00787147
0.00794686
0.0078724
0.00771265
0.00752546
0.00733793
0.00715014
0.00695426
0.0067471
0.00652935
0.00630186
0.00606584
0.00582451
0.00558384
0.00535248
0.00514619
0.00499807
0.00496542
0.00508318
0.00531374
0.00565993
0.00611786
0.00445978
0.0220776
0.0318447
0.159252
0.115074
0.0612683
0.0310256
0.0168403
0.0104388
0.00760383
0.00648862
0.00624651
0.00646769
0.00691653
0.00745999
0.0080363
0.00860129
0.00910596
0.0094957
0.00973161
0.00981105
0.00976763
0.00964709
0.00948079
0.00928418
0.00906487
0.00882846
0.00857964
0.00832126
0.00805461
0.00778413
0.0075186
0.00726836
0.00705279
0.0069054
0.00687871
0.00702168
0.00725083
0.00745504
0.00963987
0.00505924
0.364222
0.250105
0.0760212
0.032209
0.0193606
0.0139318
0.0113078
0.0101384
0.009832
0.0100166
0.010425
0.0108898
0.0113363
0.0117359
0.0120766
0.0123526
0.0125567
0.0126704
0.012689
0.0126218
0.0124747
0.012263
0.012007
0.0117239
0.0114263
0.0111215
0.0108128
0.0105014
0.0101868
0.00986806
0.00954473
0.00921909
0.00890079
0.00860804
0.00834913
0.00820476
0.00861794
0.0052244
0.156413
0.156228
0.0733101
0.0398104
0.0257569
0.0192602
0.0161596
0.0148605
0.0146629
0.0151826
0.0160092
0.0168076
0.0174136
0.0177988
0.0180068
0.0180928
0.0180867
0.0180076
0.0178695
0.0176824
0.0174229
0.0170951
0.0167242
0.0163337
0.0159393
0.0155477
0.0151575
0.0147601
0.0143407
0.0138816
0.0133673
0.0127963
0.0121912
0.0115919
0.0110247
0.0104851
0.0117165
0.00535567
0.00374875
0.00739606
0.0635499
0.0531739
0.0389251
0.028129
0.0209388
0.016158
0.0129051
0.0106766
0.00916947
0.00819248
0.00762546
0.00734862
0.00724259
0.00721732
0.00721587
0.00720905
0.00718525
0.00713899
0.00706911
0.00697692
0.00687429
0.00676096
0.00663421
0.00649542
0.00634763
0.0061938
0.00603586
0.00587415
0.00570717
0.00553171
0.00534333
0.00513763
0.00491186
0.00466499
0.00439447
0.00409736
0.00392797
0.00294184
)
;

boundaryField
{
    floor
    {
        type            kqRWallFunction;
        value           nonuniform List<scalar> 
36
(
0.000951223
0.000237308
0.000441637
0.00027684
0.000122289
7.7617e-05
7.22778e-05
7.5847e-05
8.53913e-05
9.94974e-05
0.000117149
0.000136736
0.000157689
0.000177304
0.00020087
0.000228406
0.00024864
0.000262146
0.000227272
0.000227272
0.000294245
0.00055328
0.00119048
0.00203357
0.00167455
0.00127403
0.000951223
0.00127216
0.00109092
0.000671575
0.000237308
0.000671575
0.000419184
0.00153022
0.0012067
0.0025225
)
;
    }
    ceiling
    {
        type            kqRWallFunction;
        value           nonuniform List<scalar> 
43
(
0.00374875
0.00739606
0.0635499
0.0531739
0.0389251
0.028129
0.0209388
0.016158
0.0129051
0.0106766
0.00916947
0.00819248
0.00762546
0.00734862
0.00724259
0.00721732
0.00721587
0.00720905
0.00718525
0.00713899
0.00706911
0.00697692
0.00687429
0.00676096
0.00663421
0.00649542
0.00634763
0.0061938
0.00603586
0.00587415
0.00570717
0.00553171
0.00534333
0.00513763
0.00491186
0.00466499
0.00439447
0.00409736
0.00392797
0.00294184
0.0220776
0.0318447
0.156413
)
;
    }
    sWall
    {
        type            kqRWallFunction;
        value           uniform 0.00374875;
    }
    nWall
    {
        type            kqRWallFunction;
        value           nonuniform List<scalar> 6(0.00127403 0.00134364 0.00168594 0.0052244 0.00535567 0.00294184);
    }
    sideWalls
    {
        type            empty;
    }
    glass1
    {
        type            kqRWallFunction;
        value           nonuniform List<scalar> 9(0.00114464 0.00388689 0.00772167 0.012231 0.0168592 0.0213893 0.0254873 0.0248212 0.0220776);
    }
    glass2
    {
        type            kqRWallFunction;
        value           nonuniform List<scalar> 2(0.00445978 0.00505924);
    }
    sun
    {
        type            kqRWallFunction;
        value           nonuniform List<scalar> 
14
(
0.00114464
0.00121089
0.000696754
0.00061022
0.000622487
0.000650347
0.000685449
0.000725228
0.000767724
0.000810722
0.000851338
0.000886486
0.000914975
0.000938775
)
;
    }
    Table_master
    {
        type            kqRWallFunction;
        value           nonuniform List<scalar> 9(0.000245203 0.000112738 0.000160303 0.000219847 0.000280927 0.000340635 0.000400519 0.000468041 0.0005617);
    }
    Table_slave
    {
        type            kqRWallFunction;
        value           nonuniform List<scalar> 9(0.00127413 0.00122568 0.00118127 0.00113526 0.00109122 0.00105614 0.0010409 0.00106083 0.00113935);
    }
    inlet
    {
        type            turbulentIntensityKineticEnergyInlet;
        intensity       0.05;
        value           uniform 0.364222;
    }
    outlet
    {
        type            zeroGradient;
    }
}


// ************************************************************************* //
