/*--------------------------------*- C++ -*----------------------------------*\
  =========                 |
  \\      /  F ield         | OpenFOAM: The Open Source CFD Toolbox
   \\    /   O peration     | Website:  https://openfoam.org
    \\  /    A nd           | Version:  6
     \\/     M anipulation  |
\*---------------------------------------------------------------------------*/
FoamFile
{
    version     2.0;
    format      ascii;
    class       volScalarField;
    location    "1300";
    object      T;
}
// * * * * * * * * * * * * * * * * * * * * * * * * * * * * * * * * * * * * * //

dimensions      [0 0 0 1 0 0 0];

internalField   nonuniform List<scalar> 
458
(
304.068
303.758
303.75
303.755
303.763
303.773
303.783
303.793
303.803
303.813
303.822
303.83
303.838
303.846
303.854
303.263
303.259
303.251
303.211
303.185
303.168
303.166
303.177
303.194
303.216
303.241
303.269
303.3
303.341
303.396
303.447
303.466
303.453
304.31
303.898
303.856
303.861
303.876
303.891
303.906
303.921
303.936
303.949
303.961
303.97
303.975
303.973
303.958
303.933
303.883
303.743
303.302
303.34
303.36
303.34
303.255
303.159
303.148
303.183
303.237
303.3
303.363
303.419
303.497
303.579
303.662
303.668
303.585
303.492
304.532
304.064
303.988
303.98
303.997
304.019
304.041
304.063
304.084
304.104
304.122
304.137
304.145
304.143
304.125
304.092
304.045
303.99
303.543
303.625
303.697
303.763
303.746
303.266
303.187
303.291
303.433
303.584
303.721
303.827
303.901
303.976
304.073
304.1
304.111
304.128
304.746
304.272
304.196
304.151
304.146
304.166
304.194
304.224
304.253
304.282
304.309
304.333
304.35
304.356
304.347
304.32
304.274
304.212
304.162
304.14
304.192
304.291
304.376
304.449
304.513
304.551
304.591
304.631
304.672
304.712
304.746
304.768
304.764
304.715
304.73
304.811
305.042
304.96
304.52
304.485
304.429
304.37
304.352
304.371
304.405
304.442
304.48
304.517
304.551
304.58
304.6
304.608
304.602
304.584
304.558
304.538
304.533
304.566
304.615
304.663
304.707
304.744
304.779
304.816
304.855
304.897
304.941
304.987
305.034
305.081
305.125
305.188
305.262
305.336
305.381
305.327
305.267
305.175
304.818
304.9
304.866
304.744
304.642
304.604
304.621
304.66
304.705
304.75
304.793
304.832
304.863
304.883
304.888
304.88
304.863
304.847
304.841
304.852
304.874
304.899
304.924
304.948
304.972
304.999
305.028
305.061
305.1
305.144
305.195
305.251
305.312
305.375
305.431
305.471
305.477
305.401
305.243
305.392
305.179
305.566
305.509
305.329
305.128
304.977
304.927
304.941
304.986
305.036
305.086
305.133
305.173
305.202
305.217
305.217
305.205
305.189
305.175
305.17
305.171
305.177
305.183
305.19
305.198
305.207
305.219
305.234
305.254
305.281
305.317
305.364
305.421
305.481
305.534
305.568
305.566
305.502
305.298
305.642
305.623
306.295
306.365
306.096
305.767
305.536
305.421
305.384
305.395
305.438
305.489
305.535
305.575
305.606
305.625
305.63
305.621
305.603
305.582
305.562
305.544
305.529
305.515
305.501
305.488
305.476
305.465
305.455
305.449
305.448
305.455
305.473
305.508
305.559
305.622
305.685
305.74
305.787
305.836
305.962
306.117
307.81
307.72
307.057
306.488
306.177
306.058
306.038
306.056
306.084
306.114
306.142
306.16
306.171
306.173
306.165
306.147
306.12
306.087
306.051
306.014
305.976
305.939
305.902
305.865
305.829
305.793
305.758
305.724
305.693
305.667
305.65
305.645
305.656
305.68
305.713
305.751
305.795
305.856
315.116
309.498
307.915
307.201
306.977
306.938
306.96
306.995
307.032
307.05
307.043
307.017
306.98
306.936
306.885
306.83
306.771
306.71
306.647
306.584
306.519
306.455
306.391
306.329
306.266
306.205
306.145
306.085
306.028
305.974
305.927
305.889
305.864
305.853
305.853
305.861
305.87
305.868
313.611
310.596
309.535
308.906
308.618
308.516
308.462
308.411
308.339
308.252
308.158
308.059
307.955
307.848
307.74
307.633
307.526
307.421
307.317
307.215
307.117
307.022
306.929
306.839
306.751
306.664
306.579
306.495
306.413
306.335
306.261
306.195
306.137
306.089
306.05
306.014
305.975
305.92
310.968
311.091
312.685
312.2
311.672
311.257
310.971
310.723
310.498
310.286
310.079
309.875
309.665
309.454
309.248
309.049
308.86
308.682
308.513
308.353
308.201
308.057
307.917
307.781
307.649
307.522
307.397
307.276
307.157
307.04
306.927
306.815
306.706
306.6
306.498
306.399
306.301
306.201
306.089
305.965
)
;

boundaryField
{
    floor
    {
        type            wallHeatTransfer;
        Tinf            uniform 305.2;
        alphaWall       uniform 0.24;
        value           nonuniform List<scalar> 
36
(
304.051
303.711
303.628
303.681
303.77
303.824
303.824
303.814
303.802
303.79
303.779
303.774
303.773
303.78
303.794
303.818
303.847
303.855
303.862
303.862
303.862
304.318
305.063
305.361
305.311
305.258
304.051
304.1
304.066
303.983
303.711
303.983
303.669
304.139
303.766
304.268
)
;
    }
    ceiling
    {
        type            wallHeatTransfer;
        Tinf            uniform 303.2;
        alphaWall       uniform 0.24;
        value           nonuniform List<scalar> 
43
(
310.275
310.552
312.419
311.928
311.38
310.939
310.625
310.35
310.101
309.869
309.649
309.438
309.23
309.028
308.833
308.647
308.471
308.305
308.148
307.998
307.856
307.719
307.587
307.459
307.334
307.213
307.095
306.979
306.866
306.755
306.647
306.54
306.436
306.335
306.236
306.139
306.043
305.945
305.839
305.697
305.843
306.009
313.413
)
;
    }
    sWall
    {
        type            wallHeatTransfer;
        Tinf            uniform 315.2;
        alphaWall       uniform 0.36;
        value           uniform 311.512;
    }
    nWall
    {
        type            wallHeatTransfer;
        Tinf            uniform 307.2;
        alphaWall       uniform 0.36;
        value           nonuniform List<scalar> 6(305.627 305.601 305.62 306.017 306.062 306.136);
    }
    sideWalls
    {
        type            empty;
    }
    glass1
    {
        type            wallHeatTransfer;
        Tinf            uniform 315.2;
        alphaWall       uniform 4.3;
        value           nonuniform List<scalar> 9(312.353 311.215 310.538 310.112 309.856 309.708 309.641 309.811 310.111);
    }
    glass2
    {
        type            wallHeatTransfer;
        Tinf            uniform 307.2;
        alphaWall       uniform 4.3;
        value           nonuniform List<scalar> 2(306.678 306.668);
    }
    sun
    {
        type            wallHeatTransfer;
        Tinf            uniform 305.2;
        alphaWall       uniform 0.24;
        value           nonuniform List<scalar> 
14
(
304.223
303.952
303.986
304.002
304.007
304.011
304.015
304.019
304.023
304.028
304.032
304.036
304.04
304.045
)
;
    }
    Table_master
    {
        type            zeroGradient;
    }
    Table_slave
    {
        type            zeroGradient;
    }
    inlet
    {
        type            fixedValue;
        value           uniform 290.15;
    }
    outlet
    {
        type            zeroGradient;
    }
}


// ************************************************************************* //
