/*--------------------------------*- C++ -*----------------------------------*=========                 |
  \      /  F ield         | OpenFOAM: The Open Source CFD Toolbox
   \    /   O peration     | Website:  https://openfoam.org
    \  /    A nd           | Version:  6
     \/     M anipulation  |
\*---------------------------------------------------------------------------*/
FoamFile
{
    version     2.0;
    format      ascii;
    class       volScalarField;
    location    "1600";
    object      PPD;
}
// * * * * * * * * * * * * * * * * * * * * * * * * * * * * * * * * * * * * * //

dimensions      [0 0 0 0 0 0 0];

internalField   nonuniform List<scalar> 
458
(
54.87887144045948
42.84512170854177
40.707059734558925
39.21935005351576
38.33402796762407
38.03349667873973
38.3839183704933
39.550675676808346
41.858172838303666
45.580322925628614
50.73070589143111
51.868014941493755
51.29160499400155
51.93710094560464
52.490780821647526
76.39040988009742
74.66623692665429
73.49072372722293
72.98583581947337
73.33050205305601
73.33629206598164
73.06700185413709
73.21758448504221
73.63234250603502
74.1313585421842
74.66387143754596
75.22647621615437
75.83083500386665
76.53634508070914
77.40099836025803
78.56979426544942
80.18114697892997
82.06787002919828
52.049245541214276
43.35023578590477
41.96567276982972
40.422246375062905
39.44578062653271
38.99067550181719
39.03960044165567
39.44388635487683
40.37281682748725
42.41816830105883
46.77268867405748
52.0577069025586
53.6126071285133
52.6572694793016
50.996825850052886
50.88956389785197
53.193933426222735
56.675760981836305
76.9951217427663
74.78021996146697
71.74281745445367
70.41722060347675
70.3031022001271
70.98687830310627
71.70216448811789
72.40477520615111
73.10826084581711
73.84297612370162
74.57953832841767
75.31869474127916
76.07839062413308
76.87180579076679
77.81484117224872
78.98990109962268
80.33793668414982
81.64867008370348
53.198328901571514
43.06029206870578
43.46821796102704
42.658362724885606
42.08142833042292
41.635967701850056
41.18994739461699
39.91276448264235
38.421852846061554
38.92538833783057
43.402241143083884
50.14250571144208
54.5910425195522
55.489261031469795
54.002365604116754
53.691724069349775
54.370987150260504
54.87914509065921
75.64099232823284
69.92902222272025
67.05747029067652
66.89719371727219
67.77106904791246
68.68952886536215
70.6718913794169
72.51276943971828
73.90592229913177
75.12271685872074
76.29282330896281
77.44380474140037
78.47416071688612
79.2834637998508
79.67915423934261
80.18001229641413
80.45772546534312
80.58709588837047
56.59359502892829
43.02139990890537
44.75196481847391
45.489527198032455
46.30945873228938
46.42376106884311
45.22908681450542
41.121820400456606
36.72517147434822
36.10047395818747
41.11348874135379
48.80186212020078
55.204842124813304
58.309182647611124
57.54971260325377
56.22927620496745
54.7830955746199
53.275824107826004
53.219212670974926
56.99589954480862
59.36521145129448
62.000118925598045
65.17677731228038
68.41312125983646
71.09638105850556
72.00236384555316
72.75102841912123
73.62812669454974
74.62846070387593
75.62465287182667
76.66352273024242
77.7674084708887
79.05570742787702
80.13444265954091
80.5369598570271
80.28912159296969
79.95292811278489
61.1802815182939
43.66817074825913
45.83792930568226
48.220611616684586
51.65360295398954
53.689287905704916
50.4027445119315
42.32235493118522
35.363339903318305
34.119396421663666
39.52442584176211
48.37379218282584
56.57087501210027
61.540484077071554
61.93270415695097
60.13646750494931
58.0880244365597
56.57350926062255
57.18629285634381
58.87158477357888
61.4986398858041
64.93425564031452
68.6630606824852
72.143333307063
74.97375309444593
76.59043468126497
77.76809413690458
78.84827049122381
79.7514204110318
80.48243975159521
81.07032916045219
81.52416328761245
81.80225701937118
81.6815597431717
81.22851980503228
80.32174150641299
80.18859010263445
82.69985369935715
88.4394176317572
84.90959293149146
66.01891088855986
45.30897953888932
47.51732254635908
50.060215528378414
55.55880947472095
59.48427201213385
52.76238367014257
42.10402147170055
34.10964911429741
32.755498839556296
38.71568343014228
49.1806754246234
59.294701797290045
65.97978918283245
67.56897988916188
66.06855739798127
63.802829809291204
62.467166088231615
63.194597615595825
65.32354368811943
68.29644952235267
71.67707199204817
75.01036230090817
77.95713890194824
80.28675146870779
81.74512766504961
82.64824432806098
83.30886315012206
83.77694717206337
84.09653123905477
84.2900209287193
84.32505279384947
84.18465183628312
83.48069651747016
82.47919242221077
81.1996107693
80.80083227061317
82.01911165173465
84.05360385964806
85.31220174769025
70.67498512483473
49.64379982349497
53.06685574435127
53.04413487983941
56.769295695637624
58.23441212939874
50.77104130841083
40.00371910008021
32.05964209905869
31.489976438807517
39.070364155364466
51.87952700208221
64.01550853361886
71.35416139377458
72.15137325915448
71.33058388229524
70.5722896497318
70.45267902274065
71.71835654219511
74.09749242228324
76.76090698630057
79.33837306824086
81.36141311836201
82.94363590706924
84.06120341583329
84.86219853265757
85.38830195098042
85.73838446883767
85.96893004784673
86.08334808896839
86.09964695581994
85.96893004784673
85.70526353973207
85.27047344392763
84.29258049830149
82.88233952197862
82.07165497997757
82.28386681624454
82.57638806857099
84.72453226024459
76.87173378752261
67.25940293565493
63.541319351852486
58.88895918600509
58.26904635770505
55.7807299530545
46.465474939384826
34.57056745649466
28.230885337742748
30.44313601727019
41.55987215885094
57.725370235742126
71.30385022651683
76.21629771158194
76.73685685413514
76.19449231877194
75.91019072040679
76.49893003193183
78.22400349049907
80.34370233947155
82.3125405557365
84.02583015342503
85.33787336564544
86.26199478344732
86.88399515396686
87.27334895288249
87.48818489858658
87.62507862549246
87.6704984700175
87.65537026768064
87.54914398656652
87.36570318673985
87.05621345185679
86.64686859293798
86.11593417581165
85.65549512019743
85.08629909090409
84.77794437267396
83.64631415307669
83.0009652450101
84.81441523290323
79.27883659867825
72.7067379411251
66.42053018883011
62.07778043562561
52.28089874955926
34.90511386103279
23.794558177002386
22.865816330387517
31.299070474637148
49.13135996194954
68.72587042633313
78.57797137868154
80.05982645885524
80.14027177486015
80.18307588215154
80.73113508360993
81.93860186567593
83.57559889868278
85.1171067701643
86.27222506176304
87.06858858234568
87.6056792136543
87.94390552529643
88.140761543449
88.23991540901815
88.277644866119
88.28055271971964
88.2207012556819
88.11377408662054
87.91293989724096
87.62628073347891
87.25924696371865
86.84943188467211
86.44582320849209
86.1675124057087
86.10453011378291
86.18914007740159
86.05189601772952
85.78971813777359
43.10945137984444
13.182410041446232
6.427429510395072
5.341161364480186
5.126598362426307
8.532613631477119
20.734091690077378
42.44974723939582
68.7917603883227
79.0100076084131
81.7889269928717
82.65829940532628
83.01241068243199
83.43709054785978
84.11970567437218
85.07464223543903
86.16283754532725
87.15152206773193
87.90353287269737
88.40055812876118
88.69244599861173
88.84381871044233
88.89083880377858
88.8611480388333
88.80785515648556
88.71065221359898
88.56422073124402
88.39363790473644
88.1947504959838
87.9801041539634
87.7793125540889
87.6054227152126
87.53236896060707
87.59454542031347
87.89820531231462
88.64916230740522
90.18496213845569
90.06312953685007
39.98182042175371
7.597520128614448
5.373942345861906
10.118697720580286
20.41231526034052
39.668937832724325
63.09430262920939
73.94240816226456
80.4836933135159
83.66516736082636
84.90598417886403
85.51950460814582
85.9728372794299
86.48684365235628
87.08125779912066
87.7354524381545
88.38162327697971
88.9075683784466
89.26658892013853
89.47649007775489
89.56486031880915
89.56712402395726
89.49945612753302
89.40553936506679
89.28623462080698
89.15941875150551
89.01550633455922
88.87631649040478
88.76481962193479
88.68988380138367
88.67878333447953
88.77724886834396
89.00767239584633
89.365031801145
89.83682385998208
90.80145855789553
90.01284282443535
90.41064595475609
12.591430894879693
12.021398174249143
9.76388300969559
6.212892790448038
21.75007740525021
50.22573269722937
70.18338169300617
77.90281954084016
82.45754399948487
84.92386645491163
86.26908337106399
87.10931361338493
87.64106200402196
88.03740864946471
88.37103226422803
88.67920703774564
88.97862243027635
89.23572421917349
89.44842834029716
89.58669213198907
89.65417734484335
89.64048940715799
89.57927142688683
89.48751897643447
89.38136226602995
89.2463091649613
89.11541601550523
88.99286861407984
88.86822467891636
88.76315122216316
88.6669824839437
88.59990667180364
88.58060791258656
88.58926185056065
88.61737034862568
88.67283421522818
88.8090133272425
89.12601528806468
89.21083227053313
89.75295573184438
)
;

boundaryField
{
    ".*"
    {
        type            zeroGradient;
    }
}


// ************************************************************************* //
