/*--------------------------------*- C++ -*----------------------------------*\
  =========                 |
  \\      /  F ield         | OpenFOAM: The Open Source CFD Toolbox
   \\    /   O peration     | Website:  https://openfoam.org
    \\  /    A nd           | Version:  6
     \\/     M anipulation  |
\*---------------------------------------------------------------------------*/
FoamFile
{
    version     2.0;
    format      ascii;
    class       volVectorField;
    location    "1600";
    object      U;
}
// * * * * * * * * * * * * * * * * * * * * * * * * * * * * * * * * * * * * * //

dimensions      [0 1 -1 0 0 0 0];

internalField   nonuniform List<vector> 
458
(
(0.00341537 0.0973035 0)
(-0.192356 0.0351193 0)
(-0.236786 0.0203789 0)
(-0.275744 0.00866935 0)
(-0.298307 -0.00348178 0)
(-0.300965 -0.0167917 0)
(-0.279547 -0.0323746 0)
(-0.233223 -0.0501389 0)
(-0.165592 -0.0670918 0)
(-0.0871643 -0.0781599 0)
(0.00314163 -0.0716928 0)
(0.0678395 -0.0442344 0)
(0.100853 -0.0203568 0)
(0.10396 0.00777838 0)
(0.0894699 0.0617527 0)
(-0.0327475 0.0160761 0)
(-0.0522913 -0.0106145 0)
(-0.0313603 -0.0285542 0)
(-0.00252352 -0.0362888 0)
(0.0342074 -0.0304276 0)
(0.0566993 -0.0169867 0)
(0.0725258 -0.00969366 0)
(0.0813298 -0.00705791 0)
(0.0858849 -0.00605149 0)
(0.0888599 -0.0053771 0)
(0.0911538 -0.00478403 0)
(0.0927544 -0.00416487 0)
(0.0933164 -0.00328391 0)
(0.0918521 -0.00161855 0)
(0.0868237 0.00141342 0)
(0.0762801 0.00585545 0)
(0.0585943 0.0128428 0)
(0.0251568 0.0284009 0)
(0.169558 0.199383 0)
(-0.169549 0.0950497 0)
(-0.190568 0.0711002 0)
(-0.230667 0.0488093 0)
(-0.254383 0.023455 0)
(-0.25958 -0.0066682 0)
(-0.242084 -0.0425856 0)
(-0.20228 -0.0806705 0)
(-0.14435 -0.112615 0)
(-0.0784565 -0.128015 0)
(-0.0128228 -0.114465 0)
(0.043599 -0.0718473 0)
(0.079253 -0.0298648 0)
(0.106262 0.0153154 0)
(0.126687 0.0659489 0)
(0.142108 0.0631201 0)
(0.10657 0.0634947 0)
(0.0374898 0.0782536 0)
(0.0123975 0.0468507 0)
(-0.0106866 -0.00252198 0)
(0.0286593 -0.0452863 0)
(0.0443773 -0.0517042 0)
(0.0626857 -0.0459963 0)
(0.0723309 -0.0227325 0)
(0.0752226 -0.00758713 0)
(0.0758629 -0.00207527 0)
(0.0764612 -0.000277996 0)
(0.0771795 0.000653741 0)
(0.0777278 0.001334 0)
(0.0780647 0.00213924 0)
(0.078207 0.00379676 0)
(0.0772596 0.00709641 0)
(0.0729713 0.0140481 0)
(0.0626375 0.0228742 0)
(0.0468742 0.034894 0)
(-0.00158151 0.05818 0)
(0.325551 0.297786 0)
(-0.172978 0.146929 0)
(-0.142936 0.112698 0)
(-0.181833 0.0753397 0)
(-0.205244 0.0337255 0)
(-0.212811 -0.0147697 0)
(-0.197927 -0.0709522 0)
(-0.162762 -0.128809 0)
(-0.113336 -0.17299 0)
(-0.059821 -0.188899 0)
(-0.00966162 -0.166691 0)
(0.0341876 -0.114107 0)
(0.0664964 -0.0606097 0)
(0.0915153 -0.00941952 0)
(0.112062 0.0352197 0)
(0.118178 0.0456333 0)
(0.100405 0.0637598 0)
(0.0467024 0.109897 0)
(0.0655789 0.0103148 0)
(0.070499 -0.0369957 0)
(0.0791072 -0.0591244 0)
(0.0852579 -0.0649333 0)
(0.0928955 -0.0635314 0)
(0.0939568 -0.0477115 0)
(0.0766076 -0.0304109 0)
(0.0628133 -0.0208302 0)
(0.0565774 -0.0154798 0)
(0.0535581 -0.0120109 0)
(0.0511952 -0.00963107 0)
(0.0492311 -0.00782025 0)
(0.0483419 -0.00566288 0)
(0.0509569 -0.000127738 0)
(0.052691 0.0181534 0)
(0.0463693 0.0343783 0)
(0.0394056 0.0534962 0)
(-0.0268755 0.0875114 0)
(0.473779 0.37638 0)
(-0.196899 0.189596 0)
(-0.0915528 0.149681 0)
(-0.128052 0.101708 0)
(-0.148248 0.0486148 0)
(-0.156718 -0.0159059 0)
(-0.141472 -0.0926291 0)
(-0.109852 -0.169259 0)
(-0.0701921 -0.222858 0)
(-0.0305323 -0.237818 0)
(0.00494691 -0.20803 0)
(0.0353744 -0.14951 0)
(0.0601677 -0.0868071 0)
(0.0790214 -0.0293539 0)
(0.0952664 0.018659 0)
(0.10572 0.0486516 0)
(0.115045 0.0766888 0)
(0.119589 0.116675 0)
(0.158433 0.093294 0)
(0.142436 0.0257001 0)
(0.131802 -0.021884 0)
(0.122154 -0.0489632 0)
(0.109906 -0.0580725 0)
(0.0946005 -0.0552921 0)
(0.0890431 -0.0320823 0)
(0.102047 -0.0190961 0)
(0.111283 -0.0121673 0)
(0.113387 -0.00800241 0)
(0.11121 -0.00483145 0)
(0.106788 -0.00212583 0)
(0.100163 0.000517696 0)
(0.0903369 0.00371464 0)
(0.0757985 0.00821968 0)
(0.0581934 0.024926 0)
(0.0457301 0.0446275 0)
(0.0439465 0.0688629 0)
(-0.0406728 0.11387 0)
(0.61254 0.435066 0)
(-0.236343 0.220075 0)
(-0.0378446 0.173092 0)
(-0.0703814 0.119539 0)
(-0.0837129 0.0606446 0)
(-0.0895976 -0.0152017 0)
(-0.0682549 -0.111487 0)
(-0.0411164 -0.201801 0)
(-0.0143847 -0.258623 0)
(0.00900987 -0.269288 0)
(0.0272243 -0.234639 0)
(0.0431628 -0.17255 0)
(0.0564001 -0.104047 0)
(0.0665884 -0.0426571 0)
(0.0772355 0.0069521 0)
(0.0875299 0.0420028 0)
(0.10118 0.0670257 0)
(0.119268 0.0784224 0)
(0.137528 0.0347619 0)
(0.138178 -0.00555558 0)
(0.131621 -0.0297516 0)
(0.120101 -0.0423211 0)
(0.105195 -0.0450252 0)
(0.0898616 -0.0381497 0)
(0.0815756 -0.0187998 0)
(0.0810309 -0.00609953 0)
(0.0808425 0.000180061 0)
(0.0780714 0.003817 0)
(0.0744397 0.00660701 0)
(0.07057 0.00928554 0)
(0.0663604 0.0124773 0)
(0.0614408 0.0170136 0)
(0.0555178 0.0241102 0)
(0.0493206 0.0374656 0)
(0.0442159 0.0550249 0)
(0.0571449 0.0790474 0)
(0.0237305 0.119085 0)
(0.0679374 0.120602 0)
(-0.0544776 0.0279902 0)
(-0.246906 -0.0162119 0)
(0.726425 0.480738 0)
(-0.284702 0.235898 0)
(0.00958233 0.174011 0)
(-0.0119621 0.127207 0)
(-0.0165085 0.0716625 0)
(-0.0114618 -0.0112654 0)
(0.0207534 -0.133296 0)
(0.0398226 -0.225878 0)
(0.0507831 -0.277088 0)
(0.0550362 -0.282111 0)
(0.0548077 -0.244722 0)
(0.0529192 -0.179967 0)
(0.0505381 -0.108563 0)
(0.0487608 -0.0466099 0)
(0.0505624 2.36966e-05 0)
(0.0568109 0.0316541 0)
(0.0687092 0.0498226 0)
(0.086513 0.0513367 0)
(0.100991 0.025449 0)
(0.104209 0.000887057 0)
(0.0989391 -0.0166649 0)
(0.0880777 -0.0268694 0)
(0.0746523 -0.0294329 0)
(0.0612365 -0.0245963 0)
(0.0515073 -0.0133239 0)
(0.0465449 -0.00406867 0)
(0.0432291 0.00154489 0)
(0.0406748 0.0050486 0)
(0.0385653 0.00772622 0)
(0.0370406 0.0104061 0)
(0.0361393 0.0138208 0)
(0.0359058 0.0188378 0)
(0.0364718 0.0264841 0)
(0.0385793 0.0383777 0)
(0.0420907 0.0542813 0)
(0.0597534 0.0757369 0)
(0.0600304 0.0989361 0)
(0.0919271 0.0920788 0)
(0.103884 0.055207 0)
(-0.112649 -0.00649638 0)
(0.802445 0.520603 0)
(-0.316979 0.212523 0)
(0.0503998 0.122243 0)
(0.0549341 0.109953 0)
(0.0578602 0.061063 0)
(0.0864483 -0.0404177 0)
(0.116825 -0.152712 0)
(0.127117 -0.235696 0)
(0.121227 -0.277214 0)
(0.104605 -0.275185 0)
(0.0820017 -0.234145 0)
(0.058211 -0.168045 0)
(0.0370561 -0.0969224 0)
(0.0216836 -0.0383544 0)
(0.014238 0.00109019 0)
(0.0176542 0.0244644 0)
(0.0282563 0.0359229 0)
(0.0433221 0.0351083 0)
(0.0542969 0.0198725 0)
(0.0567258 0.00317487 0)
(0.052755 -0.00935881 0)
(0.0438064 -0.0162516 0)
(0.0326112 -0.0174667 0)
(0.0214129 -0.0137091 0)
(0.0127281 -0.00648499 0)
(0.00746792 9.07735e-05 0)
(0.00481565 0.00427927 0)
(0.00378582 0.00670229 0)
(0.00371322 0.00842965 0)
(0.00466489 0.0101708 0)
(0.00682847 0.0125613 0)
(0.0104956 0.0163524 0)
(0.0159917 0.0223885 0)
(0.0238924 0.0316081 0)
(0.0337345 0.0438895 0)
(0.0524099 0.0603002 0)
(0.0688709 0.0733594 0)
(0.0984789 0.0659105 0)
(0.137704 0.0517289 0)
(-0.0445722 0.0865209 0)
(0.912823 0.512587 0)
(-0.0431525 0.188378 0)
(0.131445 0.06244 0)
(0.178892 0.036398 0)
(0.175775 -0.0202355 0)
(0.212034 -0.0998813 0)
(0.230943 -0.175357 0)
(0.221811 -0.231082 0)
(0.190985 -0.254659 0)
(0.146981 -0.242917 0)
(0.0971385 -0.198687 0)
(0.0487566 -0.133907 0)
(0.00863624 -0.0675959 0)
(-0.0167925 -0.0190175 0)
(-0.026138 0.00525484 0)
(-0.0236911 0.0182849 0)
(-0.0152201 0.0245087 0)
(-0.00398816 0.0235404 0)
(0.00385233 0.0144921 0)
(0.00514855 0.00423389 0)
(0.00194612 -0.00354142 0)
(-0.00530386 -0.00746124 0)
(-0.0140173 -0.0076239 0)
(-0.0222251 -0.00492727 0)
(-0.0283174 -0.000753696 0)
(-0.0316087 0.00281663 0)
(-0.032471 0.0049801 0)
(-0.0321304 0.00610502 0)
(-0.0308887 0.00668482 0)
(-0.0286832 0.00705893 0)
(-0.0252724 0.00758159 0)
(-0.0203017 0.00870376 0)
(-0.0133984 0.0109486 0)
(-0.00404201 0.0149109 0)
(0.00847753 0.0206003 0)
(0.0261167 0.0276544 0)
(0.0460754 0.028446 0)
(0.0708574 0.0151553 0)
(0.136113 0.0472901 0)
(-0.370691 0.180164 0)
(1.06222 0.450781 0)
(0.532638 0.306406 0)
(0.540032 0.262108 0)
(0.517996 0.170518 0)
(0.477858 0.0745741 0)
(0.430326 -0.0263822 0)
(0.374926 -0.114472 0)
(0.311246 -0.172266 0)
(0.237386 -0.192587 0)
(0.158063 -0.178898 0)
(0.0788524 -0.136338 0)
(0.00884547 -0.0771709 0)
(-0.0401351 -0.0264453 0)
(-0.0603747 -0.00295248 0)
(-0.0668612 0.00813331 0)
(-0.0649429 0.0139821 0)
(-0.0591374 0.0166987 0)
(-0.0521741 0.0158839 0)
(-0.0476483 0.0115077 0)
(-0.0471791 0.00618327 0)
(-0.0499631 0.00197434 0)
(-0.0545517 -0.000247486 0)
(-0.0600218 -0.000573795 0)
(-0.0648954 0.00040209 0)
(-0.068053 0.00185272 0)
(-0.0693295 0.00296185 0)
(-0.0695593 0.00350202 0)
(-0.0694362 0.00363913 0)
(-0.0694766 0.00360808 0)
(-0.0701904 0.003738 0)
(-0.0721853 0.00457253 0)
(-0.0762063 0.00693984 0)
(-0.0831548 0.0119014 0)
(-0.0942087 0.0205864 0)
(-0.111124 0.0338494 0)
(-0.136171 0.0516129 0)
(-0.172458 0.0714764 0)
(-0.219631 0.0900716 0)
(-0.292186 0.103993 0)
(-0.549118 0.107362 0)
(0.509782 0.17316 0)
(0.467337 0.167462 0)
(0.429195 0.0890168 0)
(0.389092 0.00497675 0)
(0.332798 -0.0621439 0)
(0.259729 -0.10285 0)
(0.17233 -0.112539 0)
(0.081532 -0.0956987 0)
(-0.0103132 -0.0530789 0)
(-0.0700621 -0.0135977 0)
(-0.0970425 0.00362927 0)
(-0.106709 0.00977566 0)
(-0.108183 0.0125166 0)
(-0.106073 0.0144674 0)
(-0.102223 0.0158501 0)
(-0.0982191 0.0160633 0)
(-0.0957859 0.0149554 0)
(-0.0956634 0.0134784 0)
(-0.0974461 0.0125748 0)
(-0.100211 0.0127665 0)
(-0.103045 0.0139947 0)
(-0.105253 0.0158737 0)
(-0.106563 0.0180338 0)
(-0.10711 0.0202031 0)
(-0.107259 0.0222645 0)
(-0.107354 0.0241264 0)
(-0.107715 0.0256802 0)
(-0.108618 0.0268946 0)
(-0.110232 0.028005 0)
(-0.112515 0.0297399 0)
(-0.1152 0.0334297 0)
(-0.117867 0.0407987 0)
(-0.120038 0.0532351 0)
(-0.121082 0.0702383 0)
(-0.118927 0.0862646 0)
(-0.105955 0.0843405 0)
(-0.0821563 0.0254373 0)
(-0.20872 -0.171475 0)
(0.308984 0.43321 0)
(0.0159037 0.230529 0)
(0.0507546 0.100277 0)
(0.0569204 0.00264427 0)
(0.0566216 -0.045512 0)
(0.0233876 -0.0583602 0)
(-0.0386716 -0.0485538 0)
(-0.0912163 -0.0349272 0)
(-0.129049 -0.024617 0)
(-0.145405 -0.0220204 0)
(-0.148998 -0.0231586 0)
(-0.148794 -0.0248472 0)
(-0.146828 -0.0257732 0)
(-0.143772 -0.0260501 0)
(-0.140023 -0.026595 0)
(-0.136235 -0.0283783 0)
(-0.133224 -0.0318763 0)
(-0.131448 -0.0367678 0)
(-0.130846 -0.0423675 0)
(-0.131028 -0.0479675 0)
(-0.131543 -0.0531362 0)
(-0.132074 -0.0577508 0)
(-0.132488 -0.061821 0)
(-0.132769 -0.0653281 0)
(-0.132916 -0.0680659 0)
(-0.132864 -0.0695791 0)
(-0.132469 -0.0691985 0)
(-0.131515 -0.0661659 0)
(-0.129673 -0.0598084 0)
(-0.126379 -0.0496777 0)
(-0.12065 -0.035549 0)
(-0.111037 -0.0173247 0)
(-0.095915 0.00467234 0)
(-0.0741795 0.0281451 0)
(-0.0466001 0.0458985 0)
(-0.0103017 0.0406464 0)
(0.120575 -0.0369822 0)
(-0.152701 -0.0980363 0)
(-0.661007 -0.655048 0)
(-0.809301 -0.163679 0)
(-0.538568 0.264699 0)
(-0.459916 0.109478 0)
(-0.264677 0.0425088 0)
(-0.201113 0.0269246 0)
(-0.188931 0.0471896 0)
(-0.196276 0.0653087 0)
(-0.208433 0.0808358 0)
(-0.213129 0.0927222 0)
(-0.210244 0.100673 0)
(-0.204439 0.106252 0)
(-0.198311 0.109723 0)
(-0.193171 0.112392 0)
(-0.188651 0.115045 0)
(-0.184043 0.118341 0)
(-0.178907 0.122851 0)
(-0.173314 0.128884 0)
(-0.1677 0.136402 0)
(-0.162508 0.145024 0)
(-0.157961 0.15416 0)
(-0.154035 0.163232 0)
(-0.150539 0.171888 0)
(-0.147229 0.180027 0)
(-0.14389 0.187659 0)
(-0.140365 0.194711 0)
(-0.136553 0.200878 0)
(-0.132367 0.205603 0)
(-0.127703 0.208193 0)
(-0.122376 0.208025 0)
(-0.116012 0.204803 0)
(-0.10782 0.198771 0)
(-0.096324 0.190833 0)
(-0.0795886 0.18261 0)
(-0.0566941 0.176398 0)
(-0.0294196 0.174543 0)
(0.010448 0.175587 0)
(0.041095 0.176211 0)
(0.146627 0.185581 0)
(-0.312367 0.18322 0)
)
;

boundaryField
{
    floor
    {
        type            noSlip;
    }
    ceiling
    {
        type            noSlip;
    }
    sWall
    {
        type            noSlip;
    }
    nWall
    {
        type            noSlip;
    }
    sideWalls
    {
        type            empty;
    }
    glass1
    {
        type            noSlip;
    }
    glass2
    {
        type            noSlip;
    }
    sun
    {
        type            noSlip;
    }
    Table_master
    {
        type            noSlip;
    }
    Table_slave
    {
        type            noSlip;
    }
    inlet
    {
        type            fixedValue;
        value           uniform (0.7 0 0);
    }
    outlet
    {
        type            zeroGradient;
    }
}


// ************************************************************************* //
