/*--------------------------------*- C++ -*----------------------------------*\
  =========                 |
  \\      /  F ield         | OpenFOAM: The Open Source CFD Toolbox
   \\    /   O peration     | Website:  https://openfoam.org
    \\  /    A nd           | Version:  6
     \\/     M anipulation  |
\*---------------------------------------------------------------------------*/
FoamFile
{
    version     2.0;
    format      ascii;
    class       volScalarField;
    location    "1100";
    object      k;
}
// * * * * * * * * * * * * * * * * * * * * * * * * * * * * * * * * * * * * * //

dimensions      [0 2 -2 0 0 0 0];

internalField   nonuniform List<scalar> 
458
(
0.00100305
0.00107195
0.000960082
0.00103426
0.00111044
0.00118229
0.00125019
0.00131574
0.00138139
0.00145086
0.00151489
0.00156763
0.0016094
0.00164626
0.00167804
0.000219856
0.000298366
0.000313953
0.00019792
0.000110986
8.31183e-05
8.32441e-05
7.34871e-05
7.10605e-05
7.22288e-05
7.8391e-05
9.50612e-05
0.00011319
0.000134806
0.000173753
0.000226234
0.000254091
0.000216902
0.00271016
0.00529029
0.00154092
0.00149148
0.00156564
0.0016564
0.00175303
0.0018574
0.00197102
0.00209201
0.00221234
0.00230826
0.00234888
0.00228987
0.00210123
0.00194008
0.00180119
0.000853631
0.000550038
0.000813109
0.000769304
0.000672355
0.000499945
0.0003357
0.000194156
0.000121617
9.85513e-05
0.000111741
0.000151841
0.000239049
0.000370195
0.000525264
0.000691049
0.000815198
0.000886343
0.000400664
0.00493735
0.0121713
0.00234202
0.0018842
0.00192858
0.00202925
0.00214164
0.00226618
0.00240444
0.00255314
0.00270354
0.00282754
0.00289874
0.00289846
0.00282419
0.00268871
0.0024439
0.00212778
0.00133237
0.002073
0.00162425
0.00134645
0.0010703
0.000443899
0.000281411
0.000186666
0.000130204
0.000167495
0.00021956
0.000288873
0.00039214
0.000585342
0.00104536
0.00121104
0.00135785
0.000502322
0.00774918
0.0223805
0.00372992
0.00220322
0.00218334
0.00229934
0.0024334
0.00257992
0.0027419
0.00291966
0.00310646
0.00326769
0.00338331
0.00344894
0.00345197
0.00335933
0.00313623
0.00273234
0.00229713
0.00223482
0.00180919
0.00149003
0.0012426
0.00104169
0.000920385
0.000887923
0.000881008
0.000891131
0.000919936
0.000973135
0.00107075
0.00117819
0.00130554
0.00157368
0.00178953
0.00229959
0.00145548
0.0110434
0.035047
0.00647679
0.00255497
0.00236234
0.00248247
0.0026458
0.00283054
0.00303939
0.00327609
0.00352289
0.00372244
0.00386882
0.00398832
0.00409378
0.00417178
0.00419212
0.00405559
0.0035677
0.00280286
0.0022601
0.00193218
0.00176338
0.00168409
0.00164653
0.00163257
0.00165825
0.00172737
0.00184659
0.00202331
0.00226472
0.0025575
0.00290522
0.00321152
0.00353472
0.00356953
0.00333259
0.00301413
0.00262361
0.00210823
0.0147885
0.0469948
0.0121584
0.00355445
0.00269669
0.00272112
0.00289527
0.00312456
0.00339584
0.00372324
0.00402569
0.00420216
0.00428572
0.00434509
0.00442878
0.00454608
0.0046375
0.00453197
0.00408257
0.00342707
0.00284966
0.00246348
0.00224764
0.00213238
0.00206777
0.00204502
0.00207589
0.00216776
0.00233194
0.00258019
0.00291733
0.00333995
0.00384627
0.0044354
0.00518027
0.00615065
0.00662601
0.00662647
0.00494972
0.00272549
0.0188252
0.0543933
0.0233444
0.00859051
0.00467933
0.00376119
0.00369696
0.00389221
0.00419037
0.00459929
0.00481307
0.00482215
0.00472272
0.00460385
0.00453041
0.00454088
0.00460355
0.00456356
0.00427347
0.00378621
0.00328742
0.00290764
0.00267053
0.00253468
0.00246429
0.00245399
0.0025093
0.00263298
0.00283063
0.00310921
0.00346836
0.00390271
0.00440768
0.00497601
0.00558542
0.00613698
0.00632704
0.00611777
0.00457781
0.00282634
0.0198458
0.0608687
0.0376012
0.0254764
0.0161384
0.0103252
0.00764817
0.0066661
0.00641218
0.00625755
0.00592797
0.00554366
0.00516636
0.00482695
0.00454753
0.00435175
0.00424863
0.00417995
0.00403163
0.00375869
0.00343229
0.00314435
0.00295394
0.00284857
0.00281353
0.00285348
0.00297849
0.00318735
0.00346453
0.0037773
0.00406531
0.00426045
0.00433872
0.00433109
0.00430574
0.00426805
0.00418525
0.00408671
0.003941
0.00309384
0.0187857
0.0269647
0.0246388
0.0216855
0.018282
0.0147473
0.0118368
0.00976521
0.00839694
0.00736397
0.00653827
0.00586247
0.00529771
0.00481938
0.00441509
0.00408316
0.00382792
0.00364329
0.0034988
0.00335967
0.00321982
0.00309921
0.00301894
0.00298582
0.00300319
0.00308527
0.00325697
0.00352942
0.00389869
0.00435081
0.00487684
0.00547844
0.00611251
0.00665947
0.00691571
0.00688425
0.00682873
0.00698076
0.00740603
0.00435411
0.0118064
0.01606
0.0152806
0.0134585
0.0115083
0.00979752
0.00841252
0.00729495
0.00638959
0.00565
0.00504049
0.00453278
0.00410649
0.00374966
0.00345866
0.00323539
0.00308142
0.00299288
0.00296002
0.00296717
0.00300011
0.00305553
0.00313544
0.00324589
0.00339795
0.00360188
0.00386315
0.00417561
0.00454923
0.00499586
0.00551817
0.00609845
0.00675033
0.00751237
0.00788011
0.00700016
0.00822322
0.00444872
0.00896023
0.0146725
0.013943
0.0123357
0.010749
0.00928604
0.00803095
0.00700828
0.00618617
0.00550657
0.00495429
0.0045092
0.00415555
0.00388558
0.0036999
0.00360396
0.00360036
0.00368006
0.00381801
0.00396642
0.00408896
0.00418814
0.00426961
0.00433027
0.00435747
0.00434247
0.00428478
0.00422358
0.00421301
0.0042926
0.00445991
0.00466642
0.00483754
0.00488013
0.00460706
0.00422451
0.00673605
0.00349082
0.00589893
0.00683716
0.00769732
0.00869568
0.00831045
0.00737346
0.00643994
0.00561651
0.00488536
0.00423781
0.00368429
0.0032391
0.00286255
0.00253566
0.00225026
0.0020047
0.00180144
0.00164462
0.00153736
0.00147892
0.00146322
0.00148462
0.00152815
0.00157283
0.00161102
0.00164231
0.00166985
0.00169953
0.00174223
0.00180292
0.00188318
0.00198203
0.00209185
0.00219032
0.00223625
0.00217675
0.0020596
0.00191913
0.00198811
0.00181168
)
;

boundaryField
{
    floor
    {
        type            kqRWallFunction;
        value           nonuniform List<scalar> 
36
(
0.00167804
0.000219856
0.000298366
0.000313953
0.00019792
0.000110986
8.31183e-05
8.32441e-05
7.34871e-05
7.10605e-05
7.22288e-05
7.8391e-05
9.50612e-05
0.00011319
0.000134806
0.000173753
0.000226234
0.000254091
0.000216902
0.000216902
0.000400664
0.000502322
0.00145548
0.00301413
0.00262361
0.00210823
0.00167804
0.00194008
0.00180119
0.000853631
0.000219856
0.000853631
0.000550038
0.00212778
0.00133237
0.00229713
)
;
    }
    ceiling
    {
        type            kqRWallFunction;
        value           nonuniform List<scalar> 
43
(
0.00589893
0.00683716
0.00769732
0.00869568
0.00831045
0.00737346
0.00643994
0.00561651
0.00488536
0.00423781
0.00368429
0.0032391
0.00286255
0.00253566
0.00225026
0.0020047
0.00180144
0.00164462
0.00153736
0.00147892
0.00146322
0.00148462
0.00152815
0.00157283
0.00161102
0.00164231
0.00166985
0.00169953
0.00174223
0.00180292
0.00188318
0.00198203
0.00209185
0.00219032
0.00223625
0.00217675
0.0020596
0.00191913
0.00198811
0.00181168
0.0187857
0.0269647
0.00896023
)
;
    }
    sWall
    {
        type            kqRWallFunction;
        value           uniform 0.00589893;
    }
    nWall
    {
        type            kqRWallFunction;
        value           nonuniform List<scalar> 6(0.00210823 0.00272549 0.00282634 0.00444872 0.00349082 0.00181168);
    }
    sideWalls
    {
        type            empty;
    }
    glass1
    {
        type            kqRWallFunction;
        value           nonuniform List<scalar> 9(0.00100305 0.00271016 0.00493735 0.00774918 0.0110434 0.0147885 0.0188252 0.0198458 0.0187857);
    }
    glass2
    {
        type            kqRWallFunction;
        value           nonuniform List<scalar> 2(0.00309384 0.00435411);
    }
    sun
    {
        type            kqRWallFunction;
        value           nonuniform List<scalar> 
14
(
0.00100305
0.00107195
0.000960082
0.00103426
0.00111044
0.00118229
0.00125019
0.00131574
0.00138139
0.00145086
0.00151489
0.00156763
0.0016094
0.00164626
)
;
    }
    Table_master
    {
        type            kqRWallFunction;
        value           nonuniform List<scalar> 9(0.000443899 0.000281411 0.000186666 0.000130204 0.000167495 0.00021956 0.000288873 0.00039214 0.000585342);
    }
    Table_slave
    {
        type            kqRWallFunction;
        value           nonuniform List<scalar> 9(0.000920385 0.000887923 0.000881008 0.000891131 0.000919936 0.000973135 0.00107075 0.00117819 0.00130554);
    }
    inlet
    {
        type            turbulentIntensityKineticEnergyInlet;
        intensity       0.05;
        value           uniform 0.000937501;
    }
    outlet
    {
        type            zeroGradient;
    }
}


// ************************************************************************* //
