/*--------------------------------*- C++ -*----------------------------------*=========                 |
  \      /  F ield         | OpenFOAM: The Open Source CFD Toolbox
   \    /   O peration     | Website:  https://openfoam.org
    \  /    A nd           | Version:  6
     \/     M anipulation  |
\*---------------------------------------------------------------------------*/
FoamFile
{
    version     2.0;
    format      ascii;
    class       volScalarField;
    location    "1100";
    object      PMV;
}
// * * * * * * * * * * * * * * * * * * * * * * * * * * * * * * * * * * * * * //

dimensions      [0 0 0 0 0 0 0];

internalField   nonuniform List<scalar> 
458
(
2.0377595295016047
1.8747092104693905
1.8828787549735935
1.8740198231519465
1.8659207403003109
1.8593277498987377
1.8549310799215795
1.852316259810643
1.8521668961517606
1.8543424936407378
1.8592408978509236
1.8692748555357184
1.884733343592359
1.8993219097496439
1.8850365414200787
1.5936621377038767
1.596061620876857
1.5989409437782343
1.5725448629640768
1.540863062184924
1.5288606244998484
1.5307810772601538
1.5355821050448952
1.5442235756775704
1.5456637728049976
1.546143835442733
1.548064070590926
1.551424422533464
1.5571848479691202
1.5720648875351322
1.5898228755621333
1.6013403318368709
1.6128567834499392
2.0585816985008067
1.8845886788535904
1.9069196849957202
1.8962967967417057
1.8912369772459512
1.8880821430826915
1.886112300713338
1.8852372828404966
1.8860352936886986
1.8877062745735258
1.8900299098134956
1.8929147631131154
1.8937440793372748
1.8882424745080317
1.8739931205236013
1.8833829048608268
1.9027138492766114
1.9035521383072775
1.599004688597717
1.6555544200505419
1.6603509618871395
1.668504627080328
1.6469201517021006
1.606618831753786
1.5658250589848104
1.561505018044412
1.5691850007264145
1.5816640834269395
1.5855035756509772
1.5888630429904098
1.6080583856874893
1.6426027827906837
1.6872078759930291
1.6852897387480974
1.6560340830954778
1.6080312147365279
2.134004829753211
1.888769937908918
1.9346791054835475
1.9239675650365844
1.9246385227161704
1.9268535729394234
1.9299410605536635
1.9332496041674854
1.9367705709033116
1.9401210396208652
1.941881675019785
1.9405492824582748
1.9339774922217159
1.9183599655679484
1.8966857200755962
1.8789176397657745
1.854973229172764
1.8222105447280568
1.7749245694976703
1.7806737059853297
1.7940869312338488
1.8084559782141358
1.806540243021726
1.6800146894238017
1.641643346435166
1.606618831753786
1.600860457706041
1.6426027827906837
1.6670657870459757
1.6867283448218293
1.707346265696278
1.7428187069077818
1.7983978943089078
1.7284394871484252
1.681932918242244
1.5480510035287014
2.222457691531282
1.9016811887262917
1.9592271863891126
1.9501951628058773
1.9577525674095195
1.9670339252850555
1.9765194537524116
1.9856660973188363
1.9939576081419612
2.0004801109378976
2.0043658255362238
2.0024962295820545
1.9924434656289733
1.9727247347165777
1.945833049736524
1.9128021213345905
1.8706261471439587
1.8230456854474826
1.8001268802986798
1.8099937393609289
1.8316873456529157
1.8553819876924789
1.8676690333660013
1.8709626571706517
1.8826065716901483
1.9031798424656343
1.9137507957956115
1.916620387080839
1.9209245511867024
1.9257066397591058
1.9324009993371989
1.9371822774172436
1.938616594106951
1.9204463239909384
1.8769141153055884
1.8237803041306953
1.7850654492313007
2.312306032358081
1.927124464741221
1.9786149784375662
1.9720061427654634
1.986657545295626
2.003085239167338
2.0200254646425546
2.0364513544437255
2.0516546691184088
2.0631406350882
2.070075719348277
2.069887800665359
2.060577552774236
2.042310418427113
2.016198766968395
1.9847755815328652
1.9487314909397417
1.915260165054784
1.8971125817400616
1.8900906945687792
1.8950392198082922
1.9017459183119143
1.9052302388795936
1.9069976107470612
1.912682344695539
1.9232732441087694
1.9365088202619583
1.9410070531041002
1.9462657583484844
1.952480047180963
1.9582157843795964
1.9634730921274348
1.9663405309696584
1.9625172503072432
1.9481779103478534
1.8921160202260534
1.8259853947207727
1.789523910466378
1.7840738738321837
1.8202007345371567
2.3944666129027117
1.9661453149997041
2.006965909316806
1.9937483871649124
2.0106361878334646
2.0336047288992765
2.0577924432762433
2.0830164888927283
2.1066890392789963
2.1262484604315026
2.1369810092181556
2.135560335887599
2.1252128897811526
2.108363481932959
2.0860321821096677
2.059685318517915
2.029728477213091
2.0018496634516234
1.9814128931228394
1.9684595669461395
1.9613872670829502
1.9554103308810746
1.9497245460962864
1.9445005796565042
1.9422341194525052
1.943613197443142
1.9479230729845978
1.9542286748141617
1.9620393239981857
1.968729963698227
1.9754198897961974
1.9801979665085099
1.9835423990295533
1.984975671157187
1.9835423990295533
1.978764582408679
1.972015745567648
1.936593730335137
1.8792748293464152
1.8229952668109541
2.4636396264786966
2.0448704029550435
2.106483699607237
2.0451317785718195
2.0386018737636284
2.0631044785943757
2.095986187392196
2.1271629810221273
2.1462177170921755
2.1676445276863734
2.1862057413459843
2.1812048608958987
2.1675400575852684
2.153532615213839
2.138078493170825
2.121150724384668
2.101879178071052
2.0835777478737887
2.067780997731515
2.0536183440828153
2.0327314965050944
2.013633894576184
1.9983512359469597
1.9859311671427342
1.9763755347426806
1.969685711327225
1.9663405309696584
1.9656497614104071
1.9637118202250958
1.9618293467723567
1.9580561511699517
1.9529828800335447
1.9465925622453166
1.9401870561320458
1.9352637348039425
1.9319472055180682
1.9279882019947359
1.9264316880703158
1.918327079566529
1.7947097389875846
2.580902484844161
2.304710184133775
2.2825722262053016
2.1786466573775667
2.1333364627563114
2.1228998104495966
2.129188536231986
2.139698450559074
2.1491842098113803
2.1528178347022067
2.1578600781004464
2.159110858219164
2.1564171138617603
2.15157455505955
2.145837508968288
2.1401951620111825
2.134899260787916
2.1303618496493364
2.121445013273671
2.097612696741926
2.0747227359414393
2.0522997128397864
2.0327314965050944
2.0160214463391855
2.001694658420872
1.989275284437147
1.9806757537717012
1.9763755347426806
1.977331164913911
1.9689577125155004
1.9524436469489523
1.934772251777622
1.9169144960334688
1.9006030011918171
1.8865936405724595
1.8742380153460805
1.8644011077527751
1.8560690250198542
1.836446630903274
1.7840081057759152
2.748403583297495
2.6032315490849576
2.5005112933241795
2.3919977154305463
2.2980251644631315
2.231754201247923
2.1904410606245586
2.1668775342653768
2.1559823035002044
2.1500274306789158
2.1434153482893423
2.1368182627034846
2.131289947195029
2.1263024795115895
2.1226988232841557
2.1207119048303014
2.120479325224575
2.1209283211360965
2.120462356718173
2.118042533902408
2.10762371531026
2.0880764876748894
2.0685215887696984
2.0494365128503294
2.0317767705923426
2.0155439439346363
2.0007394141789026
1.989275284437147
1.983064634160754
1.9816313171227975
1.9835423990295533
1.9873643829038843
1.992141523118386
1.9768651203038605
1.9552123183705756
1.9315732023726897
1.9150593768401027
1.9066457615123023
1.8853555168513736
1.8256903923435668
1.0502477898292621
1.6663594513653017
1.9394128590401807
2.048081231453696
2.0868542358273907
2.0989308009779326
2.1014124411596318
2.1000366869150313
2.0980303905793787
2.095276068494213
2.092793251715638
2.09108321615249
2.0905784712606934
2.0911595416075346
2.0931300781241307
2.095154215814562
2.0971618282906794
2.0975192243095653
2.094936544888669
2.090237878780534
2.083769564716176
2.0771075928322476
2.06041127646708
2.0432323902389147
2.026525485607547
2.011246243731206
1.9993065188155297
1.990230712507426
1.9854534210288524
1.9844979175311537
1.984975671157187
1.9868866480836718
1.989275284437147
1.990230712507426
1.9887975647228031
1.9786546616121732
1.8988152690479523
1.8543345116069905
1.1236492623947079
1.6863225093990337
1.8961370722024942
1.9913087698569383
2.0312276943970162
2.045570385216798
2.0489585875173644
2.0485636070495516
2.0481928448781304
2.0493062699528584
2.0509677863230973
2.053265424885723
2.05677051989204
2.060465714471022
2.064281285736678
2.0676060340319147
2.0694356064745314
2.06907153855082
2.067239026140073
2.0636390058665626
2.0587415612493185
2.052544300588804
2.0446756220119755
2.0366914171812893
2.0276349492231507
2.019000268932392
2.0100823599446405
2.0001847141784066
1.9882916007755154
1.9736386476081123
1.9586699867133397
1.9451618601486331
1.9335865497951439
1.9243385361209178
1.9160726795703316
1.9130327432977137
1.8744068709015782
1.8490064578950787
1.4830047611629824
1.414827821220295
1.4382164397458788
1.7796211932706831
1.931499375009358
2.0280244364631
2.039443037685562
2.0312731585847965
2.0234192858915137
2.018196266598793
2.0170859698066743
2.0182789197519884
2.021510631025867
2.025660096817797
2.028581814140302
2.029614447203745
2.027807760541992
2.0229710646713417
2.0158927077816027
2.007920924359063
2.0007258428417347
1.9941633227264532
1.989245499058894
1.9841774059805388
1.9785492994283063
1.9722173181387237
1.965692560773246
1.9585476134186168
1.9509679449266488
1.9427955632628804
1.933190960487515
1.9229487419272506
1.9113543576748862
1.8993703908008155
1.8893258507920871
1.8822433166307568
1.8807900957699988
1.8886668594844076
1.8688262270601197
1.8348835507639285
)
;

boundaryField
{
    ".*"
    {
        type            zeroGradient;
    }
}


// ************************************************************************* //
