/*--------------------------------*- C++ -*----------------------------------*\
  =========                 |
  \\      /  F ield         | OpenFOAM: The Open Source CFD Toolbox
   \\    /   O peration     | Website:  https://openfoam.org
    \\  /    A nd           | Version:  6
     \\/     M anipulation  |
\*---------------------------------------------------------------------------*/
FoamFile
{
    version     2.0;
    format      ascii;
    class       volScalarField;
    location    "1100";
    object      alphat;
}
// * * * * * * * * * * * * * * * * * * * * * * * * * * * * * * * * * * * * * //

dimensions      [1 -1 -1 0 0 0 0];

internalField   nonuniform List<scalar> 
458
(
0.00085146
0.00087548
0.000813764
0.000843077
0.00087321
0.000901032
0.000926773
0.000951157
0.000975175
0.00100024
0.00102166
0.00103804
0.00104954
0.00105823
0.00106428
0.000545353
0.000686949
0.000688887
0.000635736
0.000550711
0.000464343
0.000315597
0.000189728
0.0001892
0.000203357
0.000215102
0.000213436
0.000211184
0.000244214
0.000321666
0.000405812
0.000465795
0.000438969
0.00143894
0.0024362
0.00183738
0.00237329
0.00255972
0.00274624
0.00293432
0.00310827
0.00324635
0.00331966
0.00334041
0.00326637
0.00304199
0.00258665
0.00185421
0.00114518
0.00109535
0.000827084
0.000795451
0.00161618
0.00186708
0.00183454
0.00155611
0.0010301
0.000665636
0.00052164
0.000509206
0.000559775
0.000552696
0.000453317
0.000336797
0.000325055
0.000617344
0.00120472
0.00172939
0.000661994
0.00195652
0.00400163
0.00195675
0.00344079
0.00387451
0.00409739
0.00428438
0.00444139
0.00456381
0.00464205
0.00468199
0.00465301
0.00450878
0.00418767
0.00364613
0.00292744
0.00207135
0.00119735
0.00105227
0.00290853
0.00262613
0.00213453
0.00168803
0.000556674
0.000451682
0.000395785
0.000359645
0.000332803
0.000309103
0.000285468
0.000262611
0.000329229
0.00107437
0.00180389
0.00237563
0.000764713
0.00245377
0.00606612
0.00217275
0.00371395
0.00462159
0.00486782
0.00501699
0.00513262
0.00522605
0.00529882
0.00536073
0.00541428
0.00543213
0.00535378
0.00507189
0.00445216
0.00342409
0.00217398
0.00128546
0.00318624
0.00326959
0.00272083
0.00206873
0.00143804
0.000969181
0.00098822
0.00102515
0.00107523
0.00113676
0.00122133
0.00128406
0.00131119
0.00129359
0.00152163
0.00185677
0.00255054
0.00112637
0.00292478
0.00842711
0.00298499
0.00340099
0.00485031
0.00520248
0.00533008
0.00540186
0.00545069
0.0054944
0.00555027
0.00566548
0.00584108
0.00605685
0.00626499
0.00639953
0.00640288
0.00622246
0.00583986
0.00561527
0.00519787
0.00477344
0.00448322
0.00430739
0.00422151
0.00428401
0.00443452
0.00464535
0.00487595
0.00507889
0.00518392
0.00515039
0.00499446
0.0047268
0.00404702
0.00347154
0.00251946
0.00129138
0.00116623
0.0011731
0.0033771
0.010684
0.00493507
0.00321198
0.00432668
0.00499371
0.00528211
0.00541119
0.00544459
0.00542526
0.00541566
0.00550869
0.00569482
0.0059669
0.0063061
0.00666843
0.00697277
0.00708922
0.00692989
0.00657799
0.00616352
0.00581336
0.005576
0.00542385
0.00533065
0.00531288
0.00538504
0.00552224
0.00566917
0.00577046
0.00579436
0.00571686
0.00560987
0.00550937
0.00519739
0.00461795
0.00386467
0.00297736
0.00229713
0.0012504
0.00379719
0.0124176
0.00834019
0.00483335
0.00368193
0.00390756
0.00453274
0.0050453
0.00532145
0.00529966
0.00522505
0.00525445
0.00536189
0.00554832
0.00581892
0.00616287
0.00651796
0.00675715
0.00678028
0.00660367
0.00634133
0.00609694
0.00590994
0.00577125
0.00567223
0.00563333
0.00567466
0.00577195
0.00585655
0.00586124
0.00577569
0.00564659
0.0055428
0.00556312
0.00577052
0.00559912
0.00509673
0.0042807
0.00337642
0.00148049
0.00388042
0.0121781
0.0100499
0.00830949
0.00629604
0.0049325
0.00451066
0.00469821
0.00505024
0.0051157
0.00504581
0.00500392
0.00501576
0.00508083
0.00520238
0.0053921
0.00564543
0.00589861
0.00605631
0.00606575
0.00598402
0.00587879
0.00578559
0.00572201
0.00570944
0.0057694
0.00589498
0.00603781
0.00610708
0.00602103
0.00580167
0.00554954
0.00536056
0.00534571
0.00563141
0.00596232
0.00560623
0.00457596
0.00399788
0.00158621
0.00376322
0.0044812
0.0051989
0.00553445
0.00552706
0.00518999
0.00482306
0.00458706
0.0044916
0.00446244
0.00447984
0.00451664
0.00455529
0.00458887
0.00462196
0.00467135
0.00475885
0.00488868
0.0050329
0.00515529
0.00524416
0.00530194
0.00533654
0.00537065
0.00545709
0.0056675
0.00599434
0.00633351
0.00652309
0.00640563
0.00601825
0.00553466
0.00500367
0.00434593
0.00369338
0.00321509
0.00285273
0.00248701
0.00220265
0.00163222
0.00347584
0.00619597
0.00587312
0.00557243
0.00526339
0.00499626
0.0047914
0.00463622
0.00451501
0.00441527
0.00432335
0.00423137
0.00414086
0.00406375
0.00402091
0.0040353
0.0041202
0.00426968
0.00445766
0.00464579
0.00480342
0.00492833
0.00505693
0.0052639
0.00563736
0.0062128
0.00681722
0.00702414
0.00676541
0.00644013
0.00646445
0.00663044
0.00622138
0.00543794
0.00462714
0.00397453
0.00347216
0.00163926
0.00321709
0.00677543
0.00632186
0.00589358
0.00554299
0.00521837
0.00491187
0.00462923
0.00436895
0.00408963
0.00380233
0.00352994
0.00329005
0.00309891
0.00297438
0.0029367
0.00300327
0.00317507
0.00342368
0.0036964
0.00394277
0.00414009
0.00429976
0.00446018
0.00468974
0.00508887
0.0056589
0.00608482
0.00607147
0.00567432
0.00545655
0.00617262
0.00614976
0.00593829
0.00558858
0.00521745
0.00406805
0.00169051
0.0025667
0.00276239
0.00293483
0.00307305
0.00282469
0.00260606
0.00238776
0.00220531
0.00204099
0.00189237
0.00175751
0.00164105
0.00153839
0.00144504
0.00135899
0.00127981
0.00120816
0.00114554
0.00109408
0.00105608
0.00103305
0.00102456
0.00102772
0.00103842
0.00105323
0.00107096
0.00109407
0.00112924
0.00118018
0.00124776
0.00128891
0.00126942
0.00128982
0.00152055
0.00172315
0.00184178
0.00187511
0.00180658
0.00168159
0.00153024
)
;

boundaryField
{
    floor
    {
        type            compressible::alphatWallFunction;
        Prt             0.85;
        value           nonuniform List<scalar> 
36
(
0.000151259
7.60717e-05
9.72011e-05
9.74853e-05
8.96205e-05
7.68707e-05
6.36659e-05
4.01344e-05
1.90406e-05
1.89468e-05
2.13963e-05
2.341e-05
2.31242e-05
2.27409e-05
2.83558e-05
4.11251e-05
5.4552e-05
6.39048e-05
5.97481e-05
5.97473e-05
9.35206e-05
0.000108578
0.000159898
0.000182638
0.000165425
0.00016638
0.000151257
0.00016252
0.000155592
0.000117623
7.60708e-05
0.000117622
0.000113038
0.000169728
0.00014956
0.000181828
)
;
    }
    ceiling
    {
        type            compressible::alphatWallFunction;
        Prt             0.85;
        value           nonuniform List<scalar> 
43
(
0.000349842
0.000374563
0.000396198
0.000413542
0.000382524
0.000354971
0.000327205
0.000303789
0.000282519
0.000263121
0.000245375
0.00022993
0.000216215
0.000203653
0.000191995
0.000181193
0.000171353
0.000162699
0.000155547
0.00015024
0.000147014
0.000145822
0.000146267
0.000147768
0.000149842
0.000152322
0.000155546
0.000160438
0.000167491
0.000176798
0.00018242
0.000179736
0.000182524
0.000213816
0.000240826
0.000256474
0.00026085
0.000251839
0.00023531
0.000215113
0.00049873
0.000585452
0.000431236
)
;
    }
    sWall
    {
        type            compressible::alphatWallFunction;
        Prt             0.85;
        value           uniform 0.000348608;
    }
    nWall
    {
        type            compressible::alphatWallFunction;
        Prt             0.85;
        value           nonuniform List<scalar> 6(0.000166127 0.000176764 0.000208034 0.000229297 0.000236105 0.000214733);
    }
    sideWalls
    {
        type            empty;
    }
    glass1
    {
        type            compressible::alphatWallFunction;
        Prt             0.85;
        value           nonuniform List<scalar> 9(0.00011754 0.000197722 0.000265528 0.000329005 0.000387989 0.000443776 0.000494947 0.000505166 0.000491226);
    }
    glass2
    {
        type            compressible::alphatWallFunction;
        Prt             0.85;
        value           nonuniform List<scalar> 2(0.000220452 0.00022661);
    }
    sun
    {
        type            compressible::alphatWallFunction;
        Prt             0.85;
        value           nonuniform List<scalar> 
14
(
0.000121149
0.00012457
0.000115703
0.000119924
0.000124244
0.000128218
0.000131882
0.000135341
0.000138738
0.000142274
0.000145286
0.000147584
0.000149196
0.000150413
)
;
    }
    Table_master
    {
        type            compressible::alphatWallFunction;
        Prt             0.85;
        value           nonuniform List<scalar> 9(7.79498e-05 6.18802e-05 5.31344e-05 4.73957e-05 4.30844e-05 3.92392e-05 3.53651e-05 3.1579e-05 4.25382e-05);
    }
    Table_slave
    {
        type            compressible::alphatWallFunction;
        Prt             0.85;
        value           nonuniform List<scalar> 9(0.000138066 0.000140755 0.000145954 0.000152969 0.000161537 0.000173224 0.000181842 0.000185555 0.000183155);
    }
    inlet
    {
        type            fixedValue;
        value           uniform 1.94e-05;
    }
    outlet
    {
        type            zeroGradient;
    }
}


// ************************************************************************* //
