/*--------------------------------*- C++ -*----------------------------------*\
  =========                 |
  \\      /  F ield         | OpenFOAM: The Open Source CFD Toolbox
   \\    /   O peration     | Website:  https://openfoam.org
    \\  /    A nd           | Version:  6
     \\/     M anipulation  |
\*---------------------------------------------------------------------------*/
FoamFile
{
    version     2.0;
    format      ascii;
    class       volScalarField;
    location    "1100";
    object      k;
}
// * * * * * * * * * * * * * * * * * * * * * * * * * * * * * * * * * * * * * //

dimensions      [0 2 -2 0 0 0 0];

internalField   nonuniform List<scalar> 
458
(
0.00105995
0.00111796
0.00096584
0.00103671
0.00111218
0.00118421
0.00125287
0.00131969
0.0013872
0.00145947
0.00152263
0.00157184
0.00160684
0.00163354
0.00165223
0.000432819
0.000686723
0.000690604
0.000588059
0.000441156
0.000313516
0.000144681
5.22437e-05
5.19376e-05
5.99893e-05
6.71079e-05
6.60655e-05
6.46832e-05
8.65467e-05
0.000150172
0.000239111
0.00031512
0.000279946
0.00303232
0.00599512
0.00162427
0.00154036
0.00161686
0.00171404
0.00181856
0.0019314
0.00205279
0.00217906
0.00230027
0.0023911
0.00241687
0.00232772
0.00210099
0.00191282
0.00174973
0.000997602
0.000921261
0.00140081
0.00128211
0.00114405
0.000900557
0.000540332
0.000297562
0.00020172
0.000178124
0.000184314
0.000172214
0.000132851
9.49891e-05
0.000120305
0.000390754
0.000771648
0.00142167
0.000636737
0.0056149
0.0140256
0.0025587
0.00197954
0.00201675
0.00212007
0.00223768
0.00236809
0.00251113
0.00266192
0.00280967
0.00292366
0.00297598
0.00294589
0.00283626
0.0026796
0.00242761
0.00209066
0.00161298
0.00248185
0.00185394
0.00157496
0.0014199
0.000450594
0.000296503
0.000227569
0.000187848
0.000160808
0.000138679
0.000118244
0.000100039
0.000157428
0.00106352
0.00158423
0.00294884
0.000849874
0.00884447
0.0257912
0.00420573
0.00235809
0.00231825
0.00243613
0.00257765
0.00273405
0.00290533
0.00308837
0.00327367
0.00342312
0.00351386
0.00353623
0.00347976
0.0033306
0.00308293
0.00273459
0.00240913
0.00246096
0.00188568
0.00162615
0.00148046
0.00138844
0.00136933
0.00142369
0.00153215
0.00168559
0.00188415
0.00217503
0.0024045
0.00250731
0.0024405
0.00221364
0.00218666
0.00311564
0.00184642
0.0125826
0.0401411
0.00746427
0.00280513
0.00255822
0.00267845
0.00285487
0.00305901
0.00328816
0.00353926
0.00379167
0.00399072
0.00412546
0.00420828
0.00424211
0.00421998
0.00413735
0.00394581
0.00348777
0.00275905
0.00230252
0.00208808
0.00205256
0.00211801
0.00222912
0.0023869
0.00263805
0.00298195
0.0034058
0.00389655
0.00433422
0.00454027
0.0044538
0.00404236
0.00340151
0.00315429
0.00288729
0.00242886
0.00198141
0.00200645
0.0167945
0.0534304
0.0142096
0.00412547
0.00301956
0.00300053
0.00318091
0.00343329
0.00373026
0.00407201
0.00438309
0.00457504
0.00467161
0.00472114
0.00474985
0.00475445
0.00468768
0.00443345
0.00392125
0.00329768
0.00280329
0.00252013
0.00241705
0.00242497
0.00250811
0.00268344
0.00298371
0.00340729
0.0039214
0.0044666
0.00496797
0.00533542
0.00546437
0.00537184
0.00468791
0.00400488
0.00353618
0.00322384
0.00283819
0.00227819
0.0212526
0.0614906
0.0273164
0.0105409
0.00556433
0.00427296
0.00412335
0.00430915
0.00461077
0.00500649
0.00523813
0.00527334
0.00519932
0.00509302
0.00499832
0.00492821
0.00483874
0.00461305
0.0041826
0.00364953
0.00318104
0.00286809
0.0027076
0.00265848
0.0027074
0.00288683
0.00323198
0.003737
0.00434349
0.00495461
0.00548763
0.00591252
0.00624049
0.00657663
0.00688104
0.00639301
0.00603429
0.00528727
0.00473466
0.00319443
0.0222296
0.066659
0.0427663
0.0302449
0.0191516
0.0119666
0.00860893
0.00735004
0.00697664
0.0067979
0.00647728
0.00609883
0.00572289
0.00537886
0.00508276
0.00484625
0.00465852
0.00445023
0.00413301
0.00373839
0.00337275
0.00310415
0.00294697
0.00288704
0.00293126
0.00313015
0.0035372
0.00414835
0.00487078
0.00555124
0.00610019
0.00654548
0.00698691
0.00765404
0.00892728
0.0105097
0.0110875
0.0105752
0.0120883
0.00367335
0.020953
0.0296487
0.0295281
0.0262837
0.0221719
0.0176804
0.0139499
0.0112955
0.00955403
0.00829603
0.00734211
0.00659083
0.00597447
0.00545175
0.00500182
0.00461982
0.00430617
0.00404622
0.00380807
0.00357809
0.00337713
0.00323154
0.0031522
0.00313744
0.00320139
0.00341487
0.00386602
0.0045883
0.00547641
0.00625231
0.00674632
0.00702027
0.00705673
0.00668658
0.00616471
0.00589593
0.00580092
0.0056213
0.00545855
0.00389316
0.0170481
0.028917
0.022461
0.0181987
0.0148426
0.0122366
0.010274
0.00878624
0.00762925
0.0067075
0.00595226
0.00531699
0.00477565
0.00431907
0.0039497
0.00367333
0.00349096
0.00339672
0.00337852
0.00341667
0.0034876
0.0035752
0.00368644
0.00386835
0.00421281
0.00483995
0.00580239
0.00676718
0.00739893
0.00810138
0.00948011
0.0111577
0.0114427
0.0105794
0.00924751
0.00796053
0.00645974
0.00392289
0.0147304
0.0275583
0.0212726
0.0172841
0.0143626
0.0120096
0.0100888
0.00853649
0.00727979
0.00622408
0.00533541
0.00459768
0.00399746
0.00352703
0.00318595
0.00298051
0.00291865
0.0029979
0.0031916
0.00344729
0.00370722
0.00393576
0.00413122
0.00432237
0.00457286
0.00497994
0.00555354
0.00599443
0.00616005
0.00630183
0.00694956
0.00866071
0.00960202
0.0102696
0.0101932
0.00953527
0.00714124
0.0041717
0.00947394
0.0109695
0.0123814
0.0137091
0.0116203
0.00990922
0.0083252
0.00710389
0.00608566
0.00523209
0.0045131
0.00393494
0.00345812
0.00305121
0.0026987
0.00239344
0.00213297
0.00191762
0.00174923
0.00162983
0.00155955
0.00153399
0.00154346
0.00157573
0.00162091
0.00167587
0.00174885
0.00186292
0.00203449
0.00227384
0.00242554
0.00235217
0.00242805
0.00337505
0.00433399
0.00495115
0.00513202
0.00476364
0.0041272
0.00341836
)
;

boundaryField
{
    floor
    {
        type            kqRWallFunction;
        value           nonuniform List<scalar> 
36
(
0.00165223
0.000432819
0.000686723
0.000690604
0.000588059
0.000441156
0.000313516
0.000144681
5.22437e-05
5.19376e-05
5.99893e-05
6.71079e-05
6.60655e-05
6.46832e-05
8.65467e-05
0.000150172
0.000239111
0.00031512
0.000279946
0.000279946
0.000636737
0.000849874
0.00184642
0.00242886
0.00198141
0.00200645
0.00165223
0.00191282
0.00174973
0.000997602
0.000432819
0.000997602
0.000921261
0.00209066
0.00161298
0.00240913
)
;
    }
    ceiling
    {
        type            kqRWallFunction;
        value           nonuniform List<scalar> 
43
(
0.00947394
0.0109695
0.0123814
0.0137091
0.0116203
0.00990922
0.0083252
0.00710389
0.00608566
0.00523209
0.0045131
0.00393494
0.00345812
0.00305121
0.0026987
0.00239344
0.00213297
0.00191762
0.00174923
0.00162983
0.00155955
0.00153399
0.00154346
0.00157573
0.00162091
0.00167587
0.00174885
0.00186292
0.00203449
0.00227384
0.00242554
0.00235217
0.00242805
0.00337505
0.00433399
0.00495115
0.00513202
0.00476364
0.0041272
0.00341836
0.020953
0.0296487
0.0147304
)
;
    }
    sWall
    {
        type            kqRWallFunction;
        value           uniform 0.00947394;
    }
    nWall
    {
        type            kqRWallFunction;
        value           nonuniform List<scalar> 6(0.00200645 0.00227819 0.00319443 0.00392289 0.0041717 0.00341836);
    }
    sideWalls
    {
        type            empty;
    }
    glass1
    {
        type            kqRWallFunction;
        value           nonuniform List<scalar> 9(0.00105995 0.00303232 0.0056149 0.00884447 0.0125826 0.0167945 0.0212526 0.0222296 0.020953);
    }
    glass2
    {
        type            kqRWallFunction;
        value           nonuniform List<scalar> 2(0.00367335 0.00389316);
    }
    sun
    {
        type            kqRWallFunction;
        value           nonuniform List<scalar> 
14
(
0.00105995
0.00111796
0.00096584
0.00103671
0.00111218
0.00118421
0.00125287
0.00131969
0.0013872
0.00145947
0.00152263
0.00157184
0.00160684
0.00163354
)
;
    }
    Table_master
    {
        type            kqRWallFunction;
        value           nonuniform List<scalar> 9(0.000450594 0.000296503 0.000227569 0.000187848 0.000160808 0.000138679 0.000118244 0.000100039 0.000157428);
    }
    Table_slave
    {
        type            kqRWallFunction;
        value           nonuniform List<scalar> 9(0.00136933 0.00142369 0.00153215 0.00168559 0.00188415 0.00217503 0.0024045 0.00250731 0.0024405);
    }
    inlet
    {
        type            turbulentIntensityKineticEnergyInlet;
        intensity       0.05;
        value           uniform 0.0003375;
    }
    outlet
    {
        type            zeroGradient;
    }
}


// ************************************************************************* //
