/*--------------------------------*- C++ -*----------------------------------*\
  =========                 |
  \\      /  F ield         | OpenFOAM: The Open Source CFD Toolbox
   \\    /   O peration     | Website:  https://openfoam.org
    \\  /    A nd           | Version:  6
     \\/     M anipulation  |
\*---------------------------------------------------------------------------*/
FoamFile
{
    version     2.0;
    format      ascii;
    class       volVectorField;
    location    "900";
    object      U;
}
// * * * * * * * * * * * * * * * * * * * * * * * * * * * * * * * * * * * * * //

dimensions      [0 1 -1 0 0 0 0];

internalField   nonuniform List<vector> 
458
(
(0.0905103 0.0684327 0)
(-0.137076 0.00492928 0)
(-0.126686 0.00862721 0)
(-0.145942 0.00879548 0)
(-0.164443 0.00728209 0)
(-0.18116 0.00501029 0)
(-0.19509 0.00214789 0)
(-0.205368 -0.00133588 0)
(-0.211103 -0.00554328 0)
(-0.211148 -0.0106509 0)
(-0.203421 -0.0171487 0)
(-0.184547 -0.0257932 0)
(-0.152759 -0.0383846 0)
(-0.118794 -0.0586831 0)
(-0.119782 -0.0874124 0)
(0.0427112 0.00238624 0)
(-0.0132469 -0.0104361 0)
(0.00865717 -0.0163395 0)
(0.0264171 -0.0156894 0)
(0.0403659 -0.00953659 0)
(0.045642 -0.00269833 0)
(0.0397968 0.000910788 0)
(0.0302146 0.00381723 0)
(0.0197584 0.00836911 0)
(0.00336481 0.0104396 0)
(-0.0106876 -0.00232842 0)
(-0.00958389 -0.00517315 0)
(-0.00625779 -0.00607513 0)
(-0.00252046 -0.00756795 0)
(0.0040975 -0.0100753 0)
(0.0116575 -0.0121 0)
(0.0300069 -0.0106795 0)
(-0.0354168 0.010308 0)
(0.287341 0.149086 0)
(-0.159328 0.025658 0)
(-0.117298 0.0299421 0)
(-0.142697 0.0301177 0)
(-0.16293 0.0282252 0)
(-0.180946 0.0250968 0)
(-0.196196 0.0207902 0)
(-0.208045 0.015144 0)
(-0.215717 0.00793003 0)
(-0.218212 -0.00114448 0)
(-0.214297 -0.0122477 0)
(-0.202932 -0.0254654 0)
(-0.184989 -0.0419833 0)
(-0.166862 -0.0636041 0)
(-0.152523 -0.0828184 0)
(-0.11664 -0.0682214 0)
(-0.0622574 -0.0729636 0)
(-0.00777828 0.0627335 0)
(0.0983311 0.00288481 0)
(0.0174125 -0.00268355 0)
(0.0018923 -0.0124132 0)
(0.00748816 -0.0198127 0)
(0.0154286 -0.0132153 0)
(0.0280994 0.00412325 0)
(0.0232219 0.00799337 0)
(0.02087 0.010036 0)
(0.0229387 0.0133344 0)
(0.0241181 0.0138651 0)
(0.028029 0.0081561 0)
(0.0285124 0.00416883 0)
(0.0257349 0.000506684 0)
(0.0232735 -0.00374123 0)
(0.0232335 -0.00728614 0)
(0.0256178 -0.0105729 0)
(0.0392072 -0.00814806 0)
(-0.0800066 0.0273316 0)
(0.455496 0.228848 0)
(-0.203251 0.0559042 0)
(-0.0970917 0.0545017 0)
(-0.128895 0.0502132 0)
(-0.148444 0.0455959 0)
(-0.166196 0.0395343 0)
(-0.18164 0.0316143 0)
(-0.194267 0.0215647 0)
(-0.203375 0.00923576 0)
(-0.208067 -0.0053415 0)
(-0.207007 -0.0220429 0)
(-0.200675 -0.0409758 0)
(-0.190555 -0.0616775 0)
(-0.179909 -0.0823658 0)
(-0.167812 -0.0963536 0)
(-0.147841 -0.0969954 0)
(-0.132397 -0.105006 0)
(-0.151085 -0.101657 0)
(0.0249926 0.0192696 0)
(-0.0422846 0.000170908 0)
(-0.0387434 -0.0147126 0)
(-0.0333977 -0.0295588 0)
(-0.0350792 -0.0363257 0)
(0.0249484 0.00830528 0)
(0.0108275 0.00618032 0)
(0.0154672 0.00587183 0)
(0.0256392 0.00759647 0)
(0.035726 0.00732382 0)
(0.0440452 0.00404219 0)
(0.0482498 0.00121137 0)
(0.0490119 -0.00119419 0)
(0.0449969 -0.00257939 0)
(0.0444154 0.00262219 0)
(0.0401446 0.0128672 0)
(0.0134181 0.0241333 0)
(-0.150695 0.0325016 0)
(0.594912 0.296033 0)
(-0.251246 0.0904106 0)
(-0.0689964 0.0781948 0)
(-0.10738 0.0695824 0)
(-0.123842 0.0634851 0)
(-0.139469 0.056058 0)
(-0.153735 0.046319 0)
(-0.166106 0.033768 0)
(-0.175912 0.0181001 0)
(-0.182266 -0.000727579 0)
(-0.183473 -0.0222704 0)
(-0.180555 -0.0456418 0)
(-0.175273 -0.0689645 0)
(-0.169773 -0.0889822 0)
(-0.164213 -0.101378 0)
(-0.158823 -0.104884 0)
(-0.16149 -0.101346 0)
(-0.176225 -0.0733189 0)
(-0.163985 -0.00247976 0)
(-0.109563 0.00633232 0)
(-0.0924344 -0.00827509 0)
(-0.0753657 -0.0221616 0)
(-0.0727161 -0.0325676 0)
(-0.0780742 -0.0343369 0)
(-0.0729938 -0.0194728 0)
(-0.0529605 -0.0163118 0)
(-0.0347013 -0.0171668 0)
(-0.0166776 -0.0196042 0)
(0.00823346 -0.022692 0)
(0.0328326 -0.0237208 0)
(0.0584361 -0.0231745 0)
(0.0833751 -0.0202227 0)
(0.103457 -0.0144568 0)
(0.112041 -0.00079868 0)
(0.102624 0.0224508 0)
(0.0882202 0.0432058 0)
(-0.0231858 0.0647441 0)
(0.706806 0.3516 0)
(-0.29464 0.125258 0)
(-0.0375557 0.0951942 0)
(-0.0797718 0.0844162 0)
(-0.0918634 0.0776993 0)
(-0.103642 0.0695923 0)
(-0.114935 0.0586876 0)
(-0.125125 0.0442721 0)
(-0.13372 0.0259579 0)
(-0.139929 0.00370454 0)
(-0.1421 -0.0217527 0)
(-0.140299 -0.0483841 0)
(-0.137047 -0.073081 0)
(-0.133968 -0.0924968 0)
(-0.131754 -0.104389 0)
(-0.131178 -0.109072 0)
(-0.133946 -0.106695 0)
(-0.136169 -0.090582 0)
(-0.127758 -0.0552977 0)
(-0.107496 -0.0313496 0)
(-0.0863996 -0.0262496 0)
(-0.0727997 -0.0304497 0)
(-0.0675258 -0.034626 0)
(-0.0653687 -0.0341921 0)
(-0.0593185 -0.0269407 0)
(-0.047911 -0.0250568 0)
(-0.0345079 -0.0265753 0)
(-0.0196932 -0.0305676 0)
(-0.00219781 -0.0353955 0)
(0.0184038 -0.0389179 0)
(0.0399403 -0.0395035 0)
(0.0621124 -0.0351654 0)
(0.0828228 -0.0225703 0)
(0.100089 0.000998189 0)
(0.109095 0.0310485 0)
(0.11865 0.0585112 0)
(0.0970133 0.077579 0)
(0.128476 0.0902476 0)
(0.126378 0.10391 0)
(-0.120353 0.144689 0)
(0.779424 0.400894 0)
(-0.329608 0.154911 0)
(-0.0127273 0.0975934 0)
(-0.0449477 0.0944303 0)
(-0.0533219 0.0886088 0)
(-0.0613533 0.0795256 0)
(-0.0688124 0.0676812 0)
(-0.0752173 0.0521761 0)
(-0.0805926 0.0323292 0)
(-0.0846182 0.00780257 0)
(-0.0850163 -0.0209173 0)
(-0.0825788 -0.0503253 0)
(-0.0804672 -0.0756085 0)
(-0.0796528 -0.0939149 0)
(-0.080506 -0.104236 0)
(-0.0831801 -0.106895 0)
(-0.087294 -0.101515 0)
(-0.089327 -0.0863058 0)
(-0.0847229 -0.0645155 0)
(-0.073941 -0.0471916 0)
(-0.0623734 -0.0393221 0)
(-0.0549569 -0.0377363 0)
(-0.0521405 -0.0379632 0)
(-0.0509404 -0.0369634 0)
(-0.0479184 -0.0345694 0)
(-0.0421285 -0.0347703 0)
(-0.0344081 -0.0378126 0)
(-0.0251289 -0.0432922 0)
(-0.0142496 -0.0501401 0)
(-0.00108941 -0.0566323 0)
(0.014634 -0.0601019 0)
(0.0317253 -0.057527 0)
(0.0505244 -0.0449539 0)
(0.0710087 -0.0181549 0)
(0.0930473 0.019799 0)
(0.109913 0.0517665 0)
(0.114744 0.0621198 0)
(0.115554 0.0424623 0)
(0.121431 0.0416719 0)
(-0.130166 0.110919 0)
(0.802429 0.445496 0)
(-0.343415 0.15093 0)
(0.00641762 0.0560696 0)
(0.0105382 0.0928029 0)
(0.00182192 0.104308 0)
(-0.00830606 0.091494 0)
(-0.0144387 0.0745787 0)
(-0.017491 0.0565155 0)
(-0.0185711 0.0352167 0)
(-0.0185388 0.00896053 0)
(-0.0124188 -0.02279 0)
(-0.00862035 -0.0532063 0)
(-0.00844116 -0.0770443 0)
(-0.0112631 -0.0931009 0)
(-0.0165115 -0.101525 0)
(-0.0234814 -0.102957 0)
(-0.0309631 -0.0975096 0)
(-0.0364203 -0.0851413 0)
(-0.0374505 -0.0690243 0)
(-0.034552 -0.0545849 0)
(-0.0308917 -0.0450568 0)
(-0.029386 -0.0400416 0)
(-0.0305694 -0.0377746 0)
(-0.0328708 -0.0365879 0)
(-0.034457 -0.0364025 0)
(-0.0346692 -0.0384649 0)
(-0.0335965 -0.0430576 0)
(-0.0313867 -0.0500948 0)
(-0.0279941 -0.0587653 0)
(-0.0232714 -0.0673466 0)
(-0.0169846 -0.0734155 0)
(-0.00907214 -0.0744761 0)
(0.0019719 -0.0663242 0)
(0.0175971 -0.0436897 0)
(0.0438865 -0.004637 0)
(0.0698094 0.0326264 0)
(0.084192 0.0482005 0)
(0.0932416 0.0463063 0)
(0.132117 0.0710199 0)
(-0.104829 0.16984 0)
(0.901304 0.462516 0)
(-0.125305 0.132068 0)
(0.0841479 -0.0265233 0)
(0.135796 0.0102234 0)
(0.113175 0.056353 0)
(0.0853087 0.0668086 0)
(0.0700533 0.0570786 0)
(0.0646766 0.0408255 0)
(0.0648429 0.020435 0)
(0.0676743 -0.00607824 0)
(0.0779055 -0.0325767 0)
(0.0799006 -0.0557901 0)
(0.0755373 -0.0739972 0)
(0.0669477 -0.0863093 0)
(0.055597 -0.0925748 0)
(0.042768 -0.0931399 0)
(0.0298349 -0.0884393 0)
(0.0185642 -0.0790123 0)
(0.0106166 -0.0666878 0)
(0.00606371 -0.054493 0)
(0.0031348 -0.0446387 0)
(-0.000284916 -0.0376698 0)
(-0.00524074 -0.0335766 0)
(-0.0112772 -0.0318496 0)
(-0.017553 -0.032278 0)
(-0.0237352 -0.0351981 0)
(-0.0295947 -0.0406205 0)
(-0.0352696 -0.0484987 0)
(-0.0405825 -0.0580353 0)
(-0.0457012 -0.0674662 0)
(-0.0510221 -0.0744097 0)
(-0.0567062 -0.0770594 0)
(-0.0612349 -0.0737694 0)
(-0.0612905 -0.0626713 0)
(-0.05066 -0.0432122 0)
(-0.0142602 -0.0173684 0)
(0.00392049 0.00202275 0)
(0.0230307 0.0035432 0)
(0.108694 0.0788613 0)
(-0.437131 0.258949 0)
(1.03465 0.429217 0)
(0.482366 0.290614 0)
(0.510763 0.294711 0)
(0.502466 0.258385 0)
(0.426979 0.216875 0)
(0.345184 0.171063 0)
(0.286528 0.124392 0)
(0.250183 0.0817845 0)
(0.228817 0.0447645 0)
(0.217151 0.0119111 0)
(0.201372 -0.0179674 0)
(0.184734 -0.0421702 0)
(0.166745 -0.0597259 0)
(0.147401 -0.0708336 0)
(0.127181 -0.0761934 0)
(0.106902 -0.0766199 0)
(0.0875568 -0.0729272 0)
(0.0702371 -0.0660117 0)
(0.0558821 -0.0571161 0)
(0.044702 -0.0477648 0)
(0.035934 -0.0392063 0)
(0.0283611 -0.0321583 0)
(0.0208379 -0.0270225 0)
(0.0125518 -0.0240139 0)
(0.00310235 -0.0234827 0)
(-0.00782045 -0.0260663 0)
(-0.0192565 -0.031236 0)
(-0.0318923 -0.0387449 0)
(-0.0450998 -0.047494 0)
(-0.059626 -0.0551659 0)
(-0.0776093 -0.0588668 0)
(-0.101561 -0.0568401 0)
(-0.131722 -0.0476234 0)
(-0.167004 -0.0285954 0)
(-0.205052 0.00139417 0)
(-0.239992 0.0386834 0)
(-0.268823 0.074723 0)
(-0.304926 0.108667 0)
(-0.362722 0.13815 0)
(-0.645593 0.160828 0)
(0.328685 -0.223671 0)
(0.35687 0.0525008 0)
(0.347735 0.160613 0)
(0.317464 0.171732 0)
(0.296869 0.141727 0)
(0.286922 0.100177 0)
(0.28134 0.0606533 0)
(0.275608 0.0275007 0)
(0.265434 0.00079656 0)
(0.248642 -0.020317 0)
(0.227489 -0.0358757 0)
(0.20363 -0.0461726 0)
(0.178552 -0.0517449 0)
(0.153618 -0.0532811 0)
(0.12999 -0.0515332 0)
(0.108613 -0.0473035 0)
(0.0901356 -0.0414895 0)
(0.0747617 -0.0350253 0)
(0.0621732 -0.0286729 0)
(0.0517042 -0.0229306 0)
(0.0425333 -0.0181519 0)
(0.0337258 -0.0146509 0)
(0.0242851 -0.0128655 0)
(0.0135701 -0.0133358 0)
(0.000436077 -0.0165667 0)
(-0.0149625 -0.0226073 0)
(-0.0301049 -0.0297632 0)
(-0.0451841 -0.0352707 0)
(-0.061795 -0.0355751 0)
(-0.082743 -0.0305539 0)
(-0.106367 -0.0224039 0)
(-0.129226 -0.0100493 0)
(-0.147653 0.00921939 0)
(-0.165111 0.034259 0)
(-0.172877 0.0567019 0)
(-0.163664 0.0523305 0)
(-0.14725 -0.0224205 0)
(-0.27445 -0.209808 0)
(0.0346054 0.312289 0)
(-0.0106931 0.226559 0)
(0.06546 0.209674 0)
(0.115811 0.180429 0)
(0.163682 0.137267 0)
(0.202689 0.0910607 0)
(0.229976 0.053019 0)
(0.244094 0.0247587 0)
(0.246361 0.00471043 0)
(0.239658 -0.00931907 0)
(0.226078 -0.0189295 0)
(0.207829 -0.0250894 0)
(0.186768 -0.0284188 0)
(0.164541 -0.0294154 0)
(0.142562 -0.0285309 0)
(0.121961 -0.0262044 0)
(0.103538 -0.0228922 0)
(0.0877091 -0.019042 0)
(0.0745084 -0.0150003 0)
(0.0636832 -0.0109459 0)
(0.0548128 -0.00691103 0)
(0.0473465 -0.00286825 0)
(0.0405183 0.000951346 0)
(0.0333862 0.00355549 0)
(0.0250588 0.00337167 0)
(0.0148212 -0.000870571 0)
(0.0019483 -0.0102886 0)
(-0.0116789 -0.0200284 0)
(-0.0237858 -0.0206202 0)
(-0.0366798 -0.0114579 0)
(-0.0460708 -0.00143982 0)
(-0.0519624 0.00827908 0)
(-0.0563036 0.022518 0)
(-0.0530805 0.0427056 0)
(-0.0414319 0.0645187 0)
(-0.0201334 0.0722788 0)
(0.134594 0.00652468 0)
(-0.204917 -0.120575 0)
(-0.40638 -0.499863 0)
(-0.605871 -0.118067 0)
(-0.475181 0.201362 0)
(-0.378411 0.147372 0)
(-0.220364 0.141438 0)
(-0.0975995 0.129194 0)
(0.0364328 0.0893176 0)
(0.110932 0.056141 0)
(0.165608 0.0328381 0)
(0.197746 0.0170923 0)
(0.210577 0.00646833 0)
(0.210259 -0.000850098 0)
(0.201426 -0.00608513 0)
(0.186983 -0.00979493 0)
(0.169109 -0.0122636 0)
(0.149566 -0.01369 0)
(0.129834 -0.0142635 0)
(0.11111 -0.0141943 0)
(0.0942812 -0.0137368 0)
(0.079913 -0.0131998 0)
(0.0682589 -0.0129285 0)
(0.0593295 -0.0132758 0)
(0.0529976 -0.0145594 0)
(0.0490798 -0.0169754 0)
(0.0472941 -0.0204875 0)
(0.0469787 -0.024807 0)
(0.0468351 -0.0297419 0)
(0.0451679 -0.0354757 0)
(0.0398031 -0.0422374 0)
(0.0283775 -0.0497106 0)
(0.00961064 -0.0551167 0)
(-0.0125258 -0.043216 0)
(-0.012696 -0.0265893 0)
(-0.00792373 -0.00980248 0)
(0.00684789 0.00956804 0)
(0.0337992 0.0263253 0)
(0.06706 0.0372428 0)
(0.103553 0.0307063 0)
(0.16348 0.000150169 0)
(-0.19574 -0.0604276 0)
)
;

boundaryField
{
    floor
    {
        type            noSlip;
    }
    ceiling
    {
        type            noSlip;
    }
    sWall
    {
        type            noSlip;
    }
    nWall
    {
        type            noSlip;
    }
    sideWalls
    {
        type            empty;
    }
    glass1
    {
        type            noSlip;
    }
    glass2
    {
        type            noSlip;
    }
    sun
    {
        type            noSlip;
    }
    Table_master
    {
        type            noSlip;
    }
    Table_slave
    {
        type            noSlip;
    }
    inlet
    {
        type            fixedValue;
        value           uniform (0.444456 -0.665176 0);
    }
    outlet
    {
        type            zeroGradient;
    }
}


// ************************************************************************* //
