/*--------------------------------*- C++ -*----------------------------------*\
  =========                 |
  \\      /  F ield         | OpenFOAM: The Open Source CFD Toolbox
   \\    /   O peration     | Website:  https://openfoam.org
    \\  /    A nd           | Version:  6
     \\/     M anipulation  |
\*---------------------------------------------------------------------------*/
FoamFile
{
    version     2.0;
    format      ascii;
    class       volScalarField;
    location    "1100";
    object      alphat;
}
// * * * * * * * * * * * * * * * * * * * * * * * * * * * * * * * * * * * * * //

dimensions      [1 -1 -1 0 0 0 0];

internalField   nonuniform List<scalar> 
458
(
0.000781621
0.000806237
0.000775783
0.000801868
0.000825542
0.000846063
0.000864013
0.000880143
0.000895278
0.000910434
0.000923075
0.000931637
0.00093635
0.000939154
0.000940501
0.000501839
0.0006382
0.000685833
0.000701132
0.000695514
0.000669198
0.000640359
0.00061385
0.000589975
0.000567842
0.000546943
0.000526924
0.000507444
0.000488026
0.000468003
0.000446071
0.000425489
0.000386286
0.00126767
0.00194864
0.00155777
0.00189683
0.00202158
0.00215099
0.0022789
0.00239485
0.00248458
0.00252957
0.0025339
0.00246755
0.00229381
0.00196198
0.00144985
0.000979094
0.000930476
0.000823913
0.000676866
0.00166938
0.0021558
0.0022924
0.00211246
0.00165576
0.00151164
0.00144615
0.00137675
0.00129819
0.00121582
0.00113141
0.00104154
0.000941633
0.00084854
0.00077271
0.000870065
0.000464161
0.00171312
0.00313919
0.00166851
0.00275741
0.00300714
0.00316772
0.00329937
0.00340483
0.00348402
0.0035316
0.00354686
0.00350561
0.00337845
0.0031328
0.00275057
0.00226031
0.00167057
0.00105138
0.000846199
0.00268577
0.0026857
0.00237083
0.00187449
0.000703696
0.000622239
0.000559008
0.000517431
0.00048955
0.000468622
0.000451598
0.000438112
0.000430471
0.00053131
0.000646253
0.00100533
0.000526775
0.00216575
0.00491308
0.00174341
0.00310318
0.00361758
0.00379318
0.0039079
0.00399054
0.00405081
0.0040909
0.00411201
0.00410539
0.00405005
0.00391339
0.00364319
0.00317372
0.00247725
0.0016634
0.00109489
0.00268488
0.00252417
0.00219996
0.00192018
0.00152138
0.000677693
0.000684167
0.000696817
0.000709375
0.000717168
0.000715684
0.000700875
0.000679258
0.000653343
0.000645052
0.000666793
0.00109305
0.000601592
0.00261788
0.00716654
0.00239445
0.00290497
0.00388621
0.00413494
0.00424943
0.0043164
0.00435686
0.00438538
0.00440384
0.00443024
0.00444785
0.00442757
0.00433362
0.00414041
0.00385533
0.00348685
0.00299323
0.00255354
0.00210257
0.00175946
0.00172094
0.0019296
0.00213226
0.00232759
0.00246555
0.0025753
0.00264341
0.00265336
0.00258604
0.00234816
0.00197511
0.00156195
0.00122603
0.00115042
0.000929459
0.000717454
0.000743255
0.00075174
0.00307097
0.00951774
0.00438032
0.00270461
0.00354157
0.00407992
0.00433687
0.00447061
0.00451529
0.00450439
0.00447923
0.00451825
0.00457004
0.00459702
0.00456409
0.00444208
0.0042077
0.00381307
0.00322404
0.00255348
0.00196295
0.00156993
0.00159026
0.00187982
0.00215039
0.00241512
0.00263366
0.00282201
0.00296793
0.00305732
0.00307918
0.00299132
0.00272609
0.0023126
0.00186029
0.00146666
0.0011668
0.00118551
0.00173679
0.000971365
0.00351012
0.0114397
0.00800039
0.00450537
0.00320236
0.00320248
0.00369141
0.00416796
0.00448701
0.0044963
0.0044466
0.00449022
0.00454133
0.00457299
0.00455936
0.00447191
0.0042825
0.00393783
0.00340406
0.00274564
0.00206618
0.0015088
0.00148054
0.0018014
0.00206983
0.00230925
0.00253762
0.00275471
0.00294466
0.00309082
0.00319951
0.00327075
0.00316131
0.00283708
0.00241957
0.00200174
0.00164759
0.00152917
0.00193664
0.00118721
0.00361143
0.0113336
0.00955653
0.00802347
0.006048
0.0046212
0.00403156
0.00401782
0.00426212
0.00439554
0.00440877
0.00441469
0.00442547
0.0044251
0.00439059
0.00430049
0.00413453
0.00386131
0.00345563
0.00292842
0.00225175
0.00149897
0.00137455
0.00172969
0.00201835
0.0022467
0.00245236
0.00264146
0.00281302
0.00297145
0.00313338
0.00331933
0.00350404
0.00337722
0.0030864
0.00288322
0.0028695
0.00296273
0.00378634
0.00163276
0.00352313
0.00423353
0.00498142
0.00532267
0.00533731
0.00501445
0.0046376
0.00436849
0.00423939
0.00418138
0.00417929
0.00419979
0.00421227
0.0041934
0.00412741
0.00400552
0.00382321
0.0035753
0.00325884
0.00287753
0.00238773
0.00148908
0.00124044
0.00161961
0.00193216
0.00214806
0.00231553
0.00244972
0.00255304
0.0026271
0.0026729
0.00268779
0.00266461
0.00260858
0.00255455
0.00253871
0.00251933
0.0024419
0.0023262
0.00159213
0.00335155
0.00632475
0.00582564
0.00548471
0.0051656
0.00489515
0.00469083
0.00453823
0.00440465
0.00427777
0.00414278
0.00398756
0.00380503
0.0035934
0.00335505
0.00309515
0.00282251
0.00254504
0.00220068
0.00141401
0.00104373
0.00140127
0.00172229
0.00193077
0.00207574
0.00218197
0.00225606
0.00230265
0.002329
0.00234617
0.00236756
0.00239166
0.0023976
0.00237256
0.00227744
0.00208056
0.00181392
0.00128115
0.00310805
0.00688182
0.00629413
0.00583907
0.00547913
0.00516202
0.00486562
0.00459309
0.00433725
0.00403427
0.003716
0.00339919
0.00309245
0.0027996
0.0025221
0.00226142
0.00202216
0.00181127
0.00158332
0.00109939
0.000790728
0.0010124
0.00123589
0.00141574
0.00157287
0.00172291
0.00187027
0.0020142
0.00214994
0.00226717
0.00236737
0.00246121
0.00253531
0.00256502
0.00254563
0.00249032
0.00219503
0.00129036
0.00244379
0.00264988
0.00282845
0.00298814
0.00277315
0.00258845
0.0023634
0.00217974
0.00201218
0.00185725
0.0017127
0.00158987
0.00147841
0.00137285
0.00127009
0.00116838
0.00106692
0.000965838
0.000866449
0.000771789
0.000685756
0.000611896
0.000584725
0.000641529
0.000694429
0.000745484
0.000795498
0.000845161
0.000895137
0.000946379
0.00100045
0.00106014
0.00112637
0.00119631
0.00126986
0.00134548
0.00143023
0.0014091
0.00129472
0.00119312
)
;

boundaryField
{
    floor
    {
        type            compressible::alphatWallFunction;
        Prt             0.85;
        value           nonuniform List<scalar> 
36
(
0.00013389
6.9515e-05
9.00559e-05
9.71019e-05
9.93572e-05
9.85346e-05
9.46576e-05
9.03866e-05
8.64394e-05
8.28667e-05
7.95386e-05
7.63813e-05
7.33427e-05
7.03722e-05
6.73968e-05
6.43131e-05
6.09162e-05
5.77085e-05
5.15437e-05
5.1543e-05
6.37172e-05
7.33158e-05
8.46001e-05
0.000101749
0.000105521
0.000106762
0.000133888
0.000139348
0.000132462
0.000117231
6.95141e-05
0.00011723
9.58102e-05
0.000149503
0.000120414
0.000155576
)
;
    }
    ceiling
    {
        type            compressible::alphatWallFunction;
        Prt             0.85;
        value           nonuniform List<scalar> 
43
(
0.000334238
0.000360399
0.000382895
0.000403003
0.000376094
0.000352791
0.000324143
0.000300545
0.000278825
0.000258568
0.0002395
0.000223157
0.000208206
0.000193929
0.000179912
0.00016591
0.000151802
0.000137591
0.000123447
0.000109796
9.72146e-05
8.62594e-05
8.21981e-05
9.06794e-05
9.84954e-05
0.000105971
0.000113235
0.000120394
0.000127548
0.000134835
0.000142475
0.000150853
0.000160084
0.000169766
0.000179878
0.000190205
0.000201702
0.000198843
0.000183282
0.000169329
0.000469419
0.000555761
0.000417705
)
;
    }
    sWall
    {
        type            compressible::alphatWallFunction;
        Prt             0.85;
        value           uniform 0.000333025;
    }
    nWall
    {
        type            compressible::alphatWallFunction;
        Prt             0.85;
        value           nonuniform List<scalar> 6(0.000106557 0.000138031 0.000168157 0.000181086 0.000182345 0.000168991);
    }
    sideWalls
    {
        type            empty;
    }
    glass1
    {
        type            compressible::alphatWallFunction;
        Prt             0.85;
        value           nonuniform List<scalar> 9(0.000107987 0.00017522 0.000234435 0.00029302 0.00035034 0.000406811 0.000460772 0.000473251 0.0004627);
    }
    glass2
    {
        type            compressible::alphatWallFunction;
        Prt             0.85;
        value           nonuniform List<scalar> 2(0.00022703 0.000221695);
    }
    sun
    {
        type            compressible::alphatWallFunction;
        Prt             0.85;
        value           nonuniform List<scalar> 
14
(
0.000111136
0.000114681
0.000110271
0.000114049
0.000117464
0.000120416
0.00012299
0.000125299
0.00012746
0.00012962
0.000131418
0.000132634
0.000133302
0.000133699
)
;
    }
    Table_master
    {
        type            compressible::alphatWallFunction;
        Prt             0.85;
        value           nonuniform List<scalar> 9(9.98676e-05 8.78182e-05 7.83308e-05 7.20189e-05 6.77501e-05 6.45255e-05 6.18891e-05 5.97918e-05 5.85996e-05);
    }
    Table_slave
    {
        type            compressible::alphatWallFunction;
        Prt             0.85;
        value           nonuniform List<scalar> 9(9.60342e-05 9.69886e-05 9.88504e-05 0.000100695 0.000101837 0.000101618 9.94447e-05 9.62625e-05 9.24313e-05);
    }
    inlet
    {
        type            fixedValue;
        value           uniform 1.94e-05;
    }
    outlet
    {
        type            zeroGradient;
    }
}


// ************************************************************************* //
