/*--------------------------------*- C++ -*----------------------------------*\
  =========                 |
  \\      /  F ield         | OpenFOAM: The Open Source CFD Toolbox
   \\    /   O peration     | Website:  https://openfoam.org
    \\  /    A nd           | Version:  6
     \\/     M anipulation  |
\*---------------------------------------------------------------------------*/
FoamFile
{
    version     2.0;
    format      ascii;
    class       volScalarField;
    location    "2600";
    object      epsilon;
}
// * * * * * * * * * * * * * * * * * * * * * * * * * * * * * * * * * * * * * //

dimensions      [0 2 -3 0 0 0 0];

internalField   nonuniform List<scalar> 
458
(
0.000335726
0.000429538
0.000445246
0.000510875
0.000576911
0.000642666
0.000709936
0.000781975
0.000853425
0.000907414
0.000932214
0.000917543
0.000861205
0.00077518
0.000679446
3.06192e-05
6.33785e-05
8.68294e-05
8.27112e-05
7.44874e-05
6.30283e-05
5.23718e-05
4.37365e-05
3.68906e-05
3.14324e-05
2.70523e-05
2.35027e-05
2.05537e-05
1.802e-05
1.57322e-05
1.34954e-05
1.14727e-05
8.28106e-06
0.000907234
0.00139094
0.000407459
0.000389675
0.000406239
0.000429894
0.00046141
0.00050519
0.000559712
0.00061176
0.000646339
0.000649393
0.000616099
0.0005634
0.000555924
0.000759949
0.000375665
0.00015203
4.4771e-05
0.000108935
0.000105607
9.17248e-05
7.75363e-05
7.02245e-05
5.63428e-05
4.45231e-05
3.53824e-05
2.83918e-05
2.3045e-05
1.8959e-05
1.58047e-05
1.34807e-05
1.22268e-05
1.19169e-05
2.00281e-05
1.51694e-05
0.00173212
0.00365538
0.000541123
0.000374703
0.000384768
0.000419907
0.000469648
0.00053685
0.000618919
0.000697627
0.000750793
0.000762975
0.000730783
0.000668895
0.000608279
0.000553019
0.000420318
0.000505325
0.000373549
0.000235719
0.000164688
0.000121068
9.66583e-05
0.000164968
0.000115699
8.3362e-05
6.19704e-05
4.74975e-05
3.74519e-05
3.03283e-05
2.52105e-05
2.15818e-05
1.6704e-05
1.41208e-05
2.92411e-05
2.13201e-05
0.00292301
0.00783749
0.000944975
0.000391753
0.000376575
0.000422535
0.000492836
0.000593286
0.000716933
0.000824528
0.000887521
0.000897129
0.000855063
0.000776257
0.000681721
0.000579227
0.000478965
0.000475927
0.000896435
0.000480637
0.000277456
0.000179821
0.00012698
0.0001012
0.000210984
0.000161096
0.000132741
0.000114777
0.000101526
8.96919e-05
7.91492e-05
6.90424e-05
5.82705e-05
3.63275e-05
2.36558e-05
3.8777e-05
2.86394e-05
0.00462217
0.0141107
0.00203678
0.000516987
0.000404843
0.00044534
0.00053811
0.000708358
0.000899769
0.00102936
0.00108398
0.00107397
0.00100656
0.000895718
0.000756534
0.000605999
0.000465749
0.000363707
0.000311963
0.000246043
0.000187147
0.000141874
0.000109417
8.78233e-05
8.12676e-05
7.58141e-05
7.22683e-05
6.92073e-05
6.55583e-05
6.06404e-05
5.49455e-05
4.9291e-05
4.39364e-05
3.62434e-05
2.81906e-05
3.268e-05
3.68379e-05
4.51421e-05
5.29561e-05
6.02236e-05
0.00702772
0.0209129
0.00481354
0.00118617
0.000716026
0.00066829
0.000761461
0.00106401
0.00128103
0.00137117
0.00137429
0.00131825
0.00121097
0.00105612
0.000865433
0.000662706
0.000479577
0.000342734
0.000256673
0.00020136
0.000159152
0.000125523
0.000100857
8.48382e-05
7.79005e-05
7.71123e-05
7.84226e-05
7.92933e-05
7.83925e-05
7.45996e-05
6.6893e-05
5.76332e-05
4.85488e-05
4.02078e-05
3.34747e-05
3.1479e-05
3.30635e-05
4.89221e-05
0.000246223
0.000146427
0.00983505
0.024915
0.0100885
0.00419538
0.00264424
0.00203973
0.00195866
0.0020477
0.00202663
0.00193182
0.00180719
0.00166128
0.00148172
0.00125908
0.00100207
0.000740288
0.000511166
0.000344079
0.000241408
0.000181955
0.000143803
0.000116887
9.93335e-05
9.01043e-05
8.82747e-05
9.14212e-05
9.62159e-05
0.000100843
0.000104272
0.000105118
0.000101487
9.00396e-05
7.7592e-05
6.66431e-05
5.96606e-05
5.84573e-05
6.43051e-05
9.27421e-05
0.000376759
0.000264017
0.0104331
0.0270762
0.0154248
0.0112801
0.00838649
0.00629109
0.00490729
0.00389061
0.00318836
0.00271731
0.00238356
0.00210234
0.00181273
0.0014882
0.00113828
0.000802982
0.000522623
0.00032967
0.000220413
0.000162992
0.000134163
0.000117325
0.000108495
0.000105524
0.000106969
0.000111556
0.000118174
0.000126494
0.000136626
0.000148598
0.000161908
0.000173722
0.000177685
0.000188132
0.000215193
0.000285474
0.000445118
0.00068556
0.00252882
0.000702729
0.00959828
0.0158942
0.013454
0.0102435
0.00791639
0.00624261
0.0050585
0.00425029
0.00371436
0.00332188
0.00296825
0.00258628
0.0021492
0.00166929
0.00118639
0.000771781
0.000454026
0.000274792
0.000196874
0.000161541
0.00014512
0.000137224
0.000133715
0.000132488
0.000132826
0.000134854
0.000139194
0.000146905
0.000159269
0.000177676
0.000203678
0.000239106
0.000287069
0.000356602
0.000464481
0.000621403
0.000822258
0.00103426
0.00123156
0.000682361
0.00349605
0.00861457
0.00754261
0.00672918
0.00619127
0.00569572
0.00508385
0.00436676
0.00361152
0.00285309
0.00212061
0.00144832
0.000844834
0.00049746
0.000322005
0.000244742
0.000215856
0.000207433
0.000205021
0.00020319
0.000199984
0.000194103
0.000185487
0.000175181
0.0001651
0.000157695
0.000155556
0.000161189
0.000177167
0.000205752
0.000249195
0.000311646
0.000398399
0.000508517
0.000622821
0.000698848
0.000709987
0.000452314
0.0025718
0.0065903
0.00653229
0.00565629
0.00537196
0.00497025
0.00434962
0.00358006
0.00282247
0.00212096
0.00151733
0.00104493
0.000715065
0.000535943
0.000458617
0.000438484
0.000443601
0.000453997
0.000461572
0.000463063
0.000457907
0.000443679
0.000419486
0.000386693
0.000348899
0.000311147
0.00027859
0.000255383
0.000244361
0.000249008
0.000271212
0.000313094
0.00037598
0.000454746
0.000537911
0.00061114
0.000691479
0.000492114
0.00164863
0.00208092
0.00242945
0.00314044
0.00313425
0.0030215
0.00280375
0.00243732
0.00203924
0.00170666
0.00142355
0.00115144
0.000898676
0.000685132
0.000523373
0.000416359
0.000352298
0.000315377
0.000292968
0.000277894
0.000266527
0.000256507
0.000244774
0.000231496
0.000217743
0.000205175
0.00019559
0.000190527
0.000191121
0.000198295
0.000213278
0.000234408
0.000261958
0.00029732
0.000341862
0.000394315
0.000452816
0.000437161
0.000355395
0.000293749
)
;

boundaryField
{
    floor
    {
        Cmu             0.09;
        kappa           0.41;
        E               9.8;
        type            epsilonWallFunction;
        value           nonuniform List<scalar> 
36
(
0.000679446
3.06192e-05
6.33785e-05
8.68294e-05
8.27112e-05
7.44874e-05
6.30283e-05
5.23718e-05
4.37365e-05
3.68906e-05
3.14324e-05
2.70523e-05
2.35027e-05
2.05537e-05
1.802e-05
1.57322e-05
1.34954e-05
1.14727e-05
8.28106e-06
8.28106e-06
1.51694e-05
2.13201e-05
2.86394e-05
4.51421e-05
5.29561e-05
6.02236e-05
0.000679446
0.000759949
0.000375665
0.00015203
3.06192e-05
0.00015203
4.4771e-05
0.000505325
0.000373549
0.000896435
)
;
    }
    ceiling
    {
        Cmu             0.09;
        kappa           0.41;
        E               9.8;
        type            epsilonWallFunction;
        value           nonuniform List<scalar> 
43
(
0.00164863
0.00208092
0.00242945
0.00314044
0.00313425
0.0030215
0.00280375
0.00243732
0.00203924
0.00170666
0.00142355
0.00115144
0.000898676
0.000685132
0.000523373
0.000416359
0.000352298
0.000315377
0.000292968
0.000277894
0.000266527
0.000256507
0.000244774
0.000231496
0.000217743
0.000205175
0.00019559
0.000190527
0.000191121
0.000198295
0.000213278
0.000234408
0.000261958
0.00029732
0.000341862
0.000394315
0.000452816
0.000437161
0.000355395
0.000293749
0.00959828
0.0158942
0.0025718
)
;
    }
    sWall
    {
        Cmu             0.09;
        kappa           0.41;
        E               9.8;
        type            epsilonWallFunction;
        value           uniform 0.00164863;
    }
    nWall
    {
        Cmu             0.09;
        kappa           0.41;
        E               9.8;
        type            epsilonWallFunction;
        value           nonuniform List<scalar> 6(6.02236e-05 0.000146427 0.000264017 0.000452314 0.000492114 0.000293749);
    }
    sideWalls
    {
        type            empty;
    }
    glass1
    {
        Cmu             0.09;
        kappa           0.41;
        E               9.8;
        type            epsilonWallFunction;
        value           nonuniform List<scalar> 9(0.000335726 0.000907234 0.00173212 0.00292301 0.00462217 0.00702772 0.00983505 0.0104331 0.00959828);
    }
    glass2
    {
        Cmu             0.09;
        kappa           0.41;
        E               9.8;
        type            epsilonWallFunction;
        value           nonuniform List<scalar> 2(0.000702729 0.000682361);
    }
    sun
    {
        Cmu             0.09;
        kappa           0.41;
        E               9.8;
        type            epsilonWallFunction;
        value           nonuniform List<scalar> 
14
(
0.000335726
0.000429538
0.000445246
0.000510875
0.000576911
0.000642666
0.000709936
0.000781975
0.000853425
0.000907414
0.000932214
0.000917543
0.000861205
0.00077518
)
;
    }
    Table_master
    {
        Cmu             0.09;
        kappa           0.41;
        E               9.8;
        type            epsilonWallFunction;
        value           nonuniform List<scalar> 9(0.000164968 0.000115699 8.3362e-05 6.19704e-05 4.74975e-05 3.74519e-05 3.03283e-05 2.52105e-05 2.15818e-05);
    }
    Table_slave
    {
        Cmu             0.09;
        kappa           0.41;
        E               9.8;
        type            epsilonWallFunction;
        value           nonuniform List<scalar> 9(0.000210984 0.000161096 0.000132741 0.000114777 0.000101526 8.96919e-05 7.91492e-05 6.90424e-05 5.82705e-05);
    }
    inlet
    {
        type            turbulentMixingLengthDissipationRateInlet;
        mixingLength    0.01;
        phi             phi;
        k               k;
        value           uniform 0.000101881;
    }
    outlet
    {
        type            zeroGradient;
    }
}


// ************************************************************************* //
