/*--------------------------------*- C++ -*----------------------------------*\
  =========                 |
  \\      /  F ield         | OpenFOAM: The Open Source CFD Toolbox
   \\    /   O peration     | Website:  https://openfoam.org
    \\  /    A nd           | Version:  6
     \\/     M anipulation  |
\*---------------------------------------------------------------------------*/
FoamFile
{
    version     2.0;
    format      ascii;
    class       surfaceScalarField;
    location    "200";
    object      phi;
}
// * * * * * * * * * * * * * * * * * * * * * * * * * * * * * * * * * * * * * //

dimensions      [1 0 -1 0 0 0 0];

internalField   nonuniform List<scalar> 
850
(
-0.0025871
0.00266017
-0.00272755
0.0001406
-0.00298441
0.000257018
-0.00330972
0.000325458
-0.00362689
0.000317331
-0.00389972
0.000272972
-0.00410428
0.000204719
-0.00421951
0.000115375
-0.00422436
5.00234e-06
-0.00409509
-0.000129127
-0.00380961
-0.000285322
-0.00335289
-0.000456579
-0.00269192
-0.000660824
-0.00168184
-0.00100993
-0.00167798
-0.000340261
0.000346621
1.34999e-05
-0.000353594
0.000448021
-0.000434351
0.000619097
-0.000170906
0.000381739
0.000237524
-0.000222011
0.0006038
-0.000496313
0.000274358
-0.000587459
9.12251e-05
-0.000575422
-1.19451e-05
-0.000494884
-8.04386e-05
-0.000369255
-0.000125526
-0.000185887
-0.000183259
0.000115244
-0.000301013
0.000489415
-0.000374051
0.000704726
-0.000215192
0.000864008
-0.000159173
0.000860015
4.0799e-06
0.000868051
-0.00189436
0.00474184
-0.00248737
0.000733763
-0.00294606
0.000715855
-0.00333508
0.000714633
-0.0036843
0.000666703
-0.00398314
0.000571955
-0.00421589
0.00043762
-0.00436573
0.000265367
-0.00441603
5.5445e-05
-0.00435443
-0.000190575
-0.00417115
-0.000468462
-0.00385418
-0.000773397
-0.00339714
-0.00111772
-0.00289791
-0.00150902
-0.00283286
-0.00174288
-0.00121913
-0.00160666
0.000390316
-0.00160209
0.000412297
0.000901996
-0.000541092
0.00068377
-0.000135209
0.000437246
-0.000187667
0.000590702
-0.000324201
0.000749401
7.89837e-05
0.000701916
0.000651412
0.000620189
0.000356214
0.000574116
0.000137428
0.000505047
5.72507e-05
0.00042733
-2.59552e-06
0.000374374
-7.24431e-05
0.000348258
-0.00015701
0.000329915
-0.00028253
0.000362786
-0.00040678
0.000396846
-0.000249132
0.000544239
-0.000306477
0.00046474
8.36485e-05
0.00135068
-0.00141069
0.00642919
-0.0021845
0.00150772
-0.00271784
0.00124935
-0.00312645
0.00112339
-0.00348363
0.00102403
-0.00379179
0.000880258
-0.00404099
0.000686972
-0.00421817
0.000442692
-0.00431017
0.000147594
-0.00430799
-0.000192616
-0.00421023
-0.000566077
-0.00402676
-0.000956717
-0.00379492
-0.00134942
-0.00359961
-0.00170419
-0.00342825
-0.0019141
-0.0030461
-0.00198867
-0.00255644
-0.00209161
-0.0021272
-0.000978298
0.000455978
-0.00115475
4.13953e-05
-0.00107096
-0.000271313
-0.000813608
-0.000581401
0.000160647
-0.000895127
0.00081238
0.00116892
0.00130667
0.00136424
0.00136197
0.00128985
0.00113317
0.000850964
0.000444498
0.000540876
-0.000345434
-6.39881e-05
0.000298434
-0.000658476
0.000678166
0.000718731
-0.00105913
0.00783756
-0.00188488
0.00233361
-0.00237414
0.00173876
-0.002753
0.00150239
-0.00308285
0.00135403
-0.00336911
0.00116666
-0.00360639
0.000924404
-0.00378459
0.000621033
-0.00389134
0.000254487
-0.00391625
-0.000167565
-0.003864
-0.000618186
-0.0037639
-0.00105667
-0.00366609
-0.00144709
-0.00362043
-0.0017497
-0.00360989
-0.0019245
-0.00360592
-0.0019925
-0.00373873
-0.00195866
-0.00437625
-0.00148954
-0.00357579
-0.000781844
-0.00282611
-0.000293564
-0.00253829
-0.000246289
-0.00238253
-0.000426933
-0.00235354
-0.000610254
-0.00259808
-0.000650453
-0.00213665
-0.00046145
-0.00171213
-0.000424542
-0.00124578
-0.000466365
-0.000694411
-0.000551395
-2.73545e-05
-0.00066708
0.000738579
-0.000765958
0.00152095
-0.000782397
0.00223395
-0.000713024
0.0027357
-0.000501778
0.00248389
-9.35017e-05
0.00211122
0.000671214
0.00142744
0.00136204
0.0021722
-0.000790639
0.00903889
-0.00161489
0.00315801
-0.00195764
0.00208165
-0.00226241
0.00180731
-0.00253187
0.00162363
-0.00276156
0.0013965
-0.00294966
0.00111265
-0.00309047
0.000761989
-0.00317311
0.000337268
-0.00318353
-0.000157003
-0.00312944
-0.000672135
-0.00305308
-0.0011329
-0.00300135
-0.00149867
-0.00300145
-0.00174946
-0.00304491
-0.00188091
-0.00313098
-0.00190628
-0.00329598
-0.00179352
-0.00335641
-0.00142897
-0.00316338
-0.000974734
-0.00279733
-0.000659483
-0.00247905
-0.000564433
-0.0022844
-0.00062145
-0.00218852
-0.000705999
-0.00211076
-0.000728077
-0.00187104
-0.000701036
-0.0015657
-0.00072975
-0.00121013
-0.000821796
-0.000794368
-0.000967028
-0.000312412
-0.00114891
0.000238638
-0.00131688
0.00084781
-0.00139144
0.00146098
-0.00132607
0.00200155
-0.00104222
0.00234114
-0.000432967
0.00253765
0.000474827
0.00263873
0.00126107
0.00349912
0.00131193
0.00305239
0.00047172
0.00235122
0.000727189
0.00244303
-0.000729325
0.0102325
-0.00148944
0.00391827
-0.00148811
0.00208046
-0.0016442
0.00196355
-0.00184384
0.00182341
-0.00199617
0.00154897
-0.0020983
0.00121492
-0.0021577
0.00082153
-0.00217116
0.000350861
-0.00212656
-0.00020146
-0.00204277
-0.000755791
-0.00197064
-0.00120489
-0.00194658
-0.0015226
-0.0019825
-0.0017134
-0.0020708
-0.00179247
-0.00220353
-0.00177342
-0.00235544
-0.00164148
-0.00240677
-0.0013775
-0.00231606
-0.00106531
-0.00213593
-0.000839475
-0.00195934
-0.000740891
-0.00183981
-0.000740842
-0.00176896
-0.000776726
-0.00169276
-0.000804138
-0.0015628
-0.000830864
-0.00139138
-0.000901041
-0.00118682
-0.00102623
-0.000949412
-0.0012043
-0.00068076
-0.00141743
-0.000374029
-0.00162348
-1.11425e-06
-0.00176423
0.000439296
-0.00176635
0.00093688
-0.00153968
0.00150877
-0.00100474
0.00210383
-0.000120109
0.00268395
0.000681075
0.00315448
0.000841525
0.00289655
0.000729768
0.00192995
0.00169391
0.00444082
-0.000975829
0.011721
-0.00123095
0.00417353
-0.000639075
0.00148873
-0.000629119
0.00195374
-0.000847283
0.00204172
-0.000975312
0.00167714
-0.00098666
0.0012264
-0.000931974
0.00076698
-0.000823023
0.000242046
-0.000693398
-0.000330948
-0.000588042
-0.000861011
-0.000545553
-0.00124724
-0.000577904
-0.00149011
-0.000678487
-0.00161268
-0.000831699
-0.00163912
-0.00101712
-0.00158786
-0.0011959
-0.00146256
-0.00130721
-0.00126606
-0.00132375
-0.00104864
-0.00128157
-0.000881522
-0.00122998
-0.000792352
-0.00120073
-0.00076996
-0.00119406
-0.000783263
-0.0011891
-0.000808971
-0.00117061
-0.000849233
-0.00114574
-0.000925774
-0.00112221
-0.00104963
-0.00110389
-0.0012225
-0.00109138
-0.00142981
-0.00107513
-0.0016396
-0.0010304
-0.00180883
-0.000919794
-0.00187683
-0.000698148
-0.0017612
-0.000308264
-0.0013945
0.000350087
-0.00077834
0.00114627
-0.00011498
0.00184116
0.000146752
0.00227896
0.000292094
0.00186546
0.00210753
0.00637683
0.00203146
0.010262
0.00245685
0.00374827
0.00228308
0.00166264
0.00182464
0.00241232
0.00130612
0.00256038
0.000989216
0.00199418
0.000898752
0.00131701
0.000950549
0.00071532
0.00110149
9.12425e-05
0.0012498
-0.000479123
0.00128079
-0.000891871
0.00120326
-0.00116958
0.00104612
-0.00133283
0.00083357
-0.0014
0.000584902
-0.00139032
0.000319971
-0.0013228
6.92689e-05
-0.00121173
-0.000126831
-0.00106982
-0.000249607
-0.000925735
-0.000320587
-0.000810413
-0.000371598
-0.000741213
-0.000425391
-0.00071604
-0.000489255
-0.000719274
-0.000561924
-0.000736177
-0.000646745
-0.000764288
-0.000757701
-0.000814694
-0.000910217
-0.000896992
-0.001118
-0.00101459
-0.00139391
-0.00115376
-0.00174162
-0.00129176
-0.00213795
-0.00141238
-0.00252677
-0.00148789
-0.00283611
-0.00145174
-0.0030063
-0.00122419
-0.00303042
-0.0007541
-0.00303129
-0.000113996
-0.00331327
0.000428851
-0.0038248
0.000803728
-0.00346459
0.00174743
0.00332049
0.0109033
0.0146536
0.0120398
0.00427653
0.00955626
0.00489604
0.00764811
0.00446866
0.00632081
0.00332162
0.00543869
0.00219926
0.00488299
0.00127116
0.00443602
0.000538352
0.00399336
-3.63238e-05
0.00357035
-0.000468733
0.00316308
-0.000762166
0.00276585
-0.000935473
0.00237773
-0.00101174
0.00200266
-0.00101512
0.00164805
-0.000968057
0.00132649
-0.000890042
0.00105511
-0.000798309
0.000840783
-0.000711283
0.000675205
-0.000644708
0.000540698
-0.00060658
0.000419537
-0.000594755
0.000299617
-0.00059923
0.000171647
-0.000608085
2.10538e-05
-0.000613575
-0.000172921
-0.000620601
-0.000429997
-0.000639796
-0.00077357
-0.000670896
-0.00124866
-0.000678544
-0.00191816
-0.000622145
-0.00281453
-0.000515879
-0.00390046
-0.000401834
-0.00510129
-0.000250793
-0.00631074
-1.46235e-05
-0.00744076
0.000376044
-0.00850064
0.000945998
-0.00968886
0.00161718
-0.0108906
0.00200557
-0.00930585
0.000162807
-0.00554744
0.00400496
0.0046102
0.00423386
0.00466724
0.00517057
0.00353207
0.00550377
0.00298854
0.00553684
0.00216632
0.00548099
0.00132713
0.00535842
0.00066105
0.00513627
0.000185957
0.00479931
-0.000131644
0.00439022
-0.000352949
0.0039498
-0.000494921
0.00350868
-0.000570495
0.00308842
-0.000594733
0.00270232
-0.000581824
0.00235775
-0.000545351
0.00205887
-0.000499298
0.0018056
-0.000457884
0.00159289
-0.000431877
0.00141105
-0.000424615
0.00124824
-0.00043183
0.00109382
-0.000444681
0.000938538
-0.000452688
0.000770989
-0.000445908
0.00057522
-0.000424716
0.000348381
-0.000412843
0.000109656
-0.000432054
-0.000143738
-0.000425032
-0.000458894
-0.000306867
-0.000876838
-9.78141e-05
-0.00130805
2.94988e-05
-0.00171886
0.000160139
-0.00215373
0.000420371
-0.00260587
0.000828315
-0.0029228
0.00126305
-0.0027216
0.0014161
-0.00134851
0.00063261
0.000169294
-0.00135486
-0.00528539
-0.000917729
0.00556417
0.00122957
0.00252003
0.00252537
0.00223637
0.00349893
0.00201509
0.00426292
0.00140245
0.00472616
0.000864011
0.00492061
0.00046672
0.00490964
0.000197054
0.0047605
1.76195e-05
0.00452504
-0.00011737
0.00423546
-0.000205209
0.00392135
-0.000256261
0.00360571
-0.000278979
0.00330519
-0.000281174
0.00303063
-0.000270669
0.00278703
-0.000255574
0.002573
-0.000243736
0.00238161
-0.000240368
0.00220299
-0.000245873
0.00202785
-0.000256569
0.00185044
-0.000267154
0.00166944
-0.000271569
0.00148578
-0.000262131
0.00129909
-0.000237908
0.00111158
-0.000225226
0.00093509
-0.000255448
0.000783435
-0.000273262
0.000664448
-0.000187766
0.000520219
4.6523e-05
0.000368221
0.000181603
0.000283205
0.000245264
0.000309049
0.000394642
0.000499992
0.000637494
0.000924296
0.000838871
0.00155282
0.000787705
0.00195985
0.000225717
0.00164458
-0.00103946
-0.00353962
-0.00835219
-0.0107004
-0.00510131
-0.00255703
-0.000298532
0.00173801
0.00316254
0.00404958
0.00454047
0.00476293
0.00480725
0.00471781
0.00454171
0.00431574
0.00406819
0.00381953
0.00358235
0.00336108
0.0031522
0.00294698
0.00273632
0.00251487
0.00228269
0.00204597
0.00181857
0.00161527
0.00142452
0.00120336
0.000964044
0.000809632
0.000888635
0.00110172
0.00137756
0.00180144
0.00246664
0.00333207
0.00414603
0.00439894
0.0033883
)
;

boundaryField
{
    floor
    {
        type            calculated;
        value           nonuniform List<scalar> 
36
(
0
0
0
0
0
0
0
0
0
0
0
0
0
0
0
0
0
0
0
-7.96902e-06
-1.78257e-05
-2.64816e-05
-2.59226e-05
-2.48724e-05
-2.58994e-05
-2.75284e-05
-3.71028e-06
-6.92204e-06
-7.21294e-06
-8.70221e-06
-6.19198e-06
-1.31308e-05
-1.41247e-05
-1.67987e-05
-1.86174e-05
-1.84752e-05
)
;
    }
    ceiling
    {
        type            calculated;
        value           nonuniform List<scalar> 
43
(
-3.79019e-05
-3.6382e-05
-3.48597e-05
-2.41561e-05
-2.2014e-05
-2.13392e-05
-2.19604e-05
-2.29151e-05
-2.40509e-05
-2.52876e-05
-2.65815e-05
-2.78091e-05
-2.89998e-05
-3.01694e-05
-3.13109e-05
-3.23959e-05
-3.33744e-05
-3.41783e-05
-3.47411e-05
-3.50334e-05
-3.50906e-05
-3.50015e-05
-3.48613e-05
-3.47302e-05
-3.46174e-05
-3.44999e-05
-3.43608e-05
-3.4176e-05
-3.3833e-05
-3.32497e-05
-3.23822e-05
-3.13979e-05
-3.04887e-05
-2.91565e-05
-2.76122e-05
-2.64533e-05
-2.61454e-05
-2.70692e-05
-2.87066e-05
-3.08057e-05
-1.39713e-07
-1.86361e-06
-3.61964e-05
)
;
    }
    sWall
    {
        type            calculated;
        value           uniform -0.000231649;
    }
    nWall
    {
        type            calculated;
        value           nonuniform List<scalar> 6(-6.41769e-05 -6.77209e-05 -7.04467e-05 -9.26278e-05 -0.000101063 -0.000120382);
    }
    sideWalls
    {
        type            empty;
        value           nonuniform 0();
    }
    glass1
    {
        type            calculated;
        value           nonuniform List<scalar> 9(-7.29237e-05 -0.000187163 -0.000276508 -0.0003491 -0.000410554 -0.000464132 -0.000512598 -0.000572288 -0.000641095);
    }
    glass2
    {
        type            calculated;
        value           nonuniform List<scalar> 2(-0.000408145 -0.000437794);
    }
    sun
    {
        type            calculated;
        value           uniform 0;
    }
    Table_master
    {
        type            calculated;
        value           nonuniform List<scalar> 9(-1.56177e-07 -1.56204e-07 -1.56233e-07 -1.56272e-07 -1.5632e-07 -1.56371e-07 -1.56447e-07 -1.56554e-07 -1.5666e-07);
    }
    Table_slave
    {
        type            calculated;
        value           nonuniform List<scalar> 9(1.55063e-07 1.5522e-07 1.5535e-07 1.55491e-07 1.55658e-07 1.55619e-07 1.55363e-07 1.5513e-07 1.54972e-07);
    }
    inlet
    {
        type            calculated;
        value           uniform -0.0043386;
    }
    outlet
    {
        type            calculated;
        value           nonuniform List<scalar> 2(0.00862181 0.00238467);
    }
}


// ************************************************************************* //
