/*--------------------------------*- C++ -*----------------------------------*\
  =========                 |
  \\      /  F ield         | OpenFOAM: The Open Source CFD Toolbox
   \\    /   O peration     | Website:  https://openfoam.org
    \\  /    A nd           | Version:  6
     \\/     M anipulation  |
\*---------------------------------------------------------------------------*/
FoamFile
{
    version     2.0;
    format      ascii;
    class       volScalarField;
    location    "2500";
    object      k;
}
// * * * * * * * * * * * * * * * * * * * * * * * * * * * * * * * * * * * * * //

dimensions      [0 2 -2 0 0 0 0];

internalField   nonuniform List<scalar> 
458
(
0.00368214
0.00456587
0.00486244
0.0054742
0.00622204
0.00680418
0.00709378
0.00705541
0.00629933
0.00558486
0.00487682
0.00416614
0.00350129
0.00291573
0.00232604
0.000837884
0.00115311
0.00159875
0.00193221
0.00195602
0.00173281
0.00149198
0.00129191
0.00113106
0.00100085
0.000894391
0.000806013
0.000731475
0.000666719
0.000607368
0.000548491
0.000487144
0.000398813
0.00645098
0.0122262
0.00823955
0.00898528
0.0102997
0.0113907
0.0118701
0.0117741
0.0108367
0.00961813
0.00834871
0.00713497
0.00596852
0.00484035
0.00358744
0.00304763
0.0024623
0.00180629
0.000759918
0.00160357
0.00253775
0.00312465
0.00331534
0.00285638
0.00232352
0.00189746
0.00157631
0.00133253
0.00114528
0.000999205
0.000878495
0.000769909
0.000684891
0.00062971
0.000703136
0.000480308
0.00940509
0.0217535
0.0110798
0.0109159
0.0122897
0.0129908
0.0129838
0.0125946
0.0118064
0.0106886
0.00938776
0.00812163
0.00696205
0.00583047
0.00469573
0.00386923
0.0033164
0.00224043
0.00107514
0.00199711
0.00290879
0.00358239
0.00380585
0.00297152
0.00224662
0.00171594
0.00133742
0.0010663
0.000869496
0.000724483
0.000620058
0.000554264
0.000525559
0.000536308
0.000810868
0.000535375
0.0128198
0.0348185
0.0161092
0.014035
0.0148585
0.0144705
0.013788
0.013205
0.0124348
0.0112684
0.00985448
0.00847306
0.0072672
0.00619226
0.00520177
0.00436053
0.00369757
0.00290551
0.0026716
0.00275266
0.00338921
0.00415877
0.0047
0.00478503
0.00387231
0.00322944
0.00277604
0.00242555
0.00214585
0.0019011
0.00167194
0.00144682
0.00121391
0.000867059
0.000665408
0.00097533
0.000611526
0.0167828
0.0511372
0.0260679
0.0205993
0.0185559
0.0164036
0.0151282
0.0143335
0.0134092
0.0120146
0.0103128
0.00867487
0.00731737
0.00625546
0.00541908
0.00475277
0.00426796
0.00405433
0.00467477
0.00521036
0.00578232
0.00623688
0.0063608
0.00608122
0.00548396
0.00494343
0.00453773
0.00418028
0.00378126
0.00333326
0.00284225
0.00232267
0.0017985
0.00128319
0.000912711
0.000934263
0.000832013
0.00079052
0.000855416
0.000864064
0.0211761
0.0666812
0.0426868
0.0292232
0.0225092
0.0187651
0.0169084
0.0159089
0.0147849
0.0130306
0.0108797
0.0088836
0.00735425
0.00634537
0.00575477
0.00545004
0.00545772
0.00590874
0.00683537
0.007673
0.00813926
0.00815407
0.00773794
0.00700528
0.00620018
0.0055916
0.00513849
0.00470388
0.00423347
0.00372042
0.00317386
0.00261445
0.00207222
0.0015768
0.00120489
0.00102638
0.000923216
0.00118048
0.0026796
0.0014901
0.023953
0.0716527
0.0532725
0.0342473
0.0250162
0.0206107
0.0187451
0.0178214
0.0165152
0.0142194
0.0114186
0.00903376
0.00746517
0.00671838
0.0065025
0.00662208
0.00708668
0.00792782
0.00892272
0.0095429
0.00953596
0.00901972
0.00815502
0.0071387
0.00621979
0.00556874
0.00509202
0.00466562
0.00422572
0.00377104
0.00331012
0.00285705
0.00242731
0.00203427
0.0017314
0.00154217
0.00144827
0.00167951
0.00371877
0.00225019
0.0236658
0.0557936
0.0394053
0.0289183
0.0233819
0.021142
0.0205581
0.0201348
0.0184784
0.0151387
0.0112759
0.00882642
0.00773447
0.00738484
0.00745795
0.00782112
0.0084403
0.00923901
0.00989642
0.0100033
0.00947562
0.00854193
0.00744925
0.00641196
0.00559167
0.00502135
0.00461297
0.00427928
0.00398339
0.0037285
0.00352349
0.00337089
0.00326449
0.00319964
0.00322222
0.00354149
0.00428555
0.00546005
0.0128546
0.00382742
0.0217878
0.0262195
0.0236313
0.0208799
0.0204985
0.0221113
0.0234267
0.0229711
0.0194916
0.0136003
0.0101082
0.00851705
0.00790956
0.00780595
0.00798768
0.00834065
0.00877341
0.00913935
0.00919821
0.00879532
0.0080101
0.00701949
0.00601562
0.00514644
0.00448398
0.00401264
0.00366347
0.00338269
0.00316031
0.00301219
0.00295986
0.00301912
0.00319962
0.00351409
0.00397858
0.00459731
0.00529575
0.00591771
0.00632793
0.0035316
0.0053826
0.016744
0.0234577
0.0266298
0.0233798
0.0179443
0.0132794
0.0101943
0.00855017
0.00778623
0.0075083
0.00748858
0.00759241
0.00771987
0.00777263
0.00763802
0.0072182
0.0065218
0.00567243
0.00481725
0.00406573
0.00346351
0.00300468
0.00265848
0.00240008
0.00222415
0.00213655
0.00214121
0.00223724
0.00242348
0.00270309
0.00308262
0.00355981
0.00409558
0.00458005
0.004824
0.00455817
0.00228522
0.0140988
0.0248509
0.0196641
0.0155881
0.0124503
0.0100685
0.00831998
0.00722016
0.00659791
0.00628252
0.00614725
0.00609709
0.00605935
0.00597325
0.00578523
0.00545423
0.0049711
0.00437952
0.00375916
0.00318608
0.00270831
0.00234058
0.0020752
0.00189681
0.00179243
0.00175365
0.00177519
0.00185452
0.00199278
0.00219562
0.00247255
0.00283202
0.00326604
0.00372418
0.00414295
0.00470763
0.00297525
0.00242045
0.00586356
0.00677052
0.00748722
0.00625901
0.00549519
0.00493062
0.00445761
0.00397793
0.00360196
0.00334252
0.0031727
0.00306165
0.00298003
0.00290108
0.00280244
0.00266697
0.00248481
0.00225715
0.00200032
0.00174366
0.00151699
0.00133867
0.00121246
0.00113217
0.00108851
0.00107369
0.00108293
0.00111386
0.00116596
0.00124005
0.00133809
0.00146308
0.00161904
0.00181093
0.00204225
0.00230209
0.00252423
0.00203581
0.00178262
0.00250904
)
;

boundaryField
{
    floor
    {
        type            kqRWallFunction;
        value           nonuniform List<scalar> 
36
(
0.00232604
0.000837884
0.00115311
0.00159875
0.00193221
0.00195602
0.00173281
0.00149198
0.00129191
0.00113106
0.00100085
0.000894391
0.000806013
0.000731475
0.000666719
0.000607368
0.000548491
0.000487144
0.000398813
0.000398813
0.000480308
0.000535375
0.000611526
0.00079052
0.000855416
0.000864064
0.00232604
0.00304763
0.0024623
0.00180629
0.000837884
0.00180629
0.000759918
0.00224043
0.00107514
0.0026716
)
;
    }
    ceiling
    {
        type            kqRWallFunction;
        value           nonuniform List<scalar> 
43
(
0.00586356
0.00677052
0.00748722
0.00625901
0.00549519
0.00493062
0.00445761
0.00397793
0.00360196
0.00334252
0.0031727
0.00306165
0.00298003
0.00290108
0.00280244
0.00266697
0.00248481
0.00225715
0.00200032
0.00174366
0.00151699
0.00133867
0.00121246
0.00113217
0.00108851
0.00107369
0.00108293
0.00111386
0.00116596
0.00124005
0.00133809
0.00146308
0.00161904
0.00181093
0.00204225
0.00230209
0.00252423
0.00203581
0.00178262
0.00250904
0.0217878
0.0262195
0.0140988
)
;
    }
    sWall
    {
        type            kqRWallFunction;
        value           uniform 0.00586356;
    }
    nWall
    {
        type            kqRWallFunction;
        value           nonuniform List<scalar> 6(0.000864064 0.0014901 0.00225019 0.00228522 0.00242045 0.00250904);
    }
    sideWalls
    {
        type            empty;
    }
    glass1
    {
        type            kqRWallFunction;
        value           nonuniform List<scalar> 9(0.00368214 0.00645098 0.00940509 0.0128198 0.0167828 0.0211761 0.023953 0.0236658 0.0217878);
    }
    glass2
    {
        type            kqRWallFunction;
        value           nonuniform List<scalar> 2(0.00382742 0.0035316);
    }
    sun
    {
        type            kqRWallFunction;
        value           nonuniform List<scalar> 
14
(
0.00368214
0.00456587
0.00486244
0.0054742
0.00622204
0.00680418
0.00709378
0.00705541
0.00629933
0.00558486
0.00487682
0.00416614
0.00350129
0.00291573
)
;
    }
    Table_master
    {
        type            kqRWallFunction;
        value           nonuniform List<scalar> 9(0.00297152 0.00224662 0.00171594 0.00133742 0.0010663 0.000869496 0.000724483 0.000620058 0.000554264);
    }
    Table_slave
    {
        type            kqRWallFunction;
        value           nonuniform List<scalar> 9(0.00387231 0.00322944 0.00277604 0.00242555 0.00214585 0.0019011 0.00167194 0.00144682 0.00121391);
    }
    inlet
    {
        type            turbulentIntensityKineticEnergyInlet;
        intensity       0.05;
        value           uniform 0.000937501;
    }
    outlet
    {
        type            zeroGradient;
    }
}


// ************************************************************************* //
