/*--------------------------------*- C++ -*----------------------------------*\
  =========                 |
  \\      /  F ield         | OpenFOAM: The Open Source CFD Toolbox
   \\    /   O peration     | Website:  https://openfoam.org
    \\  /    A nd           | Version:  6
     \\/     M anipulation  |
\*---------------------------------------------------------------------------*/
FoamFile
{
    version     2.0;
    format      ascii;
    class       volScalarField;
    location    "2500";
    object      alphat;
}
// * * * * * * * * * * * * * * * * * * * * * * * * * * * * * * * * * * * * * //

dimensions      [1 -1 -1 0 0 0 0];

internalField   nonuniform List<scalar> 
458
(
0.00151179
0.00167692
0.00175405
0.00185235
0.00194724
0.0020459
0.00214357
0.00222462
0.00227519
0.00227978
0.00219801
0.002029
0.00184287
0.00163083
0.00142483
0.000619475
0.000732142
0.000850247
0.000940641
0.000974381
0.000889684
0.00080148
0.000727076
0.000665261
0.000612856
0.00056724
0.000526302
0.000487911
0.000449346
0.000407813
0.000359942
0.000320315
0.00028404
0.00189291
0.00462296
0.00456081
0.00531322
0.00609114
0.00675674
0.00731902
0.00788832
0.00841699
0.008854
0.00906307
0.00883366
0.00823417
0.0068042
0.00450141
0.00173605
0.00152527
0.00127322
0.00060719
0.00119843
0.00219343
0.00291471
0.00319861
0.00210468
0.0016857
0.00140723
0.00121173
0.00107287
0.000975616
0.000893269
0.000799627
0.000698616
0.000613677
0.000549724
0.000665665
0.000412157
0.0022044
0.00624895
0.00561513
0.00640775
0.00685098
0.00717988
0.00752473
0.00798319
0.00859582
0.00933191
0.00997384
0.0101943
0.0100359
0.00941021
0.00781298
0.00550411
0.00405708
0.00146461
0.000649682
0.00127364
0.00217804
0.00326182
0.00375889
0.00119696
0.00101805
0.00086152
0.000730732
0.000623749
0.000539352
0.000478545
0.000438952
0.000413838
0.000465541
0.000508538
0.000790028
0.000485687
0.00250084
0.00765249
0.00568147
0.00647677
0.00654106
0.00658712
0.00677568
0.00715415
0.00784232
0.00878223
0.0095956
0.0100545
0.0101482
0.00990021
0.00912399
0.00772375
0.0060436
0.00320078
0.00156381
0.00153966
0.00208872
0.00320046
0.00450354
0.00501476
0.00143625
0.00132403
0.00123899
0.00117017
0.00110998
0.00105596
0.00100242
0.000945166
0.00087939
0.000777186
0.000669907
0.000917995
0.000565808
0.00280798
0.00947085
0.00595387
0.00638676
0.00635768
0.00627181
0.00635755
0.00669374
0.0074577
0.00844459
0.00931848
0.0098298
0.00995736
0.00981623
0.00942894
0.00868052
0.00751443
0.00569977
0.00470475
0.00491719
0.00565514
0.00665322
0.00753639
0.00792106
0.00711853
0.0065629
0.00618638
0.00588287
0.00556634
0.00511832
0.0045401
0.00383554
0.00303445
0.00224023
0.00160241
0.00127294
0.000969904
0.000698117
0.000724735
0.000727437
0.00314761
0.0115652
0.00765124
0.0065286
0.00669397
0.00641646
0.00634311
0.00662989
0.00741816
0.00847236
0.00938443
0.00987596
0.00994934
0.00981154
0.00963114
0.00937826
0.00889425
0.00816667
0.00800983
0.00865533
0.00942216
0.0100351
0.0103408
0.0102783
0.00986409
0.0094083
0.00897521
0.00851964
0.00797674
0.00732856
0.00656837
0.00569625
0.004727
0.00372067
0.00281807
0.00209124
0.00160415
0.00153621
0.00197342
0.000966822
0.00346805
0.0130078
0.0103289
0.00798811
0.00753787
0.00685431
0.00649127
0.00677763
0.00767851
0.00883645
0.00977126
0.0102127
0.0102483
0.0102429
0.0104404
0.0106077
0.0106156
0.0105994
0.0109723
0.0116206
0.0120825
0.012203
0.0120144
0.0115793
0.011008
0.0104224
0.00982498
0.00918864
0.0084933
0.00774309
0.00697739
0.00620218
0.00541017
0.00459308
0.00379299
0.00307756
0.00252858
0.00224872
0.00240108
0.00121277
0.00354386
0.0113185
0.0100278
0.00899002
0.00776021
0.00671225
0.00643835
0.00703547
0.00823617
0.00953257
0.0104134
0.0107429
0.0108457
0.0113963
0.011835
0.0120468
0.0121968
0.0124076
0.012773
0.0131095
0.0131718
0.0128693
0.0122949
0.0115425
0.0107049
0.00985755
0.00902257
0.00818721
0.00734331
0.00655261
0.00589589
0.00543185
0.0051167
0.00473746
0.00430388
0.00399849
0.00384526
0.00359946
0.0042364
0.00152799
0.00346893
0.00416394
0.00462339
0.00468295
0.00470212
0.00506624
0.00607214
0.00763437
0.00930876
0.0105755
0.0110765
0.0112663
0.0116838
0.0122386
0.0125128
0.0126424
0.0127744
0.0129252
0.0130242
0.0129372
0.0125649
0.0119071
0.0110352
0.0100362
0.00898782
0.00794236
0.00692227
0.00595599
0.00510952
0.00442377
0.00391672
0.00356427
0.00332055
0.00314659
0.00298934
0.0028546
0.00271374
0.00254387
0.00237214
0.00147633
0.00141875
0.00247602
0.00409912
0.00638172
0.00859254
0.0103217
0.0112496
0.0114641
0.0111982
0.0111656
0.0114449
0.0116164
0.0116785
0.0117318
0.0117773
0.0117398
0.0115228
0.0110615
0.0103507
0.00944807
0.00844778
0.00744148
0.00649051
0.00562044
0.0048434
0.00418024
0.0036553
0.00327438
0.0030203
0.00286739
0.00278408
0.00274048
0.00270863
0.00266425
0.00257144
0.002391
0.00208696
0.00124451
0.00241426
0.00666143
0.00975888
0.011265
0.0116023
0.0112621
0.0104176
0.00957212
0.00904375
0.00875155
0.00855465
0.00843459
0.00839735
0.00839963
0.00837493
0.00825184
0.00797467
0.00753175
0.00696248
0.00634045
0.00574079
0.00521179
0.00476888
0.00440676
0.00411271
0.00387103
0.00366241
0.00346731
0.00327551
0.0030934
0.00293977
0.00282965
0.00275579
0.00268511
0.00258788
0.00246315
0.00194346
0.00129206
0.00264613
0.00273213
0.00280769
0.00320825
0.00290065
0.00250327
0.002267
0.00207594
0.00188795
0.00171817
0.00159399
0.00152065
0.00148168
0.00146186
0.00145018
0.00143892
0.00142257
0.00139765
0.00136345
0.00132263
0.00127976
0.00123926
0.00120394
0.00117448
0.00115009
0.00112935
0.00111112
0.00109492
0.00108131
0.00107221
0.00107076
0.00108038
0.00110342
0.00114018
0.00118796
0.00123768
0.00125888
0.0011535
0.00109318
0.00134248
)
;

boundaryField
{
    floor
    {
        type            compressible::alphatWallFunction;
        Prt             0.85;
        value           nonuniform List<scalar> 
36
(
0.000200823
8.72947e-05
0.000103913
0.000121003
0.000133896
0.000138674
0.000126645
0.000113976
0.00010316
9.40726e-05
8.62882e-05
7.9445e-05
7.32448e-05
6.73741e-05
6.14163e-05
5.49255e-05
4.73379e-05
4.0974e-05
3.50666e-05
3.50661e-05
5.56764e-05
6.70992e-05
7.92916e-05
9.89679e-05
0.000102864
0.000103257
0.000200821
0.000242446
0.000214362
0.000180201
8.72937e-05
0.000180199
8.54639e-05
0.000206206
9.17874e-05
0.000219537
)
;
    }
    ceiling
    {
        type            compressible::alphatWallFunction;
        Prt             0.85;
        value           nonuniform List<scalar> 
43
(
0.000359831
0.000370684
0.00038019
0.000430299
0.000392079
0.000342
0.000311826
0.000287168
0.000262661
0.000240292
0.000223776
0.000213955
0.000208715
0.000206046
0.000204472
0.000202953
0.000200746
0.000197374
0.000192734
0.000187179
0.000181322
0.000175769
0.000170908
0.000166842
0.000163466
0.000160591
0.000158058
0.000155802
0.000153905
0.000152634
0.000152427
0.000153764
0.000156968
0.000162069
0.000168674
0.000175518
0.000178419
0.000163899
0.000155526
0.000189885
0.000462706
0.000547314
0.00033018
)
;
    }
    sWall
    {
        type            compressible::alphatWallFunction;
        Prt             0.85;
        value           uniform 0.000358565;
    }
    nWall
    {
        type            compressible::alphatWallFunction;
        Prt             0.85;
        value           nonuniform List<scalar> 6(0.000103071 0.000137447 0.000171742 0.000176154 0.000182668 0.000189576);
    }
    sideWalls
    {
        type            empty;
    }
    glass1
    {
        type            compressible::alphatWallFunction;
        Prt             0.85;
        value           nonuniform List<scalar> 9(0.00020742 0.000257321 0.000297392 0.000335034 0.00037359 0.000415749 0.000455137 0.000464537 0.000455633);
    }
    glass2
    {
        type            compressible::alphatWallFunction;
        Prt             0.85;
        value           nonuniform List<scalar> 2(0.000213412 0.000206579);
    }
    sun
    {
        type            compressible::alphatWallFunction;
        Prt             0.85;
        value           nonuniform List<scalar> 
14
(
0.000212553
0.000234591
0.000244808
0.000257759
0.00027019
0.000283044
0.000295704
0.000306162
0.000312667
0.000313258
0.000302743
0.000280856
0.000256523
0.000228468
)
;
    }
    Table_master
    {
        type            compressible::alphatWallFunction;
        Prt             0.85;
        value           nonuniform List<scalar> 9(0.000169839 0.000144933 0.000122722 0.000103795 8.80101e-05 7.53263e-05 6.60395e-05 5.99128e-05 5.59881e-05);
    }
    Table_slave
    {
        type            compressible::alphatWallFunction;
        Prt             0.85;
        value           nonuniform List<scalar> 9(0.000202511 0.000187282 0.000175645 0.000166159 0.000157811 0.000150272 0.000142758 0.00013467 0.000125306);
    }
    inlet
    {
        type            fixedValue;
        value           uniform 1.94e-05;
    }
    outlet
    {
        type            zeroGradient;
    }
}


// ************************************************************************* //
