/*--------------------------------*- C++ -*----------------------------------*\
  =========                 |
  \\      /  F ield         | OpenFOAM: The Open Source CFD Toolbox
   \\    /   O peration     | Website:  https://openfoam.org
    \\  /    A nd           | Version:  6
     \\/     M anipulation  |
\*---------------------------------------------------------------------------*/
FoamFile
{
    version     2.0;
    format      ascii;
    class       volScalarField;
    location    "2500";
    object      epsilon;
}
// * * * * * * * * * * * * * * * * * * * * * * * * * * * * * * * * * * * * * //

dimensions      [0 2 -3 0 0 0 0];

internalField   nonuniform List<scalar> 
458
(
0.000776716
0.00105721
0.00120956
0.00142427
0.0016543
0.0019184
0.00220611
0.00246547
0.00263707
0.00265312
0.00237877
0.00187206
0.00140325
0.000972801
0.000649046
5.3769e-05
8.86903e-05
0.000138802
0.000187885
0.000208858
0.000159013
0.00011628
8.68313e-05
6.65318e-05
5.20284e-05
4.12632e-05
3.29646e-05
2.62665e-05
2.05163e-05
1.5333e-05
1.05373e-05
7.43079e-06
5.18898e-06
0.00152722
0.00196926
0.00096743
0.000979823
0.00105591
0.00120716
0.00143025
0.00166305
0.00181956
0.00184004
0.00166288
0.00135928
0.00109274
0.000883332
0.000697617
0.00117429
0.00079665
0.000463644
5.06531e-05
6.19846e-05
0.000143584
0.000168892
0.000180829
0.000189734
0.00013727
9.48263e-05
6.62661e-05
4.72884e-05
3.4621e-05
2.59242e-05
1.96181e-05
1.48791e-05
1.17476e-05
9.63108e-06
2.44743e-05
1.58976e-05
0.00241654
0.00389202
0.000969364
0.000852549
0.000935249
0.00112298
0.00139122
0.00164375
0.00180346
0.0018394
0.00169645
0.00144042
0.00117694
0.000949719
0.000751449
0.0006883
0.000621065
0.000705768
6.20401e-05
0.000137776
0.000176067
0.00019646
0.000210469
0.000386831
0.00023809
0.000144345
8.81198e-05
5.48357e-05
3.54774e-05
2.4802e-05
1.91546e-05
1.60577e-05
1.38873e-05
1.18923e-05
3.97145e-05
2.60194e-05
0.00353547
0.0074979
0.00123127
0.000792811
0.000875442
0.00113187
0.00147966
0.00173825
0.00189397
0.00193277
0.00179947
0.00153275
0.0012299
0.000967987
0.000761345
0.000626092
0.000554302
0.000569747
0.000859425
0.000519666
0.000377144
0.000313074
0.000284716
0.000279598
0.000668637
0.000524155
0.000429732
0.00036219
0.000309251
0.000266357
0.000227945
0.000191138
0.000153995
8.88124e-05
4.94607e-05
6.33469e-05
4.1126e-05
0.00501483
0.0133608
0.00212991
0.000842183
0.000890522
0.00135479
0.00179055
0.00202087
0.00215885
0.00217495
0.00200326
0.00166133
0.00127416
0.000952608
0.000727155
0.000582584
0.000504717
0.000501824
0.000562408
0.00048905
0.000431144
0.000396119
0.000365286
0.000328167
0.000306491
0.00027641
0.000253199
0.000233227
0.000213095
0.000191664
0.000168069
0.000143015
0.000118048
8.92299e-05
6.2792e-05
5.72803e-05
6.07236e-05
7.72044e-05
8.63623e-05
8.73631e-05
0.00707716
0.0204626
0.00468865
0.00137735
0.00123813
0.00207316
0.00239187
0.00252264
0.002612
0.00257668
0.00231236
0.00183788
0.00132246
0.000916584
0.000660082
0.00052555
0.000474991
0.000492611
0.000533481
0.000535853
0.000523999
0.000495332
0.000445992
0.000381244
0.00032106
0.000280806
0.000256157
0.000236537
0.000216331
0.000193867
0.000168803
0.000142579
0.000117532
9.45967e-05
7.54073e-05
6.30988e-05
6.03288e-05
8.15531e-05
0.00030482
0.000205105
0.00948354
0.0249883
0.00960096
0.00422534
0.00352969
0.00353218
0.00338214
0.0033038
0.00328829
0.00314205
0.00271559
0.00203654
0.00134878
0.000850935
0.000580305
0.000480249
0.000473089
0.000521586
0.000579659
0.000604858
0.000592213
0.000543307
0.000471567
0.000391854
0.000324249
0.000281848
0.000258092
0.00024193
0.000227589
0.000212847
0.000196433
0.000178246
0.000159451
0.000142211
0.000129696
0.000125843
0.000133471
0.000175191
0.000589918
0.000404925
0.0101436
0.0266662
0.0151256
0.00990489
0.00728508
0.00559329
0.00470451
0.00435661
0.00420077
0.00385458
0.0031499
0.00215014
0.00125251
0.000699927
0.000513509
0.000473094
0.000496486
0.000553661
0.000603747
0.000609325
0.000570186
0.000499994
0.000419102
0.000344881
0.000290859
0.000260154
0.000245773
0.000240756
0.000241768
0.000248871
0.000262682
0.000281248
0.000301002
0.000326143
0.000375315
0.000488185
0.000707722
0.0010257
0.00380729
0.000810728
0.00954642
0.0164622
0.0126789
0.00966988
0.00754257
0.00626173
0.00571373
0.00554906
0.00530242
0.00454449
0.00332747
0.00179464
0.000919556
0.000587629
0.000491717
0.000481002
0.000504596
0.000536375
0.000547807
0.000522377
0.00046703
0.000398531
0.000332416
0.000279353
0.00024362
0.000223677
0.000215309
0.000215696
0.000224615
0.0002431
0.000273363
0.000318773
0.000384288
0.000476496
0.000611218
0.00080214
0.00104543
0.00130876
0.00156076
0.000732718
0.00308529
0.00435043
0.00570783
0.00685891
0.00730298
0.00704607
0.00596834
0.0037862
0.00194149
0.00100621
0.000641542
0.00051605
0.000480549
0.000478298
0.000485005
0.000484482
0.000464153
0.000422875
0.000370356
0.000318305
0.000274605
0.00024208
0.000219773
0.000205177
0.000196356
0.00019296
0.00019603
0.000207452
0.000229868
0.000266999
0.000323594
0.000405435
0.000518799
0.000664752
0.000824345
0.000941953
0.000931738
0.000439903
0.00296133
0.0153305
0.0153062
0.0114849
0.00823024
0.00555883
0.00333588
0.00180649
0.00102857
0.000694146
0.000559943
0.000509439
0.000491753
0.0004858
0.000481872
0.000474039
0.000459041
0.000437788
0.000414472
0.000393325
0.000376935
0.000366253
0.000361059
0.000360383
0.00036264
0.000365728
0.000367313
0.000365877
0.00036252
0.000362422
0.00037422
0.000406695
0.000463882
0.000539572
0.00061921
0.000703321
0.000498298
0.000492222
0.00401466
0.00441706
0.00479348
0.00729316
0.00546423
0.00354208
0.00264098
0.00203229
0.00153087
0.00115495
0.000922703
0.000801403
0.000741576
0.000712417
0.000695663
0.000679775
0.000657073
0.000623328
0.000578846
0.00052853
0.000478871
0.000434887
0.000398771
0.000370224
0.000347625
0.000329151
0.000313447
0.000299907
0.000288832
0.000281554
0.000280338
0.000287857
0.000306542
0.000338076
0.000382254
0.000432177
0.000454687
0.000349972
0.000298237
0.000553659
)
;

boundaryField
{
    floor
    {
        Cmu             0.09;
        kappa           0.41;
        E               9.8;
        type            epsilonWallFunction;
        value           nonuniform List<scalar> 
36
(
0.000649046
5.3769e-05
8.86903e-05
0.000138802
0.000187885
0.000208858
0.000159013
0.00011628
8.68313e-05
6.65318e-05
5.20284e-05
4.12632e-05
3.29646e-05
2.62665e-05
2.05163e-05
1.5333e-05
1.05373e-05
7.43079e-06
5.18898e-06
5.18898e-06
1.58976e-05
2.60194e-05
4.1126e-05
7.72044e-05
8.63623e-05
8.73631e-05
0.000649046
0.00117429
0.00079665
0.000463644
5.3769e-05
0.000463644
5.06531e-05
0.000705768
6.20401e-05
0.000859425
)
;
    }
    ceiling
    {
        Cmu             0.09;
        kappa           0.41;
        E               9.8;
        type            epsilonWallFunction;
        value           nonuniform List<scalar> 
43
(
0.00401466
0.00441706
0.00479348
0.00729316
0.00546423
0.00354208
0.00264098
0.00203229
0.00153087
0.00115495
0.000922703
0.000801403
0.000741576
0.000712417
0.000695663
0.000679775
0.000657073
0.000623328
0.000578846
0.00052853
0.000478871
0.000434887
0.000398771
0.000370224
0.000347625
0.000329151
0.000313447
0.000299907
0.000288832
0.000281554
0.000280338
0.000287857
0.000306542
0.000338076
0.000382254
0.000432177
0.000454687
0.000349972
0.000298237
0.000553659
0.00954642
0.0164622
0.00296133
)
;
    }
    sWall
    {
        Cmu             0.09;
        kappa           0.41;
        E               9.8;
        type            epsilonWallFunction;
        value           uniform 0.00401466;
    }
    nWall
    {
        Cmu             0.09;
        kappa           0.41;
        E               9.8;
        type            epsilonWallFunction;
        value           nonuniform List<scalar> 6(8.73631e-05 0.000205105 0.000404925 0.000439903 0.000492222 0.000553659);
    }
    sideWalls
    {
        type            empty;
    }
    glass1
    {
        Cmu             0.09;
        kappa           0.41;
        E               9.8;
        type            epsilonWallFunction;
        value           nonuniform List<scalar> 9(0.000776716 0.00152722 0.00241654 0.00353547 0.00501483 0.00707716 0.00948354 0.0101436 0.00954642);
    }
    glass2
    {
        Cmu             0.09;
        kappa           0.41;
        E               9.8;
        type            epsilonWallFunction;
        value           nonuniform List<scalar> 2(0.000810728 0.000732718);
    }
    sun
    {
        Cmu             0.09;
        kappa           0.41;
        E               9.8;
        type            epsilonWallFunction;
        value           nonuniform List<scalar> 
14
(
0.000776716
0.00105721
0.00120956
0.00142427
0.0016543
0.0019184
0.00220611
0.00246547
0.00263707
0.00265312
0.00237877
0.00187206
0.00140325
0.000972801
)
;
    }
    Table_master
    {
        Cmu             0.09;
        kappa           0.41;
        E               9.8;
        type            epsilonWallFunction;
        value           nonuniform List<scalar> 9(0.000386831 0.00023809 0.000144345 8.81198e-05 5.48357e-05 3.54774e-05 2.4802e-05 1.91546e-05 1.60577e-05);
    }
    Table_slave
    {
        Cmu             0.09;
        kappa           0.41;
        E               9.8;
        type            epsilonWallFunction;
        value           nonuniform List<scalar> 9(0.000668637 0.000524155 0.000429732 0.00036219 0.000309251 0.000266357 0.000227945 0.000191138 0.000153995);
    }
    inlet
    {
        type            turbulentMixingLengthDissipationRateInlet;
        mixingLength    0.01;
        phi             phi;
        k               k;
        value           uniform 0.000471671;
    }
    outlet
    {
        type            zeroGradient;
    }
}


// ************************************************************************* //
