/*--------------------------------*- C++ -*----------------------------------*\
  =========                 |
  \\      /  F ield         | OpenFOAM: The Open Source CFD Toolbox
   \\    /   O peration     | Website:  https://openfoam.org
    \\  /    A nd           | Version:  6
     \\/     M anipulation  |
\*---------------------------------------------------------------------------*/
FoamFile
{
    version     2.0;
    format      ascii;
    class       volScalarField;
    location    "2500";
    object      T;
}
// * * * * * * * * * * * * * * * * * * * * * * * * * * * * * * * * * * * * * //

dimensions      [0 0 0 1 0 0 0];

internalField   nonuniform List<scalar> 
458
(
302.755
302.485
302.456
302.438
302.423
302.407
302.391
302.372
302.357
302.357
302.389
302.44
302.479
302.516
302.563
303.403
303.331
303.273
303.24
303.241
303.272
303.309
303.346
303.384
303.422
303.46
303.499
303.537
303.573
303.603
303.622
303.619
303.6
302.922
302.525
302.484
302.467
302.451
302.431
302.402
302.357
302.314
302.304
302.347
302.411
302.461
302.502
302.542
302.567
302.601
302.661
303.421
303.341
303.186
303.156
303.163
303.193
303.232
303.275
303.32
303.367
303.413
303.458
303.502
303.543
303.577
303.603
303.611
303.603
303.106
302.582
302.535
302.531
302.527
302.511
302.466
302.375
302.286
302.26
302.316
302.398
302.465
302.512
302.545
302.573
302.603
302.651
303.404
303.205
303.104
303.083
303.108
303.141
303.186
303.238
303.296
303.357
303.418
303.474
303.519
303.554
303.578
303.598
303.609
303.607
303.302
302.656
302.597
302.616
302.641
302.643
302.572
302.41
302.261
302.22
302.288
302.395
302.488
302.548
302.58
302.603
302.624
302.652
302.679
302.789
302.842
302.914
303.001
303.088
303.161
303.216
303.262
303.304
303.342
303.377
303.41
303.44
303.469
303.515
303.559
303.59
303.606
303.502
302.748
302.664
302.699
302.761
302.794
302.678
302.429
302.231
302.184
302.268
302.41
302.538
302.617
302.652
302.669
302.679
302.694
302.724
302.781
302.861
302.965
303.079
303.188
303.282
303.355
303.414
303.464
303.508
303.541
303.565
303.58
303.584
303.583
303.587
303.597
303.606
303.616
303.632
303.686
303.69
302.863
302.749
302.777
302.863
302.895
302.706
302.411
302.185
302.141
302.261
302.454
302.626
302.732
302.776
302.785
302.785
302.797
302.84
302.919
303.021
303.139
303.259
303.366
303.456
303.527
303.584
303.63
303.665
303.689
303.702
303.704
303.693
303.672
303.651
303.636
303.63
303.638
303.653
303.697
303.868
303.037
302.915
302.928
303.001
302.943
302.657
302.302
302.077
302.085
302.28
302.548
302.772
302.902
302.953
302.953
302.949
302.97
303.036
303.139
303.257
303.375
303.485
303.579
303.654
303.711
303.756
303.789
303.813
303.827
303.829
303.818
303.797
303.766
303.733
303.703
303.686
303.686
303.691
303.712
304.104
303.49
303.336
303.271
303.223
302.921
302.445
302.038
301.888
302.038
302.366
302.732
302.997
303.131
303.164
303.162
303.169
303.208
303.295
303.41
303.531
303.635
303.722
303.791
303.844
303.881
303.908
303.927
303.938
303.941
303.933
303.915
303.887
303.852
303.815
303.785
303.769
303.769
303.766
303.844
304.445
304.146
303.893
303.671
303.232
302.435
301.768
301.497
301.649
302.109
302.62
303.077
303.293
303.373
303.393
303.406
303.435
303.493
303.582
303.684
303.782
303.863
303.924
303.968
303.999
304.019
304.029
304.032
304.025
304.01
303.99
303.967
303.945
303.926
303.915
303.916
303.931
303.952
303.974
304.037
295.782
296.948
297.487
298.422
299.555
300.692
301.729
302.697
303.227
303.469
303.569
303.609
303.635
303.665
303.709
303.77
303.845
303.923
303.991
304.044
304.081
304.105
304.118
304.123
304.119
304.109
304.092
304.07
304.047
304.024
304.004
303.988
303.98
303.982
303.996
304.023
304.073
304.227
296.12
297.562
299.032
300.617
301.734
302.535
303.107
303.48
303.671
303.761
303.81
303.844
303.876
303.913
303.957
304.007
304.061
304.111
304.152
304.181
304.199
304.208
304.208
304.203
304.192
304.177
304.158
304.136
304.113
304.089
304.067
304.048
304.035
304.029
304.034
304.059
304.155
304.205
298.999
298.956
298.952
300.908
302.275
303.123
303.499
303.712
303.852
303.944
304.003
304.042
304.074
304.102
304.13
304.158
304.186
304.215
304.241
304.262
304.277
304.286
304.289
304.288
304.282
304.273
304.262
304.248
304.231
304.213
304.193
304.171
304.149
304.128
304.108
304.095
304.099
304.146
304.255
304.466
)
;

boundaryField
{
    floor
    {
        type            wallHeatTransfer;
        Tinf            uniform 305.2;
        alphaWall       uniform 0.24;
        value           nonuniform List<scalar> 
36
(
302.815
303.718
303.623
303.544
303.496
303.491
303.535
303.586
303.637
303.687
303.736
303.784
303.831
303.878
303.924
303.969
304.012
304.037
304.053
304.053
303.966
303.934
303.902
303.872
303.879
303.923
302.815
302.783
302.838
302.926
303.718
302.926
303.737
302.89
303.709
302.904
)
;
    }
    ceiling
    {
        type            wallHeatTransfer;
        Tinf            uniform 303.2;
        alphaWall       uniform 0.24;
        value           nonuniform List<scalar> 
43
(
299.245
299.199
299.189
301.022
302.326
303.128
303.48
303.676
303.802
303.883
303.932
303.966
303.993
304.018
304.042
304.067
304.092
304.116
304.138
304.154
304.165
304.171
304.171
304.167
304.161
304.151
304.139
304.125
304.11
304.093
304.075
304.057
304.039
304.023
304.009
303.999
304.004
304.04
304.131
304.339
304.387
304.108
296.567
)
;
    }
    sWall
    {
        type            wallHeatTransfer;
        Tinf            uniform 315.2;
        alphaWall       uniform 0.36;
        value           uniform 300.387;
    }
    nWall
    {
        type            wallHeatTransfer;
        Tinf            uniform 307.2;
        alphaWall       uniform 0.36;
        value           nonuniform List<scalar> 6(304.454 304.33 304.25 304.677 304.646 304.858);
    }
    sideWalls
    {
        type            empty;
    }
    glass1
    {
        type            wallHeatTransfer;
        Tinf            uniform 315.2;
        alphaWall       uniform 4.3;
        value           nonuniform List<scalar> 9(310.825 310.326 310.011 309.772 309.567 309.369 309.218 309.289 309.52);
    }
    glass2
    {
        type            wallHeatTransfer;
        Tinf            uniform 307.2;
        alphaWall       uniform 4.3;
        value           nonuniform List<scalar> 2(306.001 306.091);
    }
    sun
    {
        type            wallHeatTransfer;
        Tinf            uniform 305.2;
        alphaWall       uniform 0.24;
        value           nonuniform List<scalar> 
14
(
302.979
302.715
302.68
302.654
302.631
302.609
302.586
302.563
302.545
302.545
302.58
302.64
302.692
302.748
)
;
    }
    Table_master
    {
        type            zeroGradient;
    }
    Table_slave
    {
        type            zeroGradient;
    }
    inlet
    {
        type            fixedValue;
        value           uniform 293.15;
    }
    outlet
    {
        type            zeroGradient;
    }
}


// ************************************************************************* //
