/*--------------------------------*- C++ -*----------------------------------*\
  =========                 |
  \\      /  F ield         | OpenFOAM: The Open Source CFD Toolbox
   \\    /   O peration     | Website:  https://openfoam.org
    \\  /    A nd           | Version:  6
     \\/     M anipulation  |
\*---------------------------------------------------------------------------*/
FoamFile
{
    version     2.0;
    format      ascii;
    class       volScalarField;
    location    "2200";
    object      alphat;
}
// * * * * * * * * * * * * * * * * * * * * * * * * * * * * * * * * * * * * * //

dimensions      [1 -1 -1 0 0 0 0];

internalField   nonuniform List<scalar> 
458
(
0.000806749
0.000838991
0.00081653
0.00084447
0.000869257
0.000890549
0.000909065
0.000925639
0.000941158
0.0009567
0.000969031
0.000976731
0.000980079
0.000981325
0.000981136
0.000504221
0.000554756
0.000588463
0.000612923
0.000618994
0.000601499
0.000578356
0.00055572
0.000534752
0.000515145
0.000496602
0.000478848
0.000461568
0.000444288
0.000426351
0.000406439
0.000386942
0.000350563
0.0012703
0.00205004
0.0017101
0.00204149
0.00218789
0.00233872
0.0024867
0.00262017
0.00272256
0.00277183
0.00277704
0.00270418
0.00251122
0.0021404
0.00155895
0.00101147
0.000951362
0.000891425
0.000729544
0.00135023
0.00192065
0.00222277
0.00216905
0.0016537
0.00146682
0.00136277
0.00127464
0.00118973
0.00110743
0.00102635
0.000941717
0.000848586
0.000763181
0.000693894
0.000774118
0.00041935
0.00169152
0.00317758
0.00187514
0.00295778
0.003231
0.00341451
0.00356167
0.0036777
0.00376516
0.00381942
0.00384389
0.00382002
0.00372059
0.00351662
0.00317958
0.00267547
0.00193041
0.00106273
0.000863966
0.00249302
0.00289638
0.00278209
0.00233294
0.000697343
0.000612683
0.0005438
0.000492201
0.000454651
0.000426865
0.000405849
0.000390533
0.000382561
0.000471469
0.000574883
0.0008833
0.000474336
0.00212213
0.00486534
0.00190716
0.003318
0.00383028
0.00401092
0.00411634
0.00418121
0.00422315
0.00425076
0.00426897
0.00427175
0.0042403
0.00415018
0.00395895
0.00358788
0.00293514
0.0019632
0.00105512
0.00286199
0.00298397
0.00284962
0.00256537
0.00214661
0.00062045
0.000622789
0.000637827
0.000654455
0.000666946
0.000670385
0.000660131
0.000641216
0.000617708
0.000599423
0.00060605
0.000970466
0.000542837
0.00255897
0.0070653
0.00252262
0.00310735
0.00406884
0.0043127
0.00440096
0.00442725
0.00442495
0.00442119
0.00442521
0.00444788
0.00446358
0.00444377
0.00435908
0.00419229
0.00397157
0.00373092
0.00339769
0.0031559
0.00286923
0.00259923
0.00238026
0.00226838
0.0021943
0.00230643
0.00242482
0.00252335
0.00258432
0.00259145
0.00252622
0.00230369
0.00194137
0.00152829
0.00118345
0.00107885
0.000853395
0.000657061
0.000688397
0.000704854
0.00300405
0.00941802
0.00455714
0.00289901
0.00366611
0.00419318
0.00444
0.00453869
0.00453275
0.00446942
0.00444199
0.00448105
0.00452147
0.00452576
0.00446411
0.00432095
0.00410942
0.00383088
0.00346114
0.00306456
0.00274377
0.00249363
0.00232864
0.002287
0.00237082
0.0025406
0.00270875
0.00285448
0.00296253
0.00302149
0.00302192
0.00293298
0.00267543
0.00227457
0.00182985
0.00143903
0.00113429
0.00112934
0.00162772
0.000926594
0.00343661
0.0113499
0.00820257
0.00473884
0.00348161
0.00335347
0.00375021
0.0041869
0.00448413
0.00442773
0.00442123
0.00446741
0.00450451
0.0045053
0.00444476
0.00430457
0.00408222
0.00376957
0.00338648
0.00302
0.00273445
0.00249852
0.0023399
0.00230314
0.0023738
0.00251602
0.00267699
0.00283096
0.00296511
0.00306461
0.00313471
0.00317686
0.00308767
0.00279187
0.00239469
0.00198998
0.0016431
0.00152401
0.00188129
0.0011342
0.00353636
0.01113
0.0095279
0.0081435
0.00631478
0.00492818
0.0042952
0.00420074
0.00437705
0.00444704
0.00444785
0.0044477
0.00444439
0.00441471
0.00433172
0.00417499
0.00393803
0.00362945
0.00328969
0.00299363
0.0027652
0.00253559
0.00236846
0.00232232
0.00236943
0.00247138
0.00259285
0.00271474
0.00283101
0.00294234
0.00306168
0.00320653
0.00336469
0.00332781
0.00305993
0.00287448
0.00286323
0.00293229
0.00365099
0.00156616
0.00345256
0.00414809
0.00489686
0.00525062
0.0053309
0.00508369
0.00476022
0.00451793
0.00439641
0.00433227
0.00432157
0.00432747
0.00431633
0.00426084
0.00414156
0.00394875
0.00368644
0.0033809
0.0030931
0.00288927
0.00275216
0.00254673
0.00237391
0.00230723
0.00231777
0.00237101
0.00243972
0.00250749
0.00256611
0.00261173
0.00264168
0.00265086
0.00263064
0.00258008
0.00252271
0.00249816
0.00246782
0.00238407
0.0022692
0.00153509
0.00318548
0.00626813
0.00581189
0.00552486
0.00525639
0.00502651
0.00485037
0.00470926
0.00457357
0.00443322
0.0042741
0.00408367
0.00385376
0.00358251
0.0032792
0.00297938
0.00276619
0.00269347
0.00267759
0.00252981
0.00236215
0.00225758
0.00221304
0.00221036
0.00222953
0.00225536
0.00227864
0.00229567
0.00230748
0.00231908
0.00233785
0.00236138
0.00236577
0.00234216
0.00225549
0.00207584
0.00183303
0.00126535
0.00298151
0.00678774
0.00627993
0.0058802
0.00555483
0.00527344
0.00500071
0.00474159
0.00447011
0.00415089
0.00381784
0.00348731
0.00316665
0.00285936
0.00257358
0.0023492
0.00232217
0.0025121
0.00271228
0.00271284
0.00258309
0.00241516
0.00227143
0.00217914
0.00213613
0.00213045
0.00215151
0.00219202
0.00224591
0.00230435
0.00235083
0.00241163
0.0024682
0.00249166
0.00247346
0.00241804
0.00232495
0.00128237
0.00233589
0.0025433
0.00271855
0.00289177
0.00271842
0.00256781
0.0023414
0.00215626
0.00198275
0.00181821
0.00166744
0.00153868
0.00142018
0.00130545
0.00119017
0.00107095
0.000945186
0.000815262
0.000703968
0.000683887
0.00069785
0.000698585
0.000692976
0.00069273
0.000704197
0.000727484
0.000759658
0.000797892
0.000840472
0.000886844
0.000937577
0.000994664
0.00106217
0.00113198
0.00120437
0.00127701
0.00135457
0.00133362
0.00122933
0.00113647
)
;

boundaryField
{
    floor
    {
        type            compressible::alphatWallFunction;
        Prt             0.85;
        value           nonuniform List<scalar> 
36
(
0.000139667
6.98605e-05
7.75937e-05
8.26753e-05
8.63342e-05
8.72376e-05
8.46219e-05
8.11485e-05
7.7735e-05
7.45576e-05
7.15725e-05
6.87364e-05
6.60086e-05
6.33413e-05
6.06614e-05
5.78654e-05
5.47442e-05
5.1669e-05
4.58768e-05
4.58762e-05
5.67686e-05
6.5311e-05
7.57822e-05
9.28908e-05
9.75163e-05
9.99373e-05
0.000139666
0.000143941
0.000135456
0.000126931
6.98597e-05
0.00012693
0.000103548
0.000151127
0.000123
0.000150065
)
;
    }
    ceiling
    {
        type            compressible::alphatWallFunction;
        Prt             0.85;
        value           nonuniform List<scalar> 
43
(
0.000320449
0.000346897
0.000369069
0.000390962
0.000369212
0.000350186
0.000321343
0.000297529
0.000275009
0.000253453
0.000233511
0.000216324
0.000200365
0.000184769
0.000168942
0.000152388
0.000134691
0.000116115
9.99143e-05
9.6943e-05
9.89979e-05
9.91107e-05
9.82893e-05
9.82551e-05
9.99421e-05
0.000103356
0.000108052
0.0001136
0.000119741
0.000126387
0.000133611
0.000141685
0.000151164
0.000160893
0.000170908
0.000180889
0.000191475
0.000188623
0.000174346
0.00016152
0.000460774
0.000545483
0.000401921
)
;
    }
    sWall
    {
        type            compressible::alphatWallFunction;
        Prt             0.85;
        value           uniform 0.000319244;
    }
    nWall
    {
        type            compressible::alphatWallFunction;
        Prt             0.85;
        value           nonuniform List<scalar> 6(9.97472e-05 0.000131734 0.000160869 0.000178967 0.000181296 0.000161197);
    }
    sideWalls
    {
        type            empty;
    }
    glass1
    {
        type            compressible::alphatWallFunction;
        Prt             0.85;
        value           nonuniform List<scalar> 9(0.000111677 0.000175739 0.0002318 0.000287655 0.000343175 0.000398785 0.000452059 0.000464371 0.000454334);
    }
    glass2
    {
        type            compressible::alphatWallFunction;
        Prt             0.85;
        value           nonuniform List<scalar> 2(0.000218407 0.000214311);
    }
    sun
    {
        type            compressible::alphatWallFunction;
        Prt             0.85;
        value           nonuniform List<scalar> 
14
(
0.000114796
0.000119426
0.00011619
0.000120212
0.000123767
0.000126811
0.000129451
0.000131809
0.000134012
0.000136214
0.000137959
0.000139046
0.000139519
0.000139694
)
;
    }
    Table_master
    {
        type            compressible::alphatWallFunction;
        Prt             0.85;
        value           nonuniform List<scalar> 9(9.89205e-05 8.63766e-05 7.60128e-05 6.81427e-05 6.23505e-05 5.80256e-05 5.47308e-05 5.23161e-05 5.10548e-05);
    }
    Table_slave
    {
        type            compressible::alphatWallFunction;
        Prt             0.85;
        value           nonuniform List<scalar> 9(8.75411e-05 8.78916e-05 9.01305e-05 9.25984e-05 9.44476e-05 9.49565e-05 9.34411e-05 9.06365e-05 8.71371e-05);
    }
    inlet
    {
        type            fixedValue;
        value           uniform 1.94e-05;
    }
    outlet
    {
        type            zeroGradient;
    }
}


// ************************************************************************* //
