/*--------------------------------*- C++ -*----------------------------------*\
  =========                 |
  \\      /  F ield         | OpenFOAM: The Open Source CFD Toolbox
   \\    /   O peration     | Website:  https://openfoam.org
    \\  /    A nd           | Version:  6
     \\/     M anipulation  |
\*---------------------------------------------------------------------------*/
FoamFile
{
    version     2.0;
    format      ascii;
    class       volVectorField;
    location    "2200";
    object      U;
}
// * * * * * * * * * * * * * * * * * * * * * * * * * * * * * * * * * * * * * //

dimensions      [0 1 -1 0 0 0 0];

internalField   nonuniform List<vector> 
458
(
(0.0798626 0.0706944 0)
(-0.140505 0.00845151 0)
(-0.137862 0.0105844 0)
(-0.159989 0.00945226 0)
(-0.179987 0.00704391 0)
(-0.197145 0.00409865 0)
(-0.210692 0.000693542 0)
(-0.219914 -0.00325467 0)
(-0.224007 -0.00789036 0)
(-0.221848 -0.0134151 0)
(-0.211552 -0.0203918 0)
(-0.189988 -0.029383 0)
(-0.155625 -0.0421807 0)
(-0.120083 -0.0624874 0)
(-0.12326 -0.0905615 0)
(0.06773 -0.00631756 0)
(0.0137016 -0.0101676 0)
(0.0317367 -0.01215 0)
(0.0522882 -0.0138282 0)
(0.0695915 -0.012837 0)
(0.0822872 -0.00755963 0)
(0.0879745 -0.00434595 0)
(0.0887348 -0.0031902 0)
(0.087733 -0.00271782 0)
(0.0864912 -0.00233927 0)
(0.0850881 -0.00196841 0)
(0.0833113 -0.00154891 0)
(0.080906 -0.000893887 0)
(0.0772535 0.000402055 0)
(0.0710421 0.0028835 0)
(0.0607615 0.00603927 0)
(0.0478824 0.00968183 0)
(0.000163452 0.0235843 0)
(0.274436 0.152578 0)
(-0.157558 0.032786 0)
(-0.122836 0.0355596 0)
(-0.150112 0.0334949 0)
(-0.171355 0.029938 0)
(-0.189528 0.0255301 0)
(-0.204242 0.0201878 0)
(-0.214995 0.0136659 0)
(-0.221087 0.00567615 0)
(-0.221476 -0.00405961 0)
(-0.215468 -0.0152646 0)
(-0.202392 -0.0277444 0)
(-0.183858 -0.0425576 0)
(-0.167868 -0.0610549 0)
(-0.160761 -0.0731138 0)
(-0.13187 -0.0448576 0)
(-0.0754995 -0.0400483 0)
(-0.0833422 -0.0318359 0)
(0.0767245 -0.0277733 0)
(0.0271316 -0.01819 0)
(0.0323251 -0.0187953 0)
(0.0466984 -0.023409 0)
(0.0600509 -0.0236487 0)
(0.0717785 -0.00873753 0)
(0.0739091 0.000239415 0)
(0.0726229 0.00350522 0)
(0.0717249 0.00462368 0)
(0.0714613 0.00517661 0)
(0.0712335 0.00549418 0)
(0.0708461 0.0058136 0)
(0.0703116 0.00659419 0)
(0.0691241 0.00876417 0)
(0.0649789 0.0146767 0)
(0.0550135 0.020809 0)
(0.0460237 0.0268169 0)
(-0.0350575 0.0493383 0)
(0.44418 0.233076 0)
(-0.199129 0.0635881 0)
(-0.0974978 0.061442 0)
(-0.129496 0.0540841 0)
(-0.148552 0.0468751 0)
(-0.165145 0.0387096 0)
(-0.178849 0.0290652 0)
(-0.189258 0.0176026 0)
(-0.19568 0.0041485 0)
(-0.197038 -0.0111364 0)
(-0.192566 -0.027965 0)
(-0.182821 -0.0457396 0)
(-0.16989 -0.063985 0)
(-0.157689 -0.0813085 0)
(-0.144869 -0.0905335 0)
(-0.121122 -0.0838486 0)
(-0.0925318 -0.0902642 0)
(-0.10538 -0.101798 0)
(0.039471 -0.03033 0)
(-0.00553933 -0.0267069 0)
(0.0112517 -0.0313955 0)
(0.0271177 -0.0385045 0)
(0.0378806 -0.0448234 0)
(0.0570862 -0.0281035 0)
(0.0505848 -0.015605 0)
(0.0430583 -0.00985087 0)
(0.0420315 -0.00695897 0)
(0.0439942 -0.0051105 0)
(0.0462903 -0.00385489 0)
(0.0485863 -0.00287033 0)
(0.0515716 -0.00159471 0)
(0.0565974 0.00229995 0)
(0.0581134 0.0203271 0)
(0.0490665 0.0332434 0)
(0.049383 0.0446468 0)
(-0.0660644 0.077326 0)
(0.586824 0.300193 0)
(-0.248186 0.0969991 0)
(-0.0654592 0.0847457 0)
(-0.103135 0.0726618 0)
(-0.117749 0.0634233 0)
(-0.131118 0.0533591 0)
(-0.142698 0.0414288 0)
(-0.152039 0.0270378 0)
(-0.158347 0.0097702 0)
(-0.160222 -0.0103511 0)
(-0.156549 -0.0323729 0)
(-0.148815 -0.0545025 0)
(-0.139076 -0.0747949 0)
(-0.129686 -0.0907698 0)
(-0.119871 -0.0987802 0)
(-0.107456 -0.0994712 0)
(-0.0991157 -0.100833 0)
(-0.105122 -0.0891142 0)
(-0.0899106 -0.0306495 0)
(-0.0413595 -0.0426721 0)
(-0.0223959 -0.0439119 0)
(-0.00485753 -0.0468734 0)
(0.00608461 -0.0494104 0)
(0.00558043 -0.0513504 0)
(0.0109599 -0.0252373 0)
(0.0328126 -0.019278 0)
(0.0514045 -0.0162661 0)
(0.0671764 -0.0141594 0)
(0.080821 -0.0120696 0)
(0.0917778 -0.00945878 0)
(0.09859 -0.00589203 0)
(0.0986683 -0.00104201 0)
(0.0900467 0.00580208 0)
(0.0741316 0.02623 0)
(0.0594812 0.0453549 0)
(0.0639447 0.0641502 0)
(-0.0727091 0.107303 0)
(0.701527 0.355057 0)
(-0.293789 0.129796 0)
(-0.0313861 0.0995957 0)
(-0.0728961 0.0855042 0)
(-0.0822944 0.0753055 0)
(-0.0911982 0.0641209 0)
(-0.0993343 0.050592 0)
(-0.106274 0.0339081 0)
(-0.111315 0.0134228 0)
(-0.11254 -0.0109304 0)
(-0.108475 -0.0374042 0)
(-0.101684 -0.0626845 0)
(-0.0940806 -0.0838923 0)
(-0.0871868 -0.0990103 0)
(-0.0808146 -0.106868 0)
(-0.0746348 -0.109306 0)
(-0.070911 -0.109048 0)
(-0.068194 -0.100087 0)
(-0.0565576 -0.073248 0)
(-0.0368957 -0.0651428 0)
(-0.0211194 -0.0615162 0)
(-0.0094449 -0.0590537 0)
(-0.00255293 -0.0552457 0)
(-0.000180496 -0.0490558 0)
(0.00867899 -0.0331751 0)
(0.0230741 -0.0266426 0)
(0.0369496 -0.0235596 0)
(0.0499319 -0.0211652 0)
(0.0619794 -0.0180388 0)
(0.0725438 -0.0130681 0)
(0.0806354 -0.0050606 0)
(0.0849725 0.00617384 0)
(0.0834813 0.0199415 0)
(0.07773 0.0384693 0)
(0.0696168 0.057591 0)
(0.0868626 0.0783305 0)
(0.0384219 0.10821 0)
(0.0959071 0.123383 0)
(0.120811 0.133617 0)
(-0.185693 0.162962 0)
(0.776024 0.403423 0)
(-0.330001 0.157058 0)
(-0.00608626 0.098807 0)
(-0.0375847 0.092631 0)
(-0.0425885 0.0832139 0)
(-0.0473642 0.0708138 0)
(-0.0513862 0.0561903 0)
(-0.0545202 0.0383651 0)
(-0.0566714 0.016027 0)
(-0.0546467 -0.0118131 0)
(-0.0487955 -0.0423544 0)
(-0.042919 -0.0694753 0)
(-0.0381783 -0.0902841 0)
(-0.0351522 -0.10401 0)
(-0.0335492 -0.110921 0)
(-0.0330318 -0.112516 0)
(-0.0338694 -0.109725 0)
(-0.034128 -0.100245 0)
(-0.0296801 -0.0854445 0)
(-0.0215441 -0.0767636 0)
(-0.0143309 -0.0711148 0)
(-0.00985553 -0.0652756 0)
(-0.00750263 -0.0585607 0)
(-0.00616169 -0.0516299 0)
(-0.00138874 -0.0430427 0)
(0.00756606 -0.0381988 0)
(0.017054 -0.0356992 0)
(0.0267738 -0.0334251 0)
(0.0366062 -0.0299928 0)
(0.0462103 -0.0240935 0)
(0.0552755 -0.0140526 0)
(0.0642176 0.00145512 0)
(0.0692341 0.0199641 0)
(0.0714587 0.0398039 0)
(0.0722386 0.0586522 0)
(0.0879843 0.0773498 0)
(0.0826239 0.0834691 0)
(0.0936601 0.041269 0)
(0.123695 -0.00166944 0)
(-0.211915 0.0854126 0)
(0.798172 0.446948 0)
(-0.343779 0.150451 0)
(0.0111694 0.0547294 0)
(0.0157384 0.0892839 0)
(0.0111963 0.0945718 0)
(0.00568147 0.0779279 0)
(0.00407349 0.0586919 0)
(0.00481056 0.0389116 0)
(0.00605203 0.014321 0)
(0.0155171 -0.0175079 0)
(0.0228489 -0.0491185 0)
(0.0260513 -0.074452 0)
(0.0259281 -0.0925187 0)
(0.023088 -0.10381 0)
(0.0182813 -0.109196 0)
(0.0122705 -0.109801 0)
(0.00562481 -0.106328 0)
(-0.000415953 -0.0982643 0)
(-0.00379144 -0.0876184 0)
(-0.00502474 -0.0791456 0)
(-0.00647898 -0.0724355 0)
(-0.00946814 -0.0650436 0)
(-0.012318 -0.0578494 0)
(-0.0145804 -0.0521425 0)
(-0.0143039 -0.0475603 0)
(-0.0114689 -0.0449173 0)
(-0.00727236 -0.0433488 0)
(-0.00224068 -0.0417957 0)
(0.00373965 -0.0389635 0)
(0.0102998 -0.03372 0)
(0.0179256 -0.0242871 0)
(0.0275538 -0.00842551 0)
(0.0413948 0.0132963 0)
(0.0509545 0.0336221 0)
(0.0592598 0.0503991 0)
(0.0752881 0.065364 0)
(0.0869937 0.0682427 0)
(0.0986879 0.0481621 0)
(0.152813 0.0518555 0)
(-0.144929 0.144819 0)
(0.894069 0.462528 0)
(-0.119532 0.131683 0)
(0.085513 -0.026299 0)
(0.136573 0.0228084 0)
(0.117148 0.0606379 0)
(0.0970791 0.0572617 0)
(0.0905964 0.0401226 0)
(0.0907889 0.0202134 0)
(0.0933589 -0.00515581 0)
(0.103304 -0.031378 0)
(0.106538 -0.0548369 0)
(0.102943 -0.0737505 0)
(0.0946638 -0.0873778 0)
(0.0833413 -0.0958445 0)
(0.0702823 -0.0996873 0)
(0.0565585 -0.09959 0)
(0.0429694 -0.0960895 0)
(0.0302885 -0.0894963 0)
(0.0191864 -0.0809273 0)
(0.00956474 -0.0728458 0)
(4.17791e-05 -0.0656829 0)
(-0.0101886 -0.0579964 0)
(-0.0183085 -0.0518317 0)
(-0.0251703 -0.0480334 0)
(-0.029872 -0.0459761 0)
(-0.0327578 -0.045153 0)
(-0.0344524 -0.0448184 0)
(-0.0353597 -0.044218 0)
(-0.035551 -0.0425479 0)
(-0.0348618 -0.0390248 0)
(-0.0327786 -0.0327997 0)
(-0.0279465 -0.0229912 0)
(-0.0145985 -0.00852682 0)
(0.00669001 0.0107533 0)
(0.0202591 0.0229319 0)
(0.0385403 0.0293482 0)
(0.0555545 0.023265 0)
(0.0693068 0.00210404 0)
(0.153884 0.0561247 0)
(-0.428784 0.234468 0)
(1.02389 0.430418 0)
(0.485373 0.283974 0)
(0.498034 0.195925 0)
(0.490732 0.175841 0)
(0.407893 0.158976 0)
(0.332042 0.127516 0)
(0.28722 0.0911948 0)
(0.261218 0.0561176 0)
(0.245322 0.0232175 0)
(0.22644 -0.00812042 0)
(0.20496 -0.0346918 0)
(0.182519 -0.0548522 0)
(0.159644 -0.0686908 0)
(0.136702 -0.0771399 0)
(0.114167 -0.0812318 0)
(0.0925293 -0.0818118 0)
(0.0721754 -0.0794153 0)
(0.0533225 -0.0742954 0)
(0.0358644 -0.0670641 0)
(0.0195947 -0.0595828 0)
(0.00342339 -0.0525563 0)
(-0.0130042 -0.0453156 0)
(-0.0255879 -0.0407502 0)
(-0.0368075 -0.038749 0)
(-0.0463842 -0.0383845 0)
(-0.0548534 -0.0387678 0)
(-0.0627111 -0.0391854 0)
(-0.0703455 -0.0389911 0)
(-0.0780481 -0.0374932 0)
(-0.0861061 -0.0339052 0)
(-0.0949384 -0.0272406 0)
(-0.105053 -0.016367 0)
(-0.116365 -0.000529658 0)
(-0.126614 0.0192326 0)
(-0.141774 0.0410088 0)
(-0.16997 0.0655899 0)
(-0.213375 0.0927931 0)
(-0.265649 0.121132 0)
(-0.337163 0.14721 0)
(-0.635236 0.16898 0)
(-0.541865 -0.00512946 0)
(0.185221 0.134532 0)
(0.252929 0.15005 0)
(0.24581 0.132903 0)
(0.247045 0.102003 0)
(0.248773 0.0664246 0)
(0.246095 0.0332959 0)
(0.238242 0.00599897 0)
(0.22422 -0.015699 0)
(0.205203 -0.0321809 0)
(0.182766 -0.0441445 0)
(0.158332 -0.0522437 0)
(0.133194 -0.0570866 0)
(0.108408 -0.0591942 0)
(0.08475 -0.0588571 0)
(0.062617 -0.0560168 0)
(0.0417433 -0.050742 0)
(0.0218428 -0.0446961 0)
(0.00164429 -0.0385648 0)
(-0.0172647 -0.0327765 0)
(-0.0322537 -0.0296756 0)
(-0.0462772 -0.0285854 0)
(-0.0594027 -0.0286426 0)
(-0.0720971 -0.0289239 0)
(-0.0846522 -0.028718 0)
(-0.0972102 -0.0274243 0)
(-0.109753 -0.0244705 0)
(-0.122083 -0.0193207 0)
(-0.133809 -0.0115129 0)
(-0.14425 -0.000669165 0)
(-0.151908 0.0134371 0)
(-0.155796 0.0316288 0)
(-0.158696 0.0538675 0)
(-0.162298 0.0772847 0)
(-0.164574 0.0937992 0)
(-0.155884 0.0828681 0)
(-0.143744 0.00305292 0)
(-0.280477 -0.195853 0)
(-0.239535 0.17784 0)
(0.119386 0.118559 0)
(0.0904712 0.102532 0)
(0.116098 0.102087 0)
(0.1502 0.0829243 0)
(0.176516 0.0539045 0)
(0.192225 0.0273207 0)
(0.197226 0.00666577 0)
(0.193521 -0.00848192 0)
(0.182263 -0.0193696 0)
(0.165443 -0.0271613 0)
(0.144874 -0.0325187 0)
(0.122063 -0.0359023 0)
(0.0982847 -0.0376388 0)
(0.0746954 -0.0378116 0)
(0.0523336 -0.0362384 0)
(0.0315832 -0.0336198 0)
(0.0126647 -0.0319538 0)
(-0.00567891 -0.0313851 0)
(-0.0203095 -0.0327722 0)
(-0.0340778 -0.0343172 0)
(-0.0478652 -0.0352609 0)
(-0.0613593 -0.0357565 0)
(-0.0746747 -0.0359741 0)
(-0.0878792 -0.0358892 0)
(-0.10084 -0.0352443 0)
(-0.113153 -0.0336015 0)
(-0.124125 -0.030358 0)
(-0.132728 -0.0246967 0)
(-0.137531 -0.0154132 0)
(-0.136947 -0.000728507 0)
(-0.12983 0.018155 0)
(-0.115195 0.041527 0)
(-0.0937502 0.0677174 0)
(-0.0675309 0.0887665 0)
(-0.0417502 0.0906056 0)
(0.129389 0.00838991 0)
(-0.219611 -0.109067 0)
(0.0225602 -0.273272 0)
(-0.347702 -0.0932201 0)
(-0.284386 0.0905831 0)
(-0.141843 0.0320974 0)
(-0.101981 0.0436961 0)
(-0.0279472 0.0628707 0)
(0.0509803 0.0540689 0)
(0.0968778 0.0374655 0)
(0.1296 0.0245745 0)
(0.146275 0.016278 0)
(0.149198 0.0114451 0)
(0.142643 0.00855063 0)
(0.129314 0.00719782 0)
(0.111446 0.0073628 0)
(0.0905863 0.00923921 0)
(0.067846 0.0132865 0)
(0.0441267 0.0205526 0)
(0.0207118 0.0333462 0)
(-0.00204441 0.0563014 0)
(-0.0169398 0.0731136 0)
(-0.025165 0.0803711 0)
(-0.0330283 0.0866436 0)
(-0.0398846 0.0893689 0)
(-0.0468418 0.0882026 0)
(-0.0546771 0.0841407 0)
(-0.0636642 0.0787635 0)
(-0.0735776 0.0733455 0)
(-0.0839025 0.0685356 0)
(-0.0939665 0.0645126 0)
(-0.102948 0.0611868 0)
(-0.109697 0.0583214 0)
(-0.112349 0.0556467 0)
(-0.108173 0.0532152 0)
(-0.0931231 0.0552294 0)
(-0.0662712 0.0627076 0)
(-0.0322582 0.0756014 0)
(0.0302761 0.0905816 0)
(0.0742976 0.080158 0)
(0.157804 0.0544079 0)
(-0.217943 -0.00685889 0)
)
;

boundaryField
{
    floor
    {
        type            noSlip;
    }
    ceiling
    {
        type            noSlip;
    }
    sWall
    {
        type            noSlip;
    }
    nWall
    {
        type            noSlip;
    }
    sideWalls
    {
        type            empty;
    }
    glass1
    {
        type            noSlip;
    }
    glass2
    {
        type            noSlip;
    }
    sun
    {
        type            noSlip;
    }
    Table_master
    {
        type            noSlip;
    }
    Table_slave
    {
        type            noSlip;
    }
    inlet
    {
        type            fixedValue;
        value           uniform (0.212132 -0.212132 0);
    }
    outlet
    {
        type            zeroGradient;
    }
}


// ************************************************************************* //
