/*--------------------------------*- C++ -*----------------------------------*\
  =========                 |
  \\      /  F ield         | OpenFOAM: The Open Source CFD Toolbox
   \\    /   O peration     | Website:  https://openfoam.org
    \\  /    A nd           | Version:  6
     \\/     M anipulation  |
\*---------------------------------------------------------------------------*/
FoamFile
{
    version     2.0;
    format      ascii;
    class       volScalarField;
    location    "800";
    object      nut;
}
// * * * * * * * * * * * * * * * * * * * * * * * * * * * * * * * * * * * * * //

dimensions      [0 2 -1 0 0 0 0];

internalField   nonuniform List<scalar> 
458
(
0.0011799
0.00129292
0.00133978
0.00140642
0.00146768
0.00152712
0.00158947
0.00165049
0.00170413
0.00174224
0.00175383
0.00171006
0.00154114
0.00133476
0.00115095
0.000533331
0.000625754
0.000723422
0.000770218
0.000766904
0.000726078
0.000678772
0.0006356
0.000597598
0.00056413
0.000534536
0.000508306
0.000484705
0.000462795
0.000441499
0.000419213
0.000398081
0.000360225
0.00152073
0.00333928
0.0030491
0.00342211
0.00381622
0.00420965
0.00451567
0.00480776
0.00512113
0.00541585
0.00567319
0.0059079
0.00589875
0.00498581
0.00317421
0.00133238
0.00116388
0.000976837
0.000514317
0.00130303
0.00199855
0.00252207
0.00266384
0.00190872
0.0016157
0.00142364
0.0012841
0.0011779
0.00109395
0.00102034
0.000947124
0.000868107
0.0007936
0.000730723
0.000812067
0.000428506
0.00179882
0.00442811
0.00366763
0.00411007
0.00427414
0.00438159
0.00447848
0.00463288
0.00486122
0.0051517
0.00552676
0.00601828
0.00652823
0.00632974
0.00522727
0.00369328
0.00270804
0.00106024
0.000715405
0.0014172
0.00222873
0.00298439
0.00314099
0.000945865
0.000832786
0.000737366
0.000659484
0.000596341
0.00054503
0.000503463
0.000470509
0.000446366
0.000505464
0.000599965
0.000930253
0.000479244
0.00205711
0.00542518
0.00363175
0.0041704
0.00408511
0.00395751
0.00392782
0.00403224
0.00423571
0.0045404
0.00497971
0.00554783
0.00614887
0.00627865
0.00586902
0.00490548
0.00378729
0.00206303
0.00111208
0.00149014
0.00223549
0.00317597
0.00396465
0.0039934
0.00105359
0.00096818
0.000908791
0.00086373
0.000824439
0.000786813
0.000750007
0.000710334
0.000663427
0.000616397
0.000617479
0.00103123
0.000533857
0.00231376
0.00676653
0.00360051
0.0040522
0.00386822
0.00361198
0.00353595
0.00365994
0.00387797
0.00420385
0.0046697
0.00521688
0.00570285
0.00583991
0.00570698
0.00528728
0.00456405
0.00354105
0.00339909
0.00386623
0.00453127
0.00518338
0.00559712
0.00560511
0.00478884
0.00436993
0.00414936
0.00399127
0.00381784
0.00354643
0.00314514
0.00264065
0.00207492
0.00153855
0.00115188
0.00109065
0.000844445
0.000648343
0.000693278
0.000692853
0.00258796
0.00839358
0.00441766
0.00385679
0.00379181
0.00348716
0.00335046
0.00351054
0.00374923
0.00408906
0.00455675
0.00504746
0.00537185
0.00539811
0.00535113
0.0053393
0.00520464
0.00499293
0.00534565
0.00602234
0.00655419
0.00682248
0.00681174
0.00656729
0.0061564
0.00583263
0.00558533
0.00535502
0.00510819
0.00481636
0.00440783
0.00387504
0.00323019
0.00253372
0.0019335
0.00148074
0.00114973
0.00122532
0.00178077
0.000900544
0.00287788
0.00967627
0.00641537
0.00413623
0.00352864
0.00345257
0.00340619
0.00356636
0.00379695
0.00412036
0.00454111
0.00496492
0.00517871
0.00510436
0.00523042
0.00573842
0.00609063
0.00641761
0.00701084
0.007506
0.00766342
0.00751969
0.00715614
0.00667159
0.00617159
0.00578286
0.00548551
0.00522834
0.00498608
0.00475206
0.00452259
0.00421667
0.00376759
0.00319525
0.00263085
0.00213398
0.00175801
0.0016834
0.00208515
0.00112991
0.00296489
0.00904119
0.00754103
0.00591144
0.00459688
0.00403591
0.00389198
0.00384171
0.00396778
0.00423666
0.00460194
0.00494966
0.00505809
0.00496161
0.0055955
0.00643273
0.00689082
0.00728695
0.0076798
0.00781089
0.00758852
0.00709984
0.00646045
0.00579676
0.00523918
0.00485303
0.00458886
0.00438833
0.00422881
0.00411028
0.00404049
0.00401029
0.00391251
0.00358761
0.00329488
0.00312576
0.00317228
0.00330526
0.00401121
0.00150988
0.00293217
0.00358466
0.00429658
0.00453759
0.00438708
0.00419668
0.00405835
0.00400831
0.0041416
0.00437982
0.00468
0.00492278
0.00489556
0.00507054
0.00595419
0.0066176
0.00690983
0.00708695
0.00711284
0.00687643
0.00635426
0.00565357
0.0049234
0.00431306
0.00389479
0.00363531
0.00346393
0.00333433
0.00322491
0.00312398
0.00302172
0.00290825
0.00279692
0.00269919
0.00262681
0.00257866
0.00250781
0.00237668
0.00222625
0.00144742
0.00116391
0.00210105
0.00276968
0.00316903
0.00349406
0.00394338
0.00429604
0.00449711
0.00467799
0.00469795
0.00463474
0.00495499
0.00566919
0.00589295
0.00588458
0.00574475
0.00543348
0.00493361
0.00431802
0.00369256
0.00319395
0.00287346
0.0026932
0.00259431
0.00253573
0.00249659
0.00246748
0.00244491
0.00242953
0.00242996
0.00243823
0.00244194
0.00243138
0.00238102
0.00224995
0.00201759
0.00172134
0.00114633
0.00218787
0.00387681
0.004195
0.00475953
0.00546707
0.0052689
0.00468206
0.00424667
0.00407611
0.00360969
0.00360341
0.0039381
0.00403751
0.00392592
0.00371339
0.0034059
0.00300906
0.00258164
0.00221576
0.00197081
0.00183154
0.00177641
0.00177444
0.00180482
0.0018566
0.00192388
0.00200219
0.00208632
0.00216945
0.00226068
0.00235452
0.0024444
0.00251523
0.00253916
0.00249248
0.00240632
0.00211645
0.0011583
0.00283992
0.00284042
0.00286109
0.00334049
0.00302456
0.00271124
0.00217847
0.00156188
0.00127247
0.00107512
0.000922679
0.000813041
0.000750741
0.000705005
0.000674431
0.0006504
0.00062851
0.000607733
0.000590546
0.000581295
0.00058257
0.000593701
0.000612524
0.000635818
0.000662504
0.000692156
0.000724677
0.000760241
0.000799336
0.000842938
0.000892688
0.000947071
0.00100633
0.00107078
0.0011405
0.00121672
0.00127181
0.00124645
0.001145
0.00105052
)
;

boundaryField
{
    floor
    {
        type            nutkWallFunction;
        Cmu             0.09;
        kappa           0.41;
        E               9.8;
        value           nonuniform List<scalar> 
36
(
0.000138328
6.39612e-05
7.55617e-05
8.75968e-05
9.32933e-05
9.28914e-05
8.79214e-05
8.21207e-05
7.67845e-05
7.2051e-05
6.78519e-05
6.41134e-05
6.07784e-05
5.77595e-05
5.49403e-05
5.21842e-05
4.92818e-05
4.65115e-05
4.15006e-05
4.15005e-05
5.04926e-05
5.70557e-05
6.40239e-05
7.836e-05
8.39002e-05
8.38479e-05
0.000138328
0.000159155
0.000139825
0.00011799
6.39611e-05
0.00011799
6.15448e-05
0.000127781
8.66152e-05
0.000133823
)
;
    }
    ceiling
    {
        type            nutkWallFunction;
        Cmu             0.09;
        kappa           0.41;
        E               9.8;
        value           nonuniform List<scalar> 
43
(
0.000322907
0.000322958
0.000325126
0.000375038
0.000342302
0.000309476
0.000252701
0.000185057
0.000152331
0.000129533
0.000111592
9.84752e-05
9.09304e-05
8.53445e-05
8.15864e-05
7.86181e-05
7.59026e-05
7.33144e-05
7.11651e-05
7.00047e-05
7.01638e-05
7.15578e-05
7.39084e-05
7.68055e-05
8.0109e-05
8.37609e-05
8.77449e-05
9.20774e-05
9.68125e-05
0.000102062
0.000108012
0.000114473
0.000121465
0.000129016
0.000137126
0.000145927
0.000152252
0.000149345
0.000137648
0.000126649
0.000332927
0.000400496
0.000253554
)
;
    }
    sWall
    {
        type            nutkWallFunction;
        Cmu             0.09;
        kappa           0.41;
        E               9.8;
        value           uniform 0.000322985;
    }
    nWall
    {
        type            nutkWallFunction;
        Cmu             0.09;
        kappa           0.41;
        E               9.8;
        value           nonuniform List<scalar> 6(8.38456e-05 0.000108952 0.000135904 0.000137813 0.000139199 0.000126656);
    }
    sideWalls
    {
        type            empty;
    }
    glass1
    {
        type            nutkWallFunction;
        Cmu             0.09;
        kappa           0.41;
        E               9.8;
        value           nonuniform List<scalar> 9(0.00014182 0.000180689 0.000211676 0.000239989 0.000267745 0.00029704 0.000327663 0.000336798 0.000333386);
    }
    glass2
    {
        type            nutkWallFunction;
        Cmu             0.09;
        kappa           0.41;
        E               9.8;
        value           nonuniform List<scalar> 2(0.000179323 0.000172286);
    }
    sun
    {
        type            nutkWallFunction;
        Cmu             0.09;
        kappa           0.41;
        E               9.8;
        value           nonuniform List<scalar> 
14
(
0.000141673
0.000154646
0.000159989
0.000167552
0.000174468
0.00018115
0.000188128
0.000194927
0.000200883
0.000205101
0.000206384
0.000201545
0.000182728
0.000159423
)
;
    }
    Table_master
    {
        type            nutkWallFunction;
        Cmu             0.09;
        kappa           0.41;
        E               9.8;
        value           nonuniform List<scalar> 9(0.00011433 0.000100845 8.92992e-05 7.97438e-05 7.18973e-05 6.54467e-05 6.01666e-05 5.59422e-05 5.28238e-05);
    }
    Table_slave
    {
        type            nutkWallFunction;
        Cmu             0.09;
        kappa           0.41;
        E               9.8;
        value           nonuniform List<scalar> 9(0.000127006 0.00011697 0.000109932 0.000104556 9.98417e-05 9.53026e-05 9.08375e-05 8.59953e-05 8.02284e-05);
    }
    inlet
    {
        type            calculated;
        value           uniform 0.00033541;
    }
    outlet
    {
        type            calculated;
        value           nonuniform List<scalar> 2(0.00283992 0.00284042);
    }
}


// ************************************************************************* //
