/*--------------------------------*- C++ -*----------------------------------*\
  =========                 |
  \\      /  F ield         | OpenFOAM: The Open Source CFD Toolbox
   \\    /   O peration     | Website:  https://openfoam.org
    \\  /    A nd           | Version:  6
     \\/     M anipulation  |
\*---------------------------------------------------------------------------*/
FoamFile
{
    version     2.0;
    format      ascii;
    class       volScalarField;
    location    "800";
    object      T;
}
// * * * * * * * * * * * * * * * * * * * * * * * * * * * * * * * * * * * * * //

dimensions      [0 0 0 1 0 0 0];

internalField   nonuniform List<scalar> 
458
(
302.114
301.836
301.824
301.821
301.82
301.818
301.817
301.818
301.824
301.837
301.868
301.94
302.003
302.024
302.046
302.473
302.439
302.428
302.449
302.467
302.48
302.491
302.502
302.513
302.524
302.535
302.546
302.557
302.568
302.58
302.593
302.61
302.646
302.28
301.833
301.799
301.79
301.784
301.779
301.776
301.774
301.774
301.788
301.836
301.931
302.05
302.079
302.074
302.086
302.1
302.124
302.484
302.396
302.398
302.426
302.456
302.468
302.478
302.487
302.496
302.504
302.513
302.522
302.531
302.541
302.553
302.568
302.589
302.636
302.462
301.849
301.793
301.782
301.777
301.773
301.769
301.761
301.744
301.741
301.795
301.922
302.089
302.152
302.145
302.141
302.135
302.138
302.407
302.365
302.382
302.43
302.481
302.485
302.491
302.498
302.506
302.514
302.522
302.531
302.539
302.548
302.561
302.573
302.591
302.636
302.656
301.882
301.799
301.792
301.796
301.802
301.802
301.787
301.738
301.699
301.747
301.902
302.115
302.226
302.237
302.214
302.188
302.166
302.181
302.222
302.295
302.383
302.471
302.546
302.604
302.642
302.673
302.7
302.722
302.739
302.755
302.769
302.779
302.722
302.666
302.632
302.645
302.858
301.938
301.815
301.81
301.83
301.857
301.875
301.854
301.758
301.669
301.702
301.877
302.133
302.294
302.333
302.304
302.265
302.237
302.254
302.308
302.393
302.49
302.583
302.663
302.727
302.773
302.807
302.833
302.852
302.862
302.866
302.863
302.851
302.811
302.747
302.687
302.662
302.677
302.7
302.764
303.052
302.021
301.85
301.827
301.854
301.905
301.96
301.938
301.788
301.65
301.669
301.859
302.144
302.362
302.436
302.414
302.373
302.352
302.383
302.455
302.547
302.641
302.727
302.798
302.852
302.89
302.916
302.934
302.945
302.948
302.942
302.929
302.909
302.873
302.817
302.753
302.712
302.712
302.726
302.778
303.222
302.174
301.959
301.897
301.894
301.935
302.025
301.984
301.793
301.636
301.651
301.852
302.173
302.446
302.554
302.548
302.514
302.512
302.56
302.638
302.722
302.802
302.871
302.923
302.96
302.983
302.997
303.004
303.005
303.002
302.991
302.974
302.951
302.918
302.872
302.819
302.777
302.765
302.767
302.793
303.469
302.687
302.415
302.216
302.109
302.093
302.132
301.989
301.74
301.585
301.635
301.877
302.248
302.569
302.687
302.694
302.682
302.698
302.751
302.82
302.886
302.943
302.985
303.014
303.031
303.039
303.04
303.037
303.031
303.022
303.01
302.995
302.975
302.946
302.913
302.875
302.848
302.843
302.842
302.954
303.824
303.458
303.179
302.864
302.618
302.476
302.265
301.86
301.548
301.47
301.639
301.967
302.411
302.746
302.825
302.842
302.851
302.877
302.92
302.966
303.006
303.036
303.055
303.064
303.065
303.062
303.055
303.046
303.035
303.024
303.012
303.001
302.991
302.984
302.983
302.991
303.011
303.038
303.06
303.124
298.424
299.612
300.352
300.677
300.735
300.822
301.018
301.34
301.779
302.217
302.748
302.914
302.958
302.974
302.99
303.013
303.04
303.063
303.079
303.087
303.089
303.085
303.079
303.071
303.063
303.055
303.047
303.04
303.033
303.028
303.025
303.024
303.029
303.041
303.062
303.091
303.127
303.177
298.496
299.616
300.173
300.448
300.618
300.991
301.477
301.955
302.572
302.871
303.002
303.044
303.062
303.075
303.087
303.099
303.109
303.114
303.115
303.112
303.107
303.101
303.094
303.087
303.08
303.074
303.068
303.062
303.057
303.053
303.05
303.05
303.052
303.06
303.074
303.095
303.115
303.158
299.424
299.407
299.406
300.08
300.453
300.799
301.441
302.355
302.782
302.975
303.072
303.111
303.127
303.137
303.144
303.148
303.15
303.151
303.15
303.147
303.142
303.136
303.13
303.123
303.116
303.11
303.104
303.098
303.092
303.087
303.082
303.077
303.073
303.071
303.07
303.072
303.081
303.091
303.1
303.147
)
;

boundaryField
{
    floor
    {
        type            wallHeatTransfer;
        Tinf            uniform 305.2;
        alphaWall       uniform 0.24;
        value           nonuniform List<scalar> 
36
(
302.363
302.95
302.872
302.82
302.821
302.838
302.864
302.892
302.921
302.948
302.975
303
303.025
303.05
303.074
303.099
303.127
303.159
303.222
303.222
303.154
303.117
303.092
303.063
303.065
303.12
302.363
302.365
302.408
302.473
302.95
302.473
302.971
302.465
302.806
302.492
)
;
    }
    ceiling
    {
        type            wallHeatTransfer;
        Tinf            uniform 303.2;
        alphaWall       uniform 0.24;
        value           nonuniform List<scalar> 
43
(
299.606
299.591
299.588
300.212
300.58
300.921
301.547
302.422
302.821
302.999
303.087
303.122
303.137
303.146
303.152
303.156
303.158
303.159
303.158
303.156
303.152
303.147
303.141
303.135
303.129
303.123
303.118
303.112
303.107
303.101
303.096
303.091
303.087
303.084
303.083
303.084
303.092
303.102
303.111
303.152
303.794
303.447
298.777
)
;
    }
    sWall
    {
        type            wallHeatTransfer;
        Tinf            uniform 315.2;
        alphaWall       uniform 0.36;
        value           uniform 300.544;
    }
    nWall
    {
        type            wallHeatTransfer;
        Tinf            uniform 307.2;
        alphaWall       uniform 0.36;
        value           nonuniform List<scalar> 6(303.671 303.534 303.435 303.757 303.736 303.769);
    }
    sideWalls
    {
        type            empty;
    }
    glass1
    {
        type            wallHeatTransfer;
        Tinf            uniform 315.2;
        alphaWall       uniform 4.3;
        value           nonuniform List<scalar> 9(310.841 310.25 309.876 309.599 309.376 309.17 308.976 309.029 309.245);
    }
    glass2
    {
        type            wallHeatTransfer;
        Tinf            uniform 307.2;
        alphaWall       uniform 4.3;
        value           nonuniform List<scalar> 2(305.566 305.667);
    }
    sun
    {
        type            wallHeatTransfer;
        Tinf            uniform 305.2;
        alphaWall       uniform 0.24;
        value           nonuniform List<scalar> 
14
(
302.418
302.144
302.125
302.111
302.1
302.09
302.081
302.074
302.073
302.081
302.108
302.18
302.258
302.308
)
;
    }
    Table_master
    {
        type            zeroGradient;
    }
    Table_slave
    {
        type            zeroGradient;
    }
    inlet
    {
        type            fixedValue;
        value           uniform 297.15;
    }
    outlet
    {
        type            zeroGradient;
    }
}


// ************************************************************************* //
