/*--------------------------------*- C++ -*----------------------------------*\
  =========                 |
  \\      /  F ield         | OpenFOAM: The Open Source CFD Toolbox
   \\    /   O peration     | Website:  https://openfoam.org
    \\  /    A nd           | Version:  6
     \\/     M anipulation  |
\*---------------------------------------------------------------------------*/
FoamFile
{
    version     2.0;
    format      ascii;
    class       volScalarField;
    location    "400";
    object      alphat;
}
// * * * * * * * * * * * * * * * * * * * * * * * * * * * * * * * * * * * * * //

dimensions      [1 -1 -1 0 0 0 0];

internalField   nonuniform List<scalar> 
458
(
0.000991599
0.00104734
0.00103248
0.00106648
0.00109598
0.00112091
0.00114236
0.00116149
0.00117964
0.00119323
0.00119787
0.00119061
0.00117016
0.00114008
0.00110772
0.000428737
0.000487826
0.000488831
0.000463454
0.00043962
0.000403834
0.000374782
0.000348576
0.000325707
0.000307155
0.000293059
0.000283169
0.000278676
0.000277297
0.00027661
0.000299581
0.000471235
0.000394672
0.00145929
0.00279489
0.0024049
0.00274656
0.00297455
0.00321768
0.00345966
0.00367339
0.00381752
0.00391222
0.00395556
0.0039004
0.00367359
0.00315969
0.00221425
0.00110961
0.000970229
0.000905992
0.000648209
0.000885017
0.00102115
0.00127422
0.00143548
0.00123325
0.001063
0.000943861
0.000872464
0.000835798
0.000822217
0.000822393
0.000823053
0.000812075
0.000785551
0.000697061
0.00115504
0.000551856
0.00185892
0.00394062
0.00276119
0.0037581
0.0040016
0.00414963
0.00425133
0.00432405
0.0043778
0.00442826
0.00447743
0.00450273
0.00448676
0.0044283
0.00431693
0.00398829
0.00295002
0.00110946
0.00089976
0.00150817
0.00185837
0.00228602
0.00218924
0.000615775
0.00054033
0.000491362
0.000457782
0.000433442
0.000414812
0.000399693
0.000386573
0.000375673
0.000457753
0.000556525
0.00147871
0.000682686
0.00224958
0.0054403
0.00269815
0.00409745
0.004378
0.00438143
0.00432493
0.00427073
0.00425084
0.00426641
0.0042988
0.00432358
0.00432907
0.0043334
0.00436776
0.00436713
0.00403082
0.00302553
0.000981551
0.00260881
0.00272037
0.00317357
0.00331094
0.00277012
0.000663814
0.000655717
0.000673338
0.000698883
0.000724205
0.000742185
0.000744961
0.000724776
0.00069526
0.000715501
0.000780318
0.00147877
0.000810577
0.0026409
0.00740102
0.00303171
0.00395112
0.0044879
0.00443035
0.00427919
0.00415491
0.00410697
0.00412174
0.00416088
0.00418455
0.00416409
0.00410874
0.00408507
0.00416175
0.00426393
0.00419677
0.00375847
0.00347387
0.00373284
0.00389364
0.00387657
0.00362163
0.00309234
0.00308241
0.00314059
0.00320352
0.00324833
0.00325389
0.0031998
0.00306477
0.00270315
0.00224562
0.00179971
0.0014707
0.00151262
0.00100298
0.000895069
0.000982676
0.0030433
0.00954064
0.00458763
0.00357439
0.00428933
0.00440874
0.00428314
0.00412565
0.00404823
0.0040611
0.00412724
0.0041682
0.00413462
0.00400801
0.00386555
0.00388968
0.00408229
0.00424448
0.00419728
0.00415398
0.00415135
0.00406646
0.00392868
0.00376065
0.00361192
0.00359646
0.00363049
0.00367927
0.00372735
0.00375436
0.00374344
0.00368275
0.00352434
0.00318023
0.00271817
0.00206612
0.00172427
0.0014177
0.00156415
0.00102922
0.00344469
0.0112776
0.00773128
0.00451775
0.0036882
0.00372991
0.00395946
0.00411145
0.00404873
0.00405976
0.00414222
0.00419268
0.00415861
0.00398602
0.00372372
0.00363459
0.0038331
0.00403629
0.0041991
0.0042498
0.00408915
0.00384564
0.00363295
0.00348193
0.00341258
0.00342612
0.00349317
0.00358796
0.00368947
0.00377916
0.00384841
0.00389981
0.0039294
0.00377287
0.00340509
0.00293564
0.0025681
0.0022981
0.00209571
0.00126458
0.00354344
0.0110056
0.00919177
0.00742892
0.00568625
0.00451478
0.00404595
0.00408319
0.00417534
0.00416662
0.00418006
0.00419567
0.00414467
0.00394004
0.00358766
0.00337351
0.00355535
0.00381285
0.00404135
0.00407935
0.00376516
0.00343017
0.00320841
0.00310072
0.00308978
0.00315344
0.0032657
0.0034023
0.00354118
0.0036723
0.00380146
0.00395369
0.00416725
0.00442573
0.00438837
0.00431778
0.00442337
0.00435189
0.0046221
0.00180012
0.00346964
0.00419456
0.00461291
0.00493298
0.00494069
0.00466979
0.00436567
0.00419545
0.00412455
0.0041044
0.00412169
0.00413178
0.00405695
0.00379863
0.00334726
0.00302837
0.00324928
0.00365313
0.00393969
0.00380221
0.00333558
0.00297804
0.00279926
0.00275707
0.00280682
0.00291293
0.00304665
0.00318348
0.00330294
0.00339179
0.00344504
0.00346407
0.00345159
0.00340956
0.00334906
0.00324667
0.00305763
0.002795
0.0025587
0.00169333
0.00148296
0.00265669
0.00355353
0.00399419
0.00413101
0.00415132
0.00413878
0.00412797
0.00410729
0.00403415
0.00384815
0.00346549
0.00288822
0.00249297
0.00286149
0.00356302
0.00389138
0.00348943
0.00294509
0.0025991
0.00245607
0.00245512
0.00253979
0.00266513
0.00280312
0.00293804
0.00305856
0.00315553
0.00322411
0.00326609
0.00328747
0.00328963
0.00323362
0.00309255
0.00284146
0.00249663
0.00212392
0.00137828
0.00236246
0.00400425
0.00452428
0.00469675
0.00466162
0.004567
0.00442291
0.00424166
0.00394208
0.00358401
0.00316956
0.00265488
0.00205264
0.0016671
0.00220329
0.0030162
0.00318555
0.00301449
0.00263702
0.00229871
0.00210794
0.00204146
0.002054
0.00211235
0.00220226
0.00232172
0.00247097
0.00264582
0.00283431
0.00301156
0.00317744
0.00332369
0.00340858
0.00340967
0.00328594
0.00312711
0.00278068
0.0013996
0.00251919
0.00256683
0.00261761
0.00286667
0.00276721
0.00262111
0.00235258
0.00216707
0.00198859
0.00181245
0.00166482
0.00152578
0.00138333
0.0012223
0.00099581
0.00070758
0.000694904
0.000734707
0.000719504
0.000677278
0.000649501
0.000634729
0.000633919
0.00064689
0.000670351
0.00070191
0.000740447
0.00078559
0.000837374
0.00089637
0.000964354
0.00104602
0.00114087
0.00124312
0.00134849
0.00147387
0.00150763
0.0014681
0.0013606
0.00125181
)
;

boundaryField
{
    floor
    {
        type            compressible::alphatWallFunction;
        Prt             0.85;
        value           nonuniform List<scalar> 
36
(
0.000157387
5.82115e-05
6.73617e-05
6.75223e-05
6.36116e-05
5.9913e-05
5.43131e-05
4.97205e-05
4.55378e-05
4.18539e-05
3.88396e-05
3.65326e-05
3.49044e-05
3.41623e-05
3.39313e-05
3.38139e-05
3.75812e-05
6.47628e-05
5.28265e-05
5.28258e-05
7.70846e-05
9.66168e-05
0.000115266
0.000142703
0.000127414
0.000139845
0.000157385
0.000157647
0.000138095
0.000128993
5.82107e-05
0.000128991
9.15089e-05
0.000157643
0.000128085
0.00013968
)
;
    }
    ceiling
    {
        type            compressible::alphatWallFunction;
        Prt             0.85;
        value           nonuniform List<scalar> 
43
(
0.00034393
0.000349978
0.000356413
0.000387824
0.000375352
0.000356929
0.000322748
0.000298891
0.000275725
0.000252641
0.000233104
0.000214525
0.000195288
0.000173256
0.000141638
0.000100304
9.85997e-05
0.000104374
0.000102133
9.59278e-05
9.18366e-05
8.96523e-05
8.95354e-05
9.14608e-05
9.49321e-05
9.95797e-05
0.000105222
0.000111787
0.000119263
0.000127713
0.00013737
0.000148868
0.00016209
0.000176203
0.00019061
0.000207593
0.000212132
0.00020681
0.000192258
0.000177399
0.000462835
0.000551048
0.000323886
)
;
    }
    sWall
    {
        type            compressible::alphatWallFunction;
        Prt             0.85;
        value           uniform 0.000342759;
    }
    nWall
    {
        type            compressible::alphatWallFunction;
        Prt             0.85;
        value           nonuniform List<scalar> 6(0.000139622 0.00014617 0.000178799 0.000194315 0.000197204 0.000177054);
    }
    sideWalls
    {
        type            empty;
    }
    glass1
    {
        type            compressible::alphatWallFunction;
        Prt             0.85;
        value           nonuniform List<scalar> 9(0.000137375 0.000200792 0.000253317 0.000303585 0.000353086 0.000403245 0.000452633 0.000464823 0.000456029);
    }
    glass2
    {
        type            compressible::alphatWallFunction;
        Prt             0.85;
        value           nonuniform List<scalar> 2(0.000249046 0.000235054);
    }
    sun
    {
        type            compressible::alphatWallFunction;
        Prt             0.85;
        value           nonuniform List<scalar> 
14
(
0.000141146
0.000148966
0.000146885
0.000151648
0.000155767
0.000159239
0.000162219
0.000164872
0.000167384
0.000169261
0.000169901
0.000168897
0.000166066
0.000161892
)
;
    }
    Table_master
    {
        type            compressible::alphatWallFunction;
        Prt             0.85;
        value           nonuniform List<scalar> 9(8.68545e-05 7.55072e-05 6.80357e-05 6.28572e-05 5.90729e-05 5.61575e-05 5.37785e-05 5.17043e-05 4.99735e-05);
    }
    Table_slave
    {
        type            compressible::alphatWallFunction;
        Prt             0.85;
        value           nonuniform List<scalar> 9(9.40081e-05 9.27997e-05 9.53994e-05 9.9158e-05 0.000102868 0.000105492 0.000105894 0.000102942 9.86118e-05);
    }
    inlet
    {
        type            fixedValue;
        value           uniform 1.94e-05;
    }
    outlet
    {
        type            zeroGradient;
    }
}


// ************************************************************************* //
