/*--------------------------------*- C++ -*----------------------------------*\
  =========                 |
  \\      /  F ield         | OpenFOAM: The Open Source CFD Toolbox
   \\    /   O peration     | Website:  https://openfoam.org
    \\  /    A nd           | Version:  6
     \\/     M anipulation  |
\*---------------------------------------------------------------------------*/
FoamFile
{
    version     2.0;
    format      ascii;
    class       volScalarField;
    location    "400";
    object      k;
}
// * * * * * * * * * * * * * * * * * * * * * * * * * * * * * * * * * * * * * //

dimensions      [0 2 -2 0 0 0 0];

internalField   nonuniform List<scalar> 
458
(
0.00144623
0.00161038
0.00156498
0.00166979
0.00176348
0.00184466
0.00191597
0.00198072
0.00204314
0.0020905
0.00210672
0.00208115
0.00201008
0.00190785
0.00180086
0.000269409
0.000348814
0.000350324
0.000314876
0.00028329
0.000239021
0.000205845
0.000178041
0.000155421
0.000138194
0.000125776
0.000117407
0.000113696
0.000112549
0.000111965
0.000131268
0.000324571
0.000227702
0.00313619
0.00585705
0.00235026
0.00235358
0.00242524
0.00251902
0.00263
0.00276081
0.00290616
0.00305184
0.00315976
0.00317567
0.00304535
0.00274462
0.00230898
0.00180694
0.00138132
0.00120475
0.000615611
0.000644637
0.000570408
0.000546946
0.000537762
0.000473317
0.000403775
0.000349673
0.000314424
0.000293822
0.000282777
0.000276957
0.000271222
0.000262309
0.000248613
0.000269125
0.000969163
0.000445338
0.00509583
0.0117865
0.00305784
0.00276391
0.00277405
0.00284075
0.00293644
0.00306888
0.00323507
0.00341665
0.00356774
0.00363391
0.00358507
0.00344404
0.00328037
0.00303815
0.00234328
0.00180697
0.00118769
0.000990466
0.000808275
0.000793805
0.000764431
0.000556088
0.000428139
0.000354007
0.000307226
0.000275376
0.000252165
0.00023407
0.000218908
0.000206688
0.000234262
0.000326929
0.00175484
0.000681791
0.00747237
0.020471
0.00410141
0.00300283
0.0029334
0.00298005
0.00305685
0.00318145
0.00336399
0.00358378
0.00375872
0.00381945
0.00374615
0.00357164
0.00334552
0.00303985
0.00259262
0.00244754
0.00141352
0.00186585
0.00105997
0.000940774
0.000918754
0.000868009
0.0006466
0.000630776
0.000665029
0.000716364
0.000769143
0.000807743
0.00081373
0.000770169
0.000708674
0.000606872
0.000583316
0.00183436
0.000961544
0.0103109
0.0321198
0.00634819
0.00324767
0.00301557
0.00304405
0.0031258
0.00328539
0.00354628
0.00387355
0.00410542
0.00415792
0.00402513
0.00375236
0.00341829
0.00306296
0.00262012
0.00222371
0.002019
0.00131758
0.00105982
0.000989253
0.000979979
0.000984006
0.00101633
0.00110139
0.00121243
0.00133701
0.0014563
0.00154267
0.00156138
0.00148278
0.00130556
0.00110911
0.000948104
0.00129039
0.00185292
0.00147352
0.00117424
0.00141553
0.0137076
0.0443626
0.0120868
0.00417992
0.00329628
0.00317458
0.00321364
0.00340511
0.00382068
0.00434693
0.00464257
0.00467387
0.00446537
0.00406084
0.00357164
0.00315179
0.00272948
0.00216596
0.00160044
0.001209
0.00105287
0.0010092
0.00101788
0.0010564
0.00114018
0.00126966
0.00143171
0.00162092
0.00181761
0.00199344
0.00210669
0.00210437
0.00189857
0.00161949
0.00136499
0.00129903
0.00149851
0.0014803
0.00187363
0.00155249
0.0175779
0.0526084
0.0244432
0.00944978
0.00547883
0.00415451
0.00378344
0.00385594
0.00448613
0.00513793
0.00537253
0.00530822
0.00499754
0.00445313
0.00377667
0.00323022
0.00282101
0.00222198
0.00155671
0.00119201
0.00105279
0.00101723
0.00103562
0.0010937
0.00119817
0.00135366
0.00155913
0.00181596
0.00209981
0.00238917
0.00265203
0.0028442
0.00288834
0.00258658
0.00227633
0.00214526
0.00224319
0.00240232
0.00293342
0.00234405
0.0186276
0.0573125
0.0377267
0.0261434
0.0168501
0.010869
0.00786055
0.00673432
0.00661174
0.00652803
0.0063247
0.00599821
0.00551462
0.0048165
0.00395594
0.00324891
0.00283662
0.0022879
0.00159075
0.00120364
0.00106174
0.00102482
0.00104648
0.00111715
0.00124204
0.0014271
0.00167348
0.00197762
0.00232903
0.00271762
0.00313661
0.00358889
0.00408686
0.00455031
0.0048209
0.00568023
0.00717802
0.00835531
0.0136649
0.00475536
0.0178966
0.0261031
0.0241293
0.0217637
0.0186823
0.0152309
0.01231
0.0103484
0.00902556
0.00802423
0.0072546
0.00659023
0.00588331
0.00499536
0.00393545
0.00308175
0.00271695
0.00228567
0.00162129
0.00124587
0.00110314
0.00105827
0.00107504
0.00114798
0.0012813
0.00147834
0.00173759
0.00205306
0.00241601
0.0028184
0.00325471
0.00372162
0.00421436
0.00472584
0.00526623
0.00584121
0.00629539
0.00650169
0.00663327
0.00421195
0.0073696
0.0110234
0.0128481
0.0127401
0.0116586
0.0104136
0.00928803
0.00832884
0.00749201
0.00668582
0.00580638
0.00474054
0.00351246
0.00257641
0.00237601
0.00219939
0.00168039
0.00139664
0.00124716
0.00117392
0.00116436
0.00121537
0.00132767
0.00149867
0.00172291
0.00199401
0.00230485
0.00264848
0.00302127
0.00342665
0.00387297
0.00436427
0.00482075
0.00515204
0.00521695
0.00491742
0.00434368
0.0027895
0.00807394
0.017125
0.0164383
0.0150074
0.0131324
0.0114386
0.00988551
0.00849387
0.00715438
0.00593649
0.00480377
0.00367003
0.0025068
0.0016387
0.00148768
0.00154942
0.0016382
0.00168554
0.00156962
0.00142411
0.0013279
0.00129051
0.00130316
0.00136115
0.00146785
0.00163117
0.00185999
0.00216227
0.0025437
0.00300336
0.0035524
0.00417106
0.00478222
0.00530327
0.00552519
0.00563083
0.00456797
0.00287625
0.00923662
0.00958762
0.0099706
0.0120005
0.0112055
0.0100667
0.00811674
0.00688851
0.00580062
0.00481824
0.00406497
0.00341391
0.0028056
0.00218949
0.00145145
0.000733533
0.000709699
0.000792405
0.000759677
0.00067312
0.000619217
0.000591432
0.000589911
0.000614227
0.00065952
0.000723033
0.00080458
0.000905668
0.001029
0.00117911
0.00136478
0.00160578
0.00191025
0.00226806
0.00266897
0.00318871
0.00333647
0.00316386
0.0027175
0.0023008
)
;

boundaryField
{
    floor
    {
        type            kqRWallFunction;
        value           nonuniform List<scalar> 
36
(
0.00180086
0.000269409
0.000348814
0.000350324
0.000314876
0.00028329
0.000239021
0.000205845
0.000178041
0.000155421
0.000138194
0.000125776
0.000117407
0.000113696
0.000112549
0.000111965
0.000131268
0.000324571
0.000227702
0.000227702
0.000445338
0.000681791
0.000961544
0.00147352
0.00117424
0.00141553
0.00180086
0.00180694
0.00138132
0.00120475
0.000269409
0.00120475
0.000615611
0.00180697
0.00118769
0.00141352
)
;
    }
    ceiling
    {
        type            kqRWallFunction;
        value           nonuniform List<scalar> 
43
(
0.00923662
0.00958762
0.0099706
0.0120005
0.0112055
0.0100667
0.00811674
0.00688851
0.00580062
0.00481824
0.00406497
0.00341391
0.0028056
0.00218949
0.00145145
0.000733533
0.000709699
0.000792405
0.000759677
0.00067312
0.000619217
0.000591432
0.000589911
0.000614227
0.00065952
0.000723033
0.00080458
0.000905668
0.001029
0.00117911
0.00136478
0.00160578
0.00191025
0.00226806
0.00266897
0.00318871
0.00333647
0.00316386
0.0027175
0.0023008
0.0178966
0.0261031
0.00807394
)
;
    }
    sWall
    {
        type            kqRWallFunction;
        value           uniform 0.00923662;
    }
    nWall
    {
        type            kqRWallFunction;
        value           nonuniform List<scalar> 6(0.00141553 0.00155249 0.00234405 0.0027895 0.00287625 0.0023008);
    }
    sideWalls
    {
        type            empty;
    }
    glass1
    {
        type            kqRWallFunction;
        value           nonuniform List<scalar> 9(0.00144623 0.00313619 0.00509583 0.00747237 0.0103109 0.0137076 0.0175779 0.0186276 0.0178966);
    }
    glass2
    {
        type            kqRWallFunction;
        value           nonuniform List<scalar> 2(0.00475536 0.00421195);
    }
    sun
    {
        type            kqRWallFunction;
        value           nonuniform List<scalar> 
14
(
0.00144623
0.00161038
0.00156498
0.00166979
0.00176348
0.00184466
0.00191597
0.00198072
0.00204314
0.0020905
0.00210672
0.00208115
0.00201008
0.00190785
)
;
    }
    Table_master
    {
        type            kqRWallFunction;
        value           nonuniform List<scalar> 9(0.000556088 0.000428139 0.000354007 0.000307226 0.000275376 0.000252165 0.00023407 0.000218908 0.000206688);
    }
    Table_slave
    {
        type            kqRWallFunction;
        value           nonuniform List<scalar> 9(0.0006466 0.000630776 0.000665029 0.000716364 0.000769143 0.000807743 0.00081373 0.000770169 0.000708674);
    }
    inlet
    {
        type            turbulentIntensityKineticEnergyInlet;
        intensity       0.05;
        value           uniform 0.0018375;
    }
    outlet
    {
        type            zeroGradient;
    }
}


// ************************************************************************* //
