/*--------------------------------*- C++ -*----------------------------------*\
  =========                 |
  \\      /  F ield         | OpenFOAM: The Open Source CFD Toolbox
   \\    /   O peration     | Website:  https://openfoam.org
    \\  /    A nd           | Version:  6
     \\/     M anipulation  |
\*---------------------------------------------------------------------------*/
FoamFile
{
    version     2.0;
    format      ascii;
    class       surfaceScalarField;
    location    "400";
    object      phi;
}
// * * * * * * * * * * * * * * * * * * * * * * * * * * * * * * * * * * * * * //

dimensions      [1 0 -1 0 0 0 0];

internalField   nonuniform List<scalar> 
850
(
-0.00272118
0.00278222
-0.00338439
0.000663262
-0.00402559
0.000641257
-0.00461927
0.000593737
-0.00511873
0.00049951
-0.00549876
0.000380083
-0.00573591
0.000237212
-0.00580431
6.84511e-05
-0.00567499
-0.00012926
-0.00532062
-0.00035432
-0.00473328
-0.000587281
-0.00393185
-0.000801373
-0.0029394
-0.000992384
-0.00170314
-0.00123619
-0.00170114
-0.000415351
0.000419509
-0.000137946
-0.000277315
0.000224403
-0.00036227
0.000437418
-0.000212938
0.000535706
-9.82074e-05
0.000518772
1.70174e-05
0.000439012
7.98459e-05
0.000350745
8.83511e-05
0.000274242
7.65829e-05
0.000214134
6.01801e-05
0.000172588
4.16113e-05
0.000152157
2.04881e-05
0.00015345
-1.24175e-06
0.000170614
-1.71142e-05
0.000207029
-3.63683e-05
0.00031473
-0.000107654
0.000530267
-0.000215489
0.00053507
-0.00199444
0.00493917
-0.0028439
0.00151277
-0.00360912
0.00140653
-0.00424612
0.00123078
-0.00477179
0.00102522
-0.00517917
0.000787508
-0.00545001
0.000508098
-0.00555986
0.00017834
-0.00548496
-0.000204122
-0.00521017
-0.000629059
-0.00473994
-0.00105746
-0.00410593
-0.00143533
-0.0033668
-0.00173146
-0.0026847
-0.00191823
-0.0026176
-0.00176818
-0.00151163
-0.00110208
-0.000753336
-0.000753989
-0.000742041
0.00100929
-0.000580625
0.000984253
-0.000252185
0.000781143
-0.000159086
0.000765003
-0.000196734
0.000848389
-0.00018153
0.000839918
2.55573e-05
0.00082041
9.94248e-05
0.000812384
9.6451e-05
0.00080887
8.0171e-05
0.000804893
6.42322e-05
0.000798045
4.85356e-05
0.000785001
3.36095e-05
0.000763305
2.05347e-05
0.000718296
2.79762e-05
0.000609737
7.22717e-05
0.000446963
5.51965e-05
0.000320621
-8.90714e-05
0.000867318
-0.00145977
0.00664514
-0.00231558
0.00236862
-0.00306717
0.00215817
-0.00366716
0.00183082
-0.00417394
0.00153204
-0.00458331
0.00119692
-0.00487347
0.000798297
-0.0050158
0.000320703
-0.00498176
-0.000238126
-0.00475388
-0.000856896
-0.00434188
-0.00146941
-0.0037869
-0.00199026
-0.00316012
-0.00235819
-0.00257274
-0.00250556
-0.00202785
-0.00231303
-0.00128758
-0.00184231
-0.000572987
-0.00146855
-0.00130526
0.000161241
-0.0007303
0.000259908
-0.000350835
0.000356704
-0.000255859
0.000500053
-0.000340055
0.00080633
-0.000487773
0.000832083
0.00093171
0.00102837
0.00110875
0.0011732
0.00122197
0.00125581
0.00127658
0.0013048
0.00108093
0.000296231
0.000700309
0.000435915
0.000192845
0.000418488
0.00107684
-0.00107636
0.00803756
-0.00186174
0.00315404
-0.00243696
0.00273343
-0.00291949
0.00231339
-0.00335841
0.00197099
-0.003739
0.00157755
-0.00403183
0.00109116
-0.00419921
0.000488114
-0.0042002
-0.000237096
-0.00401146
-0.00104559
-0.00365641
-0.0018244
-0.00318993
-0.00245667
-0.0026748
-0.00287324
-0.00216116
-0.00301912
-0.00163627
-0.00283787
-0.001098
-0.00238056
-0.000710466
-0.00185606
-0.000772103
-0.00124361
-0.00024095
-0.000518433
-0.000270056
-0.00070119
-0.000119695
-0.000501188
4.57923e-05
-0.000421334
0.000138186
-0.000432434
7.98099e-05
-0.00042938
0.000376131
-0.000296456
0.000661019
-0.000285023
0.000964262
-0.000303374
0.00128767
-0.000323534
0.00161756
-0.000330026
0.00192217
-0.000304727
0.00214458
-0.000222531
0.00220041
-5.59483e-05
0.00200185
0.000198438
0.00174776
0.000550381
0.00126573
0.000918011
0.000444561
0.00123974
0.00154171
-0.000782397
0.00919476
-0.00146487
0.00383656
-0.00171537
0.00298397
-0.00201459
0.00261265
-0.00233786
0.00229431
-0.00264577
0.00188549
-0.00290344
0.00134887
-0.00307082
0.000655532
-0.00308898
-0.000218902
-0.00292665
-0.00120787
-0.00263765
-0.00211334
-0.00228643
-0.00280779
-0.0019167
-0.00324287
-0.00154241
-0.0033933
-0.00116222
-0.00321799
-0.000820461
-0.00272228
-0.000616206
-0.0020603
-0.000481508
-0.0013783
-0.000208176
-0.000791761
-0.000220943
-0.000688422
-0.000160491
-0.000561639
-7.45152e-05
-0.000507305
3.11072e-09
-0.000506945
8.234e-05
-0.000511708
0.000277762
-0.000491869
0.000505607
-0.000512856
0.000756672
-0.000554425
0.0010306
-0.000597444
0.00131994
-0.000619343
0.00160675
-0.000591517
0.00185765
-0.000473404
0.00202043
-0.000218697
0.0020437
0.0001752
0.00195357
0.000640561
0.00177267
0.00109896
0.00147607
0.00153642
0.00152702
0.00149085
-0.000172073
0.00171806
-0.00128073
0.00112845
-0.00120906
-0.000681954
0.0103012
-0.00120281
0.00435747
-0.000932408
0.00271361
-0.000958417
0.00263871
-0.00114703
0.00248297
-0.00135378
0.00209227
-0.00152584
0.00152096
-0.00164097
0.000770696
-0.00162781
-0.000232021
-0.00147669
-0.00135895
-0.0012747
-0.00231524
-0.00107399
-0.0030084
-0.000893397
-0.00342333
-0.000720921
-0.00356565
-0.000540826
-0.00339799
-0.000383696
-0.00287936
-0.00030138
-0.0021426
-0.000265014
-0.00141466
-0.000188106
-0.000868668
-0.000212046
-0.000664482
-0.000205786
-0.000567899
-0.000170075
-0.000543016
-0.000117759
-0.00055926
-4.03931e-05
-0.000589071
8.78329e-05
-0.00062009
0.000245872
-0.000670887
0.000426304
-0.000734844
0.000629823
-0.000800945
0.000856796
-0.000846292
0.0011059
-0.00084059
0.00137056
-0.000738035
0.00163108
-0.000479184
0.00182492
-1.86013e-05
0.0019321
0.000533425
0.00202338
0.00100773
0.00217673
0.00138313
0.00226476
0.0014029
0.00236034
0.00162255
0.0019523
0.00153657
0.00080696
-0.000879713
0.0116486
-0.000854369
0.00433217
0.000128894
0.0017304
0.000369574
0.00239807
0.000257636
0.00259495
0.000122836
0.00222711
5.93366e-05
0.0015845
8.38632e-05
0.000746204
0.000191831
-0.000339968
0.000317091
-0.00148416
0.000390651
-0.00238872
0.000394377
-0.003012
0.000339688
-0.00336848
0.000260631
-0.00348642
0.000194751
-0.00333199
0.00013665
-0.0028212
5.21858e-05
-0.00205812
-5.321e-05
-0.00130926
-0.00013879
-0.000783087
-0.000224113
-0.000579161
-0.000269511
-0.000522504
-0.000279281
-0.000533248
-0.000264938
-0.000573604
-0.00023095
-0.000623058
-0.000174726
-0.000676309
-0.000104272
-0.000741332
-2.1859e-05
-0.000817242
7.45151e-05
-0.000897297
0.000191722
-0.000963471
0.000341832
-0.000990665
0.000541529
-0.000937693
0.0008062
-0.000743813
0.00112818
-0.000340541
0.00144116
0.000220489
0.00171753
0.000731408
0.00205101
0.00104971
0.00238081
0.00107317
0.00293895
0.00106448
0.00304897
0.00142662
0.00392068
0.00233754
0.00983208
0.00285201
0.00381776
0.00302126
0.0015612
0.00277894
0.00264044
0.00244108
0.00293284
0.00220971
0.00245851
0.00214643
0.00164781
0.00226868
0.00062397
0.00244149
-0.000512777
0.00245272
-0.00149535
0.00229948
-0.0022354
0.00202061
-0.00273299
0.00167009
-0.00301778
0.00130439
-0.00312054
0.000973635
-0.0030011
0.000678381
-0.00252588
0.000388577
-0.00176829
0.000116592
-0.00103727
-0.000101182
-0.000565312
-0.000255773
-0.000424572
-0.000350739
-0.000427542
-0.000403327
-0.000480662
-0.000432576
-0.000544356
-0.000453522
-0.00060211
-0.00047479
-0.000655035
-0.000503875
-0.000712234
-0.000543488
-0.000777609
-0.000592748
-0.00084801
-0.000644343
-0.000911841
-0.000684733
-0.000950236
-0.000687183
-0.0009352
-0.000600773
-0.000830178
-0.000345172
-0.000596095
5.77073e-05
-0.000182339
0.000452435
0.000336731
0.000796601
0.000705598
0.00108989
0.000779938
0.0014535
0.00070093
0.000992073
0.0018881
0.00520008
0.0104031
0.0142142
0.0123222
0.00345327
0.0103617
0.00460104
0.00871845
0.00457612
0.00750315
0.00367385
0.00671666
0.00243433
0.00616058
0.00118006
0.00559275
5.50794e-05
0.00496032
-0.000862842
0.00427643
-0.00155138
0.0035604
-0.00201681
0.00284586
-0.00230306
0.00218429
-0.00245877
0.00162133
-0.002438
0.00111986
-0.00202434
0.000619634
-0.00126805
0.00018624
-0.000603881
-0.000120862
-0.00025821
-0.000320904
-0.000224533
-0.000448247
-0.000300201
-0.000527299
-0.000401611
-0.000587923
-0.000483731
-0.000657478
-0.000532551
-0.000752448
-0.000560058
-0.000881202
-0.000583466
-0.00104831
-0.000610482
-0.00125849
-0.000637796
-0.0015177
-0.0006526
-0.00183413
-0.00063376
-0.00221647
-0.00055282
-0.00266941
-0.00037719
-0.00319156
-7.38889e-05
-0.00375122
0.000377368
-0.00438658
0.000972136
-0.00530174
0.0016208
-0.00668957
0.00216781
-0.00834075
0.00235216
-0.00781402
0.00136143
-0.00229521
0.00989869
0.00502082
0.00858014
0.00591965
0.00792754
0.00522879
0.00750924
0.00409223
0.00719776
0.00274589
0.00690479
0.00147313
0.0064944
0.000465589
0.00588943
-0.000257737
0.00511507
-0.000776887
0.00424367
-0.00114526
0.00335207
-0.00141128
0.0025305
-0.00163701
0.00185589
-0.0017633
0.00125513
-0.00142356
0.00060284
-0.000615769
8.54764e-05
-8.65309e-05
-0.000221007
4.82679e-05
-0.000415294
-3.02502e-05
-0.000537839
-0.000177658
-0.000611128
-0.000328321
-0.000677379
-0.000417478
-0.000771761
-0.000438167
-0.000909795
-0.000422018
-0.00109329
-0.000399959
-0.00132038
-0.000383371
-0.00158955
-0.000368602
-0.00189749
-0.000344623
-0.00223474
-0.000296475
-0.00258108
-0.000206435
-0.00290289
-5.53417e-05
-0.00317659
0.000199859
-0.00340328
0.000604105
-0.00358244
0.00115134
-0.00370271
0.00174111
-0.00372539
0.00219054
-0.0034843
0.00211111
-0.00204439
-7.84456e-05
-0.00425643
-0.00098469
0.00603044
0.00106097
0.00387404
0.00273404
0.0035558
0.00382019
0.00300616
0.00460642
0.00195975
0.00501801
0.00106165
0.00506235
0.000421369
0.00480775
-3.01797e-06
0.0043268
-0.000295812
0.00368065
-0.000498971
0.00293147
-0.000661931
0.0021585
-0.000863887
0.00145504
-0.00105984
0.000785622
-0.000754183
0.00020088
-3.10791e-05
-0.000160323
0.000274649
-0.000307228
0.000195163
-0.000383802
4.63192e-05
-0.000460645
-0.000100815
-0.000549592
-0.00023937
-0.000659144
-0.000307925
-0.000793115
-0.000304198
-0.000949428
-0.000265706
-0.00112369
-0.000225691
-0.00131189
-0.000195158
-0.0015095
-0.000170978
-0.00170929
-0.000144809
-0.00189891
-0.000106815
-0.0020609
-4.44084e-05
-0.00217228
5.60709e-05
-0.00218223
0.000209852
-0.00204209
0.000464014
-0.00173004
0.000839331
-0.00123939
0.00125051
-0.000319272
0.00127047
0.00110292
0.000688956
0.00161924
-0.000594728
-0.00254589
-0.012986
-0.0161728
-0.0101253
-0.00624047
-0.00267664
0.000335898
0.00230091
0.0033677
0.00379438
0.00379703
0.00350727
0.0030148
0.00235996
0.00150387
0.00045179
-0.00029568
-0.0003202
-3.91326e-05
0.000162589
0.000215805
0.000122358
-0.00010905
-0.000408455
-0.000703765
-0.00096043
-0.00117711
-0.00136342
-0.00152582
-0.00166239
-0.00176134
-0.00179829
-0.00173521
-0.0015188
-0.00104868
-0.00020366
0.00105203
0.00232748
0.00302142
0.00243195
)
;

boundaryField
{
    floor
    {
        type            calculated;
        value           nonuniform List<scalar> 
36
(
0
0
0
0
0
0
0
0
0
0
0
0
0
0
0
0
0
0
0
-4.76413e-06
-1.15772e-05
-1.66167e-05
-2.02166e-05
-1.88936e-05
-1.97246e-05
-1.82758e-05
-1.94445e-06
-3.83621e-06
-4.25356e-06
-4.46654e-06
-4.06056e-06
-6.7764e-06
-9.03804e-06
-9.74508e-06
-1.15434e-05
-1.27161e-05
)
;
    }
    ceiling
    {
        type            calculated;
        value           nonuniform List<scalar> 
43
(
-1.73286e-05
-1.72484e-05
-1.69808e-05
-1.07747e-05
-7.96686e-06
-6.2853e-06
-5.18893e-06
-5.04773e-06
-5.2098e-06
-5.56525e-06
-5.93254e-06
-6.37356e-06
-6.95472e-06
-7.68538e-06
-7.93573e-06
-6.89066e-06
-6.57326e-06
-6.44587e-06
-6.58302e-06
-6.90677e-06
-7.3618e-06
-7.95701e-06
-8.52896e-06
-8.90052e-06
-9.05254e-06
-9.01693e-06
-8.84062e-06
-8.56582e-06
-8.2258e-06
-7.84367e-06
-7.43075e-06
-6.98208e-06
-6.51722e-06
-6.06951e-06
-5.64913e-06
-5.14741e-06
-4.93791e-06
-4.95256e-06
-5.21691e-06
-4.848e-06
9.89579e-06
6.72154e-06
-2.49115e-05
)
;
    }
    sWall
    {
        type            calculated;
        value           uniform -0.000202972;
    }
    nWall
    {
        type            calculated;
        value           nonuniform List<scalar> 6(-5.3319e-05 -6.36441e-05 -6.467e-05 -8.31307e-05 -9.12758e-05 -0.000109058);
    }
    sideWalls
    {
        type            empty;
        value           nonuniform 0();
    }
    glass1
    {
        type            calculated;
        value           nonuniform List<scalar> 9(-6.09866e-05 -0.000162441 -0.000246131 -0.00031598 -0.000374739 -0.000424413 -0.000467666 -0.000520918 -0.00058089);
    }
    glass2
    {
        type            calculated;
        value           nonuniform List<scalar> 2(-0.000287263 -0.00031869);
    }
    sun
    {
        type            calculated;
        value           uniform 0;
    }
    Table_master
    {
        type            calculated;
        value           nonuniform List<scalar> 9(-1.53758e-07 -1.53788e-07 -1.5379e-07 -1.53794e-07 -1.53802e-07 -1.53813e-07 -1.53829e-07 -1.53849e-07 -1.53867e-07);
    }
    Table_slave
    {
        type            calculated;
        value           nonuniform List<scalar> 9(1.53826e-07 1.53772e-07 1.53674e-07 1.53568e-07 1.5346e-07 1.53361e-07 1.53293e-07 1.53282e-07 1.53296e-07);
    }
    inlet
    {
        type            calculated;
        value           uniform -0.0114662;
    }
    outlet
    {
        type            calculated;
        value           nonuniform List<scalar> 2(0.0132064 0.00320408);
    }
}


// ************************************************************************* //
