/*--------------------------------*- C++ -*----------------------------------*\
  =========                 |
  \\      /  F ield         | OpenFOAM: The Open Source CFD Toolbox
   \\    /   O peration     | Website:  https://openfoam.org
    \\  /    A nd           | Version:  6
     \\/     M anipulation  |
\*---------------------------------------------------------------------------*/
FoamFile
{
    version     2.0;
    format      ascii;
    class       volScalarField;
    location    "2300";
    object      k;
}
// * * * * * * * * * * * * * * * * * * * * * * * * * * * * * * * * * * * * * //

dimensions      [0 2 -2 0 0 0 0];

internalField   nonuniform List<scalar> 
458
(
0.00288411
0.00348652
0.00375335
0.00415753
0.0045599
0.00498438
0.00545717
0.00590898
0.00628536
0.00649561
0.00641788
0.00545115
0.00441638
0.00342281
0.00259124
0.000589054
0.000812196
0.00110674
0.00129539
0.00128821
0.00114524
0.000991817
0.000862753
0.000757576
0.000671382
0.000600128
0.000540505
0.000490055
0.000445847
0.000405206
0.000364998
0.000326714
0.000266787
0.00477556
0.00849163
0.00530865
0.00564362
0.00614705
0.00681083
0.00761478
0.00856241
0.00944149
0.00999456
0.0101152
0.00927655
0.0077711
0.00609128
0.0042831
0.00345262
0.00266387
0.00187812
0.000544985
0.00116113
0.00175486
0.00208831
0.00217761
0.00187791
0.00153813
0.00126538
0.00105728
0.000896986
0.000771828
0.000672152
0.000587872
0.000513744
0.00045835
0.00042414
0.000547971
0.000355637
0.00667206
0.0142266
0.00591511
0.0057819
0.00605752
0.00657632
0.00731475
0.00822981
0.00909045
0.00975132
0.0101575
0.00987686
0.00867364
0.00731547
0.00572766
0.00448431
0.00357248
0.00227688
0.000957376
0.0015598
0.00207627
0.00243626
0.00252377
0.00197744
0.00150817
0.00116431
0.000918253
0.000741172
0.000611815
0.00051589
0.000446181
0.000399216
0.000374473
0.000379215
0.000713013
0.000429084
0.00873284
0.0219359
0.00660502
0.00554649
0.00557661
0.00598448
0.00677041
0.00773779
0.00861181
0.00939554
0.00998177
0.00983332
0.00868929
0.00734033
0.00603988
0.00487572
0.00394795
0.00292724
0.00254316
0.0024622
0.0026832
0.00299904
0.00319929
0.00314935
0.00251967
0.00210521
0.0018282
0.00162365
0.00145295
0.00130755
0.00117141
0.00103437
0.000886638
0.000645344
0.000501179
0.000908081
0.000521462
0.0110799
0.0325351
0.00849843
0.00537064
0.00511617
0.00556535
0.00669995
0.00783854
0.00875462
0.00963072
0.0102386
0.00992891
0.00857187
0.0070019
0.00577089
0.00484864
0.0041659
0.00370024
0.00390336
0.00399162
0.00412735
0.00423777
0.0041766
0.00389746
0.00347535
0.00315227
0.00294
0.00275849
0.00255989
0.0023112
0.00201843
0.00169555
0.00136118
0.00101326
0.000745102
0.00082717
0.000800302
0.000756793
0.000858298
0.000864788
0.0139132
0.0445339
0.0138333
0.00605617
0.00502236
0.00542493
0.00739356
0.00857908
0.00948638
0.0103722
0.0108631
0.0102955
0.00854421
0.00657073
0.00522133
0.00458177
0.00436352
0.0044643
0.00487755
0.00524008
0.00538775
0.00526914
0.00490195
0.00437293
0.00386392
0.00354685
0.00335304
0.0031754
0.00296692
0.00270542
0.00239012
0.00204247
0.00168709
0.00134075
0.00106422
0.000927769
0.000871817
0.00113545
0.00272471
0.00150615
0.017115
0.0525731
0.0243046
0.0111398
0.00759665
0.0078256
0.00927709
0.0100089
0.0107299
0.011498
0.0117922
0.0108544
0.00857087
0.00615248
0.00477724
0.00446781
0.00469294
0.00518669
0.00575963
0.00608127
0.00599967
0.00559794
0.00499774
0.00434602
0.00382168
0.00353257
0.00337126
0.0032357
0.0030904
0.00293055
0.00273193
0.00248434
0.00220955
0.00192645
0.00170031
0.00155999
0.00151832
0.00179066
0.00397816
0.00235859
0.0180802
0.0543083
0.0362898
0.0240091
0.016763
0.0140818
0.0126912
0.0122457
0.0125123
0.0130066
0.0129229
0.0113879
0.00837081
0.00559931
0.00464362
0.00463789
0.00502908
0.00556581
0.00599433
0.00605336
0.00569647
0.005095
0.00442515
0.00383689
0.00343017
0.00320999
0.00309987
0.00304495
0.00303202
0.00306659
0.00315376
0.00326489
0.00335204
0.00341476
0.00358848
0.00407493
0.00503731
0.00630595
0.0138442
0.00397613
0.0175463
0.0259481
0.0249235
0.0221092
0.0189612
0.0165586
0.0149135
0.0143753
0.0145375
0.0147031
0.0139346
0.0113324
0.00720035
0.00511577
0.00459108
0.00466862
0.00494932
0.00522294
0.00530071
0.00508207
0.00462571
0.0040431
0.00348226
0.00304168
0.00275817
0.00261069
0.00255579
0.0025671
0.00263746
0.00276749
0.00295746
0.00320329
0.0035159
0.00391342
0.00443114
0.00506216
0.00571547
0.00624724
0.00659923
0.00366424
0.00794673
0.0119907
0.0139942
0.0148826
0.0158889
0.0167355
0.0168755
0.0161122
0.0137092
0.00855449
0.00541456
0.00440079
0.00417429
0.00419003
0.00423678
0.00419245
0.003978
0.0035998
0.00314389
0.0027091
0.00235505
0.00210875
0.001963
0.00189659
0.00189066
0.00193655
0.00203227
0.00217972
0.00238434
0.00266042
0.00301378
0.00344641
0.00395477
0.00449361
0.00495008
0.00514829
0.00482517
0.00240601
0.00819894
0.027921
0.0272246
0.0275335
0.0259439
0.0215417
0.0177343
0.0131256
0.0084679
0.00525827
0.0039807
0.0035307
0.00336789
0.00328626
0.00319431
0.00304386
0.00281922
0.00254421
0.00226814
0.00203489
0.00186386
0.00175344
0.00169258
0.00167007
0.00168244
0.00173463
0.00183002
0.00197211
0.00216664
0.00242473
0.00275581
0.003165
0.00363726
0.00411318
0.00454562
0.00515519
0.00313476
0.0025477
0.0120305
0.0122851
0.0126374
0.0174164
0.0140721
0.0097119
0.00581299
0.0046329
0.00373518
0.00294207
0.00232799
0.00197487
0.00176477
0.00165598
0.0015854
0.00151957
0.00143993
0.00133928
0.0012229
0.00110655
0.0010073
0.000934868
0.000890335
0.000870651
0.000873003
0.000896134
0.000940832
0.00100496
0.0010892
0.00119686
0.00133357
0.00149795
0.00169303
0.00192301
0.00219065
0.00248408
0.00271536
0.00211814
0.00185047
0.00253727
)
;

boundaryField
{
    floor
    {
        type            kqRWallFunction;
        value           nonuniform List<scalar> 
36
(
0.00259124
0.000589054
0.000812196
0.00110674
0.00129539
0.00128821
0.00114524
0.000991817
0.000862753
0.000757576
0.000671382
0.000600128
0.000540505
0.000490055
0.000445847
0.000405206
0.000364998
0.000326714
0.000266787
0.000266787
0.000355637
0.000429084
0.000521462
0.000756793
0.000858298
0.000864788
0.00259124
0.00345262
0.00266387
0.00187812
0.000589054
0.00187812
0.000544985
0.00227688
0.000957376
0.00254316
)
;
    }
    ceiling
    {
        type            kqRWallFunction;
        value           nonuniform List<scalar> 
43
(
0.0120305
0.0122851
0.0126374
0.0174164
0.0140721
0.0097119
0.00581299
0.0046329
0.00373518
0.00294207
0.00232799
0.00197487
0.00176477
0.00165598
0.0015854
0.00151957
0.00143993
0.00133928
0.0012229
0.00110655
0.0010073
0.000934868
0.000890335
0.000870651
0.000873003
0.000896134
0.000940832
0.00100496
0.0010892
0.00119686
0.00133357
0.00149795
0.00169303
0.00192301
0.00219065
0.00248408
0.00271536
0.00211814
0.00185047
0.00253727
0.0175463
0.0259481
0.00819894
)
;
    }
    sWall
    {
        type            kqRWallFunction;
        value           uniform 0.0120305;
    }
    nWall
    {
        type            kqRWallFunction;
        value           nonuniform List<scalar> 6(0.000864788 0.00150615 0.00235859 0.00240601 0.0025477 0.00253727);
    }
    sideWalls
    {
        type            empty;
    }
    glass1
    {
        type            kqRWallFunction;
        value           nonuniform List<scalar> 9(0.00288411 0.00477556 0.00667206 0.00873284 0.0110799 0.0139132 0.017115 0.0180802 0.0175463);
    }
    glass2
    {
        type            kqRWallFunction;
        value           nonuniform List<scalar> 2(0.00397613 0.00366424);
    }
    sun
    {
        type            kqRWallFunction;
        value           nonuniform List<scalar> 
14
(
0.00288411
0.00348652
0.00375335
0.00415753
0.0045599
0.00498438
0.00545717
0.00590898
0.00628536
0.00649561
0.00641788
0.00545115
0.00441638
0.00342281
)
;
    }
    Table_master
    {
        type            kqRWallFunction;
        value           nonuniform List<scalar> 9(0.00197744 0.00150817 0.00116431 0.000918253 0.000741172 0.000611815 0.00051589 0.000446181 0.000399216);
    }
    Table_slave
    {
        type            kqRWallFunction;
        value           nonuniform List<scalar> 9(0.00251967 0.00210521 0.0018282 0.00162365 0.00145295 0.00130755 0.00117141 0.00103437 0.000886638);
    }
    inlet
    {
        type            turbulentIntensityKineticEnergyInlet;
        intensity       0.05;
        value           uniform 0.0018375;
    }
    outlet
    {
        type            zeroGradient;
    }
}


// ************************************************************************* //
