/*--------------------------------*- C++ -*----------------------------------*\
  =========                 |
  \\      /  F ield         | OpenFOAM: The Open Source CFD Toolbox
   \\    /   O peration     | Website:  https://openfoam.org
    \\  /    A nd           | Version:  6
     \\/     M anipulation  |
\*---------------------------------------------------------------------------*/
FoamFile
{
    version     2.0;
    format      ascii;
    class       volScalarField;
    location    "2300";
    object      k;
}
// * * * * * * * * * * * * * * * * * * * * * * * * * * * * * * * * * * * * * //

dimensions      [0 2 -2 0 0 0 0];

internalField   nonuniform List<scalar> 
458
(
0.00243309
0.00291712
0.00301943
0.00332139
0.00361791
0.00390987
0.00421108
0.00449289
0.00468219
0.00474313
0.00465076
0.00439943
0.00400294
0.0034983
0.00293878
0.000446284
0.00065918
0.000861734
0.000895467
0.000853853
0.000749005
0.000643019
0.000554305
0.000482264
0.000423533
0.000375265
0.000335269
0.000301717
0.000272716
0.000246509
0.000221233
0.0002031
0.000168152
0.00454147
0.00856933
0.00496666
0.00528479
0.00580542
0.0064042
0.00704832
0.00768937
0.00823034
0.00855448
0.00857852
0.00827266
0.00764628
0.00674891
0.00565959
0.00327866
0.00211686
0.00124639
0.000490986
0.00112865
0.00144195
0.00156797
0.00153599
0.00130303
0.00106538
0.000872628
0.000723404
0.000607755
0.000517168
0.000444887
0.000385469
0.000336155
0.000300314
0.00027846
0.00044294
0.000268503
0.00677633
0.0156221
0.0062897
0.00608946
0.00660093
0.00730226
0.0081114
0.00892873
0.00959561
0.0099924
0.0100552
0.00977165
0.00915097
0.00825669
0.00720371
0.00597253
0.00469936
0.00229497
0.00170978
0.00189178
0.00199411
0.00201663
0.00191928
0.00146345
0.00110714
0.000856084
0.000678889
0.00055161
0.000458235
0.000388456
0.000336029
0.000297709
0.000273458
0.000272276
0.000646883
0.00035651
0.00932025
0.0252409
0.00810091
0.00651727
0.00691317
0.00773761
0.00879527
0.00979187
0.0105043
0.0108928
0.0109469
0.0106687
0.0100428
0.00913052
0.00811891
0.00709863
0.00609922
0.00490162
0.00364861
0.00317488
0.00295139
0.0028006
0.0026346
0.00240328
0.00185861
0.0015216
0.0013088
0.00116117
0.00104507
0.000940748
0.000847243
0.000754946
0.000655252
0.000487389
0.000386084
0.000878765
0.000454021
0.012314
0.0377302
0.012135
0.00743028
0.00748209
0.00852093
0.0100166
0.0110696
0.0116529
0.011915
0.011891
0.0115515
0.0108573
0.00984786
0.00866389
0.00746548
0.00637029
0.00547825
0.00483563
0.00430725
0.0038898
0.00352958
0.00318683
0.00284102
0.00250201
0.00225589
0.00208546
0.00194611
0.00180819
0.00165134
0.00146251
0.00125546
0.00104045
0.000803727
0.000604243
0.000762921
0.000812026
0.000790002
0.000940518
0.00112945
0.0159162
0.0507587
0.0213396
0.0111229
0.0101306
0.0114777
0.0127612
0.0132493
0.0133681
0.0133402
0.0131689
0.0127224
0.0118843
0.0106527
0.00916706
0.00765731
0.00636679
0.00546907
0.00495302
0.00460377
0.0042503
0.00385551
0.00344381
0.0030498
0.00273159
0.00252848
0.0023937
0.00227785
0.00215388
0.00200356
0.0018041
0.00157146
0.00132602
0.00107717
0.000869649
0.000801011
0.000856172
0.000873692
0.0014481
0.00121265
0.0194479
0.0587187
0.0356157
0.0225529
0.0193609
0.0185053
0.0174046
0.016436
0.0157545
0.0153229
0.0149282
0.0142831
0.0131839
0.0116118
0.00973949
0.0078792
0.00638366
0.00544857
0.00496922
0.00464339
0.00427687
0.00384748
0.0034083
0.00301802
0.00273336
0.00256828
0.00247296
0.00240419
0.00234165
0.00227106
0.00217077
0.00199671
0.00178416
0.00155645
0.00137346
0.00127811
0.0013271
0.00150808
0.00199769
0.00172528
0.0200418
0.0557733
0.0409305
0.0337137
0.0288673
0.0245708
0.0214024
0.0194195
0.0183638
0.0178134
0.017273
0.0163088
0.0147189
0.012579
0.0101617
0.00788326
0.00621779
0.00526447
0.00476472
0.00437685
0.003957
0.00351292
0.00310181
0.00277239
0.00255274
0.00243522
0.00238686
0.00238527
0.0024243
0.00250408
0.00262282
0.00275784
0.00282717
0.00287229
0.00303322
0.00354352
0.00459537
0.00596695
0.0109796
0.00408994
0.0188815
0.0259934
0.0245799
0.0219664
0.0202509
0.0196381
0.0198364
0.0205035
0.0211862
0.0213663
0.0206115
0.0187339
0.0159652
0.0127791
0.00960905
0.00692414
0.00545936
0.00467215
0.00418681
0.00377723
0.003366
0.00297245
0.00263522
0.00238283
0.00222386
0.00214649
0.00213217
0.00217029
0.00225833
0.00239653
0.00258322
0.00281397
0.00310201
0.00346317
0.00393343
0.00448672
0.00500439
0.00534726
0.00553807
0.00366894
0.00676991
0.0195751
0.0266885
0.0301417
0.0317365
0.0315426
0.0295854
0.0261956
0.0218489
0.0169113
0.0124896
0.00912298
0.00674158
0.00519092
0.00428992
0.00373364
0.00332529
0.00296924
0.00264567
0.00236363
0.00213912
0.00197716
0.00187051
0.00180855
0.00178601
0.00180478
0.0018697
0.00198742
0.00216648
0.00241756
0.00273952
0.00312676
0.00356256
0.00397784
0.00423691
0.00422383
0.00395254
0.00255183
0.00861367
0.0258699
0.0289615
0.0277294
0.0263896
0.0242088
0.0211122
0.0175072
0.0138407
0.0104681
0.0077653
0.00585067
0.00461027
0.0038562
0.00340829
0.00311991
0.00290604
0.00272787
0.00257545
0.00244769
0.00234175
0.00225001
0.00216579
0.00208851
0.00202509
0.00199057
0.00199643
0.00205136
0.00216917
0.00236174
0.00263656
0.00299201
0.00340243
0.00380842
0.00404982
0.00431477
0.00435339
0.0026651
0.00637616
0.00746095
0.00829066
0.00981506
0.00952076
0.00930357
0.00887912
0.00809198
0.00703489
0.00583859
0.00464831
0.0036001
0.00278905
0.00222797
0.00186261
0.00162434
0.00145958
0.00133541
0.00123488
0.00115141
0.00108331
0.00102967
0.000989381
0.000961273
0.000946236
0.000947167
0.00096797
0.00100907
0.00107273
0.00116387
0.0012837
0.00143231
0.00161321
0.0018302
0.00208413
0.00239586
0.00252122
0.00240088
0.00211055
0.00184236
)
;

boundaryField
{
    floor
    {
        type            kqRWallFunction;
        value           nonuniform List<scalar> 
36
(
0.00293878
0.000446284
0.00065918
0.000861734
0.000895467
0.000853853
0.000749005
0.000643019
0.000554305
0.000482264
0.000423533
0.000375265
0.000335269
0.000301717
0.000272716
0.000246509
0.000221233
0.0002031
0.000168152
0.000168152
0.000268503
0.00035651
0.000454021
0.000790002
0.000940518
0.00112945
0.00293878
0.00327866
0.00211686
0.00124639
0.000446284
0.00124639
0.000490986
0.00229497
0.00170978
0.00364861
)
;
    }
    ceiling
    {
        type            kqRWallFunction;
        value           nonuniform List<scalar> 
43
(
0.00637616
0.00746095
0.00829066
0.00981506
0.00952076
0.00930357
0.00887912
0.00809198
0.00703489
0.00583859
0.00464831
0.0036001
0.00278905
0.00222797
0.00186261
0.00162434
0.00145958
0.00133541
0.00123488
0.00115141
0.00108331
0.00102967
0.000989381
0.000961273
0.000946236
0.000947167
0.00096797
0.00100907
0.00107273
0.00116387
0.0012837
0.00143231
0.00161321
0.0018302
0.00208413
0.00239586
0.00252122
0.00240088
0.00211055
0.00184236
0.0188815
0.0259934
0.00861367
)
;
    }
    sWall
    {
        type            kqRWallFunction;
        value           uniform 0.00637616;
    }
    nWall
    {
        type            kqRWallFunction;
        value           nonuniform List<scalar> 6(0.00112945 0.00121265 0.00172528 0.00255183 0.0026651 0.00184236);
    }
    sideWalls
    {
        type            empty;
    }
    glass1
    {
        type            kqRWallFunction;
        value           nonuniform List<scalar> 9(0.00243309 0.00454147 0.00677633 0.00932025 0.012314 0.0159162 0.0194479 0.0200418 0.0188815);
    }
    glass2
    {
        type            kqRWallFunction;
        value           nonuniform List<scalar> 2(0.00408994 0.00366894);
    }
    sun
    {
        type            kqRWallFunction;
        value           nonuniform List<scalar> 
14
(
0.00243309
0.00291712
0.00301943
0.00332139
0.00361791
0.00390987
0.00421108
0.00449289
0.00468219
0.00474313
0.00465076
0.00439943
0.00400294
0.0034983
)
;
    }
    Table_master
    {
        type            kqRWallFunction;
        value           nonuniform List<scalar> 9(0.00146345 0.00110714 0.000856084 0.000678889 0.00055161 0.000458235 0.000388456 0.000336029 0.000297709);
    }
    Table_slave
    {
        type            kqRWallFunction;
        value           nonuniform List<scalar> 9(0.00185861 0.0015216 0.0013088 0.00116117 0.00104507 0.000940748 0.000847243 0.000754946 0.000655252);
    }
    inlet
    {
        type            turbulentIntensityKineticEnergyInlet;
        intensity       0.05;
        value           uniform 0.0003375;
    }
    outlet
    {
        type            zeroGradient;
    }
}


// ************************************************************************* //
