/*--------------------------------*- C++ -*----------------------------------*\
  =========                 |
  \\      /  F ield         | OpenFOAM: The Open Source CFD Toolbox
   \\    /   O peration     | Website:  https://openfoam.org
    \\  /    A nd           | Version:  6
     \\/     M anipulation  |
\*---------------------------------------------------------------------------*/
FoamFile
{
    version     2.0;
    format      ascii;
    class       volScalarField;
    location    "2800";
    object      nut;
}
// * * * * * * * * * * * * * * * * * * * * * * * * * * * * * * * * * * * * * //

dimensions      [0 2 -1 0 0 0 0];

internalField   nonuniform List<scalar> 
458
(
0.000972722
0.00105399
0.00106431
0.00111325
0.00115838
0.0011999
0.0012394
0.00127885
0.00131594
0.00134255
0.00135424
0.0013468
0.00131854
0.00127331
0.00121924
0.000419769
0.000527563
0.000581495
0.000568165
0.000544532
0.00051193
0.000478922
0.000449019
0.000422539
0.0003991
0.00037834
0.000359913
0.000343253
0.000327755
0.000312624
0.00029662
0.000283583
0.000256832
0.00136183
0.00312703
0.00292507
0.0034047
0.0038416
0.00428741
0.00471302
0.0050727
0.00535858
0.00561096
0.00579367
0.00584863
0.00568041
0.0050837
0.00357737
0.00125706
0.00100412
0.000778049
0.000484223
0.000951437
0.00126692
0.00147217
0.00152814
0.00125216
0.00109919
0.000987224
0.000899982
0.000830059
0.00077162
0.000718266
0.000667486
0.000617505
0.000574061
0.000537979
0.000626887
0.000330384
0.00169376
0.00432011
0.00355818
0.00468315
0.00520385
0.00558265
0.00586912
0.00608962
0.0062813
0.0064921
0.00670751
0.00689502
0.00701122
0.00699639
0.00676184
0.00608459
0.00496794
0.00112104
0.000972597
0.00133716
0.00165413
0.00190354
0.00193782
0.000720179
0.00063696
0.000569173
0.000514307
0.000469703
0.000433163
0.000403054
0.00037827
0.000358303
0.000385873
0.000442562
0.000699802
0.000379163
0.00201979
0.00572152
0.00355606
0.0050295
0.00564515
0.00586911
0.00595085
0.00599696
0.00607805
0.00624014
0.00646642
0.00672988
0.00699752
0.00721157
0.00733272
0.00721775
0.00665648
0.00512011
0.00130701
0.00164814
0.00211268
0.00250215
0.00275226
0.00266119
0.000793325
0.000723345
0.000675969
0.000641711
0.000613628
0.000586261
0.000560531
0.000533529
0.000501806
0.000471655
0.000469983
0.000773763
0.000422355
0.00235502
0.00754792
0.00409126
0.00476255
0.00566261
0.00588367
0.00584658
0.00574102
0.00574666
0.00589297
0.0061266
0.00642555
0.00675526
0.00701751
0.00715891
0.00710868
0.00680879
0.00618667
0.00498153
0.00455266
0.00435181
0.00421464
0.00408849
0.00389612
0.00332591
0.00306924
0.00294005
0.00284883
0.00274888
0.00260961
0.00235584
0.00202051
0.00162955
0.00122391
0.000904967
0.000841789
0.000662013
0.00055749
0.00063526
0.000696957
0.00270876
0.00953044
0.0060427
0.0047512
0.0052206
0.00561771
0.00578479
0.00559819
0.00561507
0.00575066
0.00597535
0.00628199
0.00661579
0.00688423
0.00699742
0.00690389
0.00662668
0.00625264
0.00583386
0.00553196
0.00526476
0.00499072
0.00472474
0.00447312
0.00421502
0.00403522
0.00389983
0.00377077
0.00362803
0.00346083
0.00323125
0.00290298
0.00247591
0.00197124
0.001497
0.00112155
0.000874934
0.000729545
0.000959266
0.000714242
0.00303203
0.0109661
0.008867
0.00659855
0.0058729
0.00574856
0.00586443
0.00580387
0.00575962
0.00581157
0.00600347
0.00631686
0.0066688
0.00694071
0.00702541
0.00687964
0.00656283
0.00621786
0.00594972
0.0057278
0.00543879
0.00507637
0.00470821
0.00439345
0.00415942
0.00400201
0.00387481
0.00374586
0.00360769
0.00346674
0.00332945
0.00314
0.00282786
0.00240776
0.00197101
0.00157111
0.00127992
0.00113221
0.0010757
0.000813648
0.0030935
0.00990672
0.00889368
0.00834866
0.00768167
0.00710445
0.00664603
0.00619505
0.00593287
0.00593081
0.00616355
0.00653858
0.00692351
0.00717815
0.00719711
0.00696308
0.00657454
0.00620057
0.00590933
0.00556193
0.00508343
0.00459471
0.00419299
0.00390962
0.00372422
0.00359212
0.00347208
0.00334896
0.00323115
0.00313792
0.00308699
0.0030745
0.00296798
0.00269322
0.00242544
0.00225175
0.0022391
0.00231373
0.00277692
0.00129491
0.00300947
0.00356309
0.00405925
0.00428012
0.0045005
0.00462504
0.00474755
0.00497652
0.0053785
0.00591464
0.0065035
0.0070418
0.00742127
0.00754838
0.00737413
0.00695478
0.00646225
0.00600743
0.00547073
0.004866
0.00430647
0.00387952
0.00358882
0.00339325
0.00324674
0.00311276
0.002969
0.00281061
0.00264753
0.00249403
0.00235609
0.0022297
0.00212307
0.00203385
0.00197847
0.0019586
0.0019343
0.0018677
0.00176778
0.00125732
0.00174039
0.00437931
0.00510025
0.00562902
0.0062182
0.00683389
0.0073446
0.007738
0.00800817
0.00812565
0.0080453
0.00773478
0.0072033
0.00651716
0.00577574
0.00505721
0.00443612
0.00396602
0.00364165
0.00341939
0.0032512
0.00310339
0.0029551
0.00279588
0.0026234
0.00244226
0.00226453
0.00211019
0.00200115
0.00194279
0.00191787
0.00191348
0.00192111
0.00192172
0.00188194
0.00178326
0.00164403
0.00110833
0.00199748
0.00544667
0.00669487
0.00693152
0.00735845
0.00780055
0.00806366
0.00811533
0.00802207
0.00776022
0.00730389
0.00669489
0.00598375
0.00525299
0.0046163
0.00417045
0.0039201
0.00379151
0.00371188
0.00363716
0.00355355
0.00345311
0.00332407
0.00316102
0.0029673
0.00275482
0.00254096
0.00234373
0.00218796
0.00208377
0.00202989
0.002018
0.00203032
0.00203965
0.00201722
0.00203039
0.00222327
0.00114398
0.00168787
0.00182432
0.00192185
0.00207661
0.002059
0.00202046
0.00194696
0.00183118
0.00170715
0.00160806
0.00152446
0.00143248
0.00132618
0.00121379
0.00110823
0.0010238
0.000966547
0.000931577
0.00091053
0.000896632
0.00088566
0.000875795
0.000864814
0.00085099
0.000834824
0.000818005
0.000803256
0.000793804
0.000792672
0.000802187
0.000820568
0.000846498
0.000879692
0.000920094
0.000966982
0.00101933
0.00105046
0.00103095
0.000976503
0.000928989
)
;

boundaryField
{
    floor
    {
        type            nutkWallFunction;
        Cmu             0.09;
        kappa           0.41;
        E               9.8;
        value           nonuniform List<scalar> 
36
(
0.000146232
4.93346e-05
6.3213e-05
7.00203e-05
6.83449e-05
6.53631e-05
6.12234e-05
5.69988e-05
5.31401e-05
4.96962e-05
4.66249e-05
4.38854e-05
4.14377e-05
3.92107e-05
3.71264e-05
3.50792e-05
3.28996e-05
3.11126e-05
2.74107e-05
2.74106e-05
3.74811e-05
4.39948e-05
4.96728e-05
6.70015e-05
7.67321e-05
8.43491e-05
0.000146232
0.000150576
0.000121214
9.42411e-05
4.93345e-05
9.42411e-05
5.7688e-05
0.000134881
0.000117497
0.00015629
)
;
    }
    ceiling
    {
        type            nutkWallFunction;
        Cmu             0.09;
        kappa           0.41;
        E               9.8;
        value           nonuniform List<scalar> 
43
(
0.000199014
0.000214074
0.000224766
0.000241708
0.000239823
0.000235647
0.00022764
0.000214952
0.00020126
0.000190244
0.000180894
0.00017054
0.000158479
0.000145605
0.000133391
0.000123525
0.000116784
0.000112643
0.000110142
0.000108487
0.000107178
0.000106
0.000104687
0.000103031
0.00010109
9.90664e-05
9.72879e-05
9.6146e-05
9.60091e-05
9.71591e-05
9.93758e-05
0.000102493
0.000106467
0.000111281
0.000116837
0.000123003
0.000126653
0.000124367
0.000117961
0.000112338
0.00034116
0.000398478
0.000232857
)
;
    }
    sWall
    {
        type            nutkWallFunction;
        Cmu             0.09;
        kappa           0.41;
        E               9.8;
        value           uniform 0.000199069;
    }
    nWall
    {
        type            nutkWallFunction;
        Cmu             0.09;
        kappa           0.41;
        E               9.8;
        value           nonuniform List<scalar> 6(8.43471e-05 8.64669e-05 9.85433e-05 0.000133414 0.000137553 0.000112342);
    }
    sideWalls
    {
        type            empty;
    }
    glass1
    {
        type            nutkWallFunction;
        Cmu             0.09;
        kappa           0.41;
        E               9.8;
        value           nonuniform List<scalar> 9(0.000117577 0.00016272 0.000200066 0.000235966 0.000272232 0.00030991 0.000343895 0.000350323 0.00034156);
    }
    glass2
    {
        type            nutkWallFunction;
        Cmu             0.09;
        kappa           0.41;
        E               9.8;
        value           nonuniform List<scalar> 2(0.000154962 0.000150657);
    }
    sun
    {
        type            nutkWallFunction;
        Cmu             0.09;
        kappa           0.41;
        E               9.8;
        value           nonuniform List<scalar> 
14
(
0.000117515
0.000127063
0.00012827
0.000133974
0.000139209
0.000144005
0.00014855
0.000153073
0.000157311
0.000160344
0.000161674
0.000160827
0.000157608
0.000152438
)
;
    }
    Table_master
    {
        type            nutkWallFunction;
        Cmu             0.09;
        kappa           0.41;
        E               9.8;
        value           nonuniform List<scalar> 9(8.71926e-05 7.69425e-05 6.84739e-05 6.15293e-05 5.58162e-05 5.10856e-05 4.71499e-05 4.38821e-05 4.12296e-05);
    }
    Table_slave
    {
        type            nutkWallFunction;
        Cmu             0.09;
        kappa           0.41;
        E               9.8;
        value           nonuniform List<scalar> 9(9.60853e-05 8.75795e-05 8.1766e-05 7.7532e-05 7.40409e-05 7.062e-05 6.7386e-05 6.39726e-05 5.99349e-05);
    }
    inlet
    {
        type            calculated;
        value           uniform 0.000100623;
    }
    outlet
    {
        type            calculated;
        value           nonuniform List<scalar> 2(0.00168787 0.00182432);
    }
}


// ************************************************************************* //
