/*--------------------------------*- C++ -*----------------------------------*\
  =========                 |
  \\      /  F ield         | OpenFOAM: The Open Source CFD Toolbox
   \\    /   O peration     | Website:  https://openfoam.org
    \\  /    A nd           | Version:  6
     \\/     M anipulation  |
\*---------------------------------------------------------------------------*/
FoamFile
{
    version     2.0;
    format      ascii;
    class       surfaceScalarField;
    location    "600";
    object      phi;
}
// * * * * * * * * * * * * * * * * * * * * * * * * * * * * * * * * * * * * * //

dimensions      [1 0 -1 0 0 0 0];

internalField   nonuniform List<scalar> 
850
(
-0.0031396
0.00320432
-0.00424971
0.00111011
-0.00514872
0.000899012
-0.00588989
0.000741178
-0.00643872
0.000548832
-0.00676407
0.000325352
-0.006828
6.39392e-05
-0.00658096
-0.000247044
-0.00597396
-0.000606998
-0.00499855
-0.0009754
-0.00372179
-0.00127676
-0.00229154
-0.00143024
-0.000927244
-0.0013643
5.79569e-05
-0.000985198
6.08219e-05
-0.000977862
0.000982475
-0.000669247
-0.00030861
5.80594e-05
-0.000727303
0.000696968
-0.000638904
0.00115706
-0.000460085
0.0014083
-0.000251242
0.00151425
-0.000105944
0.00156572
-5.14691e-05
0.00159449
-2.87659e-05
0.00160755
-1.30558e-05
0.00160875
-1.19327e-06
0.001599
9.75281e-06
0.00157169
2.73219e-05
0.00150578
6.5914e-05
0.00136608
0.0001397
0.00114406
0.000222032
0.000875869
0.000268192
0.000882072
-0.00227146
0.00565036
-0.00339255
0.0022312
-0.00434141
0.00184787
-0.00509273
0.0014925
-0.00565163
0.00110774
-0.00600144
0.000675164
-0.00610668
0.000169184
-0.00592153
-0.000432188
-0.00540348
-0.00112505
-0.00455205
-0.00182683
-0.00345013
-0.00237868
-0.00224805
-0.00263231
-0.00111695
-0.0024954
-0.000186614
-0.00191553
0.000806954
-0.000932743
0.00122701
-0.000415457
0.00107122
0.000161149
0.0010869
0.000161704
0.000834512
0.000579689
-0.000726591
0.000934532
-0.00108214
0.00125198
-0.000956351
0.00150152
-0.000709616
0.00155588
-0.000305602
0.00156363
-0.000113685
0.00157376
-6.15946e-05
0.00158234
-3.73422e-05
0.00158729
-1.80032e-05
0.00158931
-3.2116e-06
0.00158838
1.06925e-05
0.00158169
3.40096e-05
0.00154057
0.000107046
0.00136766
0.000312613
0.00107022
0.000519472
0.000709561
0.000628861
0.00160728
-0.00160522
0.00752271
-0.0025892
0.00321519
-0.00345088
0.00270955
-0.00412146
0.00216309
-0.00464452
0.0016308
-0.00500338
0.00103403
-0.00515424
0.000320043
-0.00503831
-0.000548112
-0.00460384
-0.00155952
-0.00385658
-0.00257408
-0.00290061
-0.00333465
-0.00188383
-0.00364909
-0.000936403
-0.00344282
-0.000131896
-0.00272003
0.000552579
-0.00161721
0.000822343
-0.000685218
0.000683394
0.000300101
0.00178429
0.00157519
-0.00072421
0.00178727
-0.000938668
0.00172086
-0.00101572
0.00174774
-0.00098323
0.00193805
-0.000899923
0.00163261
0.00151908
0.00145764
0.00142046
0.00140262
0.00139956
0.00141042
0.00144459
0.00155179
0.00128252
0.00058189
0.000953076
0.000848919
0.000549505
0.00103244
0.00218014
-0.0011201
0.00898868
-0.00190558
0.00400067
-0.00249497
0.00329894
-0.00297602
0.00264414
-0.00339285
0.00204763
-0.00371923
0.00136041
-0.00389673
0.000497544
-0.00384181
-0.000603028
-0.00348172
-0.0019196
-0.00284107
-0.00321474
-0.00205377
-0.00412194
-0.00125191
-0.00445096
-0.000520569
-0.00417415
9.25976e-05
-0.00333319
0.000630151
-0.00215477
0.00096719
-0.00102225
0.00123695
3.03452e-05
0.00233278
0.000688456
0.00233957
7.91723e-06
0.00209276
-0.000477394
0.00199308
-0.000838985
0.00187855
-0.000901194
0.00175168
-0.000856359
0.00154478
-0.000693015
0.00187142
-0.000326794
0.00205532
-0.000184049
0.00219344
-0.000138268
0.0022992
-0.000105919
0.00235819
-5.91362e-05
0.00234511
1.29338e-05
0.00223118
0.000113777
0.0019794
0.000251628
0.00152733
0.000451918
0.00128849
0.000820736
0.000899457
0.00123796
0.00034055
0.00159135
0.00255052
-0.000768133
0.0101694
-0.00135034
0.00458289
-0.00149228
0.00344087
-0.00168082
0.00283269
-0.00191937
0.00228618
-0.00215228
0.00159332
-0.00231038
0.000655645
-0.00227801
-0.000635388
-0.00197056
-0.00222705
-0.00146603
-0.00371927
-0.00091004
-0.00467792
-0.00039187
-0.00496913
5.14506e-05
-0.00461747
0.00042474
-0.00370648
0.000775033
-0.00250506
0.0010852
-0.00133241
0.00149098
-0.000375438
0.00202828
0.000151164
0.00208886
-5.26595e-05
0.00201285
-0.000401382
0.00181309
-0.000639223
0.00162314
-0.000711242
0.00145306
-0.000686276
0.00133939
-0.000579335
0.00141378
-0.000401186
0.00151664
-0.000286907
0.0016164
-0.000238024
0.0017113
-0.000200816
0.0017897
-0.000137525
0.00182731
-2.4676e-05
0.00179845
0.00014264
0.00169079
0.000359291
0.00151199
0.000630728
0.00133538
0.000997347
0.00113679
0.00143655
0.000726646
0.0020015
0.000935307
0.00234186
-0.00135132
0.00231329
-0.00204471
0.000718583
-0.00195906
-0.000649119
0.011287
-0.00100318
0.00493695
-0.000511003
0.0029487
-0.000274193
0.00259589
-0.000303001
0.002315
-0.000416247
0.00170657
-0.000485739
0.00072514
-0.000380975
-0.000740149
-0.000100413
-0.00250761
0.000209635
-0.00402932
0.000464304
-0.00493259
0.000632057
-0.00513688
0.000721989
-0.0047074
0.000786852
-0.00377134
0.000855605
-0.00257381
0.000948762
-0.00142556
0.00113248
-0.000559148
0.00139449
-0.000110849
0.00146221
-0.000120378
0.00136739
-0.000306555
0.0011896
-0.000461425
0.00101219
-0.000533836
0.000864491
-0.000538569
0.000776244
-0.000491084
0.000785866
-0.000410804
0.000856157
-0.000357193
0.000952716
-0.000334579
0.00106215
-0.000310244
0.00117571
-0.000251086
0.00127968
-0.000128643
0.00134969
7.26378e-05
0.00137826
0.000330726
0.00138175
0.000627239
0.00140686
0.00097224
0.00151016
0.00133326
0.0017263
0.00178537
0.00210731
0.00196086
0.00245701
0.0019636
0.00192137
0.00125423
3.67022e-05
-0.00073991
0.0125449
-0.000533141
0.00473019
0.000848588
0.00156698
0.00139098
0.00205349
0.00145662
0.00224936
0.00144813
0.00171507
0.00156903
0.000604245
0.00182038
-0.000991497
0.00203248
-0.00271971
0.00208237
-0.0040792
0.00197198
-0.00482219
0.00172772
-0.00489262
0.00140452
-0.00438419
0.0010721
-0.00343892
0.000780444
-0.00228214
0.000579254
-0.00122437
0.000518322
-0.000498213
0.000575495
-0.000168019
0.000590336
-0.000135215
0.000514847
-0.000231062
0.000386298
-0.000332872
0.00024871
-0.000396244
0.000131759
-0.000421615
6.08005e-05
-0.000420121
5.65033e-05
-0.000406502
0.000104441
-0.000405127
0.000182367
-0.0004125
0.000281205
-0.000409078
0.000402814
-0.00037269
0.000551941
-0.000277765
0.000717011
-9.24282e-05
0.000879874
0.000167868
0.00104641
0.000460704
0.00125513
0.000763524
0.00154383
0.00104456
0.00197502
0.00135419
0.00255695
0.00137893
0.00343848
0.00108208
0.00370527
0.000987437
0.00381989
0.00299211
0.010131
0.00373453
0.00398777
0.00438397
0.000917544
0.00437046
0.00206701
0.00416206
0.00245777
0.00404046
0.00183667
0.00417813
0.000466581
0.00439454
-0.00120791
0.00437404
-0.0026992
0.004045
-0.00375016
0.00345961
-0.0042368
0.0027011
-0.00413411
0.00187891
-0.003562
0.00109198
-0.00265199
0.000421525
-0.00161168
-3.69124e-05
-0.000765929
-0.000239693
-0.000295428
-0.000284019
-0.000123688
-0.000307114
-0.000112116
-0.000367551
-0.000170621
-0.000461523
-0.000238895
-0.000565598
-0.000292165
-0.000658097
-0.000329112
-0.000722848
-0.000355365
-0.000751404
-0.000377941
-0.000752922
-0.000403604
-0.000738052
-0.000427365
-0.000709156
-0.00043797
-0.00065855
-0.000423291
-0.000565865
-0.000370446
-0.000395529
-0.000262759
-0.00015854
-6.91162e-05
0.00010971
0.000192459
0.00041114
0.000462098
0.00073759
0.000718114
0.0011264
0.000965376
0.00153605
0.000969295
0.00190359
0.000714548
0.00109344
0.00179759
0.00524519
0.0107748
0.014763
0.0140149
0.00166557
0.0125593
0.0035226
0.0111913
0.00382583
0.0101011
0.00292685
0.0091445
0.0014232
0.00812507
-0.000188477
0.00698691
-0.00156105
0.00575631
-0.00251956
0.00445732
-0.00293781
0.00308832
-0.0027651
0.00175689
-0.00223057
0.000554011
-0.0014491
-0.000345571
-0.000712096
-0.00084263
-0.000268866
-0.00104054
-9.75101e-05
-0.00111128
-5.29485e-05
-0.001152
-7.13916e-05
-0.00120628
-0.000116335
-0.00128041
-0.000164757
-0.00136533
-0.000207244
-0.00145172
-0.000242715
-0.00153463
-0.000272448
-0.00161461
-0.000297963
-0.00169896
-0.000319247
-0.00179552
-0.000330804
-0.00191118
-0.000322303
-0.00205417
-0.000280301
-0.00223598
-0.000188622
-0.00247365
-2.5092e-05
-0.00275667
0.000213916
-0.00310959
0.000545376
-0.00363792
0.00099044
-0.00446083
0.00154103
-0.00564123
0.00214578
-0.00729283
0.00262089
-0.00918775
0.00260947
-0.00857724
0.00118709
-0.00296386
0.0139414
0.00447427
0.0118724
0.00559157
0.0103053
0.005393
0.00918057
0.00405155
0.00825607
0.0023477
0.00731983
0.000747756
0.00618143
-0.000422638
0.00486137
-0.0011995
0.00346752
-0.00154396
0.00192871
-0.00122628
0.00043343
-0.000735293
-0.000725268
-0.000290397
-0.00138563
-5.173e-05
-0.00167969
2.52034e-05
-0.00180364
2.64441e-05
-0.00185773
1.14253e-06
-0.00188989
-3.9225e-05
-0.00192724
-7.89863e-05
-0.00197808
-0.000113905
-0.00204272
-0.000142598
-0.00212158
-0.000163858
-0.00221705
-0.000176971
-0.00233288
-0.000182125
-0.00247275
-0.00017937
-0.00263676
-0.000166793
-0.00281929
-0.000139764
-0.00300808
-9.15042e-05
-0.00317951
-1.71924e-05
-0.00331357
0.000108969
-0.00341899
0.000319343
-0.00351272
0.000639113
-0.00361252
0.00109025
-0.00373239
0.0016609
-0.00383025
0.00224364
-0.00381101
0.00260165
-0.0034639
0.00226237
-0.00203211
-0.000244704
-0.00490106
-0.00294485
0.00747261
-0.00119183
0.00383855
0.000620542
0.00358062
0.00170125
0.00297085
0.0021321
0.00191685
0.00212081
0.000759043
0.00178088
-8.27063e-05
0.00108973
-0.000508344
8.3305e-05
-0.000537533
-0.000996411
-0.000146561
-0.00179431
6.26115e-05
-0.00221415
0.000129447
-0.00238015
0.000114275
-0.00242243
6.7491e-05
-0.00242385
2.78626e-05
-0.00242146
-1.23425e-06
-0.00242465
-3.60367e-05
-0.00243866
-6.49689e-05
-0.00246539
-8.71672e-05
-0.00250405
-0.000103932
-0.00255312
-0.000114784
-0.00261118
-0.000118913
-0.00267717
-0.00011613
-0.00275017
-0.000106365
-0.00282821
-8.87489e-05
-0.00290685
-6.11181e-05
-0.00297912
-1.92236e-05
-0.00303338
3.70705e-05
-0.00303715
0.000112746
-0.0029572
0.000239395
-0.00275471
0.000436624
-0.00239635
0.000731898
-0.00188699
0.00115155
-0.00122505
0.00158171
-0.000162904
0.00153951
0.00130607
0.000793401
0.00166501
-0.000603637
-0.00313169
-0.0177916
-0.0226101
-0.015095
-0.0112223
-0.00761012
-0.0046103
-0.002666
-0.00188106
-0.00193972
-0.00242568
-0.00294168
-0.0030673
-0.00298415
-0.00283428
-0.0026994
-0.00261098
-0.00256187
-0.00254155
-0.00255577
-0.00259868
-0.00266356
-0.00274501
-0.00283716
-0.00293334
-0.00302671
-0.00311036
-0.00317654
-0.00321533
-0.00321257
-0.003154
-0.00302034
-0.00276069
-0.00230454
-0.00155391
-0.000384466
0.00121407
0.00276981
0.00357947
0.00299291
)
;

boundaryField
{
    floor
    {
        type            calculated;
        value           nonuniform List<scalar> 
36
(
0
0
0
0
0
0
0
0
0
0
0
0
0
0
0
0
0
0
0
-6.1976e-06
-1.56409e-05
-2.33488e-05
-2.98242e-05
-2.66568e-05
-2.51907e-05
-2.38156e-05
-2.8617e-06
-4.59603e-06
-5.35598e-06
-6.24038e-06
-4.60902e-06
-9.43774e-06
-1.37362e-05
-1.39886e-05
-1.64654e-05
-1.46988e-05
)
;
    }
    ceiling
    {
        type            calculated;
        value           nonuniform List<scalar> 
43
(
-4.3717e-05
-4.30306e-05
-4.2459e-05
-3.42367e-05
-3.15165e-05
-2.89756e-05
-2.7446e-05
-2.58941e-05
-2.40405e-05
-2.23722e-05
-2.15324e-05
-2.09402e-05
-2.05265e-05
-2.04176e-05
-2.06063e-05
-2.0921e-05
-2.12459e-05
-2.15492e-05
-2.18057e-05
-2.20555e-05
-2.22836e-05
-2.24779e-05
-2.26284e-05
-2.27248e-05
-2.27553e-05
-2.27068e-05
-2.2567e-05
-2.23257e-05
-2.19732e-05
-2.14941e-05
-2.09141e-05
-2.02502e-05
-1.9517e-05
-1.87273e-05
-1.7891e-05
-1.68266e-05
-1.62148e-05
-1.62599e-05
-1.70684e-05
-1.73705e-05
1.59741e-06
-4.01493e-07
-5.3491e-05
)
;
    }
    sWall
    {
        type            calculated;
        value           uniform -0.00021005;
    }
    nWall
    {
        type            calculated;
        value           nonuniform List<scalar> 6(-6.18307e-05 -7.43856e-05 -7.79036e-05 -9.49054e-05 -0.00010435 -0.000121409);
    }
    sideWalls
    {
        type            empty;
        value           nonuniform 0();
    }
    glass1
    {
        type            calculated;
        value           nonuniform List<scalar> 9(-6.47202e-05 -0.000174575 -0.000267119 -0.000345869 -0.000412608 -0.0004685 -0.000517941 -0.00057825 -0.000645334);
    }
    glass2
    {
        type            calculated;
        value           nonuniform List<scalar> 2(-0.000331857 -0.000368186);
    }
    sun
    {
        type            calculated;
        value           uniform 0;
    }
    Table_master
    {
        type            calculated;
        value           nonuniform List<scalar> 9(-1.54472e-07 -1.54624e-07 -1.54675e-07 -1.54707e-07 -1.54728e-07 -1.54742e-07 -1.54745e-07 -1.54739e-07 -1.54707e-07);
    }
    Table_slave
    {
        type            calculated;
        value           nonuniform List<scalar> 9(1.5434e-07 1.54325e-07 1.54274e-07 1.54234e-07 1.54211e-07 1.54213e-07 1.54222e-07 1.54268e-07 1.54364e-07);
    }
    inlet
    {
        type            calculated;
        value           uniform -0.0167501;
    }
    outlet
    {
        type            calculated;
        value           nonuniform List<scalar> 2(0.0180454 0.00486153);
    }
}


// ************************************************************************* //
