/*--------------------------------*- C++ -*----------------------------------*\
  =========                 |
  \\      /  F ield         | OpenFOAM: The Open Source CFD Toolbox
   \\    /   O peration     | Website:  https://openfoam.org
    \\  /    A nd           | Version:  6
     \\/     M anipulation  |
\*---------------------------------------------------------------------------*/
FoamFile
{
    version     2.0;
    format      ascii;
    class       volScalarField;
    location    "1200";
    object      nut;
}
// * * * * * * * * * * * * * * * * * * * * * * * * * * * * * * * * * * * * * //

dimensions      [0 2 -1 0 0 0 0];

internalField   nonuniform List<scalar> 
458
(
0.00071324
0.000734348
0.000692142
0.000717337
0.00074226
0.000764979
0.000785806
0.00080538
0.000824515
0.000844341
0.000861277
0.00087407
0.000882762
0.000888963
0.000892779
0.000432473
0.000514422
0.000518061
0.000434636
0.000346629
0.000250685
0.000240506
0.00024811
0.000260756
0.000262404
0.000252922
0.000237796
0.000222863
0.000233575
0.000312025
0.000394698
0.000403514
0.000364591
0.00118837
0.00196554
0.00152358
0.00193226
0.00208308
0.00223634
0.00239039
0.00253304
0.00264713
0.00270953
0.00272976
0.00267378
0.00249581
0.00212875
0.00153149
0.000952313
0.000909566
0.000675643
0.000590749
0.00122595
0.00140681
0.00139241
0.00105257
0.000809287
0.000693886
0.000694621
0.000732952
0.000732383
0.000655235
0.000523059
0.000387678
0.000341533
0.000646193
0.00103704
0.00127678
0.000515634
0.00161356
0.00320437
0.00162373
0.00281129
0.00313773
0.00332006
0.00347279
0.00360003
0.00369964
0.00376504
0.00380108
0.00378372
0.00367653
0.00343032
0.00300587
0.00242629
0.00171265
0.000981136
0.00084496
0.0023477
0.00211478
0.00172847
0.00133665
0.000515265
0.000430713
0.000386094
0.000355862
0.000332274
0.00031143
0.00029041
0.000269411
0.000306999
0.00103406
0.00154865
0.00125886
0.000555385
0.00202953
0.00489619
0.00176565
0.00307186
0.00374699
0.00394266
0.00406377
0.00415495
0.00422668
0.00428198
0.00432862
0.00436718
0.00437819
0.00431885
0.00410957
0.00364021
0.00283064
0.0017951
0.00102483
0.00231441
0.00244741
0.0020443
0.00153709
0.00106216
0.000720569
0.000733376
0.000759958
0.000798166
0.000850885
0.000932181
0.000974477
0.000995509
0.000986377
0.00114949
0.00144927
0.00179883
0.000928156
0.00243041
0.00689457
0.00242532
0.00282585
0.00395348
0.00423182
0.0043398
0.00439998
0.00443819
0.00446976
0.00450685
0.00458345
0.0046998
0.00484134
0.00497524
0.00505568
0.00504033
0.00488019
0.00453385
0.00424859
0.00388103
0.0035096
0.0032404
0.00306559
0.00296621
0.00297304
0.00305004
0.00318684
0.00337936
0.00360677
0.00377727
0.00385493
0.0038192
0.00365369
0.00318182
0.00274607
0.00202822
0.00103024
0.000944055
0.000957931
0.00282079
0.00886297
0.00413172
0.0026658
0.00353926
0.0040854
0.00433483
0.00445449
0.00449094
0.00447731
0.00445864
0.00451781
0.00463978
0.00481457
0.00502906
0.00525607
0.0054399
0.00547919
0.00529743
0.00495974
0.00458476
0.00426261
0.00401879
0.00382472
0.00366171
0.00354752
0.00350454
0.00353655
0.00364835
0.00386456
0.00411979
0.00426461
0.00433165
0.00435661
0.00416789
0.00375744
0.00316865
0.00231992
0.00178756
0.00099922
0.00318744
0.0104115
0.0071361
0.00415505
0.00308811
0.00320277
0.00370424
0.00414764
0.0044098
0.00441827
0.00434877
0.00436839
0.00443907
0.00455396
0.00471353
0.00491258
0.00511254
0.0052224
0.0051654
0.00496238
0.00470492
0.00447205
0.00427536
0.0040823
0.00387656
0.00368179
0.00353293
0.00345273
0.00348391
0.0037051
0.0040383
0.00421785
0.00433591
0.00452915
0.00475526
0.00463444
0.00421957
0.00356264
0.00272187
0.00120043
0.00326543
0.0102361
0.00853399
0.00714015
0.00542787
0.00422872
0.0038
0.00389099
0.00416295
0.00426013
0.00422455
0.00419575
0.00419863
0.00423054
0.00428837
0.00437545
0.00448845
0.00458796
0.00461233
0.00454215
0.00441977
0.00430544
0.00421144
0.00410787
0.00397227
0.00380534
0.00361462
0.00341408
0.00331803
0.00355711
0.00400299
0.00416287
0.00424609
0.00448153
0.00498395
0.00555418
0.00547434
0.00478952
0.00432004
0.00148447
0.00317508
0.00378407
0.00441221
0.0047088
0.00472388
0.00444969
0.00413563
0.00392234
0.00382761
0.0037926
0.00379852
0.00382127
0.00384232
0.00385147
0.0038472
0.00383683
0.00383219
0.00383683
0.00383911
0.00382851
0.00381633
0.00382572
0.00386038
0.00389835
0.003919
0.00390236
0.00378604
0.00347678
0.00313726
0.00333785
0.00399778
0.0040483
0.00381898
0.00355325
0.00331492
0.00310576
0.00289159
0.00255612
0.00228435
0.00143431
0.0028836
0.00537183
0.00504985
0.00478792
0.0045237
0.00429342
0.00411471
0.00397721
0.00386397
0.00376344
0.00366413
0.00355832
0.00344464
0.00332861
0.00322149
0.00313693
0.0030868
0.0030806
0.00312738
0.00323093
0.00337732
0.0035353
0.00368355
0.00382626
0.0039062
0.00359062
0.00284144
0.00277102
0.00394702
0.00424294
0.00409997
0.00389248
0.00363074
0.00326845
0.002826
0.00235402
0.00193766
0.00124344
0.00268214
0.00584947
0.00542653
0.0050597
0.00475878
0.0044823
0.00421917
0.00397427
0.00374571
0.00349528
0.00323342
0.00297755
0.00273933
0.00252783
0.00235203
0.00222262
0.00215245
0.00215476
0.00223777
0.00239512
0.00259845
0.00280607
0.00299068
0.00315902
0.00328373
0.00310847
0.00230607
0.00179766
0.00318052
0.0037756
0.00375881
0.00373977
0.00378871
0.00375962
0.00353079
0.00314805
0.00260437
0.00127075
0.00213567
0.00230668
0.00245623
0.00259582
0.00240076
0.00223179
0.00204179
0.00188499
0.00174298
0.00161347
0.00149465
0.00139171
0.00130015
0.00121574
0.00113641
0.00106147
0.000991126
0.000926347
0.000868611
0.000819688
0.000781354
0.000754992
0.000740899
0.00073766
0.000742603
0.000753198
0.000765299
0.000765553
0.000741131
0.0007449
0.000883497
0.000953315
0.00101893
0.00113327
0.0012765
0.00137257
0.00141508
0.00137009
0.00126762
0.00116131
)
;

boundaryField
{
    floor
    {
        type            nutkWallFunction;
        Cmu             0.09;
        kappa           0.41;
        E               9.8;
        value           nonuniform List<scalar> 
36
(
0.000108024
5.10168e-05
6.15638e-05
6.20264e-05
5.13022e-05
3.97002e-05
2.65947e-05
2.51689e-05
2.62354e-05
2.79991e-05
2.82287e-05
2.69093e-05
2.479e-05
2.26793e-05
2.41933e-05
3.50365e-05
4.60786e-05
4.72374e-05
4.20946e-05
4.20946e-05
6.17185e-05
6.67543e-05
0.000112231
0.000124271
0.000114117
0.000115759
0.000108024
0.000115094
0.000110023
8.17344e-05
5.10167e-05
8.17344e-05
7.11975e-05
0.000118499
0.000102307
0.000123638
)
;
    }
    ceiling
    {
        type            nutkWallFunction;
        Cmu             0.09;
        kappa           0.41;
        E               9.8;
        value           nonuniform List<scalar> 
43
(
0.000248007
0.000266414
0.000282396
0.000297335
0.000276614
0.000258506
0.000237958
0.000220842
0.000205207
0.000190828
0.000177523
0.000165902
0.000155486
0.00014581
0.000136649
0.000127926
0.000119675
0.000112018
0.00010514
9.9271e-05
9.46437e-05
9.14463e-05
8.9732e-05
8.93381e-05
8.99409e-05
9.12308e-05
9.27012e-05
9.27319e-05
8.9762e-05
9.0222e-05
0.000106924
0.000115215
0.000122942
0.000136289
0.000152787
0.000163734
0.00016855
0.000163452
0.000151768
0.000139534
0.000358331
0.000420992
0.000306223
)
;
    }
    sWall
    {
        type            nutkWallFunction;
        Cmu             0.09;
        kappa           0.41;
        E               9.8;
        value           uniform 0.000248073;
    }
    nWall
    {
        type            nutkWallFunction;
        Cmu             0.09;
        kappa           0.41;
        E               9.8;
        value           nonuniform List<scalar> 6(0.000115763 0.000120633 0.000144056 0.000149007 0.000152138 0.000139544);
    }
    sideWalls
    {
        type            empty;
    }
    glass1
    {
        type            nutkWallFunction;
        Cmu             0.09;
        kappa           0.41;
        E               9.8;
        value           nonuniform List<scalar> 9(8.63161e-05 0.000142806 0.000191112 0.000237007 0.000280277 0.00032169 0.000360043 0.000368152 0.000358787);
    }
    glass2
    {
        type            nutkWallFunction;
        Cmu             0.09;
        kappa           0.41;
        E               9.8;
        value           nonuniform List<scalar> 2(0.000176461 0.000170802);
    }
    sun
    {
        type            nutkWallFunction;
        Cmu             0.09;
        kappa           0.41;
        E               9.8;
        value           nonuniform List<scalar> 
14
(
8.63487e-05
8.89285e-05
8.37626e-05
8.68507e-05
8.98927e-05
9.26553e-05
9.51792e-05
9.75442e-05
9.98496e-05
0.000102232
0.000104261
0.000105791
0.000106829
0.000107569
)
;
    }
    Table_master
    {
        type            nutkWallFunction;
        Cmu             0.09;
        kappa           0.41;
        E               9.8;
        value           nonuniform List<scalar> 9(6.16747e-05 5.0798e-05 4.49525e-05 4.09437e-05 3.77857e-05 3.49711e-05 3.21078e-05 2.92199e-05 3.43689e-05);
    }
    Table_slave
    {
        type            nutkWallFunction;
        Cmu             0.09;
        kappa           0.41;
        E               9.8;
        value           nonuniform List<scalar> 9(8.72513e-05 8.88149e-05 9.20503e-05 9.66773e-05 0.000103019 0.00011271 0.000117713 0.000120191 0.000119116);
    }
    inlet
    {
        type            calculated;
        value           uniform 0.000100623;
    }
    outlet
    {
        type            calculated;
        value           nonuniform List<scalar> 2(0.00213567 0.00230668);
    }
}


// ************************************************************************* //
