/*--------------------------------*- C++ -*----------------------------------*\
  =========                 |
  \\      /  F ield         | OpenFOAM: The Open Source CFD Toolbox
   \\    /   O peration     | Website:  https://openfoam.org
    \\  /    A nd           | Version:  6
     \\/     M anipulation  |
\*---------------------------------------------------------------------------*/
FoamFile
{
    version     2.0;
    format      ascii;
    class       volScalarField;
    location    "200";
    object      k;
}
// * * * * * * * * * * * * * * * * * * * * * * * * * * * * * * * * * * * * * //

dimensions      [0 2 -2 0 0 0 0];

internalField   nonuniform List<scalar> 
458
(
0.00295339
0.00356115
0.00376957
0.00417156
0.00457287
0.00498693
0.00544555
0.00586366
0.00617629
0.00630778
0.0061849
0.00574702
0.00464493
0.00334956
0.0023083
0.000663361
0.000923294
0.00121071
0.00132631
0.00127167
0.00110208
0.000935074
0.000799026
0.000690994
0.0006046
0.000534857
0.000477785
0.000430554
0.000390385
0.000354709
0.000321148
0.000300186
0.000254199
0.00517013
0.00950723
0.0057486
0.00613863
0.00673499
0.00746144
0.00828771
0.00919976
0.0100293
0.0105563
0.0106011
0.0101063
0.00896763
0.00744108
0.0054243
0.00385291
0.00280502
0.0019
0.000644303
0.00142329
0.00196927
0.00223503
0.00224012
0.0018871
0.00152241
0.00123307
0.00101432
0.000848143
0.000720194
0.000620138
0.000538932
0.000470726
0.000420117
0.000391149
0.000664439
0.000401056
0.00745694
0.0166823
0.00682117
0.00663727
0.00709056
0.00777889
0.00866079
0.00966421
0.0105745
0.0112227
0.0114571
0.0111809
0.0102648
0.00893466
0.00741439
0.00592288
0.00474678
0.00265746
0.00141738
0.00199482
0.00241287
0.00267978
0.00267493
0.00203143
0.00151673
0.00115644
0.000905498
0.000727862
0.000599347
0.000504285
0.000433752
0.000383886
0.00035582
0.000371076
0.00106319
0.000542346
0.0100081
0.0264752
0.00822489
0.00667527
0.00689933
0.00756756
0.00860263
0.00970817
0.0106272
0.01135
0.0117304
0.0115569
0.0107314
0.00947853
0.00808042
0.00677876
0.00560364
0.00419492
0.00343859
0.00331133
0.00338086
0.00352147
0.00355704
0.00338235
0.00265281
0.00217971
0.00186523
0.00163206
0.00144087
0.00127724
0.00112454
0.00097327
0.000813577
0.000581943
0.00049361
0.00166003
0.000681492
0.0129762
0.0395203
0.0116062
0.00697593
0.0068003
0.00759264
0.00913883
0.0103225
0.01116
0.0118967
0.0123059
0.0120755
0.0111122
0.00967034
0.00817969
0.00692553
0.00590139
0.00515458
0.00514359
0.0049996
0.00490767
0.00479076
0.004547
0.00415737
0.00368584
0.00331525
0.00304099
0.00279408
0.00252919
0.00222717
0.00189806
0.00155905
0.00122784
0.000903158
0.000697784
0.00123985
0.0014572
0.00120695
0.00129955
0.00152797
0.016572
0.0534936
0.0199134
0.00923138
0.00792424
0.00904359
0.0109786
0.011818
0.0124018
0.0130103
0.0133639
0.0129884
0.0117106
0.00987169
0.00807399
0.00673172
0.00595766
0.00571973
0.00592277
0.00608127
0.00601223
0.00569948
0.00520181
0.00461277
0.00408017
0.00371463
0.00344826
0.00319714
0.00292262
0.00260398
0.00225113
0.00188737
0.00153508
0.00120752
0.000997572
0.00108977
0.00136687
0.00140377
0.00202837
0.00167452
0.0202959
0.0623125
0.0335098
0.0182822
0.014508
0.0146354
0.0145011
0.0142238
0.0143237
0.0147536
0.0149641
0.0142985
0.0125394
0.0101589
0.00799065
0.00661077
0.00610978
0.00623402
0.00657887
0.00670003
0.00644661
0.00591366
0.00523736
0.0045529
0.00401794
0.00368222
0.00345249
0.00325778
0.00306858
0.00287919
0.00265634
0.00239349
0.00211594
0.00183874
0.00166378
0.00165537
0.00186236
0.00221052
0.0029601
0.0025203
0.021132
0.0607699
0.0426657
0.0324744
0.0265979
0.0219658
0.018654
0.0170392
0.0167744
0.0171164
0.0170929
0.0158797
0.0133413
0.0102274
0.00773517
0.00652173
0.00628121
0.00644798
0.00660868
0.00646958
0.0060009
0.00533385
0.00463554
0.0040309
0.0035971
0.0033302
0.00317401
0.00309377
0.00308427
0.00315123
0.0032909
0.00344947
0.0035779
0.0037202
0.00405044
0.00493383
0.00660772
0.00889746
0.0177103
0.00535793
0.0201252
0.028623
0.0261413
0.023185
0.0203796
0.0184841
0.0178557
0.0183872
0.0194542
0.0201796
0.0196012
0.017127
0.0131337
0.00908669
0.00704463
0.00624913
0.00603588
0.0059857
0.00583038
0.00544543
0.00487937
0.00425295
0.00367638
0.00322249
0.00291666
0.00274197
0.00266963
0.00268562
0.00278846
0.002981
0.0032656
0.00364234
0.00411847
0.00469952
0.005405
0.00617566
0.00684939
0.0072627
0.0074529
0.00460277
0.00661979
0.0108458
0.0156261
0.0201482
0.0234614
0.0252433
0.025353
0.0237484
0.0199075
0.014103
0.00979599
0.00727204
0.00609021
0.00555754
0.00529328
0.00507647
0.00478094
0.00437102
0.00389312
0.00342408
0.00302828
0.00274011
0.00256049
0.00247635
0.00246719
0.00251968
0.00263257
0.00281687
0.00309246
0.00347756
0.00398057
0.00460112
0.00531709
0.00605077
0.00670346
0.00728226
0.0063513
0.00328251
0.0106631
0.0293186
0.0342945
0.0328055
0.0285909
0.0236017
0.0186103
0.014198
0.010652
0.00812625
0.00647217
0.00551958
0.00500492
0.00470509
0.00448856
0.00427937
0.00404821
0.00380855
0.00359259
0.00342146
0.00329282
0.00318917
0.00309515
0.00302359
0.00298702
0.00298923
0.00303628
0.00313826
0.00333154
0.00364045
0.00407845
0.00464339
0.00530352
0.00601697
0.0067323
0.00747575
0.00448035
0.00353041
0.0113618
0.0120771
0.0127404
0.0156699
0.0136028
0.010588
0.00811473
0.00648054
0.00532766
0.00439232
0.00363235
0.00305222
0.00264907
0.00238516
0.00220714
0.00207067
0.00194636
0.00181929
0.00168857
0.00156415
0.0014579
0.00137686
0.00132303
0.00129707
0.00130059
0.00132445
0.00136695
0.00143066
0.00152123
0.0016495
0.00181674
0.00202818
0.00229045
0.00261069
0.00299207
0.00348373
0.00358116
0.00302079
0.00255936
0.00310594
)
;

boundaryField
{
    floor
    {
        type            kqRWallFunction;
        value           nonuniform List<scalar> 
36
(
0.0023083
0.000663361
0.000923294
0.00121071
0.00132631
0.00127167
0.00110208
0.000935074
0.000799026
0.000690994
0.0006046
0.000534857
0.000477785
0.000430554
0.000390385
0.000354709
0.000321148
0.000300186
0.000254199
0.000254199
0.000401056
0.000542346
0.000681492
0.00120695
0.00129955
0.00152797
0.0023083
0.00385291
0.00280502
0.0019
0.000663361
0.0019
0.000644303
0.00265746
0.00141738
0.00343859
)
;
    }
    ceiling
    {
        type            kqRWallFunction;
        value           nonuniform List<scalar> 
43
(
0.0113618
0.0120771
0.0127404
0.0156699
0.0136028
0.010588
0.00811473
0.00648054
0.00532766
0.00439232
0.00363235
0.00305222
0.00264907
0.00238516
0.00220714
0.00207067
0.00194636
0.00181929
0.00168857
0.00156415
0.0014579
0.00137686
0.00132303
0.00129707
0.00130059
0.00132445
0.00136695
0.00143066
0.00152123
0.0016495
0.00181674
0.00202818
0.00229045
0.00261069
0.00299207
0.00348373
0.00358116
0.00302079
0.00255936
0.00310594
0.0201252
0.028623
0.0106631
)
;
    }
    sWall
    {
        type            kqRWallFunction;
        value           uniform 0.0113618;
    }
    nWall
    {
        type            kqRWallFunction;
        value           nonuniform List<scalar> 6(0.00152797 0.00167452 0.0025203 0.00328251 0.00353041 0.00310594);
    }
    sideWalls
    {
        type            empty;
    }
    glass1
    {
        type            kqRWallFunction;
        value           nonuniform List<scalar> 9(0.00295339 0.00517013 0.00745694 0.0100081 0.0129762 0.016572 0.0202959 0.021132 0.0201252);
    }
    glass2
    {
        type            kqRWallFunction;
        value           nonuniform List<scalar> 2(0.00535793 0.00460277);
    }
    sun
    {
        type            kqRWallFunction;
        value           nonuniform List<scalar> 
14
(
0.00295339
0.00356115
0.00376957
0.00417156
0.00457287
0.00498693
0.00544555
0.00586366
0.00617629
0.00630778
0.0061849
0.00574702
0.00464493
0.00334956
)
;
    }
    Table_master
    {
        type            kqRWallFunction;
        value           nonuniform List<scalar> 9(0.00203143 0.00151673 0.00115644 0.000905498 0.000727862 0.000599347 0.000504285 0.000433752 0.000383886);
    }
    Table_slave
    {
        type            kqRWallFunction;
        value           nonuniform List<scalar> 9(0.00265281 0.00217971 0.00186523 0.00163206 0.00144087 0.00127724 0.00112454 0.00097327 0.000813577);
    }
    inlet
    {
        type            turbulentIntensityKineticEnergyInlet;
        intensity       0.05;
        value           uniform 0.000937501;
    }
    outlet
    {
        type            zeroGradient;
    }
}


// ************************************************************************* //
