/*--------------------------------*- C++ -*----------------------------------*\
  =========                 |
  \\      /  F ield         | OpenFOAM: The Open Source CFD Toolbox
   \\    /   O peration     | Website:  https://openfoam.org
    \\  /    A nd           | Version:  6
     \\/     M anipulation  |
\*---------------------------------------------------------------------------*/
FoamFile
{
    version     2.0;
    format      ascii;
    class       volScalarField;
    location    "200";
    object      nut;
}
// * * * * * * * * * * * * * * * * * * * * * * * * * * * * * * * * * * * * * //

dimensions      [0 2 -1 0 0 0 0];

internalField   nonuniform List<scalar> 
458
(
0.00122035
0.00134004
0.00137868
0.00145033
0.00151849
0.00158574
0.00165705
0.00171949
0.00176474
0.00178343
0.00176598
0.00170232
0.00153052
0.00129967
0.00107888
0.000578351
0.000682321
0.000781328
0.000817765
0.000800736
0.000745434
0.000686632
0.000634718
0.00059025
0.000552118
0.000519296
0.000490808
0.000465916
0.000443649
0.00042289
0.000402387
0.000389038
0.000358003
0.00161466
0.0039453
0.00376255
0.00434869
0.00495244
0.00553717
0.00598105
0.00640985
0.00681878
0.00716265
0.00738904
0.00745086
0.00726352
0.00659292
0.00455242
0.00139388
0.0011893
0.000978809
0.000569994
0.00149444
0.00226128
0.00281852
0.00291428
0.00204344
0.00169752
0.00147062
0.00130616
0.00118152
0.00108346
0.00100456
0.000933355
0.000860737
0.000792647
0.000736497
0.000883304
0.000449708
0.00193916
0.00533786
0.0046391
0.00554023
0.00598056
0.00630137
0.00655165
0.00684805
0.00721562
0.00764339
0.00807447
0.00842961
0.00856112
0.00826999
0.00742034
0.00573468
0.00416529
0.00115759
0.000845465
0.00165189
0.00257318
0.00342404
0.00352108
0.00101206
0.000874498
0.000763604
0.000675695
0.000605805
0.000549729
0.000504253
0.000467662
0.000439959
0.000496165
0.000601485
0.00106794
0.000522976
0.00224653
0.00668476
0.00463356
0.00573467
0.00595276
0.00598191
0.00606484
0.00626151
0.00659903
0.00709872
0.00767381
0.00819846
0.00848247
0.0084557
0.00810035
0.00733286
0.0059616
0.00316524
0.0013168
0.00182342
0.00275841
0.0038726
0.00474849
0.00462424
0.00115653
0.00104834
0.000969773
0.000907142
0.000852357
0.000802505
0.000753012
0.000700544
0.000640505
0.000591363
0.00063434
0.00131736
0.000586247
0.00255807
0.00842329
0.00493849
0.00556146
0.00582107
0.00569334
0.00567852
0.00583019
0.00615002
0.00670741
0.00735592
0.00789559
0.00818861
0.00821618
0.00804787
0.00770263
0.00698139
0.00564828
0.0051556
0.00552009
0.00611321
0.00666954
0.0069719
0.00679891
0.00559075
0.00495914
0.00456943
0.00425938
0.00391949
0.00348574
0.00297515
0.00241404
0.00184318
0.00135479
0.00105109
0.0011918
0.00101661
0.0007802
0.000809562
0.000877832
0.00289087
0.0103509
0.00657393
0.0054968
0.00581812
0.00577795
0.0056597
0.00574341
0.00603737
0.00658991
0.00726444
0.00781362
0.00806303
0.00803335
0.0078978
0.00780435
0.00772925
0.00756933
0.00781397
0.00828471
0.00860284
0.008685
0.00852143
0.0081129
0.00744854
0.00685319
0.00635116
0.00588746
0.00540996
0.00486764
0.00426283
0.00359803
0.00289517
0.00222427
0.00171851
0.00134814
0.0011885
0.00108833
0.00134426
0.000918968
0.00319924
0.0116976
0.00911851
0.00681044
0.00641223
0.00627244
0.00596912
0.00586747
0.00612293
0.00671266
0.00743223
0.00797998
0.00816364
0.00806742
0.00801143
0.0082725
0.00874853
0.00916555
0.00960576
0.00988593
0.00985371
0.00955396
0.00905416
0.00841271
0.00769322
0.00702508
0.00642726
0.0058739
0.00534067
0.00485304
0.00443159
0.00397141
0.00344646
0.0028636
0.00236664
0.0019641
0.0017322
0.00165182
0.00156407
0.00112742
0.00326447
0.0103503
0.00911714
0.0081536
0.00753892
0.00669773
0.00605952
0.00592669
0.00631631
0.00705902
0.00785429
0.00835816
0.00842134
0.00830041
0.00856509
0.0092942
0.0097823
0.0100959
0.01028
0.0102229
0.00985306
0.00923691
0.00845851
0.00759487
0.00673746
0.00597544
0.00532854
0.00478828
0.00435748
0.0040499
0.00386667
0.00377658
0.00368102
0.0033969
0.00319909
0.00316875
0.00335913
0.00356345
0.00433458
0.00164382
0.00318576
0.00379929
0.00416731
0.00433187
0.00433466
0.0044486
0.00486329
0.00565206
0.00669973
0.00776789
0.00857079
0.00882917
0.00862434
0.00878103
0.00927047
0.00970703
0.00989435
0.0099065
0.00973769
0.00932227
0.00865055
0.00778797
0.00682494
0.00586577
0.00502078
0.00434797
0.00383705
0.00345852
0.00318669
0.0029987
0.00287209
0.00278706
0.00273496
0.00270365
0.00268451
0.00266108
0.00258414
0.00243158
0.00224487
0.00152359
0.00120675
0.00223963
0.00360921
0.00516979
0.00666603
0.00792124
0.00878839
0.00922769
0.00925747
0.00893644
0.00860527
0.00870579
0.00888916
0.00890401
0.00876515
0.00849262
0.00804302
0.00738436
0.00655544
0.00566407
0.00483845
0.00417085
0.00367805
0.00333016
0.00309256
0.00292698
0.00281078
0.0027363
0.00270474
0.00271183
0.00274432
0.00279034
0.00283576
0.00285974
0.00284847
0.0028291
0.00248942
0.00128667
0.00231874
0.00559648
0.00793383
0.00917264
0.00943461
0.00912758
0.00851955
0.0078136
0.00724677
0.00694566
0.00682718
0.00674291
0.0065934
0.00639818
0.00615756
0.00583616
0.00541053
0.00490888
0.00440439
0.00396871
0.00363112
0.00337852
0.00318145
0.00303717
0.00293667
0.00286703
0.00281792
0.00278119
0.00277693
0.00281136
0.00287927
0.00296773
0.00305679
0.00313717
0.00321118
0.00316487
0.00214764
0.00133436
0.00239355
0.00246774
0.00253459
0.00281094
0.00261905
0.0023107
0.0020229
0.00180775
0.0016391
0.0014883
0.00135346
0.00124069
0.00115586
0.00109677
0.00105505
0.00102193
0.000990791
0.000957919
0.000922883
0.000888247
0.000857561
0.000833394
0.000816943
0.000808886
0.000809984
0.00081737
0.000830368
0.00084949
0.000875954
0.000912128
0.000957244
0.00101141
0.00107481
0.00114749
0.00122844
0.00132553
0.00134393
0.00123432
0.00113614
0.00125157
)
;

boundaryField
{
    floor
    {
        type            nutkWallFunction;
        Cmu             0.09;
        kappa           0.41;
        E               9.8;
        value           nonuniform List<scalar> 
36
(
0.000129948
6.96508e-05
8.25643e-05
9.46436e-05
9.90438e-05
9.69919e-05
9.02895e-05
8.30976e-05
7.66866e-05
7.11448e-05
6.6352e-05
6.2194e-05
5.85586e-05
5.53606e-05
5.24816e-05
4.97812e-05
4.70973e-05
4.53398e-05
4.12243e-05
4.12242e-05
5.32611e-05
6.26535e-05
7.06337e-05
9.4497e-05
9.80455e-05
0.000106236
0.000129948
0.000166122
0.00014275
0.000118219
6.96507e-05
0.000118219
6.85995e-05
0.000139089
0.000102361
0.000157365
)
;
    }
    ceiling
    {
        type            nutkWallFunction;
        Cmu             0.09;
        kappa           0.41;
        E               9.8;
        value           nonuniform List<scalar> 
43
(
0.000275619
0.000283525
0.000290629
0.000319904
0.000299737
0.00026693
0.000235869
0.000212335
0.000193669
0.000176798
0.00016155
0.000148669
0.000138893
0.000132036
0.000127169
0.000123288
0.000119626
0.000115746
0.000111593
0.00010747
0.000103802
0.000100902
9.89235e-05
9.79527e-05
9.80852e-05
9.89762e-05
0.000100541
0.000102837
0.000106005
0.000110316
0.000115666
0.000122049
0.000129472
0.000137919
0.000147257
0.000158366
0.000160462
0.000147934
0.000136607
0.000149921
0.000359334
0.000422408
0.000267489
)
;
    }
    sWall
    {
        type            nutkWallFunction;
        Cmu             0.09;
        kappa           0.41;
        E               9.8;
        value           uniform 0.000275693;
    }
    nWall
    {
        type            nutkWallFunction;
        Cmu             0.09;
        kappa           0.41;
        E               9.8;
        value           nonuniform List<scalar> 6(0.000106238 0.000111137 0.000135599 0.000153948 0.000159391 0.000149933);
    }
    sideWalls
    {
        type            empty;
    }
    glass1
    {
        type            nutkWallFunction;
        Cmu             0.09;
        kappa           0.41;
        E               9.8;
        value           nonuniform List<scalar> 9(0.000146495 0.000191218 0.000227103 0.000260494 0.000293845 0.000329003 0.000361205 0.000367988 0.000359837);
    }
    glass2
    {
        type            nutkWallFunction;
        Cmu             0.09;
        kappa           0.41;
        E               9.8;
        value           nonuniform List<scalar> 2(0.000194294 0.000180853);
    }
    sun
    {
        type            nutkWallFunction;
        Cmu             0.09;
        kappa           0.41;
        E               9.8;
        value           nonuniform List<scalar> 
14
(
0.00014633
0.000160013
0.000164404
0.000172507
0.000180174
0.000187703
0.000195648
0.000202573
0.000207575
0.000209636
0.00020771
0.000200669
0.000181511
0.000155406
)
;
    }
    Table_master
    {
        type            nutkWallFunction;
        Cmu             0.09;
        kappa           0.41;
        E               9.8;
        value           nonuniform List<scalar> 9(0.000122134 0.000105846 9.24973e-05 8.17533e-05 7.30921e-05 6.60553e-05 6.02842e-05 5.55939e-05 5.20126e-05);
    }
    Table_slave
    {
        type            nutkWallFunction;
        Cmu             0.09;
        kappa           0.41;
        E               9.8;
        value           nonuniform List<scalar> 9(0.000138972 0.000126389 0.000117158 0.000109737 0.000103197 9.72032e-05 9.12089e-05 8.48028e-05 7.74017e-05);
    }
    inlet
    {
        type            calculated;
        value           uniform 0.000167705;
    }
    outlet
    {
        type            calculated;
        value           nonuniform List<scalar> 2(0.00239355 0.00246774);
    }
}


// ************************************************************************* //
