/*--------------------------------*- C++ -*----------------------------------*\
  =========                 |
  \\      /  F ield         | OpenFOAM: The Open Source CFD Toolbox
   \\    /   O peration     | Website:  https://openfoam.org
    \\  /    A nd           | Version:  6
     \\/     M anipulation  |
\*---------------------------------------------------------------------------*/
FoamFile
{
    version     2.0;
    format      ascii;
    class       surfaceScalarField;
    location    "200";
    object      phi;
}
// * * * * * * * * * * * * * * * * * * * * * * * * * * * * * * * * * * * * * //

dimensions      [1 0 -1 0 0 0 0];

internalField   nonuniform List<scalar> 
850
(
-0.00322999
0.0032938
-0.00445948
0.00122956
-0.00536577
0.000906365
-0.00602562
0.000659925
-0.00639783
0.000372284
-0.00644062
4.28639e-05
-0.00610742
-0.000333127
-0.00537412
-0.00073322
-0.00428329
-0.00109075
-0.00295231
-0.00133091
-0.00155286
-0.00139938
-0.000289054
-0.00126373
0.000513233
-0.000802225
0.000710587
-0.000197292
0.000713725
-0.00102295
0.00102749
-0.000738239
-0.000284691
-1.11025e-05
-0.00072712
0.000653761
-0.000664848
0.0011356
-0.000481828
0.00140069
-0.000265081
0.00151489
-0.000114188
0.00157319
-5.8299e-05
0.00160917
-3.59768e-05
0.00163071
-2.15304e-05
0.00164222
-1.15147e-05
0.00164455
-2.33979e-06
0.00163086
1.3688e-05
0.00157963
5.12218e-05
0.00145329
0.000126324
0.0012369
0.000216367
0.000929786
0.000307094
0.000935693
-0.00231837
0.00578447
-0.00349374
0.00240501
-0.00442554
0.00183824
-0.00509212
0.00132658
-0.00548048
0.000760726
-0.00555471
0.00011717
-0.0052714
-0.000616368
-0.00461914
-0.0013854
-0.00366292
-0.0020469
-0.00253606
-0.00245768
-0.00140613
-0.00252923
-0.000428697
-0.0022411
0.000338354
-0.00156921
0.000900476
-0.000759352
0.00167393
-5.96638e-05
0.00156229
0.000116687
0.00110888
0.000459121
0.00112535
5.21293e-05
0.000989085
0.000487277
-0.000719817
0.000884465
-0.00112429
0.00121743
-0.00099779
0.00147073
-0.000735111
0.00152927
-0.000323609
0.001539
-0.000123917
0.0015505
-6.97909e-05
0.00156009
-4.55605e-05
0.00156603
-2.74657e-05
0.00156945
-1.4936e-05
0.00157046
-3.36213e-06
0.0015661
1.80398e-05
0.00152874
8.85727e-05
0.00136071
0.000294336
0.00107553
0.000501525
0.000724079
0.000658519
0.0016752
-0.00162233
0.00767107
-0.00262154
0.00340429
-0.00345831
0.00267509
-0.00405026
0.0019186
-0.00441325
0.00112378
-0.00450197
0.000205967
-0.0042446
-0.000873667
-0.00363987
-0.00199004
-0.00278825
-0.00289844
-0.00183405
-0.0034118
-0.000921517
-0.00344169
-0.000149116
-0.00301344
0.00048788
-0.00220615
0.00101181
-0.00128323
0.00140846
-0.00045625
0.00136383
0.000161378
0.000979969
0.000843037
0.00211985
0.00157529
-0.000568645
0.00179085
-0.000935349
0.00173404
-0.00106745
0.00176445
-0.00102817
0.00193631
-0.000906955
0.00161287
0.00148912
0.00141949
0.00137409
0.00134678
0.001332
0.00132878
0.00134697
0.00143568
0.00115518
0.000574818
0.000846107
0.000810567
0.000510645
0.00099395
0.0022091
-0.00111735
0.00913156
-0.00188914
0.00417615
-0.00246284
0.00324886
-0.00287617
0.002332
-0.00314537
0.00139305
-0.00319573
0.000256399
-0.00291256
-0.00115676
-0.00233473
-0.00256779
-0.00160706
-0.00362601
-0.000860747
-0.00415802
-0.000194744
-0.00410761
0.000350439
-0.00355856
0.000808086
-0.00266375
0.00118445
-0.00165954
0.00145558
-0.000727325
0.00156427
5.27479e-05
0.00167732
0.000730037
0.00269788
0.00109935
0.00246233
0.000251034
0.00226401
-0.000370269
0.00214151
-0.000812808
0.00199983
-0.00092573
0.00185259
-0.000880918
0.00163587
-0.000690219
0.00193265
-0.000296929
0.00206482
-0.000132327
0.0021374
-7.27382e-05
0.00217047
-3.32308e-05
0.00215645
1.3856e-05
0.00208039
7.58803e-05
0.00191997
0.000160253
0.00163968
0.000280108
0.00117724
0.000462251
0.000971201
0.00078083
0.000644062
0.00113768
0.000199618
0.00143836
0.00243872
-0.00075688
0.010299
-0.00131335
0.00473269
-0.00146548
0.00340106
-0.0015905
0.00245709
-0.00168505
0.00148766
-0.00159148
0.000162892
-0.0012067
-0.00154148
-0.000671646
-0.00310276
-0.000130529
-0.00416703
0.000331269
-0.00461971
0.0006844
-0.00446066
0.000950435
-0.00382454
0.00116647
-0.00287973
0.00134139
-0.00183442
0.00148742
-0.000873315
0.00164077
-0.000100547
0.0019138
0.000457059
0.00235144
0.000661765
0.00235874
0.000243783
0.00225167
-0.000263161
0.0020182
-0.000579298
0.00177865
-0.000686166
0.00155409
-0.000656346
0.00138138
-0.000517513
0.00138456
-0.000300117
0.00140887
-0.000156661
0.00142777
-9.16581e-05
0.00144627
-5.17568e-05
0.00145855
1.54427e-06
0.00144863
8.57665e-05
0.00139775
0.000211104
0.00129051
0.000387305
0.00113507
0.000617655
0.000993109
0.000922752
0.000851249
0.0012795
0.000503404
0.00178617
0.00081776
0.00212432
-0.00131568
0.00215947
-0.00197453
0.000683308
-0.0018909
-0.00063232
0.0113987
-0.000973477
0.00507392
-0.000533444
0.00296109
-0.000216389
0.0021401
1.25419e-05
0.00125878
0.000378577
-0.000203108
0.000868979
-0.00203182
0.00128242
-0.0035161
0.00154037
-0.00442487
0.00164008
-0.00471931
0.00162808
-0.00444858
0.00154645
-0.00374286
0.00144112
-0.00277437
0.00134407
-0.00173734
0.00128815
-0.000817365
0.0013137
-0.000126059
0.00145963
0.00031116
0.00168804
0.000433403
0.00174081
0.000191045
0.00160829
-0.000130616
0.00137928
-0.000350281
0.0011344
-0.000441279
0.000909425
-0.000431389
0.00073918
-0.000347292
0.000665312
-0.000226281
0.000654983
-0.00014637
0.000679134
-0.000115851
0.000730023
-0.000102691
0.000804885
-7.33621e-05
0.000887855
2.74963e-06
0.000958829
0.00014008
0.00101342
0.000332668
0.00105982
0.000571205
0.00113431
0.000848217
0.00129258
0.00112119
0.00156758
0.00151113
0.00201152
0.00168035
0.00242219
0.00174875
0.00193155
0.00117389
0.000113153
-0.000675476
0.0125928
-0.000488601
0.00488712
0.000742655
0.0017299
0.00146243
0.00142038
0.00209147
0.000629782
0.00275099
-0.000862591
0.00322003
-0.00250078
0.00339817
-0.00369413
0.00328868
-0.00431524
0.0029535
-0.00438402
0.00248253
-0.00397753
0.00196244
-0.00322273
0.00146685
-0.00227877
0.00104982
-0.0013203
0.000762289
-0.000529832
0.000634797
1.44266e-06
0.000668468
0.000277507
0.000777183
0.000324704
0.00079381
0.000174426
0.000682269
-1.90787e-05
0.000493754
-0.000161782
0.000281881
-0.000229437
8.52296e-05
-0.000234777
-6.15391e-05
-0.000200571
-0.000131393
-0.000156481
-0.000137753
-0.000140069
-0.000101358
-0.000152307
-2.91899e-05
-0.000174923
8.24621e-05
-0.000185079
0.000240371
-0.000155222
0.000430219
-4.98296e-05
0.000630107
0.000132716
0.000848358
0.000352892
0.00111052
0.000585998
0.0014439
0.00078775
0.00191531
0.00103968
0.00252619
0.00106942
0.00341511
0.000859778
0.00367373
0.000915209
0.00386117
0.00300646
0.0101659
0.00377964
0.004114
0.00404652
0.00146308
0.0044956
0.000971349
0.00521007
-8.46713e-05
0.00583099
-0.00148345
0.00597041
-0.0026401
0.00562844
-0.00335202
0.00491292
-0.00359957
0.00396577
-0.00343676
0.00292277
-0.00293447
0.00190405
-0.002204
0.00100973
-0.00138448
0.000306632
-0.000617232
-0.000125181
-9.80405e-05
-0.000295803
0.000172054
-0.000292476
0.00027417
-0.000241163
0.000273376
-0.000250029
0.000183267
-0.00033901
6.98625e-05
-0.00048209
-1.87522e-05
-0.000643503
-6.80836e-05
-0.000789151
-8.91958e-05
-0.000893813
-9.59807e-05
-0.000945369
-0.000105001
-0.000955328
-0.000130189
-0.000937809
-0.000169907
-0.000899329
-0.000213486
-0.000836424
-0.000248066
-0.000733025
-0.000258703
-0.000555168
-0.000227767
-0.000293212
-0.000129318
1.68733e-05
4.27317e-05
0.000347545
0.000255256
0.000677884
0.000457345
0.00105129
0.000666213
0.00142358
0.000697074
0.00169092
0.000592387
0.00075516
0.0018509
0.004945
0.0108127
0.0149278
0.0133039
0.00308707
0.0124239
0.00185136
0.011628
0.000711309
0.0105224
-0.000377645
0.00907866
-0.00119616
0.00742119
-0.00169435
0.00567023
-0.00184845
0.00394476
-0.00171121
0.00233432
-0.00132403
0.000906427
-0.000776153
-0.000204629
-0.000273501
-0.00088951
6.75855e-05
-0.00118528
0.000197677
-0.00126291
0.000249642
-0.00125429
0.000265509
-0.00123097
0.000250009
-0.00124846
0.000200691
-0.00131702
0.000138351
-0.00141811
8.22551e-05
-0.0015264
4.01207e-05
-0.00162496
9.26897e-06
-0.00170304
-1.79921e-05
-0.00175952
-4.86167e-05
-0.0018086
-8.12015e-05
-0.00186673
-0.00011188
-0.00194901
-0.000131301
-0.00206918
-0.00012799
-0.00224047
-8.74992e-05
-0.0024759
7.57212e-06
-0.00277598
0.000170676
-0.00315369
0.000420362
-0.00367519
0.000776669
-0.00445272
0.0012348
-0.00554203
0.00175545
-0.00705576
0.00221073
-0.00884733
0.00238388
-0.00841991
0.0014234
-0.00311685
0.00893825
0.00489735
0.00722682
0.0035631
0.00657053
0.00136805
0.0059022
0.000291025
0.00490666
-0.000200415
0.00365663
-0.000444226
0.00227052
-0.000462327
0.000851009
-0.000291765
-0.000452079
-2.1101e-05
-0.00141176
0.000183407
-0.00192923
0.000243875
-0.00212079
0.000259074
-0.00216959
0.000246404
-0.00215546
0.000235427
-0.00211788
0.000227854
-0.00208425
0.000216294
-0.00207763
0.000193981
-0.00210366
0.000164277
-0.00215391
0.000132401
-0.00221434
0.00010044
-0.0022731
6.79217e-05
-0.00232621
3.50012e-05
-0.0023751
1.63504e-07
-0.00242836
-2.80585e-05
-0.00249734
-4.30026e-05
-0.00258759
-4.11603e-05
-0.00269607
-1.96138e-05
-0.00280849
2.48225e-05
-0.00291448
0.00011346
-0.0030144
0.000270507
-0.00311355
0.000519428
-0.00321795
0.000880975
-0.00332501
0.00134178
-0.00336926
0.00179961
-0.00320309
0.00204447
-0.00202499
0.00120569
5.16323e-05
-0.000653313
-0.00297802
-0.00139866
0.00636133
-0.000444128
0.00260865
-0.000431526
0.00135541
-0.000753511
0.000612861
-0.00117613
0.000222074
-0.00171976
9.92622e-05
-0.0023082
0.000125975
-0.00279039
0.000190288
-0.00305584
0.00024422
-0.00312443
0.00025188
-0.00311052
0.000229861
-0.00304841
0.000196861
-0.00297266
0.000170555
-0.00289481
0.000157467
-0.0028192
0.00015213
-0.00274968
0.000146659
-0.00269085
0.00013503
-0.00264269
0.000115999
-0.00260134
9.09256e-05
-0.00256295
6.1915e-05
-0.00252684
3.16835e-05
-0.00249617
4.20654e-06
-0.00247663
-1.95038e-05
-0.00246538
-3.94412e-05
-0.00246385
-4.46522e-05
-0.00247099
-3.41349e-05
-0.00248361
-7.11239e-06
-0.00249103
3.21339e-05
-0.00247156
9.38887e-05
-0.00239675
0.000195588
-0.00223177
0.000354354
-0.00194768
0.000596789
-0.00154759
0.000941601
-0.000985151
0.00123708
0.000107929
0.000951303
0.00189686
-0.00058333
0.00350169
-0.00225825
0.000617958
-0.0124383
-0.0163379
-0.0099293
-0.00728929
-0.00590972
-0.00527721
-0.00503812
-0.00492336
-0.0047828
-0.00457845
-0.00432035
-0.00405457
-0.00381073
-0.00359985
-0.0034153
-0.00324385
-0.00307773
-0.00291698
-0.00276765
-0.00263704
-0.00253109
-0.0024537
-0.00240606
-0.00238547
-0.00238824
-0.00241066
-0.00243811
-0.00245495
-0.00244479
-0.00239555
-0.00228485
-0.00207284
-0.00170257
-0.00109044
-0.000134141
0.00111678
0.00208154
0.00151214
-0.000733152
)
;

boundaryField
{
    floor
    {
        type            calculated;
        value           nonuniform List<scalar> 
36
(
0
0
0
0
0
0
0
0
0
0
0
0
0
0
0
0
0
0
0
-5.93549e-06
-1.54582e-05
-2.32896e-05
-3.00394e-05
-2.61008e-05
-2.45311e-05
-2.31734e-05
-3.07532e-06
-4.98903e-06
-5.64824e-06
-6.53677e-06
-4.53475e-06
-9.88238e-06
-1.37153e-05
-1.44688e-05
-1.75413e-05
-1.54339e-05
)
;
    }
    ceiling
    {
        type            calculated;
        value           nonuniform List<scalar> 
43
(
-4.95618e-05
-4.83788e-05
-4.73657e-05
-3.15333e-05
-2.43799e-05
-1.98485e-05
-1.71762e-05
-1.56407e-05
-1.47168e-05
-1.42055e-05
-1.40116e-05
-1.40306e-05
-1.41101e-05
-1.41499e-05
-1.41398e-05
-1.41183e-05
-1.41341e-05
-1.42318e-05
-1.44408e-05
-1.4763e-05
-1.5173e-05
-1.56318e-05
-1.60985e-05
-1.65305e-05
-1.68824e-05
-1.71566e-05
-1.7343e-05
-1.74275e-05
-1.73956e-05
-1.7225e-05
-1.69325e-05
-1.65298e-05
-1.60302e-05
-1.54478e-05
-1.47998e-05
-1.39395e-05
-1.35647e-05
-1.40352e-05
-1.30794e-05
-9.73716e-06
8.99938e-07
-9.87684e-07
-6.52537e-05
)
;
    }
    sWall
    {
        type            calculated;
        value           uniform -0.000236021;
    }
    nWall
    {
        type            calculated;
        value           nonuniform List<scalar> 6(-6.05365e-05 -7.2574e-05 -7.43544e-05 -8.73166e-05 -9.4405e-05 -0.000105585);
    }
    sideWalls
    {
        type            empty;
        value           nonuniform 0();
    }
    glass1
    {
        type            calculated;
        value           nonuniform List<scalar> 9(-6.37291e-05 -0.000172227 -0.00026419 -0.000343061 -0.000410452 -0.000467377 -0.000518503 -0.000579531 -0.000647641);
    }
    glass2
    {
        type            calculated;
        value           nonuniform List<scalar> 2(-0.000328731 -0.000358137);
    }
    sun
    {
        type            calculated;
        value           uniform 0;
    }
    Table_master
    {
        type            calculated;
        value           nonuniform List<scalar> 9(-1.54559e-07 -1.54735e-07 -1.54795e-07 -1.54832e-07 -1.54858e-07 -1.54875e-07 -1.54884e-07 -1.54882e-07 -1.54852e-07);
    }
    Table_slave
    {
        type            calculated;
        value           nonuniform List<scalar> 9(1.54326e-07 1.54334e-07 1.54296e-07 1.54273e-07 1.54264e-07 1.54263e-07 1.54287e-07 1.54342e-07 1.54443e-07);
    }
    inlet
    {
        type            calculated;
        value           uniform -0.0107484;
    }
    outlet
    {
        type            calculated;
        value           nonuniform List<scalar> 2(0.0127237 0.00394787);
    }
}


// ************************************************************************* //
