/*--------------------------------*- C++ -*----------------------------------*\
  =========                 |
  \\      /  F ield         | OpenFOAM: The Open Source CFD Toolbox
   \\    /   O peration     | Website:  https://openfoam.org
    \\  /    A nd           | Version:  6
     \\/     M anipulation  |
\*---------------------------------------------------------------------------*/
FoamFile
{
    version     2.0;
    format      ascii;
    class       volScalarField;
    location    "200";
    object      T;
}
// * * * * * * * * * * * * * * * * * * * * * * * * * * * * * * * * * * * * * //

dimensions      [0 0 0 1 0 0 0];

internalField   nonuniform List<scalar> 
458
(
301.621
301.329
301.318
301.318
301.317
301.316
301.315
301.311
301.305
301.298
301.296
301.301
301.316
301.322
301.337
301.565
301.539
301.537
301.559
301.574
301.582
301.589
301.596
301.603
301.61
301.617
301.624
301.632
301.641
301.65
301.661
301.676
301.715
301.814
301.364
301.34
301.345
301.35
301.353
301.352
301.343
301.324
301.303
301.292
301.299
301.317
301.328
301.331
301.335
301.337
301.352
301.57
301.511
301.521
301.547
301.571
301.577
301.579
301.581
301.583
301.585
301.587
301.591
301.595
301.601
301.609
301.623
301.644
301.7
302.02
301.413
301.372
301.386
301.404
301.416
301.421
301.404
301.363
301.316
301.29
301.298
301.327
301.347
301.354
301.352
301.348
301.352
301.516
301.499
301.522
301.565
301.605
301.602
301.598
301.596
301.594
301.593
301.594
301.595
301.597
301.601
301.613
301.625
301.645
301.701
302.231
301.476
301.407
301.431
301.468
301.501
301.517
301.491
301.416
301.33
301.285
301.295
301.336
301.372
301.389
301.386
301.377
301.367
301.379
301.413
301.474
301.548
301.62
301.681
301.73
301.766
301.795
301.82
301.84
301.859
301.875
301.888
301.896
301.807
301.73
301.689
301.715
302.441
301.56
301.447
301.469
301.524
301.586
301.625
301.582
301.465
301.338
301.277
301.29
301.347
301.405
301.439
301.444
301.435
301.429
301.451
301.501
301.574
301.656
301.736
301.804
301.864
301.908
301.943
301.969
301.987
301.996
301.998
301.991
301.973
301.912
301.822
301.746
301.732
301.934
302.045
302.038
302.633
301.67
301.515
301.511
301.568
301.663
301.715
301.639
301.483
301.335
301.263
301.285
301.365
301.453
301.511
301.532
301.533
301.54
301.578
301.642
301.721
301.805
301.882
301.948
302.002
302.042
302.072
302.094
302.105
302.104
302.094
302.075
302.045
301.99
301.909
301.822
301.78
301.864
301.914
301.973
302.81
301.852
301.685
301.653
301.689
301.779
301.783
301.651
301.453
301.287
301.227
301.28
301.402
301.53
301.618
301.66
301.677
301.7
301.751
301.82
301.897
301.973
302.04
302.095
302.136
302.166
302.186
302.199
302.202
302.195
302.175
302.147
302.111
302.061
301.994
301.918
301.866
301.877
301.9
301.94
303.063
302.351
302.16
302.05
302.014
301.992
301.835
301.573
301.317
301.166
301.168
301.296
301.484
301.66
301.774
301.832
301.855
301.889
301.947
302.016
302.08
302.139
302.187
302.223
302.248
302.264
302.272
302.272
302.266
302.253
302.234
302.208
302.173
302.127
302.079
302.026
301.994
301.999
302.025
302.196
303.43
303.09
302.832
302.597
302.394
302.068
301.594
301.182
300.958
300.949
301.127
301.397
301.668
301.878
301.972
302.013
302.044
302.085
302.138
302.193
302.242
302.279
302.306
302.324
302.332
302.332
302.326
302.315
302.301
302.285
302.269
302.257
302.248
302.244
302.251
302.271
302.308
302.349
302.383
302.473
295.504
296.936
297.754
298.268
298.885
299.56
300.213
300.804
301.36
301.791
301.998
302.103
302.155
302.189
302.223
302.26
302.3
302.338
302.367
302.387
302.396
302.397
302.391
302.381
302.369
302.355
302.342
302.33
302.319
302.31
302.305
302.305
302.314
302.332
302.359
302.391
302.43
302.542
296.112
297.424
298.621
299.633
300.377
300.931
301.382
301.734
301.986
302.141
302.231
302.285
302.32
302.35
302.378
302.405
302.429
302.448
302.459
302.462
302.459
302.452
302.441
302.428
302.414
302.399
302.386
302.373
302.361
302.352
302.345
302.342
302.345
302.356
302.374
302.413
302.475
302.515
298.329
298.288
298.282
299.685
300.657
301.344
301.765
302.01
302.167
302.278
302.356
302.41
302.448
302.476
302.497
302.515
302.531
302.543
302.551
302.555
302.553
302.547
302.537
302.523
302.507
302.491
302.475
302.459
302.443
302.429
302.415
302.402
302.391
302.383
302.378
302.381
302.393
302.417
302.517
302.664
)
;

boundaryField
{
    floor
    {
        type            wallHeatTransfer;
        Tinf            uniform 305.2;
        alphaWall       uniform 0.24;
        value           nonuniform List<scalar> 
36
(
301.743
302.166
302.078
302.026
302.03
302.05
302.083
302.119
302.155
302.189
302.222
302.254
302.285
302.314
302.343
302.373
302.405
302.433
302.502
302.502
302.385
302.32
302.286
302.371
302.457
302.427
301.743
301.668
301.714
301.788
302.166
301.788
302.176
301.736
301.981
301.724
)
;
    }
    ceiling
    {
        type            wallHeatTransfer;
        Tinf            uniform 303.2;
        alphaWall       uniform 0.24;
        value           nonuniform List<scalar> 
43
(
298.6
298.554
298.543
299.857
300.789
301.451
301.857
302.094
302.246
302.354
302.431
302.485
302.523
302.551
302.573
302.591
302.606
302.619
302.628
302.634
302.634
302.631
302.623
302.612
302.598
302.583
302.568
302.552
302.537
302.521
302.505
302.49
302.477
302.465
302.456
302.454
302.465
302.492
302.587
302.715
303.419
303.095
296.514
)
;
    }
    sWall
    {
        type            wallHeatTransfer;
        Tinf            uniform 315.2;
        alphaWall       uniform 0.36;
        value           uniform 299.701;
    }
    nWall
    {
        type            wallHeatTransfer;
        Tinf            uniform 307.2;
        alphaWall       uniform 0.36;
        value           nonuniform List<scalar> 6(302.936 302.853 302.706 303.159 303.119 303.277);
    }
    sideWalls
    {
        type            empty;
    }
    glass1
    {
        type            wallHeatTransfer;
        Tinf            uniform 315.2;
        alphaWall       uniform 4.3;
        value           nonuniform List<scalar> 9(310.588 309.905 309.479 309.16 308.897 308.655 308.473 308.558 308.823);
    }
    glass2
    {
        type            wallHeatTransfer;
        Tinf            uniform 307.2;
        alphaWall       uniform 4.3;
        value           nonuniform List<scalar> 2(305.187 305.372);
    }
    sun
    {
        type            wallHeatTransfer;
        Tinf            uniform 305.2;
        alphaWall       uniform 0.24;
        value           nonuniform List<scalar> 
14
(
301.964
301.673
301.656
301.643
301.631
301.619
301.608
301.595
301.584
301.575
301.576
301.589
301.628
301.676
)
;
    }
    Table_master
    {
        type            zeroGradient;
    }
    Table_slave
    {
        type            zeroGradient;
    }
    inlet
    {
        type            fixedValue;
        value           uniform 293.15;
    }
    outlet
    {
        type            zeroGradient;
    }
}


// ************************************************************************* //
