/*--------------------------------*- C++ -*----------------------------------*\
  =========                 |
  \\      /  F ield         | OpenFOAM: The Open Source CFD Toolbox
   \\    /   O peration     | Website:  https://openfoam.org
    \\  /    A nd           | Version:  6
     \\/     M anipulation  |
\*---------------------------------------------------------------------------*/
FoamFile
{
    version     2.0;
    format      ascii;
    class       volScalarField;
    location    "2100";
    object      nut;
}
// * * * * * * * * * * * * * * * * * * * * * * * * * * * * * * * * * * * * * //

dimensions      [0 2 -1 0 0 0 0];

internalField   nonuniform List<scalar> 
458
(
0.00152821
0.00189899
0.00181554
0.00161825
0.00145341
0.00126851
0.000750032
0.000545781
0.000514866
0.000495642
0.000494672
0.000503664
0.000517761
0.000534904
0.000552478
0.000244735
0.000214686
0.000204931
0.000200524
0.000196711
0.000184288
0.000186736
0.000195768
0.000207742
0.000220742
0.000232011
0.000232818
0.000230446
0.00022501
0.00021979
0.000209802
0.000202482
0.000192415
0.00211428
0.00278775
0.00302316
0.00305793
0.00283632
0.00243357
0.00197039
0.00152805
0.00171645
0.00197169
0.00193892
0.00183643
0.00170026
0.00146645
0.00106632
0.000628571
0.000606229
0.00043374
0.000316086
0.000780465
0.00076862
0.00064576
0.000479068
0.000335783
0.000399607
0.000514708
0.000633041
0.000732386
0.000790828
0.000781331
0.000714871
0.000649643
0.000692586
0.000599603
0.000505437
0.000261245
0.00283718
0.00353458
0.0035414
0.00342245
0.00323469
0.00292081
0.00250764
0.00212465
0.00241966
0.00286288
0.0030195
0.00293621
0.00281709
0.0026271
0.0023093
0.00186366
0.001284
0.000664371
0.000482945
0.00131941
0.00112035
0.000827287
0.000549159
0.000236575
0.000245541
0.000263002
0.000279861
0.000296555
0.000314285
0.000335931
0.000365687
0.000414569
0.000988793
0.000997363
0.00109724
0.000443892
0.00310018
0.00439052
0.00418746
0.00377964
0.00345027
0.00312311
0.00276488
0.00252349
0.00294382
0.00345406
0.00381665
0.00378603
0.0037018
0.00356885
0.00331756
0.00288093
0.00220539
0.00135144
0.000704235
0.00177655
0.00202772
0.00165481
0.00122855
0.000831494
0.000529184
0.000517066
0.000506932
0.000498204
0.0004924
0.000491805
0.000499565
0.000520058
0.000560226
0.00133377
0.00134895
0.00131626
0.000672319
0.00329749
0.00502504
0.00473461
0.00395234
0.0034931
0.00314174
0.00285971
0.00283698
0.00332435
0.00385529
0.00433534
0.00442783
0.00443847
0.00445946
0.00446704
0.00443453
0.00434381
0.00418915
0.00400172
0.00397841
0.00379543
0.00359914
0.00342084
0.00325731
0.00310344
0.00299695
0.00287895
0.00273861
0.00257219
0.00238352
0.00218824
0.00201322
0.00188325
0.00180345
0.00169287
0.00161619
0.00155362
0.000844298
0.000813535
0.000686252
0.00349048
0.00499938
0.00472669
0.00392667
0.00337821
0.00306716
0.00292486
0.00308988
0.00358746
0.00412649
0.00462412
0.00475207
0.0048137
0.00489178
0.00498909
0.00507881
0.00513441
0.00512821
0.00503839
0.00489058
0.00472308
0.00458196
0.00447309
0.004386
0.00430397
0.00421676
0.00411768
0.00399872
0.00384874
0.00365423
0.00340398
0.00310113
0.00277532
0.00247187
0.00222166
0.00203941
0.00189885
0.00173197
0.00154958
0.000709009
0.0037231
0.00447957
0.00365075
0.00370356
0.00323769
0.00302167
0.00300617
0.0032827
0.00375962
0.00431697
0.00477751
0.00490551
0.00498026
0.00507664
0.0052088
0.00534165
0.00544112
0.0054757
0.00542565
0.00530767
0.00516627
0.00503965
0.00494073
0.0048666
0.00480661
0.00475234
0.0047006
0.00464734
0.00458568
0.00450354
0.00437956
0.00418047
0.00387136
0.00345327
0.00298387
0.00255875
0.00223439
0.00201422
0.00178209
0.0011291
0.00404464
0.00437019
0.00354826
0.00309453
0.00315458
0.00308109
0.00312706
0.00343233
0.00388559
0.00443962
0.00484198
0.00500824
0.00509913
0.00521967
0.00536691
0.00550396
0.00560254
0.00563977
0.00560374
0.00550728
0.00538326
0.00526293
0.00516282
0.0050867
0.00503067
0.00498977
0.00496121
0.00494276
0.00493252
0.00492847
0.00492674
0.00491723
0.0048732
0.004749
0.00447963
0.00394056
0.00324329
0.00281627
0.00269147
0.00137456
0.0045814
0.00546893
0.00808342
0.00310003
0.00294949
0.00339192
0.00338967
0.003655
0.00404086
0.00446557
0.00486435
0.00515151
0.00532921
0.00549589
0.00563598
0.0057367
0.00579187
0.00579751
0.00575348
0.00566998
0.00556693
0.00546457
0.00537602
0.00530654
0.0052557
0.00522083
0.00519918
0.00518828
0.00518619
0.00519181
0.00520485
0.00522526
0.0052504
0.00526064
0.0052548
0.00519695
0.00504389
0.00479354
0.0045537
0.00148461
0.0140404
0.00803356
0.00291966
0.00384081
0.00399028
0.00415484
0.00432671
0.00473173
0.00522295
0.00562173
0.00588596
0.00606636
0.00617139
0.00621045
0.00619845
0.00615185
0.00608506
0.00600996
0.00593686
0.00587368
0.00582471
0.00579077
0.00577033
0.00576095
0.00576032
0.00576646
0.00577753
0.00579168
0.00580685
0.00582033
0.00582777
0.00582119
0.00580149
0.00576051
0.00566549
0.00542181
0.00463735
0.00158945
0.00548566
0.00534389
0.00550777
0.00411424
0.00383141
0.00386766
0.00411918
0.00459712
0.00519975
0.00581827
0.00630004
0.00660782
0.00675175
0.00677185
0.00671684
0.00662949
0.00654051
0.00646818
0.00642022
0.00639652
0.00639225
0.00640109
0.00641761
0.00643821
0.00646088
0.00648414
0.00650616
0.00652416
0.00653409
0.00653043
0.00650583
0.00645059
0.00635539
0.0062072
0.00598057
0.00561564
0.00505494
0.00182877
0.00141288
0.00166084
0.00366191
0.00271284
0.00200168
0.00169642
0.00152879
0.00143663
0.00138448
0.00136119
0.00135976
0.00137744
0.00141722
0.00146458
0.00150734
0.00153872
0.00155706
0.00156407
0.00156299
0.00155736
0.00155021
0.00154366
0.00153881
0.0015359
0.00153462
0.00153447
0.00153499
0.00153582
0.00153664
0.00153711
0.0015368
0.00153516
0.00153146
0.00152478
0.00151407
0.00149789
0.00147366
0.00143787
0.00141449
0.00132693
)
;

boundaryField
{
    floor
    {
        type            nutkWallFunction;
        Cmu             0.09;
        kappa           0.41;
        E               9.8;
        value           nonuniform List<scalar> 
36
(
6.63537e-05
2.57033e-05
2.14514e-05
2.00589e-05
1.94268e-05
1.88725e-05
1.70697e-05
1.74257e-05
1.87357e-05
2.04599e-05
2.23164e-05
2.39143e-05
2.40293e-05
2.36947e-05
2.29251e-05
2.21834e-05
2.07576e-05
1.97057e-05
1.82507e-05
1.82506e-05
2.79932e-05
5.2449e-05
8.1304e-05
0.00010224
9.85352e-05
8.30263e-05
6.63537e-05
7.58922e-05
7.31075e-05
5.11293e-05
2.57032e-05
5.11293e-05
3.55352e-05
8.03339e-05
5.74952e-05
8.52438e-05
)
;
    }
    ceiling
    {
        type            nutkWallFunction;
        Cmu             0.09;
        kappa           0.41;
        E               9.8;
        value           nonuniform List<scalar> 
43
(
0.000168481
0.000196342
0.000408784
0.000310067
0.000233752
0.000200187
0.000181467
0.000171082
0.000165172
0.000162527
0.000162365
0.000164376
0.000168888
0.000174242
0.000179061
0.000182586
0.000184642
0.000185426
0.000185304
0.000184671
0.000183868
0.000183133
0.000182589
0.000182263
0.000182119
0.000182104
0.000182163
0.000182256
0.000182348
0.000182401
0.000182367
0.000182183
0.000181767
0.000181016
0.000179812
0.000177991
0.00017526
0.000171218
0.00016857
0.000158617
0.000501984
0.00059012
0.000591712
)
;
    }
    sWall
    {
        type            nutkWallFunction;
        Cmu             0.09;
        kappa           0.41;
        E               9.8;
        value           uniform 0.000168514;
    }
    nWall
    {
        type            nutkWallFunction;
        Cmu             0.09;
        kappa           0.41;
        E               9.8;
        value           nonuniform List<scalar> 6(8.30246e-05 8.58228e-05 0.000135876 0.000188273 0.00021483 0.000158627);
    }
    sideWalls
    {
        type            empty;
    }
    glass1
    {
        type            nutkWallFunction;
        Cmu             0.09;
        kappa           0.41;
        E               9.8;
        value           nonuniform List<scalar> 9(0.000181617 0.000246416 0.000323592 0.000351144 0.000371656 0.000391599 0.000415489 0.000448264 0.00050241);
    }
    glass2
    {
        type            nutkWallFunction;
        Cmu             0.09;
        kappa           0.41;
        E               9.8;
        value           nonuniform List<scalar> 2(0.000164066 0.00017652);
    }
    sun
    {
        type            nutkWallFunction;
        Cmu             0.09;
        kappa           0.41;
        E               9.8;
        value           nonuniform List<scalar> 
14
(
0.000181474
0.000222657
0.000213461
0.000191576
0.000173063
0.000152023
9.10034e-05
6.55202e-05
6.15801e-05
5.91231e-05
5.89993e-05
6.01504e-05
6.19495e-05
6.41287e-05
)
;
    }
    Table_master
    {
        type            nutkWallFunction;
        Cmu             0.09;
        kappa           0.41;
        E               9.8;
        value           nonuniform List<scalar> 9(2.45492e-05 2.58097e-05 2.82459e-05 3.0578e-05 3.28688e-05 3.5283e-05 3.82059e-05 4.21835e-05 4.86303e-05);
    }
    Table_slave
    {
        type            nutkWallFunction;
        Cmu             0.09;
        kappa           0.41;
        E               9.8;
        value           nonuniform List<scalar> 9(6.33966e-05 6.1855e-05 6.05626e-05 5.94474e-05 5.87049e-05 5.86296e-05 5.96245e-05 6.2241e-05 6.73314e-05);
    }
    inlet
    {
        type            calculated;
        value           uniform 3.3541e-05;
    }
    outlet
    {
        type            calculated;
        value           nonuniform List<scalar> 2(0.00141288 0.00166084);
    }
}


// ************************************************************************* //
