/*--------------------------------*- C++ -*----------------------------------*\
  =========                 |
  \\      /  F ield         | OpenFOAM: The Open Source CFD Toolbox
   \\    /   O peration     | Website:  https://openfoam.org
    \\  /    A nd           | Version:  6
     \\/     M anipulation  |
\*---------------------------------------------------------------------------*/
FoamFile
{
    version     2.0;
    format      ascii;
    class       volScalarField;
    location    "1800";
    object      alphat;
}
// * * * * * * * * * * * * * * * * * * * * * * * * * * * * * * * * * * * * * //

dimensions      [1 -1 -1 0 0 0 0];

internalField   nonuniform List<scalar> 
458
(
0.00133234
0.00145674
0.00150509
0.00157772
0.00164421
0.00170854
0.001776
0.00184092
0.00189638
0.00193289
0.0019392
0.00187629
0.00169137
0.00147184
0.00127171
0.000595081
0.000699164
0.000802284
0.000843759
0.000838878
0.000796575
0.000747249
0.000701842
0.000661535
0.00062576
0.000593961
0.000565667
0.000539988
0.00051598
0.000492519
0.000467891
0.000446278
0.000404997
0.00173268
0.00373229
0.00337159
0.00376907
0.00418206
0.00459209
0.00490168
0.00520117
0.00551359
0.00579454
0.00604011
0.00629409
0.00626202
0.00515525
0.00327394
0.0014406
0.00126358
0.00106821
0.000579942
0.00144515
0.00218706
0.00274045
0.00288703
0.00209863
0.00178863
0.00158468
0.00143562
0.00132139
0.00122947
0.00114415
0.00105989
0.000970856
0.00088934
0.000821954
0.000941031
0.000496223
0.00205837
0.00491976
0.00400575
0.00448559
0.00463194
0.00472744
0.00482118
0.00497606
0.00519237
0.00545624
0.00581725
0.00635528
0.00693125
0.00667394
0.00539525
0.00378973
0.00280152
0.00113819
0.000829002
0.00161352
0.0024692
0.00325057
0.00339647
0.00102841
0.000910581
0.000810832
0.00072922
0.000662932
0.000608979
0.000565406
0.000530649
0.000504835
0.000570047
0.000674904
0.00107718
0.000563714
0.00236077
0.00604738
0.00393556
0.00454042
0.00442271
0.00428466
0.00426279
0.00437258
0.00456042
0.00482082
0.0052249
0.0058441
0.00653685
0.00668608
0.00612734
0.00501495
0.00382941
0.00210406
0.00118535
0.00173104
0.00257322
0.00354653
0.0043123
0.00428181
0.00113075
0.00104422
0.000987132
0.000945874
0.000910493
0.000873675
0.000837902
0.00079892
0.000751869
0.000704871
0.000705798
0.00119716
0.000633642
0.00266027
0.00758798
0.0038847
0.00441352
0.00419259
0.00393562
0.00388242
0.00402313
0.00422883
0.0044891
0.00488462
0.00547846
0.00607438
0.00626517
0.00605805
0.00549923
0.00466417
0.00359657
0.00360996
0.00416369
0.00488071
0.0055306
0.00589543
0.00584592
0.00499831
0.00460084
0.00441665
0.00429441
0.00415447
0.00394386
0.00354075
0.00300482
0.00238651
0.00178727
0.00134229
0.0012555
0.00100423
0.000774401
0.000829536
0.00082676
0.00297836
0.00946728
0.00477532
0.00420267
0.00410999
0.00378643
0.00368381
0.00388839
0.00412775
0.00438241
0.00474112
0.00527146
0.00571636
0.0057877
0.00573804
0.00567191
0.00545158
0.00521121
0.00566379
0.00639632
0.00691202
0.00710497
0.00699478
0.00666516
0.00622441
0.00592618
0.0057326
0.00556602
0.00538396
0.00516146
0.00482608
0.00432275
0.00366272
0.00290877
0.00223206
0.00169388
0.00132655
0.00141556
0.00206208
0.0010604
0.00331992
0.0109708
0.00707777
0.00447241
0.00381091
0.00373445
0.00370476
0.00394584
0.0041871
0.00441064
0.00470134
0.00513627
0.0054729
0.00544608
0.00566197
0.00619457
0.0064737
0.00679366
0.00742977
0.007871
0.0079226
0.00764095
0.00714099
0.00655521
0.00603561
0.0057147
0.00552504
0.00538043
0.00523872
0.00509161
0.00493561
0.00468771
0.00424157
0.00362755
0.00299614
0.00242609
0.0019985
0.00191194
0.00239117
0.00132603
0.00342128
0.010367
0.0085484
0.00658709
0.00501558
0.00433981
0.00423989
0.00425226
0.00436592
0.00449539
0.00469629
0.00506045
0.00532421
0.00530008
0.00602398
0.00688489
0.0073183
0.00769588
0.00804209
0.0080272
0.00763539
0.00698187
0.00623266
0.00556249
0.00510478
0.0048626
0.00473564
0.00465169
0.00458814
0.00454772
0.00454183
0.00456348
0.00448025
0.00411396
0.00377059
0.00357306
0.00363819
0.00381179
0.00467632
0.0017749
0.00338367
0.00415064
0.00496299
0.005213
0.00499422
0.00474429
0.00460472
0.00452732
0.00454415
0.00454616
0.00464431
0.00496772
0.00519872
0.00548412
0.00644334
0.00707255
0.00731582
0.00741992
0.00731918
0.00689557
0.00620741
0.00542184
0.00473464
0.00426409
0.00400151
0.0038661
0.00378391
0.00371677
0.00364941
0.00357418
0.00348378
0.00336976
0.00324528
0.00313082
0.00304872
0.00299956
0.00292452
0.00277494
0.00259935
0.00170054
0.0013986
0.00250806
0.00327673
0.00371637
0.00405711
0.0044399
0.00454134
0.00439101
0.00439667
0.00471657
0.00523616
0.00564831
0.00625498
0.00635901
0.0062572
0.00601554
0.00558796
0.00499578
0.00433562
0.00377681
0.00340216
0.00319051
0.00308016
0.00301947
0.00297826
0.00294261
0.00290779
0.00287457
0.0028481
0.0028399
0.00284495
0.00284508
0.00283002
0.00276964
0.00261413
0.00233783
0.00198688
0.00134575
0.00258966
0.00448823
0.00473413
0.00515787
0.00572241
0.00520692
0.00429903
0.00358129
0.00352161
0.00389017
0.00432874
0.00467805
0.00468549
0.00452764
0.00428528
0.00394838
0.00352894
0.00309659
0.00272566
0.00246827
0.00232007
0.00225052
0.00223283
0.0022503
0.0022936
0.00235677
0.00243428
0.00251902
0.00260016
0.00269401
0.00279288
0.00288834
0.00296303
0.0029846
0.00292867
0.00282832
0.00241614
0.00135844
0.00333088
0.00332855
0.00335064
0.00390108
0.00353189
0.00322126
0.00269295
0.00204983
0.00133783
0.00108907
0.000990181
0.000942636
0.000907053
0.000868987
0.000840298
0.000817245
0.000795593
0.00077456
0.000757225
0.000748514
0.000751476
0.000763276
0.000781753
0.000805334
0.000833041
0.000864391
0.000899246
0.000937775
0.00098052
0.00102861
0.00108421
0.00114549
0.00121262
0.00128568
0.00136463
0.00145031
0.00151772
0.00148905
0.00136779
0.00125526
)
;

boundaryField
{
    floor
    {
        type            compressible::alphatWallFunction;
        Prt             0.85;
        value           nonuniform List<scalar> 
36
(
0.000179948
8.3598e-05
9.90358e-05
0.000114059
0.000120037
0.000119336
0.000113237
0.000106075
9.94325e-05
9.34923e-05
8.81831e-05
8.34328e-05
7.91798e-05
7.52971e-05
7.16463e-05
6.80581e-05
6.42683e-05
6.09216e-05
5.44717e-05
5.4471e-05
6.86265e-05
7.88865e-05
8.93582e-05
0.00011003
0.000118
0.000117604
0.000179946
0.000202923
0.000178839
0.000151806
8.3597e-05
0.000151804
8.13251e-05
0.00016155
0.000117909
0.000168081
)
;
    }
    ceiling
    {
        type            compressible::alphatWallFunction;
        Prt             0.85;
        value           nonuniform List<scalar> 
43
(
0.000445375
0.000445086
0.000447813
0.000515225
0.000470177
0.000431894
0.000365866
0.000283581
0.000189128
0.000154876
0.000141011
0.000134287
0.000129229
0.000123792
0.000119677
0.000116357
0.00011323
0.000110182
0.000107662
0.000106393
0.000106825
0.000108542
0.000111225
0.000114638
0.000118634
0.000123135
0.000128117
0.000133598
0.000139647
0.000146417
0.000154198
0.000162721
0.000171997
0.000182028
0.000192793
0.000204398
0.000213475
0.000209621
0.000193225
0.000177864
0.000452179
0.000545671
0.000352666
)
;
    }
    sWall
    {
        type            compressible::alphatWallFunction;
        Prt             0.85;
        value           uniform 0.000444093;
    }
    nWall
    {
        type            compressible::alphatWallFunction;
        Prt             0.85;
        value           nonuniform List<scalar> 6(0.000117385 0.000150511 0.000187165 0.000189882 0.000191607 0.000177517);
    }
    sideWalls
    {
        type            empty;
    }
    glass1
    {
        type            compressible::alphatWallFunction;
        Prt             0.85;
        value           nonuniform List<scalar> 9(0.000183247 0.000236184 0.000278369 0.000316975 0.000354757 0.000394437 0.000436582 0.000449142 0.000444783);
    }
    glass2
    {
        type            compressible::alphatWallFunction;
        Prt             0.85;
        value           nonuniform List<scalar> 2(0.000245636 0.000235926);
    }
    sun
    {
        type            compressible::alphatWallFunction;
        Prt             0.85;
        value           nonuniform List<scalar> 
14
(
0.000188236
0.000205085
0.000211595
0.000221331
0.000230202
0.000238745
0.000247668
0.000256218
0.000263498
0.000268277
0.000269105
0.000260873
0.000236481
0.000207133
)
;
    }
    Table_master
    {
        type            compressible::alphatWallFunction;
        Prt             0.85;
        value           nonuniform List<scalar> 9(0.000146413 0.000129756 0.000115456 0.000103599 9.38511e-05 8.58292e-05 7.92867e-05 7.40231e-05 7.00859e-05);
    }
    Table_slave
    {
        type            compressible::alphatWallFunction;
        Prt             0.85;
        value           nonuniform List<scalar> 9(0.000160705 0.000148635 0.000140609 0.000134774 0.000129746 0.000124491 0.000119359 0.000113737 0.000106907);
    }
    inlet
    {
        type            fixedValue;
        value           uniform 1.94e-05;
    }
    outlet
    {
        type            zeroGradient;
    }
}


// ************************************************************************* //
