/*--------------------------------*- C++ -*----------------------------------*\
  =========                 |
  \\      /  F ield         | OpenFOAM: The Open Source CFD Toolbox
   \\    /   O peration     | Website:  https://openfoam.org
    \\  /    A nd           | Version:  6
     \\/     M anipulation  |
\*---------------------------------------------------------------------------*/
FoamFile
{
    version     2.0;
    format      ascii;
    class       volScalarField;
    location    "1800";
    object      k;
}
// * * * * * * * * * * * * * * * * * * * * * * * * * * * * * * * * * * * * * //

dimensions      [0 2 -2 0 0 0 0];

internalField   nonuniform List<scalar> 
458
(
0.00258893
0.00308917
0.00329739
0.00362323
0.00393503
0.00424891
0.00459104
0.00493282
0.00523471
0.00543867
0.00547535
0.00512847
0.00416882
0.00315724
0.00235731
0.0005174
0.000714082
0.000940221
0.00104009
0.0010282
0.000927178
0.000815952
0.000719838
0.000639563
0.000572288
0.000515628
0.000467695
0.000426218
0.000389181
0.000354613
0.000320055
0.00029119
0.000239859
0.00438368
0.0077361
0.00454511
0.00476009
0.00508758
0.00554365
0.00611707
0.00681123
0.00752077
0.00803209
0.00820353
0.00810237
0.00716866
0.00555733
0.00379298
0.00302595
0.00232815
0.00166412
0.000491454
0.00104133
0.00144504
0.00166029
0.00170044
0.00148612
0.00124054
0.00104013
0.000883839
0.000760525
0.000661717
0.000579572
0.000509118
0.000447871
0.000404772
0.0003808
0.000579321
0.000360066
0.00619446
0.013069
0.00505151
0.00490704
0.00502473
0.00532949
0.00581592
0.00645745
0.00711285
0.00759103
0.00786181
0.00805233
0.00774545
0.0064842
0.00496834
0.00381551
0.00299567
0.00188955
0.00100377
0.00142693
0.00171973
0.00190943
0.00192811
0.0015457
0.00121182
0.000960881
0.0007772
0.000642335
0.000542047
0.000467264
0.00041159
0.000372526
0.000351472
0.000358417
0.000813253
0.000464683
0.00815922
0.0202035
0.00558819
0.00476749
0.00469456
0.00489092
0.00535122
0.00604712
0.00672875
0.00720808
0.00754297
0.00782446
0.00758076
0.0063534
0.00507245
0.00399331
0.00317405
0.00237317
0.00204995
0.002198
0.00228498
0.00239729
0.00243363
0.0023267
0.0018701
0.00159517
0.00142576
0.00130924
0.00121325
0.0011172
0.00102765
0.000934307
0.000827524
0.000627718
0.000500835
0.0010497
0.000587177
0.0103753
0.03014
0.00702697
0.00461953
0.00434515
0.00452332
0.00510483
0.00607031
0.00687195
0.00736111
0.00768136
0.00791026
0.00744953
0.00601482
0.00472117
0.00386912
0.00325901
0.00287947
0.00315268
0.00315942
0.00316516
0.00314479
0.00300886
0.00275312
0.00246356
0.00229906
0.00222732
0.00217258
0.00209184
0.00196329
0.00177157
0.00154196
0.00129028
0.00100399
0.000760814
0.000905653
0.000933116
0.000877222
0.0010067
0.00100037
0.0130222
0.0417072
0.0114057
0.00503388
0.00417573
0.00421125
0.00505943
0.00654974
0.00746964
0.00792894
0.00815356
0.00823353
0.0074641
0.00566752
0.00416271
0.0034686
0.00324817
0.00331316
0.00363475
0.00386351
0.00390016
0.00372262
0.00338541
0.00299101
0.00269939
0.00260462
0.00260412
0.00260062
0.00255196
0.00243558
0.00222366
0.00195049
0.00164934
0.00133785
0.00107387
0.000964108
0.000941563
0.00123052
0.00292549
0.00164586
0.016199
0.0496353
0.021404
0.00936519
0.00576058
0.00478314
0.00601494
0.00767976
0.00851748
0.00881847
0.00882973
0.00867972
0.00760547
0.00537076
0.00365202
0.00311335
0.00326616
0.0036585
0.0040977
0.0042819
0.00414998
0.00378639
0.00332999
0.00292182
0.0026968
0.00267942
0.00274837
0.00281851
0.00285849
0.00284857
0.00275814
0.00253724
0.00225817
0.00195952
0.00171705
0.00158581
0.00159271
0.0019511
0.0043464
0.00257408
0.0172323
0.052859
0.0351829
0.0227882
0.0142133
0.0101445
0.00964477
0.00993213
0.0101214
0.00996417
0.00959824
0.00917495
0.00771933
0.00494429
0.00333206
0.00308241
0.00335449
0.00376622
0.0040729
0.00404786
0.00373706
0.00329689
0.00289235
0.00263021
0.00254749
0.00260462
0.00272884
0.00287891
0.0030436
0.00322254
0.00341511
0.00358385
0.00364118
0.00367006
0.0038517
0.00447427
0.00584738
0.00757931
0.0154065
0.00461707
0.0168959
0.0253611
0.026068
0.0234162
0.0194242
0.0162397
0.0141424
0.0128787
0.0120657
0.0111133
0.0101878
0.00948052
0.00744703
0.00425326
0.00316963
0.00306498
0.00323293
0.00340683
0.00342406
0.00322895
0.00289515
0.00255752
0.00232345
0.00222841
0.00225183
0.00235237
0.00249704
0.00267177
0.00287501
0.00311003
0.00337977
0.0036826
0.00402993
0.00447007
0.00506508
0.00579169
0.00649618
0.00697349
0.00726661
0.00424321
0.00890549
0.0127851
0.0143779
0.0145043
0.0144163
0.0144115
0.0133218
0.0114558
0.00993277
0.00905909
0.00601423
0.00364453
0.00298564
0.00282307
0.00278747
0.00273114
0.00258706
0.00236779
0.00212703
0.00194544
0.00185741
0.00185239
0.00190501
0.00199452
0.00210912
0.00224491
0.00240389
0.00259334
0.00282659
0.00312699
0.00350633
0.0039564
0.00445912
0.00492305
0.00515995
0.00497721
0.0043876
0.00265789
0.00955765
0.0317994
0.0260614
0.0237109
0.0227737
0.017824
0.0125738
0.00873252
0.0058583
0.00404864
0.00301891
0.00265268
0.00248956
0.0023891
0.00228541
0.00214346
0.00196244
0.00177596
0.00162141
0.00152619
0.00149142
0.00150541
0.00155803
0.00164423
0.0017632
0.00191693
0.00210902
0.00234388
0.0026256
0.00297245
0.00339083
0.00388315
0.00442545
0.0049333
0.00528307
0.00549526
0.00409838
0.00270803
0.0159054
0.0158814
0.0160924
0.0219082
0.0179953
0.014987
0.0104854
0.00609575
0.00261859
0.00173864
0.00143794
0.00130336
0.00120691
0.00110779
0.00103589
0.000979848
0.000928626
0.000880176
0.000841214
0.000821958
0.000828459
0.00085466
0.000896519
0.000951398
0.00101797
0.001096
0.00118615
0.00128994
0.00141019
0.00155188
0.00172416
0.00192455
0.00215669
0.00242443
0.00273132
0.00308514
0.00337886
0.0032526
0.00274453
0.00231217
)
;

boundaryField
{
    floor
    {
        type            kqRWallFunction;
        value           nonuniform List<scalar> 
36
(
0.00235731
0.0005174
0.000714082
0.000940221
0.00104009
0.0010282
0.000927178
0.000815952
0.000719838
0.000639563
0.000572288
0.000515628
0.000467695
0.000426218
0.000389181
0.000354613
0.000320055
0.00029119
0.000239859
0.000239859
0.000360066
0.000464683
0.000587177
0.000877222
0.0010067
0.00100037
0.00235731
0.00302595
0.00232815
0.00166412
0.0005174
0.00166412
0.000491454
0.00188955
0.00100377
0.00204995
)
;
    }
    ceiling
    {
        type            kqRWallFunction;
        value           nonuniform List<scalar> 
43
(
0.0159054
0.0158814
0.0160924
0.0219082
0.0179953
0.014987
0.0104854
0.00609575
0.00261859
0.00173864
0.00143794
0.00130336
0.00120691
0.00110779
0.00103589
0.000979848
0.000928626
0.000880176
0.000841214
0.000821958
0.000828459
0.00085466
0.000896519
0.000951398
0.00101797
0.001096
0.00118615
0.00128994
0.00141019
0.00155188
0.00172416
0.00192455
0.00215669
0.00242443
0.00273132
0.00308514
0.00337886
0.0032526
0.00274453
0.00231217
0.0168959
0.0253611
0.00955765
)
;
    }
    sWall
    {
        type            kqRWallFunction;
        value           uniform 0.0159054;
    }
    nWall
    {
        type            kqRWallFunction;
        value           nonuniform List<scalar> 6(0.00100037 0.00164586 0.00257408 0.00265789 0.00270803 0.00231217);
    }
    sideWalls
    {
        type            empty;
    }
    glass1
    {
        type            kqRWallFunction;
        value           nonuniform List<scalar> 9(0.00258893 0.00438368 0.00619446 0.00815922 0.0103753 0.0130222 0.016199 0.0172323 0.0168959);
    }
    glass2
    {
        type            kqRWallFunction;
        value           nonuniform List<scalar> 2(0.00461707 0.00424321);
    }
    sun
    {
        type            kqRWallFunction;
        value           nonuniform List<scalar> 
14
(
0.00258893
0.00308917
0.00329739
0.00362323
0.00393503
0.00424891
0.00459104
0.00493282
0.00523471
0.00543867
0.00547535
0.00512847
0.00416882
0.00315724
)
;
    }
    Table_master
    {
        type            kqRWallFunction;
        value           nonuniform List<scalar> 9(0.0015457 0.00121182 0.000960881 0.0007772 0.000642335 0.000542047 0.000467264 0.00041159 0.000372526);
    }
    Table_slave
    {
        type            kqRWallFunction;
        value           nonuniform List<scalar> 9(0.0018701 0.00159517 0.00142576 0.00130924 0.00121325 0.0011172 0.00102765 0.000934307 0.000827524);
    }
    inlet
    {
        type            turbulentIntensityKineticEnergyInlet;
        intensity       0.05;
        value           uniform 0.00375;
    }
    outlet
    {
        type            zeroGradient;
    }
}


// ************************************************************************* //
