/*--------------------------------*- C++ -*----------------------------------*\
  =========                 |
  \\      /  F ield         | OpenFOAM: The Open Source CFD Toolbox
   \\    /   O peration     | Website:  https://openfoam.org
    \\  /    A nd           | Version:  6
     \\/     M anipulation  |
\*---------------------------------------------------------------------------*/
FoamFile
{
    version     2.0;
    format      ascii;
    class       volVectorField;
    location    "2900";
    object      U;
}
// * * * * * * * * * * * * * * * * * * * * * * * * * * * * * * * * * * * * * //

dimensions      [0 1 -1 0 0 0 0];

internalField   nonuniform List<vector> 
458
(
(0.0301656 0.0861036 0)
(-0.167976 0.026072 0)
(-0.193218 0.0168863 0)
(-0.222486 0.0104627 0)
(-0.241891 0.00347819 0)
(-0.250345 -0.00378875 0)
(-0.246322 -0.0112812 0)
(-0.230136 -0.0188489 0)
(-0.203102 -0.0254751 0)
(-0.167997 -0.030141 0)
(-0.128551 -0.0322648 0)
(-0.0886592 -0.0315489 0)
(-0.0519992 -0.0276874 0)
(-0.0225964 -0.0200786 0)
(-0.015117 -0.00633705 0)
(-0.00867877 0.00789675 0)
(-0.0259977 -0.0180503 0)
(-0.00120716 -0.0293679 0)
(0.0248833 -0.0242318 0)
(0.0451832 -0.0173462 0)
(0.0597086 -0.00962896 0)
(0.0679425 -0.00546651 0)
(0.0714098 -0.00392981 0)
(0.0726933 -0.00333893 0)
(0.0733212 -0.00296452 0)
(0.0736259 -0.00265258 0)
(0.0735163 -0.00229969 0)
(0.0727533 -0.00170841 0)
(0.0707191 -0.000461053 0)
(0.0660899 0.00202684 0)
(0.0573483 0.00510362 0)
(0.0459347 0.00875216 0)
(-0.000732852 0.0226737 0)
(0.199905 0.176037 0)
(-0.154681 0.0691555 0)
(-0.154644 0.0514108 0)
(-0.184649 0.0377923 0)
(-0.203804 0.0224625 0)
(-0.212455 0.0056114 0)
(-0.208985 -0.0125675 0)
(-0.194055 -0.0304462 0)
(-0.169558 -0.0453595 0)
(-0.138565 -0.055224 0)
(-0.104578 -0.0593022 0)
(-0.070846 -0.0576544 0)
(-0.0400767 -0.0505475 0)
(-0.0140093 -0.0383625 0)
(0.00597032 -0.022212 0)
(0.0248869 -0.000573752 0)
(0.0380761 0.0271864 0)
(-0.0240824 0.0597982 0)
(0.051146 0.0340632 0)
(0.0250731 -0.0236089 0)
(0.0361176 -0.037024 0)
(0.0502805 -0.0341584 0)
(0.0626079 -0.0258999 0)
(0.0692113 -0.0112472 0)
(0.0707242 -0.00239542 0)
(0.0705524 0.000901888 0)
(0.0705901 0.00207152 0)
(0.0708735 0.002698 0)
(0.0710881 0.00316285 0)
(0.0711269 0.00365794 0)
(0.0709651 0.00460098 0)
(0.0700692 0.00695203 0)
(0.0660094 0.0133183 0)
(0.055918 0.0196162 0)
(0.0462131 0.0259383 0)
(-0.0331226 0.0483104 0)
(0.355111 0.26289 0)
(-0.16811 0.109221 0)
(-0.116031 0.0825533 0)
(-0.144576 0.0587915 0)
(-0.161349 0.0335917 0)
(-0.168621 0.00624583 0)
(-0.163615 -0.022867 0)
(-0.148078 -0.0506599 0)
(-0.124826 -0.0727024 0)
(-0.0974467 -0.0860856 0)
(-0.0689807 -0.0904481 0)
(-0.041807 -0.0865341 0)
(-0.0176869 -0.0753445 0)
(0.0029727 -0.0579009 0)
(0.0185003 -0.0376419 0)
(0.0295279 -0.0172316 0)
(0.0339837 0.00697528 0)
(-0.0179212 0.0466137 0)
(0.102214 -0.0273989 0)
(0.0693751 -0.0425854 0)
(0.0667927 -0.0459615 0)
(0.0712896 -0.0424989 0)
(0.0764712 -0.0375236 0)
(0.0790312 -0.027471 0)
(0.0703433 -0.0175662 0)
(0.0635348 -0.0123262 0)
(0.0610091 -0.00944641 0)
(0.0603783 -0.00760208 0)
(0.0601896 -0.00633159 0)
(0.0603354 -0.0052849 0)
(0.0613756 -0.00395377 0)
(0.0645802 -2.4521e-05 0)
(0.0638665 0.0182462 0)
(0.052597 0.0317545 0)
(0.049713 0.0440376 0)
(-0.0614732 0.0763937 0)
(0.494784 0.332563 0)
(-0.198775 0.14448 0)
(-0.0760344 0.108853 0)
(-0.10187 0.0764297 0)
(-0.113274 0.0432131 0)
(-0.115813 0.0061866 0)
(-0.105107 -0.0340007 0)
(-0.0874173 -0.0707239 0)
(-0.0657049 -0.0980061 0)
(-0.0435328 -0.112917 0)
(-0.0224989 -0.116356 0)
(-0.00365861 -0.109779 0)
(0.0124302 -0.0946414 0)
(0.0254949 -0.0739182 0)
(0.0361982 -0.0497049 0)
(0.0454473 -0.0236737 0)
(0.057649 0.004384 0)
(0.0640279 0.0340566 0)
(0.102938 0.0312808 0)
(0.104098 -0.0185996 0)
(0.0892391 -0.0372311 0)
(0.080496 -0.0412072 0)
(0.0747464 -0.0393702 0)
(0.0682814 -0.0336528 0)
(0.067476 -0.019934 0)
(0.0775465 -0.0130573 0)
(0.0859039 -0.00948536 0)
(0.0908665 -0.00739501 0)
(0.0939913 -0.0057271 0)
(0.0956912 -0.00390928 0)
(0.0946484 -0.00145754 0)
(0.0892454 0.00211729 0)
(0.0772305 0.00742568 0)
(0.063263 0.0272049 0)
(0.0519136 0.045286 0)
(0.0587365 0.063402 0)
(-0.0727944 0.105633 0)
(0.614654 0.386382 0)
(-0.236999 0.172994 0)
(-0.0374438 0.123435 0)
(-0.0567074 0.086019 0)
(-0.0592519 0.0472963 0)
(-0.0501883 0.00164494 0)
(-0.0297567 -0.0488283 0)
(-0.0104683 -0.0903706 0)
(0.00721431 -0.118697 0)
(0.0208928 -0.131383 0)
(0.0315273 -0.131822 0)
(0.0392937 -0.122416 0)
(0.0448639 -0.105362 0)
(0.0491883 -0.083028 0)
(0.0531046 -0.0577658 0)
(0.0579011 -0.031814 0)
(0.0668486 -0.0080985 0)
(0.0800313 0.00420786 0)
(0.0913628 -0.0107314 0)
(0.0898885 -0.0271571 0)
(0.0814907 -0.033614 0)
(0.071935 -0.0344308 0)
(0.0635681 -0.0320844 0)
(0.0567081 -0.0261046 0)
(0.0547053 -0.0146222 0)
(0.0578338 -0.00819243 0)
(0.0617077 -0.00574954 0)
(0.065088 -0.00458995 0)
(0.0682667 -0.00308405 0)
(0.0710716 -0.000217342 0)
(0.0728325 0.00454238 0)
(0.0721801 0.0114469 0)
(0.0687016 0.0210682 0)
(0.0637652 0.0367377 0)
(0.0585001 0.0543536 0)
(0.0790708 0.0747188 0)
(0.0338299 0.104933 0)
(0.0928599 0.12015 0)
(0.119626 0.129775 0)
(-0.183712 0.158844 0)
(0.701288 0.430823 0)
(-0.274222 0.191347 0)
(-0.00799945 0.11719 0)
(-0.00797335 0.0831334 0)
(0.00491718 0.0391052 0)
(0.0370995 -0.0170646 0)
(0.0619232 -0.0683505 0)
(0.0785734 -0.105916 0)
(0.0875142 -0.128742 0)
(0.0899773 -0.137704 0)
(0.0878334 -0.13501 0)
(0.0825634 -0.123197 0)
(0.0757187 -0.104847 0)
(0.0688637 -0.0823995 0)
(0.0632523 -0.0580801 0)
(0.0601114 -0.0344866 0)
(0.0610507 -0.0149533 0)
(0.065782 -0.00526169 0)
(0.0686491 -0.00935334 0)
(0.0653116 -0.0174306 0)
(0.0575475 -0.0230924 0)
(0.0485868 -0.0251274 0)
(0.0404841 -0.0242298 0)
(0.03417 -0.0205498 0)
(0.0312542 -0.0145414 0)
(0.0319776 -0.0109168 0)
(0.0344858 -0.00968166 0)
(0.0377816 -0.00912324 0)
(0.0416658 -0.00785764 0)
(0.0459523 -0.00474358 0)
(0.0506444 0.00130676 0)
(0.0544454 0.0103113 0)
(0.0570129 0.0218597 0)
(0.0597974 0.0364549 0)
(0.0628792 0.0525025 0)
(0.0808992 0.0704739 0)
(0.0782879 0.0769429 0)
(0.0913719 0.0354099 0)
(0.120932 5.55588e-05 0)
(-0.203324 0.0842887 0)
(0.759118 0.471255 0)
(-0.290663 0.175163 0)
(0.0255018 0.0584635 0)
(0.0640648 0.0421864 0)
(0.10418 0.00372066 0)
(0.143358 -0.0470424 0)
(0.166044 -0.0879668 0)
(0.17445 -0.115027 0)
(0.170744 -0.128872 0)
(0.157994 -0.131109 0)
(0.139539 -0.123907 0)
(0.118311 -0.109747 0)
(0.0968228 -0.0911239 0)
(0.0771332 -0.0700865 0)
(0.0606292 -0.0482721 0)
(0.048413 -0.0281913 0)
(0.0412208 -0.0128076 0)
(0.0383405 -0.0051385 0)
(0.0362374 -0.00623222 0)
(0.0318122 -0.0110878 0)
(0.0251237 -0.0153868 0)
(0.0176609 -0.0175187 0)
(0.0107514 -0.017625 0)
(0.00536201 -0.0160661 0)
(0.00259389 -0.0135897 0)
(0.00261043 -0.0123464 0)
(0.00435151 -0.0124393 0)
(0.00707545 -0.0128127 0)
(0.0106187 -0.0124108 0)
(0.0150941 -0.0101786 0)
(0.0207749 -0.00478879 0)
(0.0292871 0.00488866 0)
(0.0369958 0.0165376 0)
(0.045525 0.0293582 0)
(0.0550745 0.042327 0)
(0.071881 0.0560566 0)
(0.0849749 0.0592778 0)
(0.098087 0.0411943 0)
(0.149222 0.0494625 0)
(-0.134325 0.142106 0)
(0.866291 0.469016 0)
(-0.0496173 0.150567 0)
(0.12229 -0.0411186 0)
(0.22812 -0.0786777 0)
(0.271511 -0.0894202 0)
(0.288064 -0.100867 0)
(0.288242 -0.110594 0)
(0.273411 -0.115223 0)
(0.246056 -0.113908 0)
(0.210479 -0.106946 0)
(0.171203 -0.0952032 0)
(0.131972 -0.0800609 0)
(0.0956004 -0.0631472 0)
(0.0639654 -0.0456872 0)
(0.0380667 -0.0284274 0)
(0.0193331 -0.0138113 0)
(0.00774431 -0.00423151 0)
(0.00179643 -0.000544985 0)
(-0.00149559 -0.00208101 0)
(-0.00553913 -0.00579189 0)
(-0.0108139 -0.00917453 0)
(-0.0166155 -0.0112937 0)
(-0.022065 -0.0122786 0)
(-0.0263806 -0.0125189 0)
(-0.028946 -0.0125949 0)
(-0.0298476 -0.0132705 0)
(-0.0297518 -0.0144848 0)
(-0.0291282 -0.0157054 0)
(-0.0280551 -0.0163587 0)
(-0.0262915 -0.0158616 0)
(-0.0232784 -0.0135439 0)
(-0.0175908 -0.00858603 0)
(-0.00435535 -0.000195138 0)
(0.00738301 0.00930782 0)
(0.0198539 0.015743 0)
(0.0360004 0.0206223 0)
(0.0508325 0.0154329 0)
(0.0633954 -0.00187177 0)
(0.142297 0.0566521 0)
(-0.424087 0.232113 0)
(1.0173 0.41818 0)
(0.477355 0.273217 0)
(0.503151 0.167894 0)
(0.537461 0.085675 0)
(0.514393 0.0290384 0)
(0.462844 -0.0117201 0)
(0.404105 -0.0382943 0)
(0.34135 -0.0523236 0)
(0.275815 -0.0563686 0)
(0.211166 -0.0532475 0)
(0.151139 -0.0453385 0)
(0.0983419 -0.0347004 0)
(0.0539885 -0.0231309 0)
(0.01765 -0.0118472 0)
(-0.0108226 -0.002181 0)
(-0.0261371 0.00260762 0)
(-0.0340771 0.00423366 0)
(-0.0376061 0.00356403 0)
(-0.0400166 0.00126378 0)
(-0.0427338 -0.00163543 0)
(-0.0465996 -0.00422821 0)
(-0.0510361 -0.00627128 0)
(-0.0554855 -0.00785631 0)
(-0.0594573 -0.00918735 0)
(-0.0627268 -0.0104989 0)
(-0.0655165 -0.0119797 0)
(-0.0683074 -0.0135077 0)
(-0.0715089 -0.0147333 0)
(-0.0754553 -0.0151746 0)
(-0.0805257 -0.0141735 0)
(-0.0872802 -0.0108604 0)
(-0.0964529 -0.00422731 0)
(-0.107952 0.00638098 0)
(-0.119672 0.0202735 0)
(-0.1394 0.0381279 0)
(-0.17017 0.0607236 0)
(-0.214103 0.0867092 0)
(-0.264986 0.113796 0)
(-0.334032 0.138467 0)
(-0.623692 0.158905 0)
(-0.22312 -0.100712 0)
(0.0900805 -0.0881651 0)
(0.158688 -0.0729817 0)
(0.144893 -0.0514077 0)
(0.125135 -0.0315314 0)
(0.0998247 -0.0160911 0)
(0.0673012 -0.00475727 0)
(0.0331942 0.00275536 0)
(0.000369655 0.00766747 0)
(-0.0267393 0.0106849 0)
(-0.0461087 0.0124812 0)
(-0.0587378 0.0131497 0)
(-0.065997 0.0125967 0)
(-0.0697864 0.0112473 0)
(-0.0719003 0.00996263 0)
(-0.0733214 0.00873112 0)
(-0.0749936 0.00750892 0)
(-0.0773284 0.00647666 0)
(-0.0802086 0.00569795 0)
(-0.0836615 0.00499164 0)
(-0.0874464 0.00409669 0)
(-0.0913643 0.00300482 0)
(-0.0954511 0.00174581 0)
(-0.0998982 0.000451606 0)
(-0.104888 -0.000609754 0)
(-0.110484 -0.00104691 0)
(-0.116667 -0.000463943 0)
(-0.123334 0.00151865 0)
(-0.13025 0.00523209 0)
(-0.136645 0.0111657 0)
(-0.141551 0.020454 0)
(-0.145644 0.0342338 0)
(-0.149814 0.052354 0)
(-0.154647 0.0726775 0)
(-0.15741 0.0875764 0)
(-0.147864 0.077122 0)
(-0.132768 0.000324233 0)
(-0.270361 -0.193601 0)
(0.0577858 0.137231 0)
(0.00764134 0.0315649 0)
(-0.0332866 -0.00717709 0)
(-0.0629856 -0.00181838 0)
(-0.08218 0.00632868 0)
(-0.0937647 0.0108972 0)
(-0.100203 0.0130321 0)
(-0.104828 0.0131498 0)
(-0.107604 0.0111576 0)
(-0.108655 0.00748877 0)
(-0.108123 0.00326931 0)
(-0.106354 -0.000783285 0)
(-0.103898 -0.00479299 0)
(-0.101534 -0.00899859 0)
(-0.0997496 -0.013225 0)
(-0.0987325 -0.0176095 0)
(-0.0986472 -0.0223198 0)
(-0.0995173 -0.0272214 0)
(-0.101201 -0.0318956 0)
(-0.103511 -0.0358728 0)
(-0.106361 -0.0388685 0)
(-0.109743 -0.0407797 0)
(-0.113529 -0.0414053 0)
(-0.117608 -0.040841 0)
(-0.121894 -0.0395103 0)
(-0.126186 -0.0373111 0)
(-0.130126 -0.0339437 0)
(-0.133176 -0.0288674 0)
(-0.134645 -0.0212102 0)
(-0.133913 -0.0109007 0)
(-0.129886 0.00208908 0)
(-0.120963 0.0185869 0)
(-0.106054 0.0390721 0)
(-0.0853469 0.062073 0)
(-0.0601017 0.0806153 0)
(-0.0328475 0.0806703 0)
(0.129863 0.00240608 0)
(-0.211167 -0.104679 0)
(0.0676721 -0.259858 0)
(-0.357077 -0.122629 0)
(-0.278297 0.0224698 0)
(-0.264125 -0.0130737 0)
(-0.245336 -0.00746501 0)
(-0.240761 0.00347144 0)
(-0.234397 0.0124491 0)
(-0.224778 0.0199669 0)
(-0.212202 0.0270045 0)
(-0.19774 0.0337293 0)
(-0.182702 0.0401023 0)
(-0.168461 0.0462657 0)
(-0.155837 0.0524013 0)
(-0.145028 0.0584765 0)
(-0.135937 0.0644675 0)
(-0.128379 0.070595 0)
(-0.122059 0.0771051 0)
(-0.116719 0.0840491 0)
(-0.112252 0.091255 0)
(-0.10864 0.0982813 0)
(-0.105879 0.1045 0)
(-0.10394 0.109291 0)
(-0.102782 0.112264 0)
(-0.102392 0.113241 0)
(-0.102767 0.111998 0)
(-0.103856 0.108777 0)
(-0.105528 0.104449 0)
(-0.107595 0.0992389 0)
(-0.109727 0.0933184 0)
(-0.111383 0.0867693 0)
(-0.111642 0.0795822 0)
(-0.108709 0.0732958 0)
(-0.100001 0.0695298 0)
(-0.0827413 0.06938 0)
(-0.0558024 0.0739243 0)
(-0.0215608 0.0834714 0)
(0.0332493 0.0929473 0)
(0.0749635 0.0840411 0)
(0.155166 0.0623486 0)
(-0.226414 0.00846762 0)
)
;

boundaryField
{
    floor
    {
        type            noSlip;
    }
    ceiling
    {
        type            noSlip;
    }
    sWall
    {
        type            noSlip;
    }
    nWall
    {
        type            noSlip;
    }
    sideWalls
    {
        type            empty;
    }
    glass1
    {
        type            noSlip;
    }
    glass2
    {
        type            noSlip;
    }
    sun
    {
        type            noSlip;
    }
    Table_master
    {
        type            noSlip;
    }
    Table_slave
    {
        type            noSlip;
    }
    inlet
    {
        type            fixedValue;
        value           uniform (0.212132 -0.212132 0);
    }
    outlet
    {
        type            zeroGradient;
    }
}


// ************************************************************************* //
