/*--------------------------------*- C++ -*----------------------------------*\
  =========                 |
  \\      /  F ield         | OpenFOAM: The Open Source CFD Toolbox
   \\    /   O peration     | Website:  https://openfoam.org
    \\  /    A nd           | Version:  6
     \\/     M anipulation  |
\*---------------------------------------------------------------------------*/
FoamFile
{
    version     2.0;
    format      ascii;
    class       volScalarField;
    location    "2600";
    object      nut;
}
// * * * * * * * * * * * * * * * * * * * * * * * * * * * * * * * * * * * * * //

dimensions      [0 2 -1 0 0 0 0];

internalField   nonuniform List<scalar> 
458
(
0.000922598
0.000991959
0.000993761
0.00103599
0.00107457
0.00110954
0.0011422
0.0011741
0.00120551
0.00122813
0.00123827
0.00123242
0.00120975
0.00117484
0.00113512
0.000405287
0.000504169
0.000527333
0.000514307
0.000494923
0.000468984
0.000442392
0.000417873
0.000395783
0.000376034
0.000358363
0.000342355
0.00032762
0.000313698
0.000299923
0.00028522
0.000275278
0.00025188
0.00131732
0.00287348
0.0026444
0.00307972
0.00344583
0.00382156
0.00418447
0.00449809
0.0047292
0.00492847
0.0050612
0.00506991
0.00486318
0.00426173
0.00292771
0.00116218
0.000967988
0.000812055
0.00058393
0.000902023
0.00114393
0.00131435
0.00136705
0.00114113
0.00101714
0.000925743
0.000853329
0.000792276
0.000737329
0.000686978
0.000639061
0.000592354
0.000552776
0.000519086
0.000622151
0.00033438
0.001656
0.004001
0.00314687
0.00424681
0.00469262
0.00500547
0.00524093
0.00542281
0.0055689
0.00573147
0.00589585
0.00603241
0.00610893
0.00609261
0.0059205
0.00541224
0.00438096
0.00108387
0.00087666
0.00124334
0.00152835
0.00174835
0.00177205
0.000642265
0.00057322
0.000516884
0.000471244
0.000434107
0.00040366
0.000378511
0.000357753
0.00034104
0.000370854
0.000426917
0.00069769
0.000389045
0.00199007
0.00540106
0.00311964
0.00455943
0.00511014
0.00528245
0.00533364
0.00535583
0.00540571
0.00552273
0.00569103
0.00588301
0.00607806
0.00625775
0.00637844
0.0063014
0.00579489
0.00446823
0.00113968
0.00150564
0.00194405
0.00228121
0.0024911
0.00239131
0.000697022
0.000645561
0.000614635
0.000594465
0.000577979
0.000559729
0.000539573
0.00051776
0.000490996
0.000464284
0.000462167
0.000783426
0.000437732
0.00233186
0.00722856
0.00362274
0.00428226
0.00513658
0.00530121
0.00524391
0.00513906
0.00510932
0.00521476
0.00538952
0.0056005
0.00582891
0.00604469
0.00618579
0.00614877
0.0058658
0.00531005
0.00426953
0.00386942
0.00367661
0.00355673
0.00346908
0.00333619
0.00289505
0.00273916
0.00268137
0.00264193
0.00258322
0.00248193
0.00227829
0.00197681
0.00161001
0.00122248
0.00090902
0.00083791
0.000695767
0.000582749
0.000653353
0.000714461
0.00268994
0.00920782
0.00549739
0.0041632
0.00466714
0.00503158
0.00515299
0.0050335
0.00495029
0.00506836
0.00523919
0.00544753
0.00567682
0.0058832
0.00599384
0.00593552
0.00568767
0.00531284
0.00487302
0.00454704
0.00428376
0.00404462
0.00383847
0.00366569
0.00351388
0.00343796
0.00339224
0.0033408
0.00326756
0.00316539
0.00301603
0.00275995
0.00239501
0.00193722
0.00148835
0.00110474
0.00088388
0.000753008
0.000988284
0.00073281
0.00302352
0.0106878
0.00837765
0.00587253
0.00500337
0.004825
0.00499224
0.00505448
0.00506403
0.00511968
0.0052413
0.00542742
0.00565029
0.00585391
0.00595489
0.00587677
0.0056109
0.00524318
0.00489228
0.00460574
0.00430808
0.00398676
0.00370713
0.00351691
0.00341743
0.00337749
0.00334849
0.00330689
0.00324918
0.0031801
0.00310577
0.0029906
0.00273533
0.0023559
0.00194431
0.00155363
0.00127925
0.00114865
0.00110125
0.000836455
0.00309073
0.00983595
0.00873165
0.00798861
0.00702759
0.0062507
0.00588958
0.00558093
0.00534255
0.00526448
0.00533934
0.00551837
0.00574385
0.00594507
0.00602742
0.00590907
0.0055924
0.00518277
0.0047978
0.00439756
0.00395243
0.00357761
0.00333067
0.00319494
0.00312805
0.00308955
0.00305224
0.00300959
0.00296919
0.00294461
0.00294972
0.00298438
0.00294813
0.00269213
0.00243598
0.00227589
0.00228888
0.00238794
0.00287232
0.00133394
0.00301044
0.0035758
0.00416317
0.00444933
0.00467594
0.00474604
0.0047448
0.00477994
0.00492974
0.0051646
0.00543502
0.00570648
0.00595439
0.00613126
0.00614212
0.00591179
0.00548423
0.00499353
0.00443124
0.00385411
0.00340563
0.0031241
0.00296313
0.00286693
0.00279693
0.00272995
0.00265494
0.00257164
0.00248572
0.00240213
0.00232024
0.0022342
0.00214929
0.00207338
0.002026
0.00201107
0.00198707
0.00191566
0.00181081
0.00128687
0.00217235
0.00492072
0.00513535
0.00532157
0.00554154
0.00580071
0.00598984
0.00610045
0.006165
0.00622735
0.0062991
0.0063183
0.00612824
0.00566938
0.00502005
0.00431121
0.00368536
0.0032591
0.00300567
0.0028491
0.00273565
0.00263649
0.0025382
0.00243538
0.00232745
0.00221806
0.00211505
0.00202927
0.00197147
0.00194792
0.00194794
0.0019564
0.00196796
0.00196517
0.00191483
0.00180028
0.00164609
0.00110886
0.00222306
0.00549464
0.00594894
0.00598778
0.00613675
0.00630143
0.00637954
0.00618582
0.0060028
0.00593047
0.00595263
0.00594468
0.00557138
0.00495587
0.00429962
0.003794
0.00349785
0.00333274
0.00321173
0.00311629
0.0030227
0.00291696
0.00279403
0.00265608
0.00251061
0.00236813
0.00223934
0.00213234
0.00205003
0.00200535
0.00200137
0.00202722
0.00206501
0.00208944
0.00207172
0.00208566
0.00221702
0.00113746
0.00179595
0.00194801
0.0020633
0.00220034
0.00211959
0.0020304
0.00188365
0.0016675
0.00144775
0.00135761
0.0012927
0.00123656
0.00117711
0.00110385
0.00102529
0.000944936
0.000876748
0.00083116
0.000803644
0.000786768
0.000777199
0.000768145
0.000758491
0.000748512
0.000739411
0.000732966
0.000731091
0.000735439
0.000747221
0.000767394
0.000797215
0.000834497
0.000877519
0.000926517
0.000981106
0.00104171
0.00107617
0.00105648
0.000994865
0.000938119
)
;

boundaryField
{
    floor
    {
        type            nutkWallFunction;
        Cmu             0.09;
        kappa           0.41;
        E               9.8;
        value           nonuniform List<scalar> 
36
(
0.000136515
4.74412e-05
6.02367e-05
6.31869e-05
6.153e-05
5.90548e-05
5.57235e-05
5.22844e-05
4.90902e-05
4.61921e-05
4.35837e-05
4.12348e-05
3.90941e-05
3.71122e-05
3.52288e-05
3.33547e-05
3.13416e-05
2.99727e-05
2.67243e-05
2.67242e-05
3.80233e-05
4.53047e-05
5.16797e-05
7.01813e-05
7.8976e-05
8.64962e-05
0.000136515
0.000139649
0.000116954
9.83504e-05
4.74411e-05
9.83504e-05
7.03284e-05
0.000130554
0.000106105
0.000137044
)
;
    }
    ceiling
    {
        type            nutkWallFunction;
        Cmu             0.09;
        kappa           0.41;
        E               9.8;
        value           nonuniform List<scalar> 
43
(
0.000210953
0.000227621
0.000240167
0.000255086
0.00024639
0.000236727
0.000220709
0.000196858
0.000172256
0.000162049
0.000154651
0.000148219
0.000141372
0.000132878
0.000123697
0.000114224
0.000106112
0.000100648
9.7333e-05
9.52932e-05
9.41343e-05
9.30364e-05
9.1864e-05
9.06503e-05
8.95419e-05
8.87561e-05
8.85277e-05
8.90586e-05
9.04948e-05
9.29474e-05
9.65589e-05
0.000101052
0.000106207
0.000112043
0.000118503
0.000125627
0.000129656
0.000127356
0.000120125
0.00011342
0.000341255
0.000399773
0.000257273
)
;
    }
    sWall
    {
        type            nutkWallFunction;
        Cmu             0.09;
        kappa           0.41;
        E               9.8;
        value           uniform 0.00021101;
    }
    nWall
    {
        type            nutkWallFunction;
        Cmu             0.09;
        kappa           0.41;
        E               9.8;
        value           nonuniform List<scalar> 6(8.64946e-05 8.87379e-05 0.000101289 0.000133474 0.000136796 0.000113425);
    }
    sideWalls
    {
        type            empty;
    }
    glass1
    {
        type            nutkWallFunction;
        Cmu             0.09;
        kappa           0.41;
        E               9.8;
        value           nonuniform List<scalar> 9(0.000111627 0.000157643 0.000195863 0.000232722 0.000269745 0.000307919 0.000343003 0.000350031 0.000341659);
    }
    glass2
    {
        type            nutkWallFunction;
        Cmu             0.09;
        kappa           0.41;
        E               9.8;
        value           nonuniform List<scalar> 2(0.000159418 0.000154043);
    }
    sun
    {
        type            nutkWallFunction;
        Cmu             0.09;
        kappa           0.41;
        E               9.8;
        value           nonuniform List<scalar> 
14
(
0.00011158
0.000119784
0.000119996
0.000124957
0.00012947
0.000133545
0.000137337
0.000141029
0.000144653
0.000147257
0.000148421
0.00014775
0.000145141
0.000141113
)
;
    }
    Table_master
    {
        type            nutkWallFunction;
        Cmu             0.09;
        kappa           0.41;
        E               9.8;
        value           nonuniform List<scalar> 9(7.76046e-05 6.89869e-05 6.18618e-05 5.60191e-05 5.1213e-05 4.72341e-05 4.39188e-05 4.11613e-05 3.89261e-05);
    }
    Table_slave
    {
        type            nutkWallFunction;
        Cmu             0.09;
        kappa           0.41;
        E               9.8;
        value           nonuniform List<scalar> 9(8.43592e-05 7.8013e-05 7.41702e-05 7.16512e-05 6.95847e-05 6.72887e-05 6.47422e-05 6.19732e-05 5.85558e-05);
    }
    inlet
    {
        type            calculated;
        value           uniform 0.000100623;
    }
    outlet
    {
        type            calculated;
        value           nonuniform List<scalar> 2(0.00179595 0.00194801);
    }
}


// ************************************************************************* //
