/*--------------------------------*- C++ -*----------------------------------*\
  =========                 |
  \\      /  F ield         | OpenFOAM: The Open Source CFD Toolbox
   \\    /   O peration     | Website:  https://openfoam.org
    \\  /    A nd           | Version:  6
     \\/     M anipulation  |
\*---------------------------------------------------------------------------*/
FoamFile
{
    version     2.0;
    format      ascii;
    class       volScalarField;
    location    "1000";
    object      alphat;
}
// * * * * * * * * * * * * * * * * * * * * * * * * * * * * * * * * * * * * * //

dimensions      [1 -1 -1 0 0 0 0];

internalField   nonuniform List<scalar> 
458
(
0.000821249
0.000841479
0.000790286
0.00082058
0.000850921
0.000878927
0.000904887
0.000929519
0.000953766
0.000978947
0.00100183
0.00102084
0.00103627
0.00105009
0.00106221
0.000662938
0.000836812
0.000904198
0.000914076
0.000868199
0.00077418
0.000691863
0.000617067
0.000547892
0.000484924
0.000429126
0.000381405
0.000342354
0.000311951
0.000289628
0.000289382
0.00049829
0.000429939
0.00139211
0.00216617
0.00158156
0.0020053
0.00214774
0.0022992
0.00245507
0.00260315
0.00272716
0.00280557
0.00283959
0.00279714
0.00263548
0.00229094
0.00172246
0.00115072
0.00111528
0.000866374
0.000772857
0.00260495
0.00329587
0.00328977
0.0026541
0.00203614
0.00166308
0.00136867
0.00113134
0.000948303
0.000814669
0.000722292
0.000663404
0.000631577
0.000623539
0.000576895
0.00109403
0.000604748
0.00190754
0.00364263
0.0016659
0.00290591
0.00321347
0.00340233
0.00357179
0.00372
0.00384085
0.00392488
0.0039709
0.00394703
0.00381565
0.00353253
0.00308188
0.00252666
0.00189607
0.00123626
0.00123426
0.00411366
0.00413178
0.00341947
0.00233158
0.000811534
0.000626396
0.000546111
0.000493073
0.000453338
0.000422665
0.000398937
0.000380812
0.000368481
0.000457186
0.000514033
0.00146467
0.000753697
0.00241166
0.00568365
0.00184894
0.00323104
0.00390973
0.00413342
0.00430113
0.00444278
0.00456005
0.00464927
0.00471556
0.00475312
0.00473308
0.00459852
0.00426587
0.00366876
0.00283622
0.00197274
0.00141285
0.00315394
0.00415264
0.00376324
0.00295352
0.00198243
0.00107404
0.00102039
0.000980359
0.000965573
0.000957939
0.000947411
0.000924953
0.000883194
0.000837602
0.000833858
0.000846338
0.00158227
0.000900269
0.00289356
0.00807188
0.00258923
0.00300477
0.00421669
0.00452497
0.00468907
0.0048123
0.00490971
0.00499003
0.0050622
0.00516982
0.00531101
0.00545603
0.00554825
0.00552634
0.0053579
0.00505192
0.0046703
0.00441598
0.00410044
0.00372404
0.00348463
0.00347775
0.00369833
0.00395764
0.00400362
0.00396814
0.00391202
0.00381467
0.00365934
0.00342772
0.00294492
0.00239046
0.00186419
0.00150146
0.00163951
0.00112054
0.00100129
0.00108287
0.00335775
0.0103724
0.00442414
0.00275792
0.00389351
0.0044866
0.00476205
0.00491525
0.00498753
0.00501015
0.00502121
0.00512251
0.00530316
0.00554146
0.00579621
0.00600031
0.00605797
0.00585214
0.00534863
0.00469059
0.00407803
0.00365371
0.00341794
0.00340549
0.00371391
0.00415808
0.00434392
0.0043714
0.0043251
0.00423578
0.00411852
0.00398063
0.00374087
0.00330881
0.00274805
0.00196558
0.0016662
0.00144219
0.00163437
0.00113295
0.00379879
0.0121574
0.00778754
0.00414035
0.00312506
0.00348763
0.00414479
0.00464112
0.00490808
0.00491566
0.00484805
0.00489943
0.00503017
0.00522935
0.00548345
0.00575527
0.0059538
0.0059352
0.00560975
0.00503982
0.0044141
0.00387716
0.00342425
0.00315723
0.00336468
0.00397928
0.0042535
0.00428712
0.00421708
0.00411968
0.00404332
0.00401592
0.00402184
0.00381237
0.00336744
0.00277801
0.00235198
0.00212274
0.00196114
0.00136787
0.00389525
0.0121275
0.00980352
0.00777602
0.00563409
0.00428317
0.00394744
0.00422594
0.00463133
0.00472251
0.00467354
0.00466142
0.00470867
0.0048102
0.00496082
0.00515721
0.00537174
0.00551581
0.00548216
0.00524367
0.00487579
0.00439912
0.00372116
0.00303854
0.00302237
0.00385037
0.00429105
0.00431271
0.00417298
0.00401645
0.00393782
0.00399397
0.00421269
0.00454081
0.00427649
0.00411956
0.00424774
0.00430724
0.00496855
0.00198642
0.00378759
0.00454155
0.00523279
0.00550335
0.00536551
0.00491767
0.00448888
0.00423089
0.0041385
0.00412039
0.00415752
0.00422323
0.0042992
0.00437652
0.00445604
0.00454816
0.0046637
0.00479232
0.00490234
0.00498601
0.00505439
0.00498677
0.00433223
0.00309898
0.00267419
0.00370117
0.00444648
0.00452081
0.00427749
0.00395611
0.00368496
0.00351769
0.00343595
0.00339345
0.00334742
0.00328637
0.00315051
0.00292297
0.0026934
0.0018528
0.00355064
0.00598394
0.00569653
0.00535312
0.00500556
0.00471926
0.00451424
0.00437393
0.00427679
0.00421197
0.00416384
0.00412291
0.00408939
0.00407412
0.00409566
0.00417064
0.00430551
0.00452053
0.00487893
0.0053075
0.00513151
0.00334375
0.00230609
0.00339044
0.00454732
0.00488173
0.00469347
0.00433024
0.00395363
0.00366697
0.00351808
0.00343789
0.0033515
0.00321063
0.00296079
0.0025957
0.00218556
0.00153977
0.00327398
0.00660114
0.00617663
0.0057221
0.00535797
0.00502965
0.00473527
0.00447676
0.00424751
0.00400047
0.00375092
0.00352251
0.00333505
0.00320773
0.00316078
0.0032115
0.00336405
0.00362159
0.00403345
0.00456313
0.00455361
0.00324319
0.00192416
0.00282872
0.00406094
0.0044741
0.00448619
0.00435559
0.00417546
0.00396624
0.00386046
0.00382677
0.00380548
0.0037526
0.00364385
0.0034886
0.00287908
0.0015681
0.00265244
0.00283731
0.0030037
0.00313485
0.00286638
0.00260951
0.0024009
0.00222313
0.00206499
0.00192352
0.00179633
0.00168708
0.00159088
0.00150388
0.00142446
0.00135245
0.00128879
0.00123522
0.00119409
0.0011684
0.00116272
0.00117697
0.00119253
0.00114564
0.00110172
0.00121035
0.00126176
0.00128016
0.00129024
0.00130519
0.001334
0.00138621
0.00145274
0.00153592
0.00162894
0.00173585
0.00177603
0.00174176
0.00162027
0.00149891
)
;

boundaryField
{
    floor
    {
        type            compressible::alphatWallFunction;
        Prt             0.85;
        value           nonuniform List<scalar> 
36
(
0.000150928
9.3622e-05
0.000118961
0.000128609
0.000130017
0.00012347
0.000109918
9.78891e-05
8.68093e-05
7.64167e-05
6.68161e-05
5.8179e-05
5.06796e-05
4.44531e-05
3.95414e-05
3.58938e-05
3.58428e-05
6.88292e-05
5.82812e-05
5.82805e-05
8.49542e-05
0.000106924
0.000128014
0.000159016
0.000142367
0.000153799
0.000150926
0.000163249
0.000158337
0.000123225
9.36209e-05
0.000123224
0.000109749
0.000175064
0.000174786
0.00019915
)
;
    }
    ceiling
    {
        type            compressible::alphatWallFunction;
        Prt             0.85;
        value           nonuniform List<scalar> 
43
(
0.000360689
0.000383971
0.000404792
0.000421207
0.000387732
0.000355383
0.000328858
0.000306058
0.00028561
0.000267173
0.000250471
0.000236021
0.000223212
0.000211553
0.000200844
0.000191077
0.000182392
0.000175048
0.000169384
0.000165837
0.000165057
0.000167032
0.000169144
0.000162642
0.000156583
0.000171648
0.000178677
0.000181189
0.000182566
0.000184611
0.000188543
0.000195643
0.000204644
0.000215833
0.000228265
0.00024246
0.00024777
0.000243243
0.000227112
0.000210864
0.000501662
0.000592638
0.000438285
)
;
    }
    sWall
    {
        type            compressible::alphatWallFunction;
        Prt             0.85;
        value           uniform 0.000359446;
    }
    nWall
    {
        type            compressible::alphatWallFunction;
        Prt             0.85;
        value           nonuniform List<scalar> 6(0.000153531 0.000160492 0.00019273 0.000215955 0.000219746 0.000210466);
    }
    sideWalls
    {
        type            empty;
    }
    glass1
    {
        type            compressible::alphatWallFunction;
        Prt             0.85;
        value           nonuniform List<scalar> 9(0.000113104 0.000191236 0.000258914 0.000323368 0.000383773 0.000441049 0.000494765 0.000506586 0.000493823);
    }
    glass2
    {
        type            compressible::alphatWallFunction;
        Prt             0.85;
        value           nonuniform List<scalar> 2(0.000272558 0.000255278);
    }
    sun
    {
        type            compressible::alphatWallFunction;
        Prt             0.85;
        value           nonuniform List<scalar> 
14
(
0.000116765
0.000119654
0.000112269
0.000116644
0.000121007
0.000125018
0.000128722
0.000132225
0.000135664
0.000139224
0.000142449
0.000145124
0.000147291
0.000149229
)
;
    }
    Table_master
    {
        type            compressible::alphatWallFunction;
        Prt             0.85;
        value           nonuniform List<scalar> 9(0.000115612 8.84735e-05 7.63982e-05 6.83044e-05 6.21715e-05 5.73915e-05 5.36637e-05 5.07968e-05 4.88361e-05);
    }
    Table_slave
    {
        type            compressible::alphatWallFunction;
        Prt             0.85;
        value           nonuniform List<scalar> 9(0.000152799 0.000145251 0.000139623 0.000137538 0.000136459 0.000134967 0.000131777 0.000125823 0.000119289);
    }
    inlet
    {
        type            fixedValue;
        value           uniform 1.94e-05;
    }
    outlet
    {
        type            zeroGradient;
    }
}


// ************************************************************************* //
