/*--------------------------------*- C++ -*----------------------------------*\
  =========                 |
  \\      /  F ield         | OpenFOAM: The Open Source CFD Toolbox
   \\    /   O peration     | Website:  https://openfoam.org
    \\  /    A nd           | Version:  6
     \\/     M anipulation  |
\*---------------------------------------------------------------------------*/
FoamFile
{
    version     2.0;
    format      ascii;
    class       volScalarField;
    location    "1000";
    object      nut;
}
// * * * * * * * * * * * * * * * * * * * * * * * * * * * * * * * * * * * * * //

dimensions      [0 2 -1 0 0 0 0];

internalField   nonuniform List<scalar> 
458
(
0.000703754
0.000720186
0.00067636
0.000702302
0.000728283
0.000752264
0.000774494
0.000795586
0.000816347
0.000837908
0.000857493
0.000873764
0.000886964
0.000898776
0.000909138
0.000566974
0.000715621
0.00077324
0.000781684
0.000742434
0.000662011
0.000591601
0.000527625
0.000468457
0.000414596
0.000366866
0.000326041
0.000292629
0.000266612
0.000247503
0.000247264
0.00042572
0.000367346
0.00119402
0.00185422
0.00135367
0.00171641
0.00183841
0.00196812
0.0021016
0.00222842
0.00233462
0.00240178
0.00243091
0.00239452
0.00225605
0.00196098
0.00147425
0.000984832
0.000954431
0.000741442
0.000661007
0.0022278
0.00281867
0.0028135
0.00226977
0.00174111
0.00142199
0.00117018
0.000967203
0.000810668
0.00069638
0.000617368
0.000566987
0.000539737
0.000532818
0.000492906
0.000934663
0.000516694
0.00163749
0.00311879
0.00142605
0.00248766
0.00275114
0.00291301
0.00305828
0.00318533
0.00328893
0.00336096
0.00340038
0.00337985
0.00326713
0.00302439
0.00263821
0.0021626
0.00162265
0.0010579
0.00105569
0.00351845
0.00353406
0.00292481
0.0019942
0.00069396
0.000535556
0.000466873
0.000421502
0.000387511
0.00036127
0.000340968
0.000325455
0.000314897
0.000390685
0.000439232
0.00125145
0.000643979
0.00207186
0.00486772
0.00158296
0.00276641
0.00334783
0.00353972
0.00368369
0.00380531
0.00390601
0.00398261
0.00403946
0.00407152
0.00405405
0.0039383
0.00365277
0.00314083
0.00242755
0.0016881
0.0012088
0.00269812
0.00355257
0.00321947
0.00252664
0.00169575
0.000918638
0.000872668
0.000838398
0.000825736
0.000819194
0.000810177
0.000790958
0.000755228
0.00071622
0.000712943
0.000723506
0.00135238
0.000769301
0.00248764
0.00691547
0.0022171
0.002573
0.00361121
0.00387572
0.00401679
0.00412285
0.00420674
0.00427589
0.00433791
0.0044301
0.0045508
0.0046745
0.00475271
0.00473298
0.0045877
0.00432478
0.00399739
0.00377927
0.003509
0.00318671
0.00298159
0.00297534
0.00316364
0.00338512
0.00342426
0.00339383
0.00334578
0.00326247
0.00312955
0.00293137
0.00251836
0.00204407
0.00159387
0.00128352
0.00140123
0.00095783
0.000856202
0.000926
0.00288846
0.00889003
0.00378925
0.00236191
0.0033348
0.00384331
0.00407987
0.00421174
0.00427426
0.00429416
0.00430397
0.00439092
0.0045456
0.0047494
0.004967
0.00514094
0.00518925
0.00501186
0.00457979
0.00401574
0.00349091
0.00312735
0.00292517
0.00291405
0.00317737
0.00355689
0.00371563
0.00373906
0.00369941
0.00362296
0.00352258
0.00340451
0.00319927
0.00282955
0.00234979
0.00168048
0.00142429
0.00123278
0.00139718
0.000968666
0.00326945
0.0104266
0.00667419
0.00354713
0.0026771
0.00298793
0.00355139
0.00397721
0.0042066
0.00421376
0.00415633
0.00420062
0.00431266
0.00448312
0.0047004
0.00493265
0.00510188
0.00508496
0.0048052
0.00431626
0.00377979
0.00331952
0.00293126
0.00270215
0.00287899
0.00340422
0.00363857
0.00366726
0.00360734
0.00352399
0.00345861
0.00343503
0.00343984
0.00326039
0.00287961
0.0023753
0.00201078
0.00181468
0.00167654
0.0011695
0.00335526
0.0104187
0.00841605
0.00667085
0.00483081
0.0036715
0.00338346
0.00362229
0.00397015
0.00404892
0.00400741
0.00399719
0.00403764
0.00412445
0.00425319
0.00442106
0.00460432
0.00472707
0.00469742
0.00449229
0.00417641
0.00376745
0.00318621
0.00260114
0.00258649
0.0032942
0.00367095
0.00368943
0.00356991
0.003436
0.00336871
0.00341665
0.00360354
0.00388373
0.00365735
0.00352285
0.00363225
0.00368305
0.00424877
0.00169993
0.00326628
0.00391207
0.00450337
0.00473202
0.00460974
0.00422233
0.00385253
0.00363015
0.00355038
0.00353452
0.00356605
0.00362209
0.00368692
0.00375287
0.00382069
0.00389929
0.00399792
0.0041077
0.00420146
0.00427258
0.00433052
0.00427187
0.00371038
0.00265351
0.00228896
0.0031668
0.00380417
0.00386774
0.00365962
0.00338471
0.00315276
0.00300968
0.00293979
0.00290352
0.00286425
0.00281229
0.00269643
0.00250209
0.00230591
0.00158674
0.00300192
0.00510984
0.00487987
0.0045898
0.00429294
0.00404764
0.00387176
0.00375129
0.00366781
0.003612
0.00357048
0.00353511
0.00350611
0.00349274
0.00351094
0.00357493
0.00369021
0.00387414
0.00418084
0.00454748
0.004396
0.00286389
0.00197434
0.00290115
0.0038907
0.00417681
0.00401583
0.00370516
0.00338303
0.00313785
0.00301056
0.00294203
0.00286827
0.00274794
0.00253437
0.00222207
0.00187108
0.00131825
0.00277479
0.00563531
0.00528611
0.00490216
0.00459222
0.0043116
0.00405953
0.00383796
0.00364139
0.00342954
0.00321552
0.00301962
0.00285882
0.00274959
0.00270923
0.00275259
0.00288321
0.00310378
0.00345654
0.00391014
0.00390161
0.00277853
0.00164782
0.00242067
0.00347481
0.00382832
0.00383873
0.00372706
0.00357302
0.00339409
0.00330369
0.00327498
0.00325692
0.00321187
0.00311902
0.00298635
0.00246449
0.00134244
0.00225765
0.0024146
0.00255617
0.0026793
0.00245342
0.00223543
0.00205727
0.00190517
0.00176974
0.00164854
0.00153955
0.00144592
0.00136348
0.00128891
0.00122084
0.00115913
0.00110456
0.00105864
0.00102338
0.00100136
0.00099647
0.00100865
0.00102194
0.000981709
0.000943784
0.00103584
0.00107979
0.00109555
0.00110418
0.00111699
0.00114166
0.00118635
0.0012433
0.00131451
0.00139415
0.00148573
0.00152019
0.00149089
0.00138691
0.00128318
)
;

boundaryField
{
    floor
    {
        type            nutkWallFunction;
        Cmu             0.09;
        kappa           0.41;
        E               9.8;
        value           nonuniform List<scalar> 
36
(
0.000109964
6.82096e-05
8.66355e-05
9.36513e-05
9.46752e-05
8.99125e-05
8.00539e-05
7.13026e-05
6.32414e-05
5.56792e-05
4.86922e-05
4.24052e-05
3.69451e-05
3.24106e-05
2.88326e-05
2.61748e-05
2.61355e-05
5.01284e-05
4.24603e-05
4.24602e-05
6.18539e-05
7.78249e-05
9.31607e-05
0.000115719
0.000103651
0.000111968
0.000109964
0.000118925
0.000115343
8.97936e-05
6.82095e-05
8.97936e-05
7.99451e-05
0.000127509
0.000127253
0.000145009
)
;
    }
    ceiling
    {
        type            nutkWallFunction;
        Cmu             0.09;
        kappa           0.41;
        E               9.8;
        value           nonuniform List<scalar> 
43
(
0.000261135
0.000277937
0.000292996
0.000306119
0.000282187
0.000258855
0.000239599
0.000223016
0.000208131
0.000194705
0.000182538
0.000172011
0.000162679
0.000154185
0.000146383
0.000139267
0.000132938
0.000127586
0.000123459
0.000120874
0.000120303
0.000121739
0.000123274
0.000118531
0.000114086
0.00012495
0.000130059
0.000131887
0.000132891
0.000134379
0.000137241
0.000142407
0.000148958
0.000157101
0.00016615
0.000176486
0.000180356
0.000177066
0.000165329
0.000153524
0.000367702
0.000433919
0.000315989
)
;
    }
    sWall
    {
        type            nutkWallFunction;
        Cmu             0.09;
        kappa           0.41;
        E               9.8;
        value           uniform 0.000261204;
    }
    nWall
    {
        type            nutkWallFunction;
        Cmu             0.09;
        kappa           0.41;
        E               9.8;
        value           nonuniform List<scalar> 6(0.000111972 0.00011702 0.000140466 0.000157541 0.000160295 0.000153537);
    }
    sideWalls
    {
        type            empty;
    }
    glass1
    {
        type            nutkWallFunction;
        Cmu             0.09;
        kappa           0.41;
        E               9.8;
        value           nonuniform List<scalar> 9(8.51491e-05 0.000143449 0.000193765 0.000241586 0.00028635 0.000328758 0.0003685 0.000377397 0.000368205);
    }
    glass2
    {
        type            nutkWallFunction;
        Cmu             0.09;
        kappa           0.41;
        E               9.8;
        value           nonuniform List<scalar> 2(0.000200535 0.000187929);
    }
    sun
    {
        type            nutkWallFunction;
        Cmu             0.09;
        kappa           0.41;
        E               9.8;
        value           nonuniform List<scalar> 
14
(
8.51879e-05
8.71989e-05
8.1823e-05
8.50089e-05
8.81857e-05
9.11061e-05
9.38034e-05
9.63543e-05
9.88576e-05
0.000101449
0.000103797
0.000105744
0.00010732
0.000108729
)
;
    }
    Table_master
    {
        type            nutkWallFunction;
        Cmu             0.09;
        kappa           0.41;
        E               9.8;
        value           nonuniform List<scalar> 9(8.40341e-05 6.42973e-05 5.55168e-05 4.9632e-05 4.51728e-05 4.16972e-05 3.89864e-05 3.69013e-05 3.54747e-05);
    }
    Table_slave
    {
        type            nutkWallFunction;
        Cmu             0.09;
        kappa           0.41;
        E               9.8;
        value           nonuniform List<scalar> 9(0.000111085 0.000105589 0.000101493 9.99751e-05 9.91893e-05 9.81032e-05 9.57831e-05 9.14529e-05 8.67006e-05);
    }
    inlet
    {
        type            calculated;
        value           uniform 0.000100623;
    }
    outlet
    {
        type            calculated;
        value           nonuniform List<scalar> 2(0.00225765 0.0024146);
    }
}


// ************************************************************************* //
