/*--------------------------------*- C++ -*----------------------------------*\
  =========                 |
  \\      /  F ield         | OpenFOAM: The Open Source CFD Toolbox
   \\    /   O peration     | Website:  https://openfoam.org
    \\  /    A nd           | Version:  6
     \\/     M anipulation  |
\*---------------------------------------------------------------------------*/
FoamFile
{
    version     2.0;
    format      ascii;
    class       volScalarField;
    location    "1000";
    object      T;
}
// * * * * * * * * * * * * * * * * * * * * * * * * * * * * * * * * * * * * * //

dimensions      [0 0 0 1 0 0 0];

internalField   nonuniform List<scalar> 
458
(
301.802
301.423
301.418
301.424
301.43
301.435
301.439
301.442
301.445
301.448
301.449
301.448
301.445
301.441
301.436
301.208
301.183
301.18
301.179
301.172
301.161
301.151
301.14
301.128
301.112
301.091
301.066
301.035
301.001
300.965
300.929
300.897
300.915
302.067
301.463
301.435
301.446
301.457
301.467
301.476
301.484
301.489
301.493
301.494
301.489
301.477
301.458
301.432
301.411
301.388
301.396
301.212
301.192
301.19
301.195
301.184
301.152
301.127
301.105
301.086
301.066
301.045
301.022
300.996
300.969
300.941
300.908
300.88
300.902
302.316
301.527
301.468
301.484
301.505
301.524
301.541
301.556
301.567
301.573
301.574
301.566
301.546
301.515
301.473
301.429
301.388
301.363
301.222
301.217
301.226
301.227
301.213
301.15
301.101
301.075
301.054
301.036
301.017
300.999
300.98
300.961
300.947
300.926
300.904
300.906
302.545
301.609
301.504
301.522
301.552
301.582
301.61
301.635
301.655
301.668
301.672
301.665
301.642
301.603
301.551
301.489
301.421
301.353
301.303
301.268
301.276
301.278
301.265
301.238
301.21
301.183
301.17
301.163
301.159
301.154
301.148
301.14
301.131
301.099
301.054
300.999
300.933
302.754
301.706
301.545
301.553
301.59
301.629
301.667
301.704
301.735
301.758
301.77
301.769
301.75
301.714
301.663
301.601
301.534
301.47
301.417
301.382
301.363
301.345
301.32
301.283
301.244
301.213
301.196
301.189
301.185
301.18
301.173
301.163
301.149
301.127
301.093
301.041
300.976
301.02
301.128
301.142
302.931
301.821
301.614
301.583
301.616
301.658
301.703
301.747
301.788
301.824
301.848
301.855
301.844
301.815
301.77
301.714
301.65
301.586
301.529
301.485
301.45
301.418
301.379
301.331
301.275
301.234
301.216
301.209
301.206
301.202
301.195
301.183
301.165
301.143
301.113
301.071
301.022
301.015
301.044
301.085
303.071
302.01
301.797
301.687
301.663
301.687
301.725
301.767
301.812
301.859
301.898
301.915
301.911
301.89
301.855
301.808
301.754
301.695
301.637
301.585
301.539
301.494
301.444
301.384
301.309
301.252
301.232
301.227
301.225
301.223
301.217
301.205
301.183
301.155
301.127
301.093
301.057
301.036
301.039
301.072
303.317
302.515
302.296
302.086
301.928
301.846
301.823
301.833
301.861
301.907
301.942
301.956
301.951
301.932
301.904
301.869
301.827
301.779
301.727
301.675
301.623
301.57
301.511
301.442
301.349
301.269
301.246
301.243
301.244
301.244
301.241
301.233
301.215
301.178
301.151
301.128
301.11
301.103
301.121
301.347
303.659
303.319
303.041
302.772
302.526
302.336
302.207
302.127
302.084
302.057
302.03
302.003
301.976
301.948
301.919
301.888
301.856
301.821
301.782
301.741
301.695
301.645
301.581
301.509
301.4
301.286
301.259
301.258
301.262
301.266
301.27
301.273
301.277
301.287
301.3
301.329
301.374
301.423
301.465
301.56
297.701
300.682
301.637
301.908
301.988
302.006
302.003
301.993
301.979
301.96
301.939
301.917
301.894
301.87
301.847
301.823
301.797
301.768
301.735
301.695
301.647
301.584
301.463
301.302
301.272
301.272
301.279
301.288
301.299
301.309
301.32
301.331
301.347
301.373
301.404
301.433
301.45
301.459
298.423
300.591
301.344
301.655
301.787
301.841
301.862
301.866
301.863
301.858
301.85
301.841
301.83
301.819
301.807
301.795
301.781
301.765
301.747
301.722
301.693
301.662
301.54
301.317
301.288
301.286
301.291
301.298
301.307
301.316
301.327
301.338
301.353
301.372
301.394
301.416
301.405
301.438
299.694
299.643
299.641
300.934
301.374
301.626
301.707
301.742
301.759
301.766
301.769
301.771
301.771
301.772
301.771
301.77
301.769
301.767
301.764
301.761
301.755
301.747
301.735
301.719
301.627
301.336
301.322
301.324
301.327
301.33
301.333
301.335
301.339
301.344
301.351
301.367
301.379
301.387
301.388
301.426
)
;

boundaryField
{
    floor
    {
        type            wallHeatTransfer;
        Tinf            uniform 305.2;
        alphaWall       uniform 0.24;
        value           nonuniform List<scalar> 
36
(
301.886
301.876
301.755
301.721
301.716
301.73
301.769
301.81
301.854
301.902
301.954
302.005
302.054
302.097
302.13
302.152
302.127
301.768
301.867
301.867
301.668
301.564
301.509
301.501
301.637
301.621
301.886
301.838
301.828
301.924
301.876
301.924
301.812
301.772
301.648
301.679
)
;
    }
    ceiling
    {
        type            wallHeatTransfer;
        Tinf            uniform 303.2;
        alphaWall       uniform 0.24;
        value           nonuniform List<scalar> 
43
(
299.899
299.84
299.829
301.049
301.474
301.719
301.801
301.84
301.862
301.875
301.884
301.891
301.897
301.903
301.908
301.913
301.917
301.92
301.922
301.921
301.917
301.908
301.896
301.887
301.809
301.538
301.519
301.519
301.52
301.521
301.521
301.518
301.515
301.512
301.511
301.517
301.526
301.536
301.545
301.589
303.639
303.315
298.658
)
;
    }
    sWall
    {
        type            wallHeatTransfer;
        Tinf            uniform 315.2;
        alphaWall       uniform 0.36;
        value           uniform 301.019;
    }
    nWall
    {
        type            wallHeatTransfer;
        Tinf            uniform 307.2;
        alphaWall       uniform 0.36;
        value           nonuniform List<scalar> 6(302.155 302.075 301.939 302.203 302.175 302.19);
    }
    sideWalls
    {
        type            empty;
    }
    glass1
    {
        type            wallHeatTransfer;
        Tinf            uniform 315.2;
        alphaWall       uniform 4.3;
        value           nonuniform List<scalar> 9(311.93 310.796 310.068 309.53 309.129 308.814 308.558 308.627 308.885);
    }
    glass2
    {
        type            wallHeatTransfer;
        Tinf            uniform 307.2;
        alphaWall       uniform 4.3;
        value           nonuniform List<scalar> 2(304.803 304.971);
    }
    sun
    {
        type            wallHeatTransfer;
        Tinf            uniform 305.2;
        alphaWall       uniform 0.24;
        value           nonuniform List<scalar> 
14
(
302.292
301.958
301.978
301.969
301.96
301.952
301.945
301.938
301.931
301.925
301.918
301.91
301.903
301.894
)
;
    }
    Table_master
    {
        type            zeroGradient;
    }
    Table_slave
    {
        type            zeroGradient;
    }
    inlet
    {
        type            fixedValue;
        value           uniform 292.15;
    }
    outlet
    {
        type            zeroGradient;
    }
}


// ************************************************************************* //
