/*--------------------------------*- C++ -*----------------------------------*\
  =========                 |
  \\      /  F ield         | OpenFOAM: The Open Source CFD Toolbox
   \\    /   O peration     | Website:  https://openfoam.org
    \\  /    A nd           | Version:  6
     \\/     M anipulation  |
\*---------------------------------------------------------------------------*/
FoamFile
{
    version     2.0;
    format      ascii;
    class       volScalarField;
    location    "1600";
    object      alphat;
}
// * * * * * * * * * * * * * * * * * * * * * * * * * * * * * * * * * * * * * //

dimensions      [1 -1 -1 0 0 0 0];

internalField   nonuniform List<scalar> 
458
(
0.000820418
0.00085649
0.000838475
0.000867211
0.000892371
0.000913877
0.000932537
0.000949236
0.000964898
0.000980652
0.000992695
0.000999807
0.00100234
0.00100281
0.00100202
0.000636276
0.000598988
0.000578369
0.000568927
0.000559549
0.000541423
0.000520757
0.000501237
0.000482734
0.000465078
0.000448136
0.000431757
0.000415724
0.000399667
0.000383
0.00036453
0.000348509
0.000316677
0.00127267
0.00209068
0.00177566
0.00210112
0.00225809
0.00241966
0.0025777
0.00271987
0.00282837
0.00287938
0.00288603
0.00281185
0.00261254
0.0022276
0.00161694
0.0010287
0.000961839
0.000908784
0.000764248
0.00129755
0.00172859
0.00197219
0.00196495
0.00158129
0.00142206
0.00130147
0.00119767
0.00110387
0.00101749
0.000935832
0.000854523
0.00076987
0.00069513
0.00063452
0.000732947
0.000396047
0.00168236
0.0031813
0.00196263
0.00302182
0.00329961
0.00349102
0.00364322
0.00376267
0.00385336
0.00391062
0.0039416
0.00392886
0.00384657
0.00367062
0.0033732
0.00288741
0.00207829
0.00106674
0.000880944
0.00231104
0.0026717
0.00267962
0.00232045
0.000656493
0.000581686
0.000523873
0.000479889
0.000446095
0.000419512
0.000398214
0.00038143
0.000369981
0.000431254
0.000515862
0.000828862
0.000454618
0.0021031
0.00482367
0.00196607
0.0033767
0.00386731
0.00404322
0.0041404
0.00419537
0.00422968
0.00425462
0.00427696
0.00428865
0.00426938
0.00419834
0.00404144
0.00372456
0.00313057
0.00214279
0.00104133
0.00275841
0.0029281
0.00286701
0.00269303
0.00229902
0.000621128
0.00059937
0.000598795
0.000603357
0.000605042
0.000598517
0.000581166
0.000562069
0.000537487
0.000515796
0.000528056
0.00092765
0.000511898
0.0025338
0.0069986
0.00254676
0.00316011
0.00407967
0.00430531
0.00437375
0.00437869
0.00436015
0.00435164
0.00436341
0.0043963
0.00441644
0.0043941
0.00430211
0.00412647
0.00390646
0.00370116
0.00342423
0.00321655
0.00299959
0.00276718
0.00257661
0.00244301
0.00224155
0.00228259
0.00235196
0.00240087
0.00240972
0.00236556
0.00224699
0.00197849
0.00162585
0.00124594
0.000944858
0.000933544
0.000792736
0.000692605
0.000773647
0.000840778
0.00297665
0.00935444
0.00457821
0.00292981
0.00366856
0.00416566
0.00438635
0.0044579
0.00442768
0.00435301
0.00435188
0.00440956
0.00445482
0.00445069
0.00436872
0.0041987
0.00397692
0.00375245
0.00350556
0.00322594
0.00296202
0.00268687
0.00249923
0.00243845
0.00248389
0.00259425
0.00270092
0.00277779
0.00281463
0.00280706
0.00275065
0.00257752
0.00227736
0.00186371
0.00144981
0.00111776
0.000942582
0.000844159
0.00113495
0.000861042
0.00340952
0.0112952
0.00822944
0.00474499
0.00351359
0.00335513
0.00370086
0.00410167
0.00438598
0.00431346
0.00434584
0.0044101
0.00445121
0.00444205
0.00435687
0.00418144
0.00393697
0.00367788
0.0034434
0.00323028
0.00297114
0.00267454
0.00248803
0.00244105
0.00249015
0.00258407
0.00268099
0.00276203
0.00281908
0.00285306
0.00286954
0.00285454
0.00264674
0.00228334
0.00188767
0.00152733
0.00129186
0.00120663
0.00118918
0.000963159
0.00351041
0.011046
0.0094924
0.00812381
0.0063327
0.00496803
0.00432979
0.004213
0.00437329
0.00441857
0.00442187
0.00442898
0.00442691
0.00438655
0.00427768
0.00408262
0.00381909
0.0035607
0.00337493
0.0032421
0.00300264
0.00269618
0.00251069
0.00245404
0.00247077
0.00251799
0.00257136
0.00262309
0.00267557
0.00273852
0.00282727
0.00295119
0.00301534
0.00271914
0.00245266
0.00231823
0.00239561
0.00261116
0.00328642
0.00156735
0.00342996
0.00412562
0.00488044
0.00523258
0.00531923
0.00508622
0.00477684
0.00454508
0.00443168
0.00437169
0.00436388
0.00436892
0.00434969
0.00427507
0.00412247
0.00388436
0.003592
0.00335558
0.00325076
0.00321519
0.00300333
0.00270794
0.00252656
0.00244646
0.00241857
0.00241052
0.0024056
0.00239739
0.00238512
0.00236919
0.0023478
0.00231607
0.00226961
0.00222231
0.00220958
0.00223438
0.00224393
0.00218592
0.00207464
0.00150433
0.00317224
0.00626733
0.00581635
0.00553994
0.00528596
0.00507224
0.00491162
0.00477689
0.00464147
0.00449451
0.00432094
0.0041063
0.00383985
0.00352101
0.00319312
0.00302666
0.00306417
0.00315151
0.00298256
0.00273973
0.00256784
0.00245376
0.00237279
0.0023106
0.00225918
0.00221421
0.00217517
0.00214524
0.00213
0.00213535
0.00216122
0.00218934
0.00221897
0.00223161
0.00218782
0.00206722
0.00189686
0.00128564
0.0029662
0.00679289
0.00629756
0.00590706
0.00559008
0.00532039
0.00505647
0.00480146
0.00451243
0.00417593
0.00382531
0.00347484
0.00312796
0.00278539
0.00249486
0.0025916
0.00296127
0.00330085
0.00328395
0.00315052
0.00299523
0.00283904
0.0026888
0.00255202
0.00243596
0.00234529
0.00228181
0.00224486
0.0022305
0.00222807
0.00225365
0.00230664
0.00236822
0.00241282
0.00240325
0.00244658
0.00255061
0.00131327
0.00232046
0.00252855
0.00270381
0.00287828
0.00271107
0.00256594
0.00233732
0.00214935
0.00197105
0.00179982
0.00164662
0.00151455
0.00139134
0.00126978
0.00114419
0.00100855
0.00086006
0.000761054
0.000796863
0.000814963
0.000802207
0.000785502
0.000770685
0.000759812
0.000754952
0.000757744
0.000768894
0.00078826
0.000815389
0.000850118
0.000893211
0.000947286
0.00100801
0.00107344
0.00114384
0.00122304
0.00126209
0.0012392
0.00116586
0.0010954
)
;

boundaryField
{
    floor
    {
        type            compressible::alphatWallFunction;
        Prt             0.85;
        value           nonuniform List<scalar> 
36
(
0.000142612
8.98074e-05
8.42453e-05
8.11522e-05
7.97318e-05
7.83178e-05
7.5575e-05
7.24335e-05
6.94519e-05
6.6612e-05
6.38893e-05
6.12643e-05
5.87145e-05
5.62066e-05
5.36826e-05
5.10489e-05
4.81127e-05
4.55506e-05
4.04135e-05
4.04129e-05
5.31111e-05
6.2268e-05
7.10793e-05
9.8141e-05
0.000109984
0.000119681
0.000142611
0.000146362
0.00013694
0.000129409
8.98063e-05
0.000129407
0.000108612
0.000151687
0.000125431
0.000148131
)
;
    }
    ceiling
    {
        type            compressible::alphatWallFunction;
        Prt             0.85;
        value           nonuniform List<scalar> 
43
(
0.000318473
0.000345024
0.000367211
0.000389273
0.000368286
0.000349949
0.000320822
0.000296637
0.000273484
0.000251032
0.000230745
0.000213088
0.000196461
0.000179891
0.000162583
0.000143643
0.00012256
0.000108249
0.000113438
0.000116059
0.00011422
0.000111804
0.000109655
0.000108076
0.00010737
0.000107777
0.0001094
0.000112211
0.000116134
0.000121133
0.000127303
0.000134995
0.000143571
0.000152745
0.000162545
0.000173487
0.000178851
0.000175708
0.000165596
0.000155813
0.000457995
0.000542772
0.000400007
)
;
    }
    sWall
    {
        type            compressible::alphatWallFunction;
        Prt             0.85;
        value           uniform 0.000317269;
    }
    nWall
    {
        type            compressible::alphatWallFunction;
        Prt             0.85;
        value           nonuniform List<scalar> 6(0.000119485 0.00012239 0.000136924 0.000181752 0.000185526 0.000155495);
    }
    sideWalls
    {
        type            empty;
    }
    glass1
    {
        type            compressible::alphatWallFunction;
        Prt             0.85;
        value           nonuniform List<scalar> 9(0.000113626 0.000176075 0.000230617 0.000285238 0.000340032 0.000395418 0.000448777 0.000461236 0.0004516);
    }
    glass2
    {
        type            compressible::alphatWallFunction;
        Prt             0.85;
        value           nonuniform List<scalar> 2(0.000218608 0.000210243);
    }
    sun
    {
        type            compressible::alphatWallFunction;
        Prt             0.85;
        value           nonuniform List<scalar> 
14
(
0.00011677
0.00012194
0.000119352
0.000123476
0.000127072
0.000130138
0.00013279
0.000135159
0.000137376
0.000139601
0.0001413
0.000142302
0.000142658
0.000142724
)
;
    }
    Table_master
    {
        type            compressible::alphatWallFunction;
        Prt             0.85;
        value           nonuniform List<scalar> 9(9.28983e-05 8.17379e-05 7.29913e-05 6.62561e-05 6.10285e-05 5.68807e-05 5.35334e-05 5.08791e-05 4.90597e-05);
    }
    Table_slave
    {
        type            compressible::alphatWallFunction;
        Prt             0.85;
        value           nonuniform List<scalar> 9(8.76424e-05 8.43918e-05 8.43064e-05 8.499e-05 8.52427e-05 8.42665e-05 8.16627e-05 7.87859e-05 7.50649e-05);
    }
    inlet
    {
        type            fixedValue;
        value           uniform 1.94e-05;
    }
    outlet
    {
        type            zeroGradient;
    }
}


// ************************************************************************* //
