/*--------------------------------*- C++ -*----------------------------------*\
  =========                 |
  \\      /  F ield         | OpenFOAM: The Open Source CFD Toolbox
   \\    /   O peration     | Website:  https://openfoam.org
    \\  /    A nd           | Version:  6
     \\/     M anipulation  |
\*---------------------------------------------------------------------------*/
FoamFile
{
    version     2.0;
    format      ascii;
    class       volScalarField;
    location    "600";
    object      epsilon;
}
// * * * * * * * * * * * * * * * * * * * * * * * * * * * * * * * * * * * * * //

dimensions      [0 2 -3 0 0 0 0];

internalField   nonuniform List<scalar> 
458
(
0.000494956
0.000641928
0.000689853
0.000799534
0.000910993
0.00102558
0.00114823
0.00128757
0.00142843
0.00155177
0.0016299
0.00162737
0.00151026
0.00123079
0.00050109
5.18925e-05
8.53993e-05
0.000122959
0.000132098
0.000122715
0.00010042
7.96096e-05
6.35967e-05
5.15482e-05
4.23754e-05
3.52942e-05
2.97845e-05
2.53922e-05
2.17792e-05
1.86796e-05
1.58756e-05
1.44837e-05
1.13706e-05
0.0012135
0.00180959
0.000602187
0.000589453
0.000609222
0.000642483
0.000695871
0.000780287
0.000890155
0.00100748
0.00109804
0.00112437
0.00106988
0.000949215
0.000791368
0.00113306
0.000622707
0.000332762
5.29111e-05
0.000108445
0.000125133
0.00012173
0.000112826
0.000110234
8.65502e-05
6.59999e-05
5.06309e-05
3.93268e-05
3.09899e-05
2.48143e-05
2.01707e-05
1.67155e-05
1.45593e-05
1.37242e-05
4.21294e-05
2.69175e-05
0.00218406
0.00438606
0.000704373
0.000535283
0.000537323
0.000570592
0.000630889
0.000725449
0.000852693
0.000989227
0.0010927
0.00113071
0.00109343
0.00098485
0.000783513
0.000616007
0.000497286
0.000526288
0.000231986
0.0002079
0.000175916
0.000148535
0.000132391
0.000248683
0.000166791
0.00011468
8.15859e-05
6.01062e-05
4.57679e-05
3.59597e-05
2.91316e-05
2.44456e-05
1.90026e-05
1.68904e-05
9.06094e-05
4.48071e-05
0.00350647
0.00907481
0.0010656
0.000516635
0.000491807
0.000525736
0.000591444
0.00070298
0.000864688
0.00102955
0.00114178
0.00118161
0.00114562
0.00102133
0.000811175
0.000630765
0.000523986
0.000539386
0.000819707
0.000524695
0.000334178
0.000235844
0.000179902
0.000153155
0.000345136
0.000262843
0.000215326
0.000184173
0.000160094
0.000138573
0.000119935
0.000102167
8.37649e-05
5.10486e-05
3.37397e-05
0.000165412
6.67453e-05
0.00532114
0.0162968
0.00210871
0.00058376
0.000469135
0.000489108
0.000561148
0.000718382
0.000963769
0.00117255
0.00128826
0.00131683
0.0012596
0.00108619
0.000834174
0.000609796
0.000468418
0.00042544
0.000418708
0.000342053
0.000273566
0.000221023
0.000179226
0.000146766
0.000135602
0.000124765
0.000117264
0.000110455
0.000102525
9.28626e-05
8.29337e-05
7.34277e-05
6.45944e-05
5.25509e-05
4.1393e-05
0.000103435
0.000164041
0.000157754
0.000179848
0.000226237
0.00787265
0.024454
0.00509939
0.00114387
0.0006489
0.000556728
0.000585412
0.00084276
0.00122188
0.00145176
0.00154726
0.00154353
0.00144131
0.00120809
0.000874065
0.000571361
0.00038617
0.000315113
0.000293258
0.00027467
0.00024656
0.00021132
0.000175609
0.000145273
0.000127642
0.000121779
0.000121046
0.000120129
0.000116339
0.00010802
9.46783e-05
8.06074e-05
6.78338e-05
5.64567e-05
4.92223e-05
7.15267e-05
0.000121718
0.000143043
0.000258124
0.00025319
0.0109754
0.0293482
0.0113829
0.00449535
0.00237756
0.00150037
0.0012116
0.00150132
0.00179447
0.00191955
0.00193656
0.0018642
0.00169438
0.00137559
0.000934321
0.000543358
0.000321688
0.00025035
0.00024413
0.000241133
0.000223054
0.000194548
0.000165463
0.000143187
0.000133099
0.000134393
0.000140665
0.000147417
0.000152331
0.000152793
0.000143979
0.000126453
0.000109469
9.53998e-05
8.9237e-05
0.000102716
0.000147642
0.000224726
0.000424157
0.000429896
0.0117292
0.0316348
0.0187302
0.0134453
0.00908701
0.00586011
0.00411923
0.00332725
0.00290793
0.00267545
0.00248964
0.0022757
0.00199686
0.00155747
0.000976771
0.000498196
0.000268081
0.000219362
0.000217886
0.000213425
0.000196647
0.000174959
0.000156778
0.000146739
0.000146294
0.000153845
0.000166571
0.000183222
0.000203854
0.000228439
0.000255563
0.000274654
0.000287445
0.000318793
0.000384384
0.000575595
0.00103147
0.00184197
0.00574377
0.00159184
0.0109634
0.0185664
0.0156598
0.0123152
0.0096451
0.00744161
0.00582872
0.00468131
0.00396018
0.00351224
0.00310959
0.00270193
0.00228371
0.00167568
0.000905429
0.000408705
0.000254814
0.000218448
0.00020946
0.00019988
0.000186356
0.000173281
0.000164579
0.000161786
0.000164876
0.000173283
0.000186974
0.00020721
0.000236498
0.000278308
0.000336974
0.000417167
0.000526248
0.000687412
0.000922848
0.00123466
0.00158124
0.00188191
0.00211681
0.00124362
0.00422104
0.00497786
0.00550829
0.00560568
0.00543417
0.00518964
0.00489204
0.00438365
0.00360991
0.00290978
0.00235891
0.00149604
0.000738051
0.000420485
0.000316675
0.000282451
0.000267912
0.000257496
0.000247695
0.000238857
0.000231743
0.000226643
0.000223656
0.000223039
0.000225542
0.000232791
0.000247583
0.000274206
0.00031905
0.000388629
0.000489687
0.000630083
0.000810933
0.0010066
0.00115036
0.00116013
0.00100283
0.000648653
0.00614619
0.0186833
0.0125931
0.0109136
0.00952881
0.00823652
0.00662975
0.00450635
0.00268436
0.00142331
0.000930211
0.000661459
0.000538567
0.00050155
0.000491221
0.00048235
0.000466554
0.000448199
0.000429041
0.000409741
0.000390587
0.000371914
0.000354426
0.000339457
0.000328996
0.000325463
0.000331539
0.00035027
0.00038615
0.000445021
0.000533366
0.000657117
0.0008165
0.000999493
0.00115039
0.00128361
0.000850031
0.000674985
0.00713296
0.0074266
0.00779514
0.00954669
0.0081435
0.00712238
0.00549759
0.00341659
0.00167607
0.00109096
0.000754389
0.000608068
0.000541626
0.000481097
0.000421459
0.000374814
0.000340965
0.000315935
0.00029799
0.000282811
0.000270496
0.000261042
0.000254431
0.000250768
0.000250362
0.000253747
0.000261669
0.000275144
0.000295696
0.000325937
0.000366667
0.000419689
0.00048746
0.000573023
0.000679475
0.000826569
0.000899959
0.000848539
0.000685174
0.000541133
)
;

boundaryField
{
    floor
    {
        Cmu             0.09;
        kappa           0.41;
        E               9.8;
        type            epsilonWallFunction;
        value           nonuniform List<scalar> 
36
(
0.00050109
5.18925e-05
8.53993e-05
0.000122959
0.000132098
0.000122715
0.00010042
7.96096e-05
6.35967e-05
5.15482e-05
4.23754e-05
3.52942e-05
2.97845e-05
2.53922e-05
2.17792e-05
1.86796e-05
1.58756e-05
1.44837e-05
1.13706e-05
1.13706e-05
2.69175e-05
4.48071e-05
6.67453e-05
0.000157754
0.000179848
0.000226237
0.00050109
0.00113306
0.000622707
0.000332762
5.18925e-05
0.000332762
5.29111e-05
0.000526288
0.000231986
0.000819707
)
;
    }
    ceiling
    {
        Cmu             0.09;
        kappa           0.41;
        E               9.8;
        type            epsilonWallFunction;
        value           nonuniform List<scalar> 
43
(
0.00713296
0.0074266
0.00779514
0.00954669
0.0081435
0.00712238
0.00549759
0.00341659
0.00167607
0.00109096
0.000754389
0.000608068
0.000541626
0.000481097
0.000421459
0.000374814
0.000340965
0.000315935
0.00029799
0.000282811
0.000270496
0.000261042
0.000254431
0.000250768
0.000250362
0.000253747
0.000261669
0.000275144
0.000295696
0.000325937
0.000366667
0.000419689
0.00048746
0.000573023
0.000679475
0.000826569
0.000899959
0.000848539
0.000685174
0.000541133
0.0109634
0.0185664
0.00614619
)
;
    }
    sWall
    {
        Cmu             0.09;
        kappa           0.41;
        E               9.8;
        type            epsilonWallFunction;
        value           uniform 0.00713296;
    }
    nWall
    {
        Cmu             0.09;
        kappa           0.41;
        E               9.8;
        type            epsilonWallFunction;
        value           nonuniform List<scalar> 6(0.000226237 0.00025319 0.000429896 0.000648653 0.000674985 0.000541133);
    }
    sideWalls
    {
        type            empty;
    }
    glass1
    {
        Cmu             0.09;
        kappa           0.41;
        E               9.8;
        type            epsilonWallFunction;
        value           nonuniform List<scalar> 9(0.000494956 0.0012135 0.00218406 0.00350647 0.00532114 0.00787265 0.0109754 0.0117292 0.0109634);
    }
    glass2
    {
        Cmu             0.09;
        kappa           0.41;
        E               9.8;
        type            epsilonWallFunction;
        value           nonuniform List<scalar> 2(0.00159184 0.00124362);
    }
    sun
    {
        Cmu             0.09;
        kappa           0.41;
        E               9.8;
        type            epsilonWallFunction;
        value           nonuniform List<scalar> 
14
(
0.000494956
0.000641928
0.000689853
0.000799534
0.000910993
0.00102558
0.00114823
0.00128757
0.00142843
0.00155177
0.0016299
0.00162737
0.00151026
0.00123079
)
;
    }
    Table_master
    {
        Cmu             0.09;
        kappa           0.41;
        E               9.8;
        type            epsilonWallFunction;
        value           nonuniform List<scalar> 9(0.000248683 0.000166791 0.00011468 8.15859e-05 6.01062e-05 4.57679e-05 3.59597e-05 2.91316e-05 2.44456e-05);
    }
    Table_slave
    {
        Cmu             0.09;
        kappa           0.41;
        E               9.8;
        type            epsilonWallFunction;
        value           nonuniform List<scalar> 9(0.000345136 0.000262843 0.000215326 0.000184173 0.000160094 0.000138573 0.000119935 0.000102167 8.37649e-05);
    }
    inlet
    {
        type            turbulentMixingLengthDissipationRateInlet;
        mixingLength    0.01;
        phi             phi;
        k               k;
        value           uniform 0.00377337;
    }
    outlet
    {
        type            zeroGradient;
    }
}


// ************************************************************************* //
