// -*- C++ -*-
// File generated by PyFoam - sorry for the ugliness

FoamFile
{
 version 2.0;
 format ascii;
 class volScalarField;
 location "600";
 object T;
}

dimensions [ 0 0 0 1 0 0 0 ];

internalField nonuniform List<scalar> 458
(
  301.728
  301.422
  301.408
  301.404
  301.402
  301.399
  301.396
  301.393
  301.39
  301.387
  301.385
  301.388
  301.401
  301.427
  301.497
  301.728
  301.7
  301.693
  301.704
  301.713
  301.719
  301.726
  301.732
  301.737
  301.743
  301.748
  301.754
  301.759
  301.764
  301.77
  301.776
  301.784
  301.812
  301.926
  301.443
  301.411
  301.408
  301.407
  301.406
  301.404
  301.4
  301.393
  301.381
  301.367
  301.362
  301.377
  301.411
  301.456
  301.478
  301.494
  301.521
  301.735
  301.676
  301.674
  301.687
  301.701
  301.705
  301.707
  301.709
  301.71
  301.711
  301.712
  301.714
  301.715
  301.718
  301.723
  301.73
  301.742
  301.792
  302.136
  301.483
  301.428
  301.429
  301.436
  301.442
  301.445
  301.443
  301.432
  301.405
  301.367
  301.344
  301.356
  301.403
  301.459
  301.488
  301.499
  301.52
  301.67
  301.656
  301.668
  301.693
  301.718
  301.718
  301.717
  301.716
  301.715
  301.714
  301.713
  301.713
  301.712
  301.712
  301.716
  301.722
  301.733
  301.785
  302.351
  301.54
  301.451
  301.456
  301.475
  301.496
  301.513
  301.52
  301.506
  301.455
  301.38
  301.328
  301.333
  301.395
  301.47
  301.512
  301.523
  301.529
  301.547
  301.581
  301.629
  301.679
  301.726
  301.763
  301.791
  301.811
  301.827
  301.84
  301.85
  301.856
  301.862
  301.865
  301.866
  301.824
  301.782
  301.757
  301.79
  302.563
  301.62
  301.483
  301.481
  301.509
  301.547
  301.587
  301.615
  301.605
  301.523
  301.401
  301.315
  301.312
  301.389
  301.484
  301.549
  301.576
  301.583
  301.61
  301.651
  301.7
  301.751
  301.798
  301.837
  301.869
  301.891
  301.908
  301.92
  301.927
  301.929
  301.927
  301.92
  301.907
  301.877
  301.831
  301.789
  301.792
  301.914
  301.995
  301.995
  302.754
  301.732
  301.551
  301.517
  301.536
  301.578
  301.635
  301.697
  301.699
  301.579
  301.413
  301.302
  301.296
  301.384
  301.507
  301.603
  301.653
  301.676
  301.708
  301.749
  301.796
  301.843
  301.884
  301.918
  301.944
  301.963
  301.975
  301.983
  301.985
  301.983
  301.974
  301.96
  301.942
  301.913
  301.871
  301.825
  301.807
  301.862
  301.894
  301.943
  302.925
  301.921
  301.733
  301.661
  301.636
  301.646
  301.689
  301.758
  301.741
  301.592
  301.401
  301.279
  301.278
  301.389
  301.546
  301.675
  301.749
  301.788
  301.821
  301.858
  301.898
  301.936
  301.968
  301.994
  302.012
  302.023
  302.029
  302.031
  302.029
  302.022
  302.01
  301.991
  301.969
  301.942
  301.906
  301.865
  301.84
  301.853
  301.87
  301.904
  303.179
  302.447
  302.251
  302.088
  301.961
  301.892
  301.876
  301.879
  301.76
  301.534
  301.319
  301.217
  301.257
  301.416
  301.617
  301.775
  301.861
  301.9
  301.93
  301.96
  301.99
  302.017
  302.038
  302.053
  302.062
  302.066
  302.067
  302.064
  302.059
  302.05
  302.038
  302.02
  301.999
  301.975
  301.949
  301.92
  301.906
  301.918
  301.948
  302.138
  303.546
  303.209
  302.982
  302.716
  302.461
  302.265
  302.127
  301.964
  301.624
  301.297
  301.115
  301.113
  301.255
  301.498
  301.746
  301.901
  301.965
  301.997
  302.021
  302.043
  302.062
  302.077
  302.088
  302.094
  302.096
  302.096
  302.093
  302.09
  302.085
  302.079
  302.075
  302.074
  302.076
  302.084
  302.103
  302.136
  302.182
  302.229
  302.265
  302.344
  295.991
  297.471
  298.791
  299.644
  300.061
  300.182
  300.314
  300.5
  300.755
  301.059
  301.371
  301.711
  301.92
  302.012
  302.053
  302.075
  302.091
  302.103
  302.112
  302.118
  302.122
  302.123
  302.123
  302.122
  302.121
  302.121
  302.121
  302.121
  302.123
  302.125
  302.131
  302.142
  302.161
  302.189
  302.223
  302.257
  302.283
  302.305
  296.808
  297.796
  298.832
  299.558
  299.919
  300.151
  300.428
  300.804
  301.183
  301.581
  301.824
  301.977
  302.059
  302.098
  302.117
  302.129
  302.137
  302.142
  302.146
  302.147
  302.148
  302.148
  302.147
  302.147
  302.147
  302.147
  302.147
  302.149
  302.15
  302.153
  302.158
  302.166
  302.179
  302.199
  302.222
  302.249
  302.248
  302.284
  298.377
  298.353
  298.351
  299.129
  299.641
  300.071
  300.457
  300.935
  301.466
  301.758
  301.939
  302.04
  302.096
  302.135
  302.16
  302.175
  302.183
  302.187
  302.19
  302.191
  302.191
  302.191
  302.19
  302.189
  302.188
  302.187
  302.185
  302.184
  302.182
  302.181
  302.18
  302.18
  302.18
  302.183
  302.188
  302.201
  302.215
  302.225
  302.23
  302.271
)
;

boundaryField
{
  floor
  {
    type wallHeatTransfer;
    Tinf uniform 305.2;
    alphaWall uniform 0.24;
    value nonuniform List<scalar> 36
(
  301.875
  302.339
  302.25
  302.199
  302.2
  302.216
  302.246
  302.28
  302.315
  302.348
  302.38
  302.41
  302.439
  302.468
  302.495
  302.523
  302.554
  302.574
  302.635
  302.635
  302.485
  302.406
  302.357
  302.361
  302.417
  302.395
  301.875
  301.786
  301.852
  301.937
  302.339
  301.937
  302.342
  301.891
  302.107
  301.876
)
;
  }
  ceiling
  {
    type wallHeatTransfer;
    Tinf uniform 303.2;
    alphaWall uniform 0.24;
    value nonuniform List<scalar> 43
(
  298.618
  298.593
  298.587
  299.317
  299.813
  300.228
  300.605
  301.075
  301.595
  301.879
  302.055
  302.152
  302.207
  302.245
  302.271
  302.287
  302.297
  302.304
  302.307
  302.31
  302.312
  302.312
  302.312
  302.312
  302.311
  302.309
  302.307
  302.305
  302.301
  302.297
  302.293
  302.289
  302.285
  302.283
  302.284
  302.291
  302.302
  302.312
  302.321
  302.364
  303.53
  303.208
  297.14
)
;
  }
  sWall
  {
    type wallHeatTransfer;
    Tinf uniform 315.2;
    alphaWall uniform 0.36;
    value uniform 299.611;
  }
  nWall
  {
    type wallHeatTransfer;
    Tinf uniform 307.2;
    alphaWall uniform 0.36;
    value nonuniform List<scalar> 6
(
  302.912
  302.845
  302.706
  302.977
  302.952
  302.978
)
;
  }
  sideWalls
  {
    type empty;
  }
  glass1
  {
    type wallHeatTransfer;
    Tinf uniform 315.2;
    alphaWall uniform 4.3;
    value nonuniform List<scalar> 9
(
  310.848
  310.137
  309.685
  309.342
  309.057
  308.794
  308.584
  308.664
  308.923
)
;
  }
  glass2
  {
    type wallHeatTransfer;
    Tinf uniform 307.2;
    alphaWall uniform 4.3;
    value nonuniform List<scalar> 2
(
  305.159
  305.324
)
;
  }
  sun
  {
    type wallHeatTransfer;
    Tinf uniform 305.2;
    alphaWall uniform 0.24;
    value nonuniform List<scalar> 14
(
  302.084
  301.784
  301.764
  301.748
  301.734
  301.721
  301.71
  301.698
  301.687
  301.677
  301.672
  301.675
  301.692
  301.733
)
;
  }
  Table_master
  {
    type zeroGradient;
  }
  Table_slave
  {
    type zeroGradient;
  }
  inlet
  {
    type fixedValue;
    value uniform 291.15;
  }
  outlet
  {
    type zeroGradient;
  }
} 	// ************************************************************************* //

