/*--------------------------------*- C++ -*----------------------------------*=========                 |
  \      /  F ield         | OpenFOAM: The Open Source CFD Toolbox
   \    /   O peration     | Website:  https://openfoam.org
    \  /    A nd           | Version:  6
     \/     M anipulation  |
\*---------------------------------------------------------------------------*/
FoamFile
{
    version     2.0;
    format      ascii;
    class       volScalarField;
    location    "2300";
    object      PPD;
}
// * * * * * * * * * * * * * * * * * * * * * * * * * * * * * * * * * * * * * //

dimensions      [0 0 0 0 0 0 0];

internalField   nonuniform List<scalar> 
458
(
77.1229506044023
69.44931864070281
70.15277514198058
69.80078346896667
69.46490502754898
69.19698792034563
68.9876536194939
68.8967010032449
68.90794497920595
69.03939175838441
69.30990829025485
69.78670454161617
70.55583220711318
71.24396616899907
70.47657733242849
48.17406702547465
47.91518182776061
47.68239116253372
46.59882849506149
46.187353493581355
46.52161903277929
46.72756897690523
46.26444653659559
45.751020855683535
45.520395249520966
45.46918124454743
45.546007216241144
45.622862861065116
46.08460567220098
47.47563599124846
48.692521691650576
48.277686451387844
47.86343342641226
78.13749137473636
70.00895229657857
71.42131181382841
70.95927425881632
70.77921229040487
70.66581821277553
70.63682512674038
70.63839464234091
70.67329036813135
70.77732526156943
70.8849418935604
70.96743979535701
70.97387799005799
70.62684323716255
69.86771111026805
70.29051407115324
71.2794122525033
71.28750713631408
45.99198146571182
51.47855074617653
52.602198989836914
52.94215107247522
51.00877558135386
48.718467295726775
48.355424936528514
48.19996843566842
47.96693988041551
47.91518182776061
48.17406702547465
48.95207125419696
50.56538377666149
52.49761650458796
54.64252466329359
53.936185111123905
51.243579183884854
45.02860413975615
81.35775731309272
70.29797038582116
72.89805729360675
72.37055015715838
72.47897453874019
72.64847683736194
72.84010946218865
73.04378885886764
73.25772238997966
73.41305055216749
73.48297762468809
73.37237168318272
72.92833364764854
72.06443260102928
70.81453697683284
69.62915663109918
68.13535617325404
66.1575919800905
59.90593753724421
58.97273793680136
59.647017800125674
60.62954953170538
61.067827477625364
53.622248527420545
49.86201507281663
50.773992060002755
51.739726748238844
52.68064183259815
53.7007313826813
54.87793769984024
56.42009559210801
58.81692650360202
61.453826356237926
57.568004765424156
55.24407337307221
48.769131349217226
84.767340998973
71.0694107364586
74.17527243033443
73.70620649122968
74.13540347978149
74.62448289932763
75.15401042430885
75.64573002868138
76.09729530868589
76.42025319189315
76.60806508231364
76.47982024947835
75.9429592417014
74.89056727235507
73.35977218902059
71.42178565556466
68.8208187371557
65.62321427462211
63.51187982250883
63.45307330807841
65.08296556132686
67.35345205509631
68.97049893314981
69.77009268746758
70.54650641724521
71.19893533446094
71.92330009862916
72.33012044149024
72.42317142081112
72.53931033044596
72.67841912083273
72.81724470999248
72.60890000327629
71.06206960244737
69.45964382891255
67.8523023723375
67.03881498462306
87.84657333679851
72.37221746631228
75.13312977845712
74.78907102304446
75.56108246691849
76.39779259936994
77.25830905825391
78.08940256553134
78.82066780207958
79.41783248066733
79.7786651683686
79.77718483300917
79.37972054878892
78.52095503922071
77.25786685913081
75.59078596846182
73.63452825293876
71.72044651768653
70.48926700139849
70.0072448051598
70.3565148132397
71.03075254977233
71.47468583672693
71.68489740540628
71.89346874555564
72.17821523030172
72.52738528018185
72.98143517713184
73.41550225248714
73.55278468147469
73.73536807587857
73.89469423275835
73.98555454352862
73.84921402517021
73.6213152377008
73.27792631848678
71.26491843674475
69.23102479989056
67.8569437583162
69.09019456531449
90.27844598409754
74.14887196357509
76.19640480850299
75.74054740826358
76.66937507145079
77.8317597823021
78.99861841031043
80.168374459315
81.23067515469589
82.14896471078762
82.67596171226702
82.78274979320089
82.5245587175532
81.94030758872938
80.97271168871308
79.69139975028637
78.1511011303824
76.61846408501522
75.43082855683998
74.67430687249197
74.34989792823328
74.19121177684313
74.045539471993
73.84551570119808
73.63870252039113
73.51832151417715
73.45807588557324
73.4970551695341
73.62552455648876
73.83089876637655
74.06176637271176
74.27982288277161
74.49231908054007
74.62688144175684
74.9061672618231
75.22416218761626
75.01331095194323
74.5686629286844
71.90839451899436
68.83796806013888
92.02263859365372
77.49245929909583
79.6618742406481
77.4922928808457
77.91153344805304
79.2738491106467
80.77794689743018
82.23830118437832
83.16486946390184
84.13409801737313
84.84784355337176
84.99517583841703
84.78641740699112
84.47884977742066
83.9799606526357
83.2150847792299
82.22103523584141
81.13369765433089
80.12552646397909
79.28169954764941
78.62719415717496
77.90660780113589
77.227384839578
76.60339660270225
76.03728699526809
75.53135143278291
75.13209672704195
74.72955531229672
74.35660833599015
74.07500858545282
73.8549393424972
73.61925561996541
73.38575647937898
73.1157764388175
72.87546289833715
72.65711238193164
72.45347814439981
72.66334133205159
75.88381324245013
65.94325724858322
94.49479466534324
87.22848183466814
86.73332686979998
82.92088993403937
81.84867488889084
82.40712809016999
82.6494100112186
83.23779150163647
83.85339734785657
84.11822995911885
84.45316629458557
84.72495362444123
84.91063499378353
85.02145444526191
85.0302393808511
84.93411098209401
84.70232895033065
84.23974939602034
83.23779150163647
82.16298085768608
81.1485142727515
80.24358618362209
79.37761375026108
78.5758327261353
77.82224705422672
77.07749469303624
76.40814212326775
75.83988184458447
75.48713204573522
75.37642747845194
74.86062508220999
74.01653147879028
73.15624656738473
72.35956260771586
71.64956282433958
71.01803273216704
70.53632610809673
70.22895527254265
69.35730727807415
66.67581471701504
96.95505771463215
94.83062480588453
92.83627335759917
90.15566981336404
87.58853360846119
85.81284535620398
84.75806634196951
84.25346431046837
84.07787178260429
84.07539221515913
84.1712600398626
84.31839939620214
84.45887396306955
84.58717605399985
84.67679170718404
84.71927844419827
84.70469617746714
84.5962193900967
84.36945068370812
84.01676609083323
83.31053404551645
82.44452387869455
81.59249840633761
80.7381800670515
79.88341776246594
79.0300101649646
78.17969896463497
77.37680760537445
76.66831386177152
76.19031360347878
75.88381324245013
75.79591422654974
75.86185207497063
76.03728699526809
76.29934308920423
75.24354979500539
74.35262213842265
73.85205619190819
72.3674889703595
68.88793463476532
63.83444698051929
83.67145297027047
85.74806856187072
85.83726781931279
85.43259068976015
85.05588364642561
84.79958938633987
84.647780411028
84.51911487232464
84.44422320850838
84.38345224070034
84.35313596126151
84.3495082582815
84.33086506071523
84.29123090440743
84.20265442161782
84.03195143007736
83.7458689202718
83.35675605531624
82.90784962693077
82.3950576649499
81.84923061258839
81.29538186025052
80.73308513504718
80.1638410397309
79.2756828648403
78.43030546044041
77.6530586346968
77.01311360007628
76.53839542407805
76.25575889544133
75.96171163140573
75.86295740496124
75.87647687896994
75.72189364126932
75.1391362773139
72.11730483142348
70.48324603617124
67.59405797432967
83.00273447066303
85.20208540190036
85.45792194806475
85.14666484337796
84.80319137909531
84.53914619911467
84.32043686896354
84.17223695645191
84.06257068948325
83.97920836086449
83.91013749682419
83.86235798476037
83.8034174962923
83.72080243474167
83.5846018850014
83.40700441331214
83.16885738291046
82.83831101674846
82.46393245246936
82.0354988523107
81.56921099551718
81.04238201369174
80.47241258155277
79.85544306821751
79.20212211966307
78.48492644771976
77.69456082922376
76.87545097097089
76.00799025584271
75.15888204810409
74.39907018247203
73.78228661018002
73.31129527665725
73.11462994143153
73.14708542222144
71.6029256889796
70.45786961011257
73.27831268858961
71.80641406535845
71.32885735884264
83.2287498846903
85.13863642978187
84.89946194525965
84.39376297646169
83.97968525757949
83.70246812200084
83.49428716600586
83.35148775732283
83.25943201884608
83.19240796838584
83.08843194085324
82.94704646742913
82.7717959404155
82.51449730087829
82.17826310628037
81.81821374402989
81.43378148236006
81.04231595249777
80.63424475875296
80.25975252333633
79.86289290830403
79.45566871320464
79.03204728136488
78.54452691471542
78.03609424996607
77.48535864475409
76.85830749963193
76.17304603043524
75.42090802566517
74.63441042504606
73.88171515717008
73.242144384997
72.77708202705816
72.62957870231321
72.85329506946778
71.9262392381777
70.19454436671455
)
;

boundaryField
{
    ".*"
    {
        type            zeroGradient;
    }
}


// ************************************************************************* //
