/*--------------------------------*- C++ -*----------------------------------*\
  =========                 |
  \\      /  F ield         | OpenFOAM: The Open Source CFD Toolbox
   \\    /   O peration     | Website:  https://openfoam.org
    \\  /    A nd           | Version:  6
     \\/     M anipulation  |
\*---------------------------------------------------------------------------*/
FoamFile
{
    version     2.0;
    format      ascii;
    class       volVectorField;
    location    "2300";
    object      U;
}
// * * * * * * * * * * * * * * * * * * * * * * * * * * * * * * * * * * * * * //

dimensions      [0 1 -1 0 0 0 0];

internalField   nonuniform List<vector> 
458
(
(0.0963611 0.0648311 0)
(-0.131788 0.00182132 0)
(-0.114043 0.0058802 0)
(-0.128433 0.00682705 0)
(-0.142606 0.00583658 0)
(-0.155324 0.00400186 0)
(-0.165543 0.00159668 0)
(-0.172479 -0.00134047 0)
(-0.175406 -0.00485804 0)
(-0.173496 -0.0090696 0)
(-0.165327 -0.0143416 0)
(-0.148583 -0.021106 0)
(-0.12205 -0.0308157 0)
(-0.0941605 -0.0465181 0)
(-0.0946428 -0.0687368 0)
(0.0211742 0.0136544 0)
(-0.0367905 -0.0037956 0)
(-0.0292089 -0.00468052 0)
(-0.0285414 -0.00291087 0)
(-0.0271049 -0.0044578 0)
(-0.0204596 -0.00933398 0)
(-0.0124891 -0.0125184 0)
(-0.00323006 -0.00905741 0)
(0.00478574 -0.00670214 0)
(0.00946736 -0.00544087 0)
(0.0131749 -0.00459305 0)
(0.0159172 -0.00357619 0)
(0.0178186 -0.00151483 0)
(0.0176266 0.000684903 0)
(0.0174843 -0.000337107 0)
(0.0205144 -0.00677007 0)
(0.0344596 -0.00526494 0)
(-0.0167897 0.01338 0)
(0.292195 0.141997 0)
(-0.155997 0.0179232 0)
(-0.105368 0.0214488 0)
(-0.125514 0.0227647 0)
(-0.140912 0.0214788 0)
(-0.154385 0.0186628 0)
(-0.165344 0.0146723 0)
(-0.173265 0.00955063 0)
(-0.177539 0.00322604 0)
(-0.177441 -0.00441581 0)
(-0.172418 -0.0132232 0)
(-0.161816 -0.0232058 0)
(-0.146508 -0.0354278 0)
(-0.131423 -0.0516331 0)
(-0.119421 -0.0663536 0)
(-0.0896653 -0.0539512 0)
(-0.0431559 -0.0554263 0)
(-0.0161428 0.0507651 0)
(0.109409 0.0174147 0)
(0.0317205 0.0123492 0)
(0.00499778 0.00703273 0)
(-0.000895979 0.00566813 0)
(-0.00805788 0.00580376 0)
(-0.0103958 -0.00792138 0)
(-0.0125433 -0.0151257 0)
(-0.011254 -0.00943431 0)
(-0.00773258 -0.00602792 0)
(-0.00793381 -0.00457915 0)
(-0.00933593 -0.00306214 0)
(-0.0115975 4.03088e-05 0)
(-0.015845 0.00336621 0)
(-0.0175528 0.00140893 0)
(-0.0137966 -0.00831051 0)
(-0.0068573 -0.0168105 0)
(0.0158755 -0.0075624 0)
(-0.0962931 0.032575 0)
(0.456175 0.217624 0)
(-0.200744 0.0447085 0)
(-0.0878001 0.0411445 0)
(-0.115116 0.0383092 0)
(-0.130276 0.0346941 0)
(-0.143454 0.0293204 0)
(-0.154317 0.0222394 0)
(-0.162536 0.0134632 0)
(-0.167608 0.00301037 0)
(-0.16886 -0.00891635 0)
(-0.165998 -0.0220493 0)
(-0.159549 -0.0360957 0)
(-0.151103 -0.0510715 0)
(-0.143282 -0.0663574 0)
(-0.135015 -0.0773045 0)
(-0.120531 -0.0783896 0)
(-0.110105 -0.0845136 0)
(-0.130862 -0.081115 0)
(0.0327591 0.022429 0)
(-0.0364801 0.0142709 0)
(-0.0325888 0.0111677 0)
(-0.0250049 0.00481144 0)
(-0.023185 -0.0016411 0)
(0.016147 -0.00248933 0)
(-0.0138251 -0.014886 0)
(-0.0272424 -0.00954906 0)
(-0.0335149 -0.00658485 0)
(-0.0379231 -0.00475826 0)
(-0.0407561 -0.00335221 0)
(-0.0417772 -0.00221507 0)
(-0.0410387 -0.00181586 0)
(-0.0375858 -0.00436759 0)
(-0.0208323 -0.0105618 0)
(-0.0250519 -0.00455788 0)
(-0.0513277 0.00459293 0)
(-0.131539 0.0128885 0)
(0.589429 0.280925 0)
(-0.246863 0.0764844 0)
(-0.0648643 0.0615781 0)
(-0.100291 0.0539859 0)
(-0.113971 0.048395 0)
(-0.125578 0.041181 0)
(-0.135295 0.0320366 0)
(-0.142875 0.0207966 0)
(-0.147847 0.00736507 0)
(-0.149471 -0.00800286 0)
(-0.147536 -0.0243884 0)
(-0.143536 -0.0406943 0)
(-0.139333 -0.0561484 0)
(-0.136763 -0.0694995 0)
(-0.135588 -0.0781249 0)
(-0.135463 -0.0808503 0)
(-0.142631 -0.0783966 0)
(-0.160206 -0.0557672 0)
(-0.153662 0.00507285 0)
(-0.107552 0.0150791 0)
(-0.0986737 0.00893985 0)
(-0.0859051 0.00200318 0)
(-0.0812376 -0.00548709 0)
(-0.0797575 -0.0112719 0)
(-0.0761365 -0.00968631 0)
(-0.0661511 -0.00954163 0)
(-0.0562552 -0.0100513 0)
(-0.0460441 -0.0104883 0)
(-0.0355601 -0.0108984 0)
(-0.0248916 -0.0114241 0)
(-0.0139702 -0.0122151 0)
(-0.000644375 -0.013206 0)
(0.0153755 -0.0141219 0)
(0.0194207 -0.0167537 0)
(0.0289733 -0.00803982 0)
(0.0388095 0.000357804 0)
(-0.0234874 0.010173 0)
(0.695962 0.33333 0)
(-0.287096 0.109921 0)
(-0.0406488 0.0789727 0)
(-0.0824791 0.0673217 0)
(-0.0939734 0.0597563 0)
(-0.102639 0.0507451 0)
(-0.109757 0.0397455 0)
(-0.115209 0.0263585 0)
(-0.11855 0.0103144 0)
(-0.118698 -0.00804233 0)
(-0.115801 -0.0268461 0)
(-0.112083 -0.0439006 0)
(-0.109396 -0.0582217 0)
(-0.109057 -0.0691524 0)
(-0.111141 -0.0759305 0)
(-0.115728 -0.0787692 0)
(-0.123785 -0.0772468 0)
(-0.131724 -0.0652198 0)
(-0.130916 -0.0370476 0)
(-0.119025 -0.0144785 0)
(-0.104119 -0.00576208 0)
(-0.0917942 -0.00622413 0)
(-0.0839792 -0.00926116 0)
(-0.0789124 -0.0121761 0)
(-0.0739714 -0.0125604 0)
(-0.0679112 -0.013371 0)
(-0.0615222 -0.0140657 0)
(-0.0549541 -0.0146192 0)
(-0.0482574 -0.0151032 0)
(-0.0414431 -0.015777 0)
(-0.0343378 -0.0170124 0)
(-0.0263358 -0.0189869 0)
(-0.0169467 -0.0217286 0)
(-0.00660371 -0.0261705 0)
(0.010705 -0.025309 0)
(0.0400308 -0.0177447 0)
(0.0690177 0.000617086 0)
(0.115078 0.0185519 0)
(0.135212 0.0553704 0)
(-0.00497374 0.116257 0)
(0.767451 0.380312 0)
(-0.320498 0.140657 0)
(-0.0219906 0.0888067 0)
(-0.061373 0.0779272 0)
(-0.0707836 0.0681108 0)
(-0.0756053 0.0569878 0)
(-0.0785767 0.0443199 0)
(-0.0801775 0.0292694 0)
(-0.0800997 0.0110682 0)
(-0.076199 -0.0100321 0)
(-0.0710366 -0.0305927 0)
(-0.0668345 -0.0471266 0)
(-0.0649419 -0.0591862 0)
(-0.066041 -0.0670984 0)
(-0.0700355 -0.0711118 0)
(-0.0766385 -0.0714244 0)
(-0.085138 -0.0670847 0)
(-0.0922206 -0.0556595 0)
(-0.0936073 -0.0386393 0)
(-0.0887339 -0.0240899 0)
(-0.0809274 -0.0164632 0)
(-0.0738892 -0.0143483 0)
(-0.0690546 -0.0149873 0)
(-0.0659805 -0.0163073 0)
(-0.0635903 -0.0170735 0)
(-0.0612896 -0.0178556 0)
(-0.0591664 -0.0185324 0)
(-0.057335 -0.0189996 0)
(-0.0559047 -0.019341 0)
(-0.054925 -0.0199036 0)
(-0.0542656 -0.0212479 0)
(-0.0535333 -0.0239371 0)
(-0.0521443 -0.0284873 0)
(-0.0491042 -0.0351523 0)
(-0.0411444 -0.0424423 0)
(-0.0249624 -0.0504081 0)
(0.000745332 -0.0604996 0)
(0.0305926 -0.0584135 0)
(0.0933211 0.0110715 0)
(-0.05189 0.130521 0)
(0.786838 0.423161 0)
(-0.33787 0.14507 0)
(-0.00662014 0.0714416 0)
(-0.0256847 0.0859789 0)
(-0.0381531 0.0757639 0)
(-0.0409449 0.0590211 0)
(-0.0389487 0.043752 0)
(-0.0352799 0.0273061 0)
(-0.0299561 0.00684458 0)
(-0.0181571 -0.0172092 0)
(-0.0115873 -0.0371212 0)
(-0.00838516 -0.0509709 0)
(-0.008514 -0.0595978 0)
(-0.0118277 -0.0641504 0)
(-0.0179314 -0.0654721 0)
(-0.026268 -0.0640079 0)
(-0.0357218 -0.0592044 0)
(-0.0438594 -0.0500702 0)
(-0.0481724 -0.0382651 0)
(-0.0484012 -0.0277489 0)
(-0.0464247 -0.0210729 0)
(-0.0443652 -0.0179968 0)
(-0.0432791 -0.017179 0)
(-0.0432552 -0.017342 0)
(-0.0439644 -0.0176673 0)
(-0.0452469 -0.017973 0)
(-0.0472747 -0.0180104 0)
(-0.0503625 -0.0176437 0)
(-0.054917 -0.0170305 0)
(-0.0612674 -0.0167252 0)
(-0.0694387 -0.0175703 0)
(-0.0791731 -0.0203659 0)
(-0.089837 -0.0259025 0)
(-0.100492 -0.0349943 0)
(-0.109317 -0.0481007 0)
(-0.114361 -0.0655801 0)
(-0.113037 -0.0846697 0)
(-0.0969853 -0.0900374 0)
(-0.0275138 -0.0364094 0)
(-0.131613 0.208248 0)
(0.884962 0.447819 0)
(-0.155284 0.124157 0)
(0.0569365 0.0160924 0)
(0.0783074 0.0460184 0)
(0.0451293 0.0540763 0)
(0.0288722 0.0367769 0)
(0.030535 0.0200954 0)
(0.0369493 0.00434955 0)
(0.050447 -0.0144351 0)
(0.061129 -0.0307872 0)
(0.0639421 -0.0433314 0)
(0.0620961 -0.0518596 0)
(0.057157 -0.0566956 0)
(0.0499375 -0.0583987 0)
(0.0409734 -0.0575337 0)
(0.0306702 -0.0545832 0)
(0.019679 -0.0496707 0)
(0.0094487 -0.0425817 0)
(0.0017732 -0.0340817 0)
(-0.00281611 -0.0262412 0)
(-0.00529388 -0.0207937 0)
(-0.00720635 -0.0176307 0)
(-0.00935161 -0.016126 0)
(-0.0120065 -0.0155203 0)
(-0.0151552 -0.0151753 0)
(-0.0188142 -0.0146487 0)
(-0.0231977 -0.0134745 0)
(-0.0287572 -0.0112848 0)
(-0.0362723 -0.00806364 0)
(-0.0466679 -0.00436603 0)
(-0.0608302 -0.00139643 0)
(-0.0806713 -0.00117229 0)
(-0.106428 -0.00546939 0)
(-0.136777 -0.0145442 0)
(-0.168882 -0.0264793 0)
(-0.202076 -0.0391076 0)
(-0.233781 -0.0482571 0)
(-0.261289 -0.0425923 0)
(-0.322383 -0.00677216 0)
(-0.518856 0.0776788 0)
(1.01601 0.426033 0)
(0.487776 0.284696 0)
(0.459643 0.224677 0)
(0.404168 0.184727 0)
(0.316859 0.146969 0)
(0.254116 0.102679 0)
(0.221088 0.0631603 0)
(0.203469 0.0317669 0)
(0.189623 0.0058631 0)
(0.173006 -0.0153496 0)
(0.15697 -0.0305258 0)
(0.141863 -0.0400123 0)
(0.127439 -0.0448892 0)
(0.113499 -0.0462287 0)
(0.0999656 -0.0448726 0)
(0.0868286 -0.0414909 0)
(0.0741996 -0.0366496 0)
(0.0625368 -0.03087 0)
(0.0526221 -0.0248458 0)
(0.0449021 -0.019492 0)
(0.0390118 -0.0154388 0)
(0.0341331 -0.0127661 0)
(0.0296125 -0.0111941 0)
(0.0250915 -0.01032 0)
(0.0204733 -0.00970345 0)
(0.0157994 -0.00889854 0)
(0.0111725 -0.00739517 0)
(0.00672433 -0.00469504 0)
(0.00263013 -0.000527824 0)
(-0.00052123 0.00526234 0)
(-0.00456192 0.0117654 0)
(-0.00969821 0.0177374 0)
(-0.0167041 0.0210379 0)
(-0.0264971 0.0191264 0)
(-0.0448397 0.00868849 0)
(-0.0731028 -0.0111324 0)
(-0.0937036 -0.0387473 0)
(-0.097411 -0.0806737 0)
(-0.132548 -0.146639 0)
(-0.490176 -0.21703 0)
(-0.403306 0.17652 0)
(0.140169 0.183571 0)
(0.205505 0.145274 0)
(0.209664 0.104087 0)
(0.218337 0.0683183 0)
(0.223792 0.0394477 0)
(0.222565 0.0174211 0)
(0.215436 0.00116418 0)
(0.204439 -0.0111442 0)
(0.191167 -0.019832 0)
(0.176521 -0.0252316 0)
(0.161299 -0.0276816 0)
(0.146188 -0.0275524 0)
(0.131718 -0.0252591 0)
(0.118291 -0.0212897 0)
(0.106235 -0.0162519 0)
(0.0958292 -0.0109114 0)
(0.087175 -0.00610775 0)
(0.0800533 -0.00247188 0)
(0.0740047 -0.000197905 0)
(0.0685267 0.000919861 0)
(0.0632819 0.00118934 0)
(0.0581469 0.00102438 0)
(0.0531674 0.000882576 0)
(0.0485463 0.00125322 0)
(0.0446307 0.00258437 0)
(0.0421036 0.00499437 0)
(0.0407916 0.0086923 0)
(0.0410738 0.0135015 0)
(0.0428228 0.0182995 0)
(0.0454203 0.0216548 0)
(0.0482475 0.0224991 0)
(0.0503307 0.0197629 0)
(0.0525786 0.0131081 0)
(0.0573891 0.0040101 0)
(0.0681296 -0.00830319 0)
(0.125258 -0.0663966 0)
(-0.141843 -0.171534 0)
(-0.270069 0.18135 0)
(0.135483 0.134185 0)
(0.130584 0.089204 0)
(0.157813 0.0625339 0)
(0.189318 0.0378121 0)
(0.210181 0.0145528 0)
(0.219445 -0.00557982 0)
(0.220449 -0.0222374 0)
(0.21533 -0.0337062 0)
(0.205909 -0.0413753 0)
(0.193727 -0.0463006 0)
(0.180106 -0.0492877 0)
(0.166152 -0.0510096 0)
(0.152739 -0.0520338 0)
(0.140489 -0.052816 0)
(0.129765 -0.0536529 0)
(0.120664 -0.0546142 0)
(0.113037 -0.0555177 0)
(0.106557 -0.0560198 0)
(0.10088 -0.0557034 0)
(0.0957933 -0.0542411 0)
(0.0911683 -0.0521407 0)
(0.0869329 -0.0496961 0)
(0.0830726 -0.0470042 0)
(0.0797035 -0.0439883 0)
(0.0771678 -0.0404055 0)
(0.075792 -0.0356005 0)
(0.0760288 -0.0293741 0)
(0.0784675 -0.0224071 0)
(0.0832913 -0.0159274 0)
(0.0900229 -0.0112945 0)
(0.0976658 -0.00983001 0)
(0.104773 -0.0132815 0)
(0.110261 -0.0226413 0)
(0.110782 -0.0334853 0)
(0.103651 -0.0467648 0)
(0.138888 -0.0743834 0)
(-0.196876 -0.110796 0)
(0.169515 -0.174846 0)
(-0.232322 -0.0448065 0)
(-0.201666 0.168194 0)
(0.0666574 0.0960363 0)
(0.0611706 0.0798307 0)
(0.107404 0.0770606 0)
(0.150998 0.073798 0)
(0.179908 0.0719579 0)
(0.194335 0.0733725 0)
(0.197804 0.0783318 0)
(0.194332 0.083623 0)
(0.186528 0.0892833 0)
(0.176174 0.0956458 0)
(0.164609 0.102955 0)
(0.152947 0.111296 0)
(0.14211 0.120545 0)
(0.132787 0.130312 0)
(0.125398 0.139907 0)
(0.120058 0.148413 0)
(0.116584 0.154899 0)
(0.114582 0.158724 0)
(0.113589 0.159597 0)
(0.113183 0.157466 0)
(0.113094 0.153526 0)
(0.113121 0.148623 0)
(0.11318 0.14322 0)
(0.113317 0.137459 0)
(0.113722 0.131222 0)
(0.114757 0.124043 0)
(0.117005 0.115782 0)
(0.121048 0.10692 0)
(0.127143 0.0982865 0)
(0.13494 0.090615 0)
(0.143294 0.0842921 0)
(0.150211 0.0795092 0)
(0.152861 0.0760409 0)
(0.147157 0.0699961 0)
(0.130188 0.0612274 0)
(0.156577 0.0432361 0)
(-0.250216 0.0186232 0)
)
;

boundaryField
{
    floor
    {
        type            noSlip;
    }
    ceiling
    {
        type            noSlip;
    }
    sWall
    {
        type            noSlip;
    }
    nWall
    {
        type            noSlip;
    }
    sideWalls
    {
        type            empty;
    }
    glass1
    {
        type            noSlip;
    }
    glass2
    {
        type            noSlip;
    }
    sun
    {
        type            noSlip;
    }
    Table_master
    {
        type            noSlip;
    }
    Table_slave
    {
        type            noSlip;
    }
    inlet
    {
        type            fixedValue;
        value           uniform (0.1 0 0);
    }
    outlet
    {
        type            zeroGradient;
    }
}


// ************************************************************************* //
