/*--------------------------------*- C++ -*----------------------------------*\
  =========                 |
  \\      /  F ield         | OpenFOAM: The Open Source CFD Toolbox
   \\    /   O peration     | Website:  https://openfoam.org
    \\  /    A nd           | Version:  6
     \\/     M anipulation  |
\*---------------------------------------------------------------------------*/
FoamFile
{
    version     2.0;
    format      ascii;
    class       volScalarField;
    location    "2900";
    object      epsilon;
}
// * * * * * * * * * * * * * * * * * * * * * * * * * * * * * * * * * * * * * //

dimensions      [0 2 -3 0 0 0 0];

internalField   nonuniform List<scalar> 
458
(
0.000114828
0.000122649
9.16723e-05
0.000101292
0.000112789
0.000124463
0.000136211
0.00014824
0.000161
0.000175226
0.000188172
0.000199081
0.000207873
0.000215512
0.000221333
9.79131e-06
1.24057e-05
1.18128e-05
7.21152e-06
4.90026e-06
4.04856e-06
3.18366e-06
2.7528e-06
2.48791e-06
3.11434e-06
4.61755e-06
6.53036e-06
7.63e-06
1.03636e-05
1.7788e-05
2.8268e-05
3.03709e-05
1.76639e-05
0.000600733
0.0013983
0.000127435
7.78383e-05
7.95977e-05
8.43531e-05
8.98159e-05
9.64188e-05
0.000104867
0.000115968
0.000128699
0.000142824
0.000158307
0.000176057
0.000205049
0.000282829
0.000243158
9.10067e-05
1.93928e-05
4.80224e-05
3.53085e-05
2.20867e-05
1.16165e-05
5.97252e-06
4.01151e-06
3.93576e-06
5.04184e-06
7.75153e-06
1.22671e-05
1.85183e-05
2.77291e-05
3.88126e-05
4.80606e-05
5.45816e-05
7.75549e-05
2.95211e-05
0.00158398
0.00481973
0.0003433
9.32903e-05
8.28082e-05
8.76306e-05
9.48744e-05
0.000103807
0.000114533
0.000127086
0.000140527
0.000153379
0.000164952
0.000175474
0.000187227
0.000206332
0.000236714
0.000307952
0.000137617
0.000117626
6.53885e-05
5.19816e-05
4.50441e-05
1.91208e-05
6.13165e-06
7.48844e-06
1.13589e-05
1.67421e-05
2.44511e-05
3.60677e-05
5.56038e-05
9.50455e-05
8.48162e-05
8.69859e-05
9.99979e-05
8.21307e-05
0.00319946
0.0107737
0.000897742
0.000135169
9.40199e-05
9.87255e-05
0.000109332
0.000122482
0.000137736
0.000154739
0.000171755
0.000185721
0.000196045
0.000203672
0.000209823
0.000217308
0.000233717
0.000273755
0.000354292
0.000142422
8.24905e-05
6.72272e-05
6.65323e-05
7.48074e-05
9.9175e-05
9.92917e-05
0.000101404
0.000105465
0.000112404
0.000123583
0.000140938
0.000167501
0.000221691
0.00016202
0.000185921
0.000223862
0.000297748
0.00546574
0.0185488
0.00209101
0.000239982
0.000117015
0.000116393
0.000131045
0.000151261
0.000175731
0.000203574
0.000228705
0.000245366
0.000254458
0.000259134
0.000260427
0.000257156
0.000247074
0.000224666
0.000180583
0.000117293
8.54256e-05
7.14532e-05
6.70354e-05
6.72935e-05
6.9899e-05
7.30614e-05
7.85567e-05
8.72402e-05
0.000100254
0.00011919
0.000146031
0.000182775
0.000230871
0.000275454
0.000346725
0.000415319
0.000472204
0.000749582
0.000563667
0.000405874
0.00840699
0.0254744
0.00445223
0.000632405
0.000216717
0.000172391
0.000182884
0.000209182
0.000246285
0.000294461
0.000327405
0.000339587
0.000338648
0.000333782
0.000329481
0.000324832
0.000313488
0.000284114
0.000232856
0.000176039
0.000133819
0.000108797
9.6526e-05
9.16181e-05
9.08133e-05
9.30844e-05
9.9059e-05
0.000109752
0.000126795
0.000152513
0.0001897
0.00024097
0.000307736
0.000389229
0.000490081
0.000612185
0.000719354
0.000717532
0.000485506
0.000463448
0.0118292
0.0284909
0.00921808
0.00264955
0.000953391
0.000522778
0.000424222
0.000410536
0.000435695
0.000499911
0.000512629
0.000491786
0.00045707
0.000423277
0.000398163
0.000382561
0.000368937
0.000342709
0.000296677
0.000241728
0.000194016
0.000160726
0.000140896
0.000130582
0.000126565
0.000127574
0.000133849
0.000146422
0.000167035
0.000197989
0.000241688
0.000300065
0.000373547
0.000459779
0.000553054
0.000639828
0.000685784
0.000645611
0.000454676
0.000418692
0.0124723
0.0333505
0.0176323
0.0111371
0.00579564
0.00299347
0.00181549
0.00130929
0.00109162
0.00096705
0.000846823
0.000729824
0.000625077
0.000538411
0.000472457
0.000427398
0.000398646
0.000373418
0.000337704
0.00029232
0.000249177
0.00021514
0.000191973
0.000178228
0.000171901
0.000172136
0.000179507
0.000195817
0.00022395
0.000266721
0.000323893
0.000390833
0.000459429
0.000523273
0.000583949
0.000638094
0.000688187
0.000742209
0.000770714
0.000560551
0.0112148
0.0181135
0.0252748
0.0194751
0.0127983
0.00808875
0.00518441
0.00346263
0.002437
0.00176894
0.00133111
0.00103046
0.000816391
0.000660802
0.000547592
0.000467145
0.000412425
0.000375062
0.000344926
0.000315631
0.000287249
0.000262395
0.000243135
0.00023006
0.000222848
0.000221285
0.000225918
0.000238429
0.000262221
0.000300875
0.000357835
0.000439522
0.00055204
0.000699513
0.000844638
0.000962544
0.00107108
0.00128095
0.0017067
0.00083372
0.0535639
0.0682226
0.0254433
0.0129593
0.00750628
0.00471982
0.00316364
0.00222371
0.00161504
0.00120884
0.000930974
0.000736996
0.000599702
0.000502298
0.0004343
0.000388585
0.000359185
0.000340553
0.000327466
0.000317208
0.000308984
0.000302839
0.000298938
0.000297394
0.000298432
0.000302729
0.000312495
0.000327851
0.000351784
0.000386333
0.000431566
0.000482609
0.000529719
0.000558743
0.000565476
0.000526284
0.00069063
0.000809917
0.0430385
0.042801
0.0186009
0.0103247
0.00639571
0.00422788
0.00294185
0.00214072
0.00162258
0.00127464
0.00103512
0.000867713
0.000750514
0.000669964
0.00061733
0.000586395
0.000571918
0.000568592
0.000568067
0.000566542
0.000563022
0.000557776
0.0005511
0.00054272
0.000531727
0.000517334
0.000497601
0.000473664
0.000449408
0.000429965
0.000417454
0.000408723
0.000397241
0.000378239
0.000340149
0.000288856
0.000418991
0.000555258
0.00624316
0.0108913
0.0199574
0.0107018
0.00903448
0.00666211
0.00471431
0.00339506
0.00250071
0.00187665
0.00143749
0.00113201
0.000910012
0.000744946
0.000621461
0.000529967
0.000464025
0.00041897
0.000391064
0.000376914
0.000375719
0.000380847
0.000387748
0.000393939
0.000398502
0.000401517
0.000403615
0.000405819
0.000409813
0.000416085
0.00042381
0.000430301
0.00043069
0.00041761
0.000391159
0.00035824
0.000311861
0.000252612
0.000263368
0.000483312
)
;

boundaryField
{
    floor
    {
        Cmu             0.09;
        kappa           0.41;
        E               9.8;
        type            epsilonWallFunction;
        value           nonuniform List<scalar> 
36
(
0.000221333
9.79131e-06
1.24057e-05
1.18128e-05
7.21152e-06
4.90026e-06
4.04856e-06
3.18366e-06
2.7528e-06
2.48791e-06
3.11434e-06
4.61755e-06
6.53036e-06
7.63e-06
1.03636e-05
1.7788e-05
2.8268e-05
3.03709e-05
1.76639e-05
1.76639e-05
2.95211e-05
8.21307e-05
0.000297748
0.000749582
0.000563667
0.000405874
0.000221333
0.000282829
0.000243158
9.10067e-05
9.79131e-06
9.10067e-05
1.93928e-05
0.000307952
0.000137617
0.000354292
)
;
    }
    ceiling
    {
        Cmu             0.09;
        kappa           0.41;
        E               9.8;
        type            epsilonWallFunction;
        value           nonuniform List<scalar> 
43
(
0.00624316
0.0108913
0.0199574
0.0107018
0.00903448
0.00666211
0.00471431
0.00339506
0.00250071
0.00187665
0.00143749
0.00113201
0.000910012
0.000744946
0.000621461
0.000529967
0.000464025
0.00041897
0.000391064
0.000376914
0.000375719
0.000380847
0.000387748
0.000393939
0.000398502
0.000401517
0.000403615
0.000405819
0.000409813
0.000416085
0.00042381
0.000430301
0.00043069
0.00041761
0.000391159
0.00035824
0.000311861
0.000252612
0.000263368
0.000483312
0.0112148
0.0181135
0.0430385
)
;
    }
    sWall
    {
        Cmu             0.09;
        kappa           0.41;
        E               9.8;
        type            epsilonWallFunction;
        value           uniform 0.00624316;
    }
    nWall
    {
        Cmu             0.09;
        kappa           0.41;
        E               9.8;
        type            epsilonWallFunction;
        value           nonuniform List<scalar> 6(0.000405874 0.000463448 0.000418692 0.000809917 0.000555258 0.000483312);
    }
    sideWalls
    {
        type            empty;
    }
    glass1
    {
        Cmu             0.09;
        kappa           0.41;
        E               9.8;
        type            epsilonWallFunction;
        value           nonuniform List<scalar> 9(0.000114828 0.000600733 0.00158398 0.00319946 0.00546574 0.00840699 0.0118292 0.0124723 0.0112148);
    }
    glass2
    {
        Cmu             0.09;
        kappa           0.41;
        E               9.8;
        type            epsilonWallFunction;
        value           nonuniform List<scalar> 2(0.000560551 0.00083372);
    }
    sun
    {
        Cmu             0.09;
        kappa           0.41;
        E               9.8;
        type            epsilonWallFunction;
        value           nonuniform List<scalar> 
14
(
0.000114828
0.000122649
9.16723e-05
0.000101292
0.000112789
0.000124463
0.000136211
0.00014824
0.000161
0.000175226
0.000188172
0.000199081
0.000207873
0.000215512
)
;
    }
    Table_master
    {
        Cmu             0.09;
        kappa           0.41;
        E               9.8;
        type            epsilonWallFunction;
        value           nonuniform List<scalar> 9(1.91208e-05 6.13165e-06 7.48844e-06 1.13589e-05 1.67421e-05 2.44511e-05 3.60677e-05 5.56038e-05 9.50455e-05);
    }
    Table_slave
    {
        Cmu             0.09;
        kappa           0.41;
        E               9.8;
        type            epsilonWallFunction;
        value           nonuniform List<scalar> 9(9.9175e-05 9.92917e-05 0.000101404 0.000105465 0.000112404 0.000123583 0.000140938 0.000167501 0.000221691);
    }
    inlet
    {
        type            turbulentMixingLengthDissipationRateInlet;
        mixingLength    0.01;
        phi             phi;
        k               k;
        value           uniform 3.77337e-06;
    }
    outlet
    {
        type            zeroGradient;
    }
}


// ************************************************************************* //
