/*--------------------------------*- C++ -*----------------------------------*=========                 |
  \      /  F ield         | OpenFOAM: The Open Source CFD Toolbox
   \    /   O peration     | Website:  https://openfoam.org
    \  /    A nd           | Version:  6
     \/     M anipulation  |
\*---------------------------------------------------------------------------*/
FoamFile
{
    version     2.0;
    format      ascii;
    class       volScalarField;
    location    "2900";
    object      PPD;
}
// * * * * * * * * * * * * * * * * * * * * * * * * * * * * * * * * * * * * * //

dimensions      [0 0 0 0 0 0 0];

internalField   nonuniform List<scalar> 
458
(
77.87965143087008
70.29343997585462
71.08757128510632
70.83845607523939
70.57551638348822
70.35688058564051
70.2032546150528
70.12553646005364
70.1348110664762
70.24994269510574
70.48940953507315
70.91949870937285
71.6251842937299
72.2675860792879
71.4971817246832
49.936394249558205
49.49402460867655
49.31202113104019
48.63684015300395
48.37753015955716
48.61089937325078
48.79252935483553
48.79252935483553
48.01487412053158
47.62683139438085
47.523447832938785
47.54928990479716
47.57513452885056
48.09254786214989
49.70213664722594
51.08341600161835
50.61385423668262
50.01450984828493
78.9891906818489
70.96909963470512
72.43241935684088
72.07216279671013
71.95396604322458
71.8797804885837
71.84686256421384
71.82944943811864
71.88153588042209
71.93995456912374
72.01531596650152
72.05678624906346
72.01725128712775
71.65595068750686
70.8998669613152
71.3539160538877
72.40517378319336
71.81342709547603
47.02403932720221
52.572510383774265
53.880412217905366
54.586809610310226
52.886325238803735
50.61385423668262
50.37923530975811
50.37923530975811
50.19683512231869
50.01450984828493
50.22288778755913
51.0573186699039
52.80786472506787
54.822245674796946
57.06940989087659
56.312361653481524
53.514131091912574
46.82713930582433
82.16791574027192
71.4816477542362
74.07875402719813
73.56483062354096
73.65497388964829
73.82060053082233
74.0197237248822
74.19601462935253
74.3713387083248
74.50241319092025
74.53877254399059
74.3664837778432
73.90877373941632
73.010106253987
71.75136608843867
70.57442864285576
69.08823774227265
67.05648165248758
60.626635265909385
59.64402006411249
60.23921099944609
61.013428301865794
61.65657908969228
55.92044828098813
51.91901802403119
52.572510383774265
53.77575830988011
54.822245674796946
55.92044828098813
57.17375138146294
58.787881750329234
61.21944690622234
63.852444545153226
60.05820751507487
57.46057844894756
51.08188441068773
85.49763203975274
72.54480766594382
75.62119517466732
74.97794159384212
75.33154867592555
75.79089968817912
76.28613770453943
76.76229520880305
77.16903187345446
77.46315245889053
77.59153175280088
77.42770596394124
76.85849184428399
75.77814620815681
74.24528846639473
72.28297097270993
69.71128410569877
66.54097101454063
64.43260747879727
64.37670840485623
65.71668256654263
67.92940510931524
69.58784835197389
70.42380117600035
71.14777557724686
71.72193500144195
72.33569948588773
73.00016318487258
73.13833451493448
73.2991681283954
73.48249124562892
73.66529085740397
73.59680263678449
72.25843704468919
70.96533912040391
69.60231017184313
68.75457618173365
88.44739580915838
74.17881895702135
76.93824096225642
76.28071769925499
76.83396256694344
77.60197417425044
78.40222595298677
79.19876235158226
79.9169594276573
80.47675100164744
80.81550101334734
80.7804603337272
80.31304182600778
79.40607551077025
78.07072088701602
76.35019180716245
74.35719057992574
72.41575956188066
71.1246448125758
70.54297895167943
70.79097705603667
71.4827671385286
71.98490612895856
72.24098904251152
72.44838048769694
72.68779372344784
73.0258238436297
73.45880203742311
73.96410592575198
74.36861215187221
74.61622362683232
74.86279341334543
75.04145628134162
75.04145628134162
74.95219471638023
74.72843060619586
72.87374560021681
70.84483495973355
69.45195129194924
70.62714200563512
90.7645857800555
76.45701228550296
78.79813451644667
77.78304217795842
78.26836486852349
79.25026073041546
80.33762297810428
81.433191788806
82.46395860621597
83.36916311888822
83.8642831994634
83.93300856226047
83.62195074573519
82.94137255593276
81.8892383134686
80.51407225662253
78.88839628124975
77.27323752789417
76.00323851078541
75.20268485850846
74.84509204715286
74.69675363599323
74.5795690384727
74.41350308231483
74.2296973380237
74.12207591607452
74.06912021828947
74.13400400109201
74.28729812436475
74.5210630377256
74.80793621462905
75.07933293724797
75.31336273565121
75.50864777081775
75.76289143491003
76.06797155997484
75.98833125904933
75.72033695819145
73.19675093538864
70.30411336135532
92.53034147470247
80.43004294589431
83.61704479507058
80.95265172693695
80.35637196115204
81.42580963385277
82.49978297733826
83.3280249597097
84.22159366876573
85.15461475145536
85.80753842424907
86.1680551273541
86.10914192020087
85.73454924555125
85.11925927380776
84.23646739294009
83.10221137848451
81.88660630342227
80.76959804265789
79.85785422168601
79.15192944928576
78.38745689063902
77.7364826385055
77.1618954173804
76.64532236888891
76.188904333293
75.83843613367642
75.56136104898026
75.25628226901812
75.04678595115391
74.87942266838989
74.71732426486312
74.54895399507241
74.33778587990841
74.1328453071639
73.92638720371555
73.76158938191686
73.98168132796219
77.07617787563852
67.45950353715051
94.91521869026394
89.63747040715104
88.94792037345466
86.01014267852716
84.42489632206576
84.28214256906875
84.48808566920412
84.81256627934494
85.17425997976544
85.58094438277834
85.94351037695064
86.21138465818578
86.35482975908879
86.41553680098824
86.37460487914585
86.182808117127
85.79101735403833
84.8645002594177
83.79621468655466
82.7043246831243
81.70654582557503
80.79615872622998
79.98279010554752
79.21330840685478
78.49156505927415
77.82100800655869
77.20469711201913
76.68857702857113
76.36325910172846
76.27615540702233
76.23632934395293
75.44254153119708
74.62385701950066
73.8589467936548
73.20174435877358
72.58643467502525
72.10109734846006
71.772905208222
70.84998698958539
68.31091212937037
97.27395596113863
95.65143519386585
93.60069510558912
91.48425750361692
89.29207793352249
87.7635589025545
86.77195593373166
86.21856561661515
86.0135194224368
85.94749045343661
85.97718937703308
86.0625253484179
86.15158915339083
86.20646417411449
86.22101457868793
86.18841912981755
86.05098816638709
85.80638241654296
85.44506194867854
84.91593901232477
84.02744125948078
83.1641860375266
82.31267450675041
81.47636934475399
80.65854612434799
79.8622837926702
79.06994862250795
78.32487287790968
77.67298663305934
77.20469711201913
76.90428781795858
76.7965498300943
76.83967325490937
76.9688175143846
77.2474606783821
77.29391540359552
76.55348094124693
76.06277544736076
74.27687055937636
70.77087337880991
44.274017558693096
86.10728319951744
88.0819743084229
88.00928103754141
87.52956763225153
87.0974937486483
86.80861916446153
86.60574547187069
86.46409065562528
86.32812055115113
86.25052067376916
86.17728020585909
86.10566866318128
86.01506446121361
85.90106791616206
85.70477235585403
85.41383288952278
85.01510266716824
84.52240262465293
83.97619945676298
83.40180702184118
82.8238401059885
82.22748383938483
81.64826966241291
81.0401003842697
80.32218591570133
79.53911155234937
78.80239308243607
78.15754700308554
77.69416166655218
77.30128511573943
76.96655048691498
76.79734566796886
76.5398830501008
76.09753593166539
75.19148505593422
73.57690243096357
73.63113454382254
57.464749869341425
82.80825222459758
87.17079287652061
87.59654185826153
87.35903616050179
87.04300353691308
86.76926204069258
86.54031392523603
86.35989227152338
86.20869753600269
86.07709548566925
85.95351878601024
85.84465948670083
85.70485371304369
85.56082911298346
85.35340557150536
85.09766062970768
84.7771063711693
84.39955378994406
83.94193164647682
83.45579724654301
82.90303455190511
82.32171419877051
81.69284310002547
81.05325033967841
80.3560585243567
79.63923147150146
78.85907478654136
78.05759207882404
77.24880421499432
76.46795241376145
75.80029157891238
75.2684806655262
74.90833169204203
74.68696421088367
74.21991887042327
73.13409332842072
75.22936636186594
66.98721665916922
66.5257888498717
63.58696881677062
81.91732362529086
87.60049528526837
87.53801833611007
87.12805601808222
86.68484503562786
86.33515595092224
86.0538897222166
85.84806464361307
85.6697712167045
85.4914200661025
85.31039851487714
85.07466774887712
84.79366673285506
84.46749121071913
84.1240462479334
83.73886908563149
83.34397228784647
82.93964512756881
82.55582937123282
82.14232518041399
81.7122293092869
81.24059630984357
80.74600105072177
80.20650109926763
79.6432472366456
79.0364554325692
78.37795136864457
77.69620800234036
76.950982426108
76.25407728604418
75.6053858757562
75.13692767912666
74.90162709136877
75.0983027042819
75.4628916530773
75.69645144041154
68.44752830892092
)
;

boundaryField
{
    ".*"
    {
        type            zeroGradient;
    }
}


// ************************************************************************* //
