// -*- C++ -*-
// File generated by PyFoam - sorry for the ugliness

FoamFile
{
 version 2.0;
 format ascii;
 class volVectorField;
 location "300";
 object U;
}

dimensions [ 0 1 -1 0 0 0 0 ];

internalField nonuniform List<vector> 458
(
  (0.103181 0.0695915 0)
  (-0.141226 0.00187122 0)
  (-0.122095 0.00604186 0)
  (-0.137118 0.00704689 0)
  (-0.151913 0.00603521 0)
  (-0.165215 0.00414738 0)
  (-0.175932 0.00165317 0)
  (-0.183215 -0.0014193 0)
  (-0.186257 -0.00513027 0)
  (-0.184126 -0.00961029 0)
  (-0.175161 -0.015249 0)
  (-0.156856 -0.0224787 0)
  (-0.128191 -0.0327964 0)
  (-0.0991547 -0.0493221 0)
  (-0.1035 -0.0720554 0)
  (0.0461323 0.00870868 0)
  (-0.0238365 -0.00995134 0)
  (-0.007381 -0.0115321 0)
  (0.0013953 -0.00098643 0)
  (0.00302406 0.0108884 0)
  (-0.0110872 0.0081228 0)
  (-0.0197544 -0.000767345 0)
  (-0.0225707 -0.00473052 0)
  (-0.0202766 -0.0056481 0)
  (-0.0168 -0.00638441 0)
  (-0.011911 -0.00763308 0)
  (-0.00565103 -0.00995106 0)
  (0.0109514 -0.0150078 0)
  (0.018123 -0.0141813 0)
  (0.0289805 -0.00906377 0)
  (0.0348666 -0.00907352 0)
  (0.0455728 -0.00467248 0)
  (-0.0258525 0.0195113 0)
  (0.311605 0.152588 0)
  (-0.166815 0.0195134 0)
  (-0.11362 0.022709 0)
  (-0.1352 0.0239368 0)
  (-0.151705 0.022562 0)
  (-0.166182 0.0196399 0)
  (-0.178025 0.015482 0)
  (-0.186658 0.010093 0)
  (-0.191398 0.00336823 0)
  (-0.191411 -0.00485009 0)
  (-0.185987 -0.0144263 0)
  (-0.174298 -0.025291 0)
  (-0.157273 -0.0383261 0)
  (-0.140141 -0.0548594 0)
  (-0.125559 -0.0677195 0)
  (-0.0914066 -0.0479832 0)
  (-0.0354705 -0.0469376 0)
  (-0.0467066 0.0761611 0)
  (0.120756 0.00337808 0)
  (0.0386287 -2.27086e-05 0)
  (0.0167163 -0.00389495 0)
  (0.019285 -0.00390137 0)
  (0.0316121 0.00688707 0)
  (0.0327438 0.015755 0)
  (0.0259954 0.0119127 0)
  (0.0214208 0.00553764 0)
  (0.0169576 0.000211291 0)
  (0.0136132 -0.00356681 0)
  (0.0118838 -0.00645938 0)
  (0.0114789 -0.00993305 0)
  (0.0146957 -0.0149048 0)
  (0.00645983 -0.0152682 0)
  (0.0159628 -0.00785637 0)
  (0.0215353 -0.0119332 0)
  (0.0369554 -0.0036984 0)
  (-0.0865105 0.0434655 0)
  (0.485839 0.234067 0)
  (-0.214021 0.0488884 0)
  (-0.0949999 0.0441061 0)
  (-0.124372 0.040784 0)
  (-0.140949 0.0369384 0)
  (-0.155548 0.0313472 0)
  (-0.167785 0.023927 0)
  (-0.177267 0.0146238 0)
  (-0.183413 0.00342437 0)
  (-0.185443 -0.00951044 0)
  (-0.182876 -0.0240021 0)
  (-0.176173 -0.0397164 0)
  (-0.166984 -0.0563587 0)
  (-0.15807 -0.0729198 0)
  (-0.148171 -0.0843535 0)
  (-0.131887 -0.0851708 0)
  (-0.123039 -0.090692 0)
  (-0.157071 -0.0860366 0)
  (0.0454022 0.0085984 0)
  (-0.0473544 0.0028648 0)
  (-0.0418487 -0.00471281 0)
  (-0.0326754 -0.0172008 0)
  (-0.0281388 -0.0259282 0)
  (0.0371329 0.00943017 0)
  (0.0408714 0.00896311 0)
  (0.0439863 0.00546007 0)
  (0.046953 0.00252418 0)
  (0.0471233 8.90385e-05 0)
  (0.044043 -0.00237059 0)
  (0.0379773 -0.00548578 0)
  (0.027934 -0.0102831 0)
  (-0.0049448 -0.00951869 0)
  (0.0259789 -0.000551975 0)
  (0.0129272 0.0122338 0)
  (-0.0332144 0.0251146 0)
  (-0.172746 0.0386829 0)
  (0.627363 0.302397 0)
  (-0.262722 0.0836828 0)
  (-0.0697721 0.0662223 0)
  (-0.107476 0.0578863 0)
  (-0.122513 0.0521281 0)
  (-0.135685 0.0447928 0)
  (-0.147068 0.0353197 0)
  (-0.156301 0.0234617 0)
  (-0.162848 0.00910625 0)
  (-0.16591 -0.00754745 0)
  (-0.164807 -0.0257417 0)
  (-0.160994 -0.0442626 0)
  (-0.156287 -0.0617043 0)
  (-0.152677 -0.0761645 0)
  (-0.150014 -0.0847538 0)
  (-0.148284 -0.0867416 0)
  (-0.1548 -0.0831516 0)
  (-0.173094 -0.0571673 0)
  (-0.165315 0.0116858 0)
  (-0.120572 0.00667945 0)
  (-0.110251 -0.00203173 0)
  (-0.0966646 -0.0135665 0)
  (-0.0941964 -0.0238145 0)
  (-0.0996947 -0.0283267 0)
  (-0.0962653 -0.0168478 0)
  (-0.0781444 -0.0154271 0)
  (-0.0600013 -0.0172602 0)
  (-0.0398954 -0.0205537 0)
  (-0.0179944 -0.0249928 0)
  (0.0148425 -0.0293784 0)
  (0.0443776 -0.0293009 0)
  (0.0740908 -0.0264351 0)
  (0.100481 -0.0204882 0)
  (0.111689 -0.00776613 0)
  (0.10269 0.0194468 0)
  (0.0850952 0.0396218 0)
  (-0.0286974 0.0552859 0)
  (0.739778 0.359059 0)
  (-0.305161 0.120068 0)
  (-0.0425668 0.0844027 0)
  (-0.0858793 0.0722151 0)
  (-0.0985011 0.064812 0)
  (-0.108717 0.0559873 0)
  (-0.117662 0.044796 0)
  (-0.12503 0.0307679 0)
  (-0.130391 0.0136637 0)
  (-0.132796 -0.00625015 0)
  (-0.131268 -0.0274904 0)
  (-0.128096 -0.047671 0)
  (-0.125061 -0.064809 0)
  (-0.123674 -0.077446 0)
  (-0.124227 -0.0846271 0)
  (-0.127076 -0.0869982 0)
  (-0.133348 -0.084684 0)
  (-0.138977 -0.071511 0)
  (-0.135643 -0.0418272 0)
  (-0.122173 -0.0218242 0)
  (-0.106869 -0.0164425 0)
  (-0.0953409 -0.0200659 0)
  (-0.0898392 -0.0250642 0)
  (-0.0869847 -0.0271512 0)
  (-0.0809054 -0.0234066 0)
  (-0.0700714 -0.0238036 0)
  (-0.0569284 -0.0268322 0)
  (-0.0416552 -0.032019 0)
  (-0.024257 -0.0388194 0)
  (-0.00358636 -0.0448611 0)
  (0.0201651 -0.0470267 0)
  (0.0445611 -0.0439065 0)
  (0.0686174 -0.032528 0)
  (0.09014 -0.00974785 0)
  (0.10749 0.0239283 0)
  (0.1224 0.0518896 0)
  (0.109356 0.0690687 0)
  (0.148831 0.0900862 0)
  (0.147474 0.115875 0)
  (-0.0814197 0.172173 0)
  (0.812887 0.409797 0)
  (-0.339793 0.15267 0)
  (-0.0215927 0.0921204 0)
  (-0.058353 0.0832517 0)
  (-0.0689781 0.0745889 0)
  (-0.075798 0.0639705 0)
  (-0.0809799 0.0512771 0)
  (-0.0847308 0.0357189 0)
  (-0.0870399 0.0166194 0)
  (-0.0864817 -0.00603793 0)
  (-0.0828695 -0.0298673 0)
  (-0.0793941 -0.0506556 0)
  (-0.0774457 -0.0664232 0)
  (-0.0778907 -0.0766307 0)
  (-0.0807837 -0.0813899 0)
  (-0.0859894 -0.0812334 0)
  (-0.0928427 -0.0756898 0)
  (-0.0978617 -0.0629516 0)
  (-0.0970761 -0.04573 0)
  (-0.0906834 -0.0326257 0)
  (-0.0824106 -0.0270847 0)
  (-0.0759263 -0.027233 0)
  (-0.0723356 -0.0293654 0)
  (-0.0699514 -0.0307665 0)
  (-0.0662431 -0.0309333 0)
  (-0.0604165 -0.0331849 0)
  (-0.0530762 -0.0378209 0)
  (-0.0444102 -0.0446284 0)
  (-0.0345187 -0.0529735 0)
  (-0.0232796 -0.0611541 0)
  (-0.0102943 -0.0667021 0)
  (0.00586133 -0.0668364 0)
  (0.0242282 -0.0574345 0)
  (0.0457947 -0.0346829 0)
  (0.0750931 0.00263835 0)
  (0.103172 0.0355254 0)
  (0.11844 0.0425429 0)
  (0.127859 0.0244995 0)
  (0.134235 0.0457836 0)
  (-0.0972093 0.14385 0)
  (0.834442 0.456403 0)
  (-0.355137 0.153769 0)
  (-0.00322597 0.0628509 0)
  (-0.00962169 0.0890764 0)
  (-0.0238789 0.0875123 0)
  (-0.0318247 0.070133 0)
  (-0.0340586 0.0533674 0)
  (-0.0334391 0.0360581 0)
  (-0.0313371 0.0151892 0)
  (-0.0242775 -0.0100714 0)
  (-0.0181036 -0.0349161 0)
  (-0.0153505 -0.0540647 0)
  (-0.0158337 -0.0669262 0)
  (-0.0193632 -0.0741389 0)
  (-0.025458 -0.076561 0)
  (-0.0334473 -0.0749339 0)
  (-0.0421328 -0.0691421 0)
  (-0.0490855 -0.0588369 0)
  (-0.0521272 -0.0466057 0)
  (-0.0513817 -0.0367999 0)
  (-0.0491802 -0.0314762 0)
  (-0.0475799 -0.030022 0)
  (-0.0473196 -0.0306003 0)
  (-0.0477409 -0.0317449 0)
  (-0.0478119 -0.0333877 0)
  (-0.0472996 -0.0367406 0)
  (-0.0465955 -0.0422076 0)
  (-0.0459848 -0.0497916 0)
  (-0.0456411 -0.05895 0)
  (-0.0454838 -0.0683347 0)
  (-0.0449165 -0.0759592 0)
  (-0.0427502 -0.0792158 0)
  (-0.037506 -0.0748504 0)
  (-0.0271506 -0.0600352 0)
  (-0.00761589 -0.0333994 0)
  (0.0316744 -0.00308375 0)
  (0.0602368 0.000887984 0)
  (0.0841433 -0.00854401 0)
  (0.120161 0.0464466 0)
  (-0.101483 0.204781 0)
  (0.937148 0.478266 0)
  (-0.139278 0.137662 0)
  (0.0736251 -0.00380113 0)
  (0.113257 0.0383049 0)
  (0.082029 0.0658141 0)
  (0.0558645 0.0551008 0)
  (0.0473304 0.0361302 0)
  (0.0474547 0.0184335 0)
  (0.0504406 -0.00267454 0)
  (0.0610341 -0.0237923 0)
  (0.0649204 -0.0413595 0)
  (0.0629179 -0.0545615 0)
  (0.0569767 -0.0631712 0)
  (0.0482549 -0.0674691 0)
  (0.0376244 -0.0680176 0)
  (0.0258739 -0.0654684 0)
  (0.0139736 -0.0601874 0)
  (0.00349564 -0.0523265 0)
  (-0.00406238 -0.0431788 0)
  (-0.00823287 -0.0357785 0)
  (-0.0109402 -0.031124 0)
  (-0.0134985 -0.0291581 0)
  (-0.0165645 -0.0290099 0)
  (-0.0200884 -0.0298335 0)
  (-0.0238726 -0.0314886 0)
  (-0.0282312 -0.0344652 0)
  (-0.0337757 -0.0390589 0)
  (-0.0411666 -0.0453767 0)
  (-0.0510653 -0.0530359 0)
  (-0.06398 -0.0611295 0)
  (-0.0796534 -0.0684193 0)
  (-0.0967147 -0.07301 0)
  (-0.112845 -0.0722073 0)
  (-0.125073 -0.0632802 0)
  (-0.129925 -0.0442829 0)
  (-0.12572 -0.0152315 0)
  (-0.119355 0.0213289 0)
  (-0.109076 0.0716665 0)
  (-0.141985 0.158153 0)
  (-0.540419 0.280988 0)
  (1.07652 0.438918 0)
  (0.512307 0.288015 0)
  (0.508381 0.220604 0)
  (0.475703 0.193557 0)
  (0.381689 0.16952 0)
  (0.300397 0.1311 0)
  (0.252317 0.0899047 0)
  (0.224581 0.053676 0)
  (0.20779 0.022878 0)
  (0.189484 -0.00411665 0)
  (0.170744 -0.0255212 0)
  (0.152557 -0.0406523 0)
  (0.134757 -0.0499776 0)
  (0.11723 -0.0544646 0)
  (0.100133 -0.0551591 0)
  (0.0837788 -0.0530209 0)
  (0.0685698 -0.0488582 0)
  (0.0551209 -0.0433892 0)
  (0.0441205 -0.0375529 0)
  (0.0356869 -0.0324861 0)
  (0.0289764 -0.0289383 0)
  (0.0231004 -0.0271038 0)
  (0.017422 -0.0266285 0)
  (0.0116186 -0.0269422 0)
  (0.00543326 -0.0276777 0)
  (-0.00197179 -0.0289712 0)
  (-0.0111604 -0.030959 0)
  (-0.0230744 -0.0335925 0)
  (-0.0393263 -0.0363881 0)
  (-0.0623115 -0.0387687 0)
  (-0.0938725 -0.0404047 0)
  (-0.134229 -0.0402953 0)
  (-0.181863 -0.0362371 0)
  (-0.233646 -0.026047 0)
  (-0.284206 -0.00911671 0)
  (-0.33154 0.00999969 0)
  (-0.370112 0.022196 0)
  (-0.400541 0.0175197 0)
  (-0.459106 -0.00996283 0)
  (-0.678648 -0.063554 0)
  (-0.412363 0.0717043 0)
  (0.166653 0.174309 0)
  (0.241367 0.171895 0)
  (0.233069 0.141576 0)
  (0.23357 0.102859 0)
  (0.236185 0.0651679 0)
  (0.234926 0.0332288 0)
  (0.229102 0.00819676 0)
  (0.217363 -0.0108853 0)
  (0.201427 -0.0240848 0)
  (0.183121 -0.032285 0)
  (0.163895 -0.0364252 0)
  (0.144904 -0.0374468 0)
  (0.126999 -0.0362313 0)
  (0.110728 -0.0335817 0)
  (0.0964115 -0.0302381 0)
  (0.0841816 -0.0268929 0)
  (0.0739041 -0.0240876 0)
  (0.0651633 -0.0220149 0)
  (0.0574849 -0.020621 0)
  (0.0504518 -0.0197092 0)
  (0.043714 -0.01903 0)
  (0.0368943 -0.0183637 0)
  (0.0294562 -0.0176794 0)
  (0.0210894 -0.0170338 0)
  (0.0120013 -0.0163206 0)
  (0.00196986 -0.0149017 0)
  (-0.010311 -0.0120462 0)
  (-0.0251761 -0.00815058 0)
  (-0.041698 -0.00363938 0)
  (-0.0574816 0.00250981 0)
  (-0.0722693 0.0116995 0)
  (-0.0908424 0.0258158 0)
  (-0.110578 0.0461213 0)
  (-0.123601 0.0661554 0)
  (-0.110221 0.0656148 0)
  (0.0680472 -0.0209299 0)
  (-0.250858 -0.26442 0)
  (-0.21199 0.229737 0)
  (0.0942733 0.167325 0)
  (0.0928544 0.13168 0)
  (0.124025 0.114396 0)
  (0.1604 0.087609 0)
  (0.188897 0.0603804 0)
  (0.20539 0.0394977 0)
  (0.210867 0.0263163 0)
  (0.208154 0.0194683 0)
  (0.199889 0.0151706 0)
  (0.188169 0.0128485 0)
  (0.174471 0.0124568 0)
  (0.159958 0.0139486 0)
  (0.145587 0.0172201 0)
  (0.132094 0.0220505 0)
  (0.119991 0.0279963 0)
  (0.109542 0.0342588 0)
  (0.100723 0.039718 0)
  (0.0932274 0.0433401 0)
  (0.0865937 0.0446617 0)
  (0.080353 0.04399 0)
  (0.0741437 0.0422098 0)
  (0.0677466 0.0403143 0)
  (0.06105 0.0386005 0)
  (0.0541059 0.0362067 0)
  (0.0472141 0.0325558 0)
  (0.0406306 0.0299098 0)
  (0.0344415 0.0310928 0)
  (0.0288475 0.0344873 0)
  (0.0246538 0.0351368 0)
  (0.0212645 0.0355371 0)
  (0.0202607 0.0392241 0)
  (0.0230038 0.0475385 0)
  (0.0304723 0.057875 0)
  (0.0425986 0.0614344 0)
  (0.0679437 0.0371943 0)
  (0.132935 -0.0360869 0)
  (-0.174399 -0.166815 0)
  (-0.117888 -0.339121 0)
  (-0.4109 -0.0936447 0)
  (-0.318127 0.138206 0)
  (-0.142644 0.0461926 0)
  (-0.0794411 0.0303845 0)
  (0.0213712 0.0305152 0)
  (0.0891971 0.00731264 0)
  (0.139802 -0.0161834 0)
  (0.172905 -0.0370048 0)
  (0.19005 -0.0553909 0)
  (0.195696 -0.072278 0)
  (0.193996 -0.0864137 0)
  (0.187434 -0.098594 0)
  (0.177866 -0.109765 0)
  (0.166772 -0.120596 0)
  (0.155323 -0.131514 0)
  (0.144392 -0.142673 0)
  (0.134549 -0.153861 0)
  (0.126045 -0.164465 0)
  (0.118792 -0.173605 0)
  (0.112401 -0.180492 0)
  (0.106324 -0.184836 0)
  (0.100069 -0.186964 0)
  (0.0933905 -0.187547 0)
  (0.0864017 -0.187179 0)
  (0.0794851 -0.186114 0)
  (0.0728482 -0.184291 0)
  (0.0661119 -0.18132 0)
  (0.0590828 -0.176201 0)
  (0.0533567 -0.168315 0)
  (0.0517106 -0.158993 0)
  (0.0544389 -0.144419 0)
  (0.0613804 -0.128084 0)
  (0.0735804 -0.10708 0)
  (0.0930934 -0.0828136 0)
  (0.119819 -0.0630528 0)
  (0.148603 -0.0577938 0)
  (0.173964 -0.0769133 0)
  (0.191872 -0.109869 0)
  (-0.121538 -0.173565 0)
)
;

boundaryField
{
  floor
  {
    type noSlip;
  }
  ceiling
  {
    type noSlip;
  }
  sWall
  {
    type noSlip;
  }
  nWall
  {
    type noSlip;
  }
  sideWalls
  {
    type empty;
  }
  glass1
  {
    type noSlip;
  }
  glass2
  {
    type noSlip;
  }
  sun
  {
    type noSlip;
  }
  Table_master
  {
    type noSlip;
  }
  Table_slave
  {
    type noSlip;
  }
  inlet
  {
    type fixedValue;
    value uniform (0.707107 -0.707107 0);
  }
  outlet
  {
    type zeroGradient;
  }
} 	// ************************************************************************* //

