/*--------------------------------*- C++ -*----------------------------------*\
  =========                 |
  \\      /  F ield         | OpenFOAM: The Open Source CFD Toolbox
   \\    /   O peration     | Website:  https://openfoam.org
    \\  /    A nd           | Version:  6
     \\/     M anipulation  |
\*---------------------------------------------------------------------------*/
FoamFile
{
    version     2.0;
    format      ascii;
    class       volScalarField;
    location    "800";
    object      k;
}
// * * * * * * * * * * * * * * * * * * * * * * * * * * * * * * * * * * * * * //

dimensions      [0 2 -2 0 0 0 0];

internalField   nonuniform List<scalar> 
458
(
0.00518633
0.0105775
0.0098146
0.00907697
0.00848184
0.00799265
0.00757459
0.00720417
0.00686231
0.00653164
0.00619652
0.00583969
0.00543657
0.00493932
0.0043304
8.38249e-05
9.35021e-05
9.71844e-05
9.24869e-05
9.03914e-05
8.75773e-05
7.79105e-05
5.81229e-05
4.57806e-05
4.01624e-05
3.85418e-05
4.18597e-05
4.18575e-05
6.99595e-05
9.92012e-05
0.000137385
0.000132892
0.000112156
0.0127733
0.0132143
0.0119771
0.0104258
0.00922865
0.00840094
0.00779903
0.00732403
0.0069208
0.00656315
0.00623391
0.00591382
0.00556328
0.00509242
0.00440523
0.00403737
0.00335459
0.00222748
0.000161135
0.000228149
0.000231443
0.00024807
0.000260287
0.000231103
0.000176586
0.000126492
8.51582e-05
6.27213e-05
5.49796e-05
7.43044e-05
8.65646e-05
0.000192437
0.000355761
0.000393632
0.000389121
0.000185021
0.0154411
0.0166588
0.0133043
0.0103515
0.00870134
0.0078428
0.00738478
0.00710375
0.00682883
0.00652826
0.00619478
0.00583366
0.00544404
0.00498196
0.00446455
0.004216
0.00372283
0.00261103
0.000455864
0.000617795
0.000427921
0.000373509
0.000343673
0.000233463
0.000176966
0.000138063
0.000108404
8.46101e-05
7.43105e-05
0.000140815
0.000243771
0.000411602
0.000761417
0.000842617
0.00102915
0.000528898
0.0168815
0.0197019
0.0128301
0.00828688
0.00653726
0.00594782
0.00585285
0.00592843
0.00599216
0.00594476
0.00577606
0.00551314
0.00518514
0.00478767
0.00439322
0.00421078
0.0038198
0.0030223
0.00155868
0.00119897
0.000575629
0.000486057
0.000462049
0.000450917
0.000455083
0.000513046
0.000574643
0.000636889
0.000695202
0.000755634
0.00082626
0.000921748
0.00109226
0.00155521
0.00169092
0.00154704
0.00104229
0.0180249
0.0218951
0.0107434
0.00591985
0.0051276
0.00516761
0.00544992
0.00567953
0.00570769
0.00557507
0.00536255
0.00510835
0.00481877
0.00447828
0.0041666
0.00402215
0.00369578
0.00316358
0.00179245
0.000972861
0.000726694
0.000703354
0.000741495
0.00081741
0.000925708
0.00105666
0.0011821
0.0013024
0.00142625
0.00156277
0.00172276
0.00191671
0.00214872
0.0023943
0.00263472
0.00282504
0.00264069
0.00215908
0.0016866
0.00128931
0.0191523
0.0228131
0.00888011
0.00476782
0.0050618
0.00499823
0.00513132
0.00524873
0.00523047
0.005045
0.00483139
0.00460982
0.00436777
0.00408316
0.00384994
0.00373234
0.00343959
0.00306499
0.00196427
0.00119251
0.000954505
0.000964669
0.00104922
0.00116673
0.00130587
0.00145588
0.00160597
0.00175359
0.00190483
0.00206999
0.00226214
0.00249295
0.00276427
0.00306151
0.00337227
0.00368023
0.00385403
0.00352634
0.00239925
0.00149056
0.0205391
0.0223206
0.0103219
0.00479187
0.00484649
0.0044406
0.0043764
0.00441556
0.00443001
0.004346
0.00422041
0.0040691
0.00389195
0.00369182
0.00353045
0.00340528
0.00316912
0.00291403
0.00205542
0.00136128
0.00120397
0.00129931
0.00144987
0.00160839
0.00177092
0.00193957
0.00211186
0.00228662
0.00246855
0.00266474
0.00288197
0.00312378
0.00338444
0.00364545
0.00387795
0.0040273
0.00397371
0.0035954
0.00293629
0.00149746
0.0225532
0.0244168
0.0172488
0.00545957
0.00420085
0.00361132
0.00349965
0.00355861
0.00363941
0.00366832
0.00364179
0.00357579
0.00348006
0.00336499
0.00325329
0.0031257
0.00294703
0.0027686
0.00210766
0.00158206
0.00162443
0.00187517
0.00212808
0.00233267
0.00250208
0.0026649
0.00283565
0.00302547
0.00324965
0.00352177
0.0038453
0.00421096
0.00458431
0.00490713
0.00512419
0.00521664
0.00523708
0.0052094
0.00525141
0.00352892
0.026265
0.0333581
0.0387903
0.0107827
0.0040289
0.0032076
0.00302192
0.00303209
0.0030874
0.00316828
0.00321654
0.00323274
0.00321977
0.00317813
0.00310414
0.00298248
0.0028323
0.00269023
0.00224001
0.00208574
0.00253059
0.00308225
0.00351657
0.00375338
0.00385514
0.0039138
0.0039832
0.00409595
0.00426997
0.00450158
0.0047986
0.00517947
0.00566349
0.00628525
0.00710819
0.00811709
0.00875988
0.00852539
0.0107353
0.00456005
0.0705853
0.0186282
0.00569969
0.00374384
0.00331224
0.00322716
0.00326402
0.00331832
0.00336916
0.00341579
0.00344428
0.00343745
0.00337298
0.00323716
0.0030829
0.00303847
0.00299122
0.0035628
0.00468206
0.00574074
0.00633662
0.00652601
0.0064924
0.00638335
0.00628592
0.00623668
0.00623449
0.00626098
0.0063253
0.00645382
0.00667087
0.00698777
0.00736314
0.00764108
0.00762649
0.00719427
0.00703433
0.004744
0.0140606
0.00799436
0.00751203
0.00516788
0.00425761
0.00369253
0.00333914
0.00314346
0.00307278
0.00307633
0.00311285
0.00314757
0.00314293
0.00306986
0.00296905
0.00297331
0.00377303
0.00552964
0.00765239
0.00941703
0.0103491
0.0105877
0.0104573
0.0102174
0.0100026
0.00985074
0.00971461
0.00949449
0.00919102
0.0088563
0.00858148
0.0084645
0.00848547
0.0084023
0.00806817
0.00730177
0.0074534
0.00506538
0.00445441
0.00407327
0.00436875
0.00248067
0.0024798
0.00243128
0.00243475
0.00244598
0.002462
0.00248471
0.00250065
0.00251035
0.00251512
0.00251218
0.00249581
0.0024572
0.00238534
0.00230556
0.00236377
0.00254914
0.00281843
0.00313003
0.00344026
0.00365863
0.00377096
0.0038052
0.00379751
0.00377502
0.00375481
0.00374974
0.00374273
0.00372416
0.00368519
0.00361207
0.00350701
0.00340715
0.00325063
0.00297528
0.00280854
0.00314679
)
;

boundaryField
{
    floor
    {
        type            kqRWallFunction;
        value           nonuniform List<scalar> 
36
(
0.0043304
8.38249e-05
9.35021e-05
9.71844e-05
9.24869e-05
9.03914e-05
8.75773e-05
7.79105e-05
5.81229e-05
4.57806e-05
4.01624e-05
3.85418e-05
4.18597e-05
4.18575e-05
6.99595e-05
9.92012e-05
0.000137385
0.000132892
0.000112156
0.000112156
0.000185021
0.000528898
0.00104229
0.00215908
0.0016866
0.00128931
0.0043304
0.00403737
0.00335459
0.00222748
8.38249e-05
0.00222748
0.000161135
0.00261103
0.000455864
0.00155868
)
;
    }
    ceiling
    {
        type            kqRWallFunction;
        value           nonuniform List<scalar> 
43
(
0.00445441
0.00407327
0.00436875
0.00248067
0.0024798
0.00243128
0.00243475
0.00244598
0.002462
0.00248471
0.00250065
0.00251035
0.00251512
0.00251218
0.00249581
0.0024572
0.00238534
0.00230556
0.00236377
0.00254914
0.00281843
0.00313003
0.00344026
0.00365863
0.00377096
0.0038052
0.00379751
0.00377502
0.00375481
0.00374974
0.00374273
0.00372416
0.00368519
0.00361207
0.00350701
0.00340715
0.00325063
0.00297528
0.00280854
0.00314679
0.026265
0.0333581
0.0140606
)
;
    }
    sWall
    {
        type            kqRWallFunction;
        value           uniform 0.00445441;
    }
    nWall
    {
        type            kqRWallFunction;
        value           nonuniform List<scalar> 6(0.00128931 0.00149056 0.00149746 0.004744 0.00506538 0.00314679);
    }
    sideWalls
    {
        type            empty;
    }
    glass1
    {
        type            kqRWallFunction;
        value           nonuniform List<scalar> 9(0.00518633 0.0127733 0.0154411 0.0168815 0.0180249 0.0191523 0.0205391 0.0225532 0.026265);
    }
    glass2
    {
        type            kqRWallFunction;
        value           nonuniform List<scalar> 2(0.00352892 0.00456005);
    }
    sun
    {
        type            kqRWallFunction;
        value           nonuniform List<scalar> 
14
(
0.00518633
0.0105775
0.0098146
0.00907697
0.00848184
0.00799265
0.00757459
0.00720417
0.00686231
0.00653164
0.00619652
0.00583969
0.00543657
0.00493932
)
;
    }
    Table_master
    {
        type            kqRWallFunction;
        value           nonuniform List<scalar> 9(0.000233463 0.000176966 0.000138063 0.000108404 8.46101e-05 7.43105e-05 0.000140815 0.000243771 0.000411602);
    }
    Table_slave
    {
        type            kqRWallFunction;
        value           nonuniform List<scalar> 9(0.000455083 0.000513046 0.000574643 0.000636889 0.000695202 0.000755634 0.00082626 0.000921748 0.00109226);
    }
    inlet
    {
        type            turbulentIntensityKineticEnergyInlet;
        intensity       0.05;
        value           uniform 3.75e-05;
    }
    outlet
    {
        type            zeroGradient;
    }
}


// ************************************************************************* //
