/*--------------------------------*- C++ -*----------------------------------*\
  =========                 |
  \\      /  F ield         | OpenFOAM: The Open Source CFD Toolbox
   \\    /   O peration     | Website:  https://openfoam.org
    \\  /    A nd           | Version:  6
     \\/     M anipulation  |
\*---------------------------------------------------------------------------*/
FoamFile
{
    version     2.0;
    format      ascii;
    class       volScalarField;
    location    "2700";
    object      alphat;
}
// * * * * * * * * * * * * * * * * * * * * * * * * * * * * * * * * * * * * * //

dimensions      [1 -1 -1 0 0 0 0];

internalField   nonuniform List<scalar> 
458
(
0.00120779
0.00130298
0.00129701
0.00135207
0.00140428
0.00145265
0.00149889
0.00154542
0.00158613
0.00161259
0.00161896
0.00159985
0.00155319
0.00148311
0.00139746
0.000577003
0.000702845
0.000733157
0.000721043
0.000700844
0.000667209
0.000630417
0.000595785
0.000564718
0.000536547
0.000510864
0.00048734
0.000465635
0.000445286
0.000425508
0.000405168
0.000399969
0.00037265
0.0017276
0.00405301
0.00376338
0.00438775
0.00491721
0.00545722
0.00596918
0.00638633
0.00673562
0.00703927
0.00724865
0.00729105
0.00705016
0.00627216
0.00436046
0.00139101
0.00110536
0.00106141
0.000812321
0.0012737
0.00164904
0.00196895
0.0020888
0.00170633
0.00152793
0.00139784
0.001283
0.00118209
0.0010936
0.00101554
0.000944967
0.000880452
0.000828655
0.000781251
0.000987023
0.00052087
0.00216357
0.00565598
0.00453978
0.00610556
0.0067504
0.00717861
0.00749922
0.00774213
0.00796567
0.00821348
0.00846374
0.0086694
0.00877005
0.00868794
0.00828252
0.00731091
0.0057391
0.00139407
0.00116326
0.00177731
0.00227618
0.0027107
0.00275223
0.000894305
0.000795804
0.000717033
0.000654895
0.000605604
0.000565951
0.000533602
0.000507136
0.000486315
0.000543923
0.000636623
0.00111039
0.000616379
0.00258135
0.00750151
0.00460167
0.00655749
0.00736047
0.00756384
0.0076044
0.00762298
0.00769971
0.00788327
0.0081546
0.00846724
0.00877067
0.00901001
0.00910038
0.00881816
0.00788058
0.00590309
0.0014583
0.00207917
0.0028124
0.00342856
0.0038209
0.00358887
0.000946818
0.000883302
0.000855556
0.000844428
0.000837437
0.000825347
0.000800881
0.000771942
0.000736164
0.000706089
0.000711715
0.00123348
0.000701029
0.00299716
0.00979332
0.00536361
0.00624351
0.00739455
0.00756534
0.00742407
0.0072543
0.00722345
0.00737783
0.00766134
0.00801699
0.00839007
0.00870797
0.00888051
0.0087619
0.00827896
0.00737656
0.00580067
0.00532756
0.00518291
0.00511356
0.00502898
0.00478445
0.00405372
0.00386951
0.00383734
0.00382542
0.00378258
0.00368249
0.00350097
0.00309927
0.00255193
0.00196987
0.00149542
0.00130415
0.00113394
0.000859502
0.000897754
0.000888205
0.0034236
0.0121949
0.00778284
0.00624821
0.00685367
0.0072584
0.00729855
0.00702816
0.00694605
0.00708454
0.00736048
0.00771555
0.00809464
0.008407
0.00853964
0.00841542
0.00806761
0.00759478
0.00697841
0.00650364
0.00608607
0.00569693
0.00535679
0.00505533
0.00479947
0.00470138
0.00466224
0.00462102
0.00455367
0.00445064
0.00430699
0.00406826
0.0036426
0.00305316
0.00243226
0.00182176
0.00145135
0.00153209
0.00218428
0.00111548
0.00380218
0.0138671
0.0111986
0.00834579
0.00725541
0.00699142
0.00713931
0.00704812
0.00697877
0.00704865
0.00726223
0.00758083
0.00794697
0.00825982
0.00838461
0.0082342
0.00787058
0.00744312
0.00696918
0.00645071
0.0059014
0.0053868
0.00499624
0.00473808
0.00460425
0.00456239
0.00454164
0.00451059
0.0044636
0.00440507
0.00434347
0.00428075
0.00408842
0.00367388
0.00314861
0.00260733
0.00218897
0.00205422
0.0025114
0.0013934
0.00386024
0.0123513
0.0112253
0.0105229
0.00935897
0.00835623
0.00787218
0.00744031
0.00715063
0.00712034
0.00729207
0.00758159
0.00793582
0.00825472
0.00838306
0.00819998
0.00774356
0.00714094
0.00642767
0.00572351
0.00513746
0.00471336
0.00445038
0.00430676
0.00423888
0.00420675
0.00417948
0.00414765
0.00411969
0.00411221
0.00414492
0.00423602
0.00435874
0.00426188
0.00398314
0.003815
0.00387291
0.00392283
0.0048919
0.00179389
0.00373847
0.00440057
0.00511901
0.00559152
0.0060253
0.00621283
0.0062737
0.00638193
0.00665257
0.0070156
0.007355
0.00766413
0.00801029
0.00832567
0.00843856
0.00817663
0.00748937
0.00647906
0.00551226
0.00482025
0.0044015
0.00416842
0.00404255
0.00396815
0.00391102
0.00385144
0.00378091
0.00370096
0.00361884
0.00354229
0.00347494
0.003413
0.0033456
0.00327649
0.00320973
0.00316245
0.00308091
0.00291958
0.00272376
0.00175031
0.00282873
0.00652235
0.0066935
0.00697559
0.00732313
0.00771709
0.00798564
0.0080297
0.0079182
0.00786865
0.00806475
0.00829695
0.00834384
0.00786294
0.00678703
0.00560183
0.00476341
0.00431713
0.00410207
0.00399028
0.00391655
0.00384901
0.00377213
0.00368032
0.00357497
0.00346189
0.00334888
0.00324483
0.00316047
0.00310879
0.00309967
0.00311078
0.00311651
0.00309625
0.00301532
0.00285171
0.00258031
0.00152037
0.00301507
0.0074253
0.00784859
0.00788418
0.00802673
0.00812207
0.00808957
0.00752731
0.00689159
0.00661607
0.00686791
0.0068765
0.00663789
0.00610504
0.00535223
0.00463787
0.00417528
0.00392446
0.00377893
0.0036691
0.00356509
0.00345685
0.00334482
0.00323713
0.00314628
0.00308397
0.00305618
0.0030604
0.00308487
0.00311616
0.00318113
0.00326298
0.00333984
0.00338742
0.00342631
0.00365418
0.00241775
0.00159423
0.00241019
0.00261152
0.00276744
0.00293303
0.00285805
0.00274548
0.00255614
0.0022707
0.00192194
0.00169818
0.00154537
0.00144016
0.00137264
0.00132468
0.00126177
0.00119058
0.00112383
0.0010769
0.00104522
0.00102589
0.00101375
0.00100596
0.00100195
0.00100228
0.0010079
0.00101968
0.00103819
0.00106372
0.00109648
0.00113709
0.00118714
0.00124895
0.00131888
0.00139703
0.00148219
0.00157204
0.0016697
0.00154844
0.00141436
0.00150726
)
;

boundaryField
{
    floor
    {
        type            compressible::alphatWallFunction;
        Prt             0.85;
        value           nonuniform List<scalar> 
36
(
0.000197115
8.08736e-05
9.95695e-05
0.000104012
0.00010224
9.92772e-05
9.43206e-05
8.8864e-05
8.36924e-05
7.90216e-05
7.47589e-05
7.08484e-05
6.72453e-05
6.39014e-05
6.07484e-05
5.76665e-05
5.44777e-05
5.36585e-05
4.93356e-05
4.93349e-05
7.23667e-05
8.67598e-05
9.92887e-05
0.000122276
0.000127747
0.000126386
0.000197112
0.000196243
0.000156963
0.000150824
8.08726e-05
0.000150823
0.000115498
0.000196631
0.000165048
0.000205363
)
;
    }
    ceiling
    {
        type            compressible::alphatWallFunction;
        Prt             0.85;
        value           nonuniform List<scalar> 
43
(
0.000329852
0.000355442
0.000375117
0.00039599
0.000386645
0.000372521
0.000348594
0.000312151
0.000266983
0.000237545
0.000217196
0.000203048
0.000193885
0.000187337
0.000178729
0.000168936
0.000159692
0.000153154
0.000148722
0.000146008
0.000144301
0.000143204
0.000142639
0.000142686
0.000143476
0.000145131
0.000147729
0.000151303
0.000155877
0.000161524
0.000168451
0.00017696
0.00018653
0.000197159
0.000208663
0.000220723
0.000233743
0.000217562
0.000199509
0.000212048
0.000495707
0.00057578
0.000405943
)
;
    }
    sWall
    {
        type            compressible::alphatWallFunction;
        Prt             0.85;
        value           uniform 0.000328603;
    }
    nWall
    {
        type            compressible::alphatWallFunction;
        Prt             0.85;
        value           nonuniform List<scalar> 6(0.00012615 0.000158145 0.000196278 0.000213432 0.000223318 0.000211678);
    }
    sideWalls
    {
        type            empty;
    }
    glass1
    {
        type            compressible::alphatWallFunction;
        Prt             0.85;
        value           nonuniform List<scalar> 9(0.000166625 0.000235703 0.000292035 0.00034499 0.000396884 0.000449388 0.000495489 0.000502669 0.000488176);
    }
    glass2
    {
        type            compressible::alphatWallFunction;
        Prt             0.85;
        value           nonuniform List<scalar> 2(0.000247874 0.000242237);
    }
    sun
    {
        type            compressible::alphatWallFunction;
        Prt             0.85;
        value           nonuniform List<scalar> 
14
(
0.000171207
0.000184252
0.000183439
0.000190949
0.000198039
0.00020458
0.000210811
0.000217059
0.000222508
0.000226043
0.000226891
0.00022434
0.000218099
0.000208685
)
;
    }
    Table_master
    {
        type            compressible::alphatWallFunction;
        Prt             0.85;
        value           nonuniform List<scalar> 9(0.000127451 0.000113296 0.000101826 9.26704e-05 8.53326e-05 7.93762e-05 7.44786e-05 7.0444e-05 6.72513e-05);
    }
    Table_slave
    {
        type            compressible::alphatWallFunction;
        Prt             0.85;
        value           nonuniform List<scalar> 9(0.000134925 0.00012588 0.000121905 0.000120305 0.000119298 0.000117556 0.000114024 0.00010983 0.000104618);
    }
    inlet
    {
        type            fixedValue;
        value           uniform 1.94e-05;
    }
    outlet
    {
        type            zeroGradient;
    }
}


// ************************************************************************* //
