/*--------------------------------*- C++ -*----------------------------------*=========                 |
  \      /  F ield         | OpenFOAM: The Open Source CFD Toolbox
   \    /   O peration     | Website:  https://openfoam.org
    \  /    A nd           | Version:  6
     \/     M anipulation  |
\*---------------------------------------------------------------------------*/
FoamFile
{
    version     2.0;
    format      ascii;
    class       volScalarField;
    location    "2700";
    object      PMV;
}
// * * * * * * * * * * * * * * * * * * * * * * * * * * * * * * * * * * * * * //

dimensions      [0 0 0 0 0 0 0];

internalField   nonuniform List<scalar> 
458
(
1.560995738079791
1.345932101108482
1.3310637224795752
1.3115073531049235
1.2974197573501391
1.2880499224351325
1.2832550791579542
1.2839816397794608
1.2897899019787316
1.3009922159917673
1.3191638555191898
1.3452260543401275
1.3826033859157376
1.4242247129982737
1.4350022986211066
1.4515062336671913
1.4510288208145146
1.4534158716987788
1.4534158716987788
1.4524610553619213
1.4372550184142476
1.4279017377453853
1.4241619033668058
1.421696922989474
1.4201875498806746
1.4180454643327252
1.4163915738463626
1.4151528744365465
1.4156966699641487
1.4104440074779658
1.4047136639436366
1.3985055988675215
1.401848427884216
1.5208519762944517
1.362123229444627
1.366137208900246
1.3471803557859376
1.3361740117961498
1.3299140845156692
1.3275764323647319
1.3289681914267089
1.3340157819583514
1.3419612803245784
1.3521692288195277
1.3662575295446489
1.3854940223735652
1.408143584265739
1.434963545880293
1.448164315722633
1.44386746872286
1.366898347385477
1.3848264846080809
1.4581898725758682
1.4596220464234817
1.4590473907929613
1.445454529455901
1.4354393160188312
1.429731338545953
1.4249481832883428
1.4200034772634167
1.413558003432143
1.407602762900178
1.4008917868288706
1.3948086070524703
1.3897781542633352
1.390025989737548
1.393730029640081
1.3870440391773347
1.3528626549667524
1.5679949600161251
1.3584881285273296
1.39783075288828
1.3849518647240873
1.3822164032014115
1.3821570698477434
1.3837148983869074
1.3871410982193428
1.3919620407286966
1.3951069978651551
1.3954798326857885
1.3956002806399097
1.3998203079244869
1.4106621174534868
1.4344626872067086
1.4567576865034517
1.4524610553619213
1.451815213480371
1.3822511073761234
1.4569029379216296
1.4703281320366306
1.465247604376565
1.458824547166769
1.448663065546306
1.452411749559833
1.4526134699038071
1.4455324399232403
1.435479064238254
1.4249052612975883
1.4141063923454567
1.4017044742956186
1.386526752633717
1.3781517778074175
1.3867446634357241
1.3633380370121848
1.2888131123970825
1.6473060748439456
1.3589470776771553
1.4214447267401904
1.4207711112861114
1.4317010129788468
1.4426106760422333
1.4525960667939577
1.4610613910230654
1.4658972066050373
1.4601193250655147
1.444145413244159
1.4254291519783253
1.4135564225160289
1.4146199455022885
1.4344839078454628
1.465827990791565
1.4629637376209643
1.463918494191232
1.4691695565104608
1.4511610803952137
1.4720611414929938
1.4830124516816114
1.486830969709855
1.4892174962558156
1.4911266911721195
1.4888258264264485
1.468457604690428
1.4530031417409957
1.4400211727833505
1.4293758068140598
1.423563235947804
1.424957190410327
1.4372893240704705
1.4263437654080144
1.404072106357134
1.3443571512768517
1.2623152417983128
1.7374848938371792
1.3764656805702014
1.4440178352641047
1.4550904795038624
1.4824250031495867
1.5112112466503054
1.5372339668093113
1.5555879568635151
1.555050345919123
1.527917628783217
1.4863638056794062
1.4467309522470317
1.4198688099755714
1.4113995175392735
1.424378675454126
1.4538350788689658
1.471556347354429
1.473465754788664
1.4777618389188087
1.4834897714977164
1.4896947971831571
1.4949450103701678
1.49924050601096
1.5021041024607342
1.5044903913962668
1.5059221465815384
1.5068766424371292
1.4985832200286586
1.4837265248436604
1.4711227092465267
1.4605831281552988
1.4533460100350108
1.4493343541346198
1.4339604526425247
1.4051369748407982
1.3327437778015756
1.3303076342360478
1.2593402074966185
1.2347701277590828
1.2218513537627267
1.8257739555603154
1.4185083290494147
1.4944499060024339
1.4974755892159508
1.5297118331909718
1.5817830326770135
1.6056300453077863
1.6328098451418782
1.6325360053062767
1.5665838165874972
1.5042756615588326
1.4524011927059688
1.4183678414461232
1.406223233570114
1.4170616372177944
1.4439395602871254
1.4761446698144016
1.4834897714977164
1.4892174962558156
1.4954222936157713
1.5021041024607342
1.5073538880795478
1.5111717981472501
1.5135579419668812
1.5149896096991278
1.5159440470926269
1.5164212634558476
1.5159440470926269
1.5154668291731566
1.5145123886723053
1.5072875674964412
1.4905977103581847
1.473053581106379
1.4478630117210236
1.4140187240233053
1.354110058672406
1.3386636016628535
1.3478567206315146
1.3196888911074292
1.2448472730087103
1.9123546635840678
1.5162515844300255
1.6584223841613708
1.5828112965254095
1.5648529234262443
1.5959417806642706
1.638054330449285
1.6453435384396013
1.6044737008133414
1.5520008641477478
1.493120127435994
1.4413521689265687
1.4089551900650583
1.4010512422294419
1.4171321540430377
1.4505621194057365
1.486830969709855
1.4939904394328778
1.5016268401446455
1.5083083747851234
1.5140351660943039
1.5183301133125355
1.520716140414034
1.5221477378094719
1.522624933786772
1.522624933786772
1.522624933786772
1.5221477378094719
1.5211933411214238
1.5192845288592642
1.5168984782611639
1.5126034890704585
1.5068766424371292
1.4856462892759437
1.4445606792239265
1.3922457415504776
1.3621459479586582
1.351122816547157
1.2920321708860822
1.2625676003011421
2.0459364414259524
1.851755450514802
1.8053247986368006
1.687465031669548
1.6343347014032523
1.6133654573757117
1.6055049019127379
1.5899654932942158
1.5589552769117807
1.5093193197440922
1.4532904842501762
1.4092449257942576
1.3891042361861672
1.3974119994821197
1.4298071593596207
1.4784636917349254
1.4958995753772408
1.5063993952706198
1.5149896096991278
1.520716140414034
1.5245337018777712
1.5269196262718572
1.5278739848725864
1.5283511617752628
1.5283511617752628
1.5278739848725864
1.5273968063708223
1.5264424445772622
1.5254880764083043
1.5235793209993345
1.5211933411214238
1.51785290319119
1.5121262603048702
1.5040131366340541
1.4949450103701678
1.4834897714977164
1.4723540688063024
1.4562652016509232
1.3271844295071542
1.208757018268714
2.2445328251189234
2.1127601583038746
1.9267990983074954
1.7802087416488694
1.684171990829214
1.6239863144537692
1.5847203687109994
1.549682157076066
1.492665596861713
1.4285319781186638
1.3785176047026757
1.3572176912654654
1.3684231997554466
1.4097958904001002
1.4722162575488937
1.4930358625786564
1.5087856158449875
1.5197617342812728
1.5269196262718572
1.5307370222431456
1.5326456816589191
1.5331228424764
1.5331228424764
1.532731259298709
1.5233576750983382
1.5135715247580706
1.5037242336558287
1.4930372303123465
1.4817371097283785
1.4703332178144786
1.4583502117058327
1.4452119864152329
1.4300116177567543
1.416427955531956
1.3986363589980446
1.3758177490248846
1.3541871177346423
1.337815502844293
1.319984956343189
1.280255667932152
3.0
-0.21698244067614178
0.5735812420259814
0.9283023654329137
1.0878828997144774
1.1515677397028543
1.1915426359077952
1.228959114230402
1.2727992062236635
1.3281392290978753
1.4023869069173993
1.4591446565018635
1.487308277934775
1.5097400933703156
1.524056512231175
1.5326456816589191
1.537417216812657
1.5388486455804025
1.5373990292871371
1.5276860004083581
1.517777287847511
1.5074412621900264
1.496934613427516
1.485638592796402
1.4735546600619553
1.4613992177386637
1.4491457519204833
1.437882774884363
1.4283243024138494
1.420747193461531
1.4160570311727798
1.4129302410935611
1.4100919476465024
1.4067238545580036
1.4091722062901506
1.4281680129908843
1.4850650471626885
1.4151381272103598
-1.5952260158017273
0.06282900602449903
0.7302743177292124
1.0015228835868693
1.1354919399971188
1.2091069392256388
1.2649437007507072
1.3196948287577983
1.3679399982856106
1.4118765663403088
1.4553254882486908
1.4901720966461007
1.5140351660943039
1.5246448928768612
1.5233962501921834
1.5244107976340884
1.5218911310152374
1.5157974620941532
1.5071753109367358
1.498367828858682
1.4901567805887737
1.4821487616230875
1.4743541294658318
1.4671884179578443
1.4605714117051178
1.4540098956072725
1.4481334958526435
1.442755453401569
1.4389454293180297
1.437857517386922
1.4400188380497496
1.4471188164346827
1.4589802018082896
1.469762392639189
1.4821158543760904
1.5251920804236139
1.4539493791495672
1.566618622170064
-0.28509247090704
-0.41982279875278095
-0.3448651808045583
0.5066366838918059
0.8135350469322512
1.0209828932663592
1.1697948120253252
1.2349481813773866
1.2601027326800673
1.3107759823661596
1.353898492595396
1.3840295252467778
1.4073109042879897
1.425445803026318
1.4336936582804487
1.432111741992845
1.424755648119435
1.4182769241730673
1.4123820315543052
1.4075716384255372
1.4038700151701073
1.4002131863631613
1.3980020836950056
1.3957457496818744
1.3945621182829842
1.3940220560752632
1.3947206559951488
1.3957778890417885
1.3985182134841847
1.4029908264629414
1.4101582317318606
1.4213940726338499
1.4391483246846013
1.46835807040455
1.519778567240618
1.5631806388837304
1.569382201571939
1.4790600888948737
1.43670886166472
1.3623177095823538
)
;

boundaryField
{
    ".*"
    {
        type            zeroGradient;
    }
}


// ************************************************************************* //
