/*--------------------------------*- C++ -*----------------------------------*=========                 |
  \      /  F ield         | OpenFOAM: The Open Source CFD Toolbox
   \    /   O peration     | Website:  https://openfoam.org
    \  /    A nd           | Version:  6
     \/     M anipulation  |
\*---------------------------------------------------------------------------*/
FoamFile
{
    version     2.0;
    format      ascii;
    class       volScalarField;
    location    "2700";
    object      PPD;
}
// * * * * * * * * * * * * * * * * * * * * * * * * * * * * * * * * * * * * * //

dimensions      [0 0 0 0 0 0 0];

internalField   nonuniform List<scalar> 
458
(
54.21252656010981
42.64795848846353
41.871312633114286
40.85658113793472
40.13067554768561
39.650329495069755
39.40530478498106
39.44239870790001
39.73937764760809
40.31434205945602
41.2529086524228
42.610981716316296
44.58081745260287
46.80043395470812
47.37897462683525
48.267479646819844
48.24173692260599
48.37047286600818
48.37047286600818
48.31897181143738
47.50007448300988
46.99765841436274
46.797066496276145
46.66494898734011
46.58408807780445
46.46938160980037
46.380858439708696
46.314581671982474
46.34367501527244
46.06282087347281
45.75685737397272
45.42591288469708
45.60404592242523
52.02626444594086
43.49844701142896
43.710022592525625
42.71335460104541
42.137759736929894
41.811443086735764
41.689787711641316
41.762203895336675
42.02516781095505
42.4401238439832
42.97501327916587
43.716368994115406
44.734143753421336
45.939938102006835
47.37689190114307
48.08732820378967
47.85587170637985
43.750173629517455
44.698724166455165
48.628108754428396
48.70544101713104
48.674409331094914
47.941338347699094
47.402462876560456
47.09585446003119
46.839225452516914
46.574228846576986
46.229277990486274
45.91105943847136
45.55305172501076
45.22909868956816
44.96162633083827
44.97479484194817
45.1717176901899
44.816414800178315
43.011418958010545
54.59387996679024
43.30708736535773
45.38997145557139
44.70537630419016
44.56030107376796
44.55715565321676
44.63975901574759
44.821567707691216
45.07769761555001
45.244976357998155
45.264817140543556
45.2712273449714
45.49595180970698
46.07447553563022
47.34997534338733
48.55079543813297
48.31897181143738
48.28414147573613
44.56214086153155
48.558635605489584
49.28412613506087
49.00938575617258
48.66237650758573
48.11420678466823
48.31631259482426
48.32719216063783
47.945534690313615
47.404599322473395
46.83692385100839
46.25860542131824
45.5963715635091
44.788954317576426
44.34495588993731
44.80052173870776
43.562449342179576
39.68937918252003
58.9046449729918
43.331234448847745
46.6514361715602
46.615347465606746
47.201613464998985
47.78821004179234
48.32625352683275
48.783179963965345
49.04450178290742
48.73229682203068
47.87083765822789
46.865017956797985
46.22919345010668
46.28607351502804
47.351115698795255
49.04075995406207
48.885955154923295
48.937548832331906
49.22145402158023
48.248868299554466
49.377892919645426
49.970986182792664
50.17799922889112
50.307431741546615
50.4110040609305
50.286186982253945
49.18294732089828
48.34820984228025
47.648854196542494
47.07676962941738
46.76497219032873
46.83970844341204
47.50191910817188
46.91407308803439
45.722631033615365
42.56548889431295
38.34167970071739
63.738116617338214
44.255704992543066
47.863968104811605
48.460820094674226
49.93914822014037
51.501903630097864
52.918049015964996
53.91788019948062
53.88858866310134
52.410795690881805
50.15266734119118
48.01009601331374
46.56701612251381
46.113883176200154
46.80868866487146
48.39308701723131
49.35057776255541
49.453909733027906
49.686510352669664
49.99685735713073
50.33332265923011
50.618216109529655
50.851431673960235
51.00696521845381
51.136609167056044
51.214409216926455
51.266281446761845
50.81573846554021
50.00969022237803
49.32711466380232
48.75734685370049
48.36670434552889
48.15038789309931
47.32298777823596
45.77944371018275
41.958852301675435
41.83193493288838
38.19143779388429
36.95929366872959
36.317853277627
68.33317441139101
46.494162489979985
50.59134262258559
50.75559553162772
52.50846722814196
55.34499139006478
56.64299902470399
58.119287206509775
58.10443618476336
54.51699538228791
51.12494191345662
48.31574323375355
46.48664076061117
45.83741413018704
46.41671871772735
47.85975340394775
49.59893554234649
49.99685735713073
50.307431741546615
50.64412373789439
51.00696521845381
51.292219189959155
51.49975886172778
51.62950365871846
51.70736187999663
51.759271915583994
51.785228268886996
51.759271915583994
51.73331644918512
51.681408218325295
51.28861467441757
50.38230484163722
49.431601459672656
48.07109161410341
46.25391671380903
43.07693134198867
42.26775202752897
42.74880164639705
41.280131706726934
37.46274591713087
72.64353471737704
51.775999118559916
59.505691592117785
55.40099404520946
54.42268805865707
56.11588679439337
58.403603875924944
58.79841942601872
56.58010537759408
53.72244216954538
50.51917196781122
47.720473387833785
45.98328367935783
45.56155064934021
46.42049296260877
48.21657401942032
50.17799922889112
50.56640487352934
50.981039940817034
51.34409788170472
51.65545547446615
51.88906234489783
52.018873656994714
52.096769930662774
52.12273687421332
52.12273687421332
52.12273687421332
52.096769930662774
52.04483831170448
51.940984436098105
51.81118549878626
51.577602852717895
51.266281446761845
50.11376312302165
47.893199252573794
45.092781373703296
43.49964370128414
42.92009221299565
39.85423472979334
38.35443421423881
78.78279672748639
69.64976677038314
67.28451998850137
61.07002840517664
58.20197421383115
57.0635699539133
56.63619274874778
55.790566414605564
54.101350033845044
51.39905016472127
48.36370917454899
45.99875985692837
44.92582310621031
45.36767256632399
47.09992469457916
49.72452426474684
50.670032692984485
51.240344785674935
51.70736187999663
52.018873656994714
52.22661196720931
52.3564715231473
52.408419960389494
52.43439512635604
52.43439512635604
52.408419960389494
52.38244542251922
52.33049827265535
52.27855375986699
52.17467297767608
52.04483831170448
51.86310254710977
51.551653883040025
51.1106780699736
50.618216109529655
49.99685735713073
49.39374462164345
48.52421433805954
41.66939806490049
35.67238550035216
86.4571527458197
81.57454220567139
73.33961910957855
65.98286374878143
60.89313968122776
57.64050902852139
55.50496232115841
53.59611591155116
50.49450595300425
47.031479297096176
44.36432651956486
43.24026450252002
43.83064164159341
46.02819272017819
49.38628690476057
50.51459906608526
51.37003880976457
51.96694670885268
52.3564715231473
52.56428001370414
52.66819816805401
52.69417904266792
52.69417904266792
52.67285773040778
52.16261109958509
51.63024228727911
51.09498144871926
50.51467329016157
49.901869678162825
49.284401270859
48.63676552385797
47.92827513090327
47.110900833783774
46.38280535338501
45.432877776530795
44.221420223574846
43.08097934104631
42.22345548812869
41.29548520807788
39.252304158005224
100.0
5.9766081285875
11.892046060285892
23.198411037613454
29.959550168965023
32.91194316575991
34.831235445853025
36.67020630136634
38.8728772849365
41.7190664938627
45.63275561103371
48.679661507419695
50.203882754370944
51.42192377899223
52.20064211686651
52.66819816805401
52.92802877167928
53.00598660948776
52.92703827959429
52.398187205609105
51.85898922614763
51.2969679961652
50.726223901875194
50.113345834454975
49.45872177821505
48.80142877428089
48.14022214003002
47.533831252737734
47.020334164313205
46.6140661836058
46.362956688443425
46.19571069149883
46.044010004060226
45.86413638571281
45.99487544974266
47.011947076185024
50.08225045737761
46.31379274246351
56.07693005893942
5.0817293078351184
16.224301039175643
26.181588371152614
32.15411114793753
35.68957182780936
38.4746029861354
41.28043960641331
43.805138276398814
46.13938124723376
48.47350133280867
50.35921502508931
51.65545547446615
52.23266337206629
52.16471032763878
52.219923136159295
52.08280684350527
51.751299181518434
51.28251359508883
50.80404243153758
50.35838414161865
49.924177629517146
49.501996381284165
49.11431283577807
48.75671402276204
48.40251803150999
48.08566734726465
47.79600351081373
47.59098426539602
47.53247297787995
47.64872858484458
48.03099269700713
48.6707812970886
49.25352153608968
49.92239429684208
52.26244385929134
48.399253254975086
54.518891740689476
6.688330615646237
8.674403990223155
7.4741783156906365
10.365614486342125
18.956336244522987
27.009071921430376
33.78102863252796
36.96816582776233
38.22992486328814
40.81878826897968
43.06581809692866
44.656446705740926
45.895476528501256
46.86591094012246
47.30865278676633
47.22367283727369
46.82890133860738
46.4817731719627
46.166401537570856
45.90939758443666
45.71185092026959
45.51688665621133
45.39909567826344
45.27896945338293
45.215983787991625
45.187251950756874
45.22441898233842
45.280680007105445
45.4265847868096
45.6649593040742
46.04755149161387
46.64872219418711
47.601898086840215
49.17756424721288
51.96786251919954
54.33157285459471
54.66946090801771
49.75682945831546
47.470709285148004
43.50869148015134
)
;

boundaryField
{
    ".*"
    {
        type            zeroGradient;
    }
}


// ************************************************************************* //
