/*--------------------------------*- C++ -*----------------------------------*\
  =========                 |
  \\      /  F ield         | OpenFOAM: The Open Source CFD Toolbox
   \\    /   O peration     | Website:  https://openfoam.org
    \\  /    A nd           | Version:  6
     \\/     M anipulation  |
\*---------------------------------------------------------------------------*/
FoamFile
{
    version     2.0;
    format      ascii;
    class       surfaceScalarField;
    location    "900";
    object      phi;
}
// * * * * * * * * * * * * * * * * * * * * * * * * * * * * * * * * * * * * * //

dimensions      [1 0 -1 0 0 0 0];

internalField   nonuniform List<scalar> 
850
(
-0.00247116
0.00253298
-0.00275704
0.000285916
-0.00316021
0.000403215
-0.00359597
0.0004358
-0.00400548
0.000409552
-0.00436165
0.000356212
-0.0046433
0.000281693
-0.00482844
0.000185172
-0.00489252
6.41242e-05
-0.00480644
-8.60388e-05
-0.00453745
-0.000268952
-0.0040565
-0.000480912
-0.00331292
-0.000743533
-0.00211564
-0.00119724
-0.00211385
-0.000287428
0.000290714
1.65699e-05
-0.000303951
0.000460586
-0.000443971
0.000849195
-0.000388564
0.00104516
-0.000195924
0.000940507
0.000104701
0.000778847
0.000161707
0.000574439
0.000204458
0.000263409
0.000311083
-8.4494e-05
0.000347962
-0.000177297
9.28481e-05
-0.000185097
7.85545e-06
-0.000127897
-5.7137e-05
-6.71582e-06
-0.000121115
0.000161391
-0.000168038
0.000355894
-0.000194433
0.000511359
-0.000155395
0.000515776
-0.00183786
0.00453295
-0.00248201
0.000930108
-0.00305321
0.000974458
-0.0035462
0.000928833
-0.00398796
0.000851352
-0.00437336
0.000741657
-0.00468825
0.000596624
-0.00491427
0.000411237
-0.00503141
0.000181299
-0.00502181
-9.55972e-05
-0.00487093
-0.000419792
-0.00455772
-0.000794081
-0.00406899
-0.00123223
-0.00352895
-0.00173724
-0.00359133
-0.00205143
-0.00176217
-0.00182579
0.000202463
-0.00196112
0.000213751
0.000533094
-0.000234301
0.000311309
-8.21214e-05
0.00017885
-0.000311469
0.000358962
-0.000568633
0.000551066
-0.000387984
0.000475675
0.000180136
0.000480511
0.000156918
0.000497218
0.0001878
0.000557616
0.000250739
0.000670129
0.000235504
0.000646389
0.000116646
0.000609626
4.46797e-05
0.00056764
-1.50885e-05
0.000532728
-8.61369e-05
0.000539132
-0.000174376
0.000553724
-0.000208959
0.000423915
-2.55182e-05
0.000950326
-0.00137943
0.00615482
-0.00214771
0.00169843
-0.00274024
0.00156703
-0.00321897
0.00140761
-0.00364917
0.0012816
-0.00403301
0.00112554
-0.0043589
0.000922547
-0.00461047
0.00066285
-0.00476965
0.000340521
-0.00482049
-4.47152e-05
-0.00475133
-0.000488915
-0.00456101
-0.000984355
-0.0042853
-0.0015079
-0.00403233
-0.00199016
-0.00380418
-0.00227954
-0.00324591
-0.00238403
-0.00271859
-0.0024884
-0.00249632
-0.00086412
0.000640298
-0.000931945
-1.42553e-05
-0.000843534
-0.000399839
-0.000675213
-0.000736914
-4.85587e-05
-0.0010146
0.000131776
0.000288894
0.000476899
0.000727845
0.000963559
0.00108042
0.00112531
0.00111044
0.00102452
0.000900504
-5.0305e-05
0.000317535
0.000374072
-0.000381416
0.000673498
0.000584787
-0.00104125
0.00750396
-0.00181788
0.00247509
-0.00228408
0.00203328
-0.0026803
0.00180386
-0.00305199
0.00165333
-0.00339775
0.00147135
-0.00370646
0.0012313
-0.00396278
0.000919213
-0.0041486
0.000526373
-0.00424391
5.06404e-05
-0.00423655
-0.000496238
-0.0041409
-0.00107996
-0.00400591
-0.00164285
-0.00389493
-0.0021011
-0.0037938
-0.00238062
-0.0036789
-0.00249889
-0.00370597
-0.00246129
-0.00426342
-0.00193883
-0.00325193
-0.0010014
-0.00223941
-0.000372179
-0.00187702
-0.000376609
-0.00168862
-0.000588195
-0.00165934
-0.000766157
-0.00191419
-0.000759703
-0.00142246
-0.000491843
-0.00101295
-0.000409628
-0.000590704
-0.000422356
-0.000110177
-0.00048064
0.000443145
-0.000553435
0.00105173
-0.000608693
0.0016739
-0.000622284
0.0022212
-0.000547408
0.00255606
-0.000334976
0.00242682
7.89798e-05
0.00209678
0.000704158
0.00147358
0.00129675
0.00207399
-0.00078123
0.00864767
-0.00150767
0.00320158
-0.0017267
0.00225234
-0.00198624
0.00206345
-0.00226199
0.00192912
-0.00253055
0.00173995
-0.00277868
0.00147946
-0.00299408
0.00113465
-0.00316262
0.000694961
-0.00326701
0.000155066
-0.00328541
-0.000477797
-0.00323162
-0.00113372
-0.0031559
-0.00171852
-0.0030988
-0.00215817
-0.00306121
-0.00241818
-0.00305437
-0.0025057
-0.00312628
-0.00238934
-0.00311582
-0.00194925
-0.00276253
-0.00135465
-0.00221891
-0.000915764
-0.00182078
-0.000774696
-0.00160857
-0.000800366
-0.00152942
-0.000845267
-0.00147834
-0.000810742
-0.00124881
-0.000721339
-0.000959974
-0.000698423
-0.000634364
-0.000747925
-0.000259884
-0.00085508
0.000176925
-0.000990201
0.000672145
-0.00110387
0.0011979
-0.00114799
0.00171681
-0.00106628
0.00215326
-0.000771385
0.00240892
-0.000176632
0.00249786
0.000615265
0.00248854
0.00130611
0.00310374
0.00145884
0.00237341
0.000745534
0.00173378
0.000655273
0.00180004
-0.000713206
0.00976973
-0.00132868
0.00381709
-0.0011164
0.00204011
-0.00113837
0.00208545
-0.00131694
0.00210773
-0.00150318
0.00192623
-0.00166287
0.00163919
-0.00179414
0.00126597
-0.00189482
0.000795684
-0.00195695
0.000217241
-0.00195589
-0.00047882
-0.00191227
-0.00117729
-0.00187586
-0.0017549
-0.00187305
-0.00216093
-0.00190557
-0.00238562
-0.00197375
-0.00243747
-0.00205834
-0.00230471
-0.0020349
-0.00197265
-0.00184466
-0.00154485
-0.00156711
-0.00119327
-0.00134689
-0.000994876
-0.0012327
-0.000914512
-0.00119454
-0.000883389
-0.00115429
-0.000850954
-0.00104928
-0.000826309
-0.0008934
-0.000854261
-0.000698304
-0.000942981
-0.000465115
-0.00108823
-0.000186689
-0.00126858
0.000150602
-0.00144112
0.000544041
-0.00154139
0.000981273
-0.00150346
0.0014467
-0.00123677
0.00191229
-0.000642173
0.00230174
0.000225859
0.00263029
0.000977605
0.00280391
0.00128526
0.0023535
0.00119599
0.00143361
0.00157522
0.0032864
-0.00090742
0.0111272
-0.00103323
0.00394294
-0.000160279
0.0011672
8.99234e-05
0.00183529
-5.76353e-05
0.00225533
-0.000247889
0.00211653
-0.00035851
0.00174985
-0.000398492
0.00130599
-0.000389074
0.000786306
-0.000336429
0.000164637
-0.000270576
-0.000544632
-0.000233337
-0.00121449
-0.000255703
-0.0017325
-0.000340479
-0.00207612
-0.0004738
-0.00225226
-0.000635977
-0.00227526
-0.00078735
-0.0021533
-0.000859776
-0.00190019
-0.000828655
-0.00157594
-0.000746998
-0.00127489
-0.000688456
-0.00105338
-0.000688614
-0.000914316
-0.000733991
-0.000837972
-0.000783235
-0.000801671
-0.000805154
-0.000804349
-0.000797041
-0.000862334
-0.000761678
-0.000978303
-0.000698922
-0.00115094
-0.000605998
-0.00136147
-0.000477879
-0.00156919
-0.00030279
-0.00171643
-5.84922e-05
-0.00174772
0.000285664
-0.00158088
0.000757449
-0.00111391
0.00128202
-0.000298661
0.00175879
0.00050088
0.00209113
0.000952974
0.00222119
0.00106598
0.00180545
0.001991
0.00514552
0.0020646
0.0095644
0.00249226
0.00351532
0.0028731
0.000786389
0.00265695
0.00205148
0.00221446
0.00269787
0.00181737
0.00251365
0.00158998
0.00197728
0.00152635
0.00136967
0.00157192
0.00074077
0.00170072
3.58794e-05
0.00180228
-0.000646145
0.00177656
-0.00118873
0.00163399
-0.00158989
0.00140838
-0.00185047
0.00113264
-0.00197649
0.000837398
-0.00197998
0.000559722
-0.00187559
0.000342355
-0.00168279
0.000204244
-0.00143779
0.000119686
-0.0011903
4.37256e-05
-0.000977383
-5.64613e-05
-0.000814091
-0.000187195
-0.0007072
-0.000333876
-0.000654951
-0.000480996
-0.00065719
-0.000622561
-0.000720729
-0.000759028
-0.000841797
-0.000888899
-0.00102103
-0.00101326
-0.00123706
-0.00113579
-0.00144662
-0.00125884
-0.00159334
-0.00136455
-0.00164196
-0.00138809
-0.00155729
-0.00122228
-0.00127968
-0.000752338
-0.00076856
-0.000206186
-4.52258e-05
0.000232079
0.000514756
0.000613873
0.000684233
0.000441429
0.0021635
0.00585699
0.0101142
0.0136215
0.0123808
0.00202715
0.0105406
0.0038917
0.00876703
0.00447148
0.00730448
0.00397624
0.00624668
0.00303512
0.0055768
0.00203959
0.00517775
0.00113985
0.00484053
0.000373135
0.00446526
-0.000270834
0.00406313
-0.000786562
0.00363195
-0.00115867
0.00317588
-0.00139436
0.00270942
-0.00151
0.00225305
-0.00152358
0.00183088
-0.00145338
0.00146725
-0.00131913
0.00117487
-0.00114538
0.000944804
-0.000960204
0.000753865
-0.000786411
0.000577187
-0.000637379
0.000392055
-0.000522032
0.00018377
-0.000446628
-5.33663e-05
-0.000420014
-0.000315312
-0.000458745
-0.000596171
-0.000560899
-0.000897537
-0.000719627
-0.00122544
-0.000909114
-0.00160395
-0.00106807
-0.0020862
-0.00111104
-0.00271177
-0.00101635
-0.00346331
-0.000805694
-0.00428711
-0.000455835
-0.00511678
6.1155e-05
-0.00591247
0.000750507
-0.00691875
0.00152107
-0.00830434
0.00206987
-0.00776998
0.00162917
-0.00161432
0.00920314
0.00313829
0.00820126
0.00489359
0.00759661
0.00507614
0.00716253
0.00441034
0.00684359
0.00335409
0.00664022
0.00224299
0.00647845
0.00130165
0.00627121
0.000580407
0.0059533
4.71091e-05
0.00551541
-0.000348633
0.00499354
-0.000636769
0.00442679
-0.000827579
0.00384881
-0.000931988
0.00328822
-0.000962955
0.00276896
-0.000934091
0.00230947
-0.000859601
0.00191922
-0.000755092
0.00159585
-0.000636803
0.00132773
-0.000518263
0.00109859
-0.000408201
0.000888705
-0.000312118
0.000677162
-0.00023505
0.000443264
-0.00018608
0.000164054
-0.000179498
-0.000163663
-0.000233145
-0.000524339
-0.000358913
-0.000889936
-0.000543475
-0.00125879
-0.000699165
-0.0016764
-0.000693391
-0.00218856
-0.000504133
-0.00273427
-0.00025994
-0.00322333
3.32749e-05
-0.00363419
0.000472065
-0.00393615
0.00105251
-0.00408887
0.00167384
-0.00394259
0.00192364
-0.00237492
6.15512e-05
-0.00391232
-0.0016742
0.00483701
0.000281472
0.00293792
0.00212808
0.00322955
0.00340268
0.00313577
0.00439889
0.00235791
0.00512885
0.00151306
0.00555179
0.000878741
0.00570027
0.000431956
0.00563251
0.0001149
0.00539422
-0.000110317
0.00502584
-0.000268354
0.0045711
-0.000372811
0.00407099
-0.000431852
0.0035609
-0.00045283
0.00306985
-0.000443011
0.00261983
-0.000409547
0.00222452
-0.000359758
0.00188869
-0.000300938
0.00160969
-0.000239234
0.00138016
-0.000178641
0.00118929
-0.000121213
0.00102257
-6.83004e-05
0.000861025
-2.45006e-05
0.000684586
-3.02433e-06
0.000471838
-2.03615e-05
0.000196909
-8.39481e-05
-0.000132499
-0.000214031
-0.000448309
-0.000383314
-0.00069652
-0.000445135
-0.000942249
-0.000258353
-0.00115863
-4.3511e-05
-0.00131046
0.000185154
-0.00134459
0.000506248
-0.00113358
0.000841549
-0.000455695
0.000995998
0.000874629
0.000593363
0.00151088
-0.000574646
-0.00231735
-0.0116589
-0.0146075
-0.00975489
-0.00680744
-0.00357181
-0.00043209
0.00192785
0.0034423
0.00432209
0.0047549
0.00487057
0.00476096
0.00449327
0.00412107
0.00368979
0.00323748
0.00279497
0.0023859
0.00202662
0.00172617
0.00148747
0.00130945
0.00118898
0.00112159
0.00109822
0.00109659
0.00107792
0.000995984
0.00078429
0.00040359
-3.88101e-05
-0.000294811
-0.000336533
-0.000150119
0.000356978
0.00119918
0.00219573
0.00278961
0.00221552
)
;

boundaryField
{
    floor
    {
        type            calculated;
        value           nonuniform List<scalar> 
36
(
0
0
0
0
0
0
0
0
0
0
0
0
0
0
0
0
0
0
0
-4.34739e-06
-1.05651e-05
-1.58094e-05
-1.55617e-05
-1.51492e-05
-1.56008e-05
-1.62139e-05
-1.75213e-06
-3.33293e-06
-3.47082e-06
-4.46836e-06
-3.23769e-06
-6.7791e-06
-8.03466e-06
-8.47602e-06
-1.04371e-05
-1.00522e-05
)
;
    }
    ceiling
    {
        type            calculated;
        value           nonuniform List<scalar> 
43
(
-1.58903e-05
-1.58276e-05
-1.55429e-05
-9.50639e-06
-6.0619e-06
-3.93294e-06
-2.00918e-06
-1.36309e-06
-1.01607e-06
-8.27164e-07
-7.38671e-07
-6.84221e-07
-6.31729e-07
-5.82545e-07
-5.37783e-07
-4.98856e-07
-4.67813e-07
-4.47714e-07
-4.42988e-07
-4.59659e-07
-5.05136e-07
-5.87243e-07
-7.12384e-07
-8.83611e-07
-1.1005e-06
-1.36148e-06
-1.6616e-06
-1.98381e-06
-2.30586e-06
-2.58219e-06
-2.70145e-06
-2.30356e-06
-1.73598e-06
-1.20826e-06
-8.00539e-07
-6.04754e-07
-5.01743e-07
-4.70287e-07
-5.04812e-07
9.30668e-08
1.12129e-05
8.02656e-06
-2.45088e-05
)
;
    }
    sWall
    {
        type            calculated;
        value           uniform -0.000207006;
    }
    nWall
    {
        type            calculated;
        value           nonuniform List<scalar> 6(-4.99936e-05 -5.26962e-05 -5.36119e-05 -7.68618e-05 -8.40459e-05 -0.000101873);
    }
    sideWalls
    {
        type            empty;
        value           nonuniform 0();
    }
    glass1
    {
        type            calculated;
        value           nonuniform List<scalar> 9(-6.17823e-05 -0.000162072 -0.000242398 -0.000307854 -0.000362438 -0.000408816 -0.000449981 -0.0005018 -0.000560952);
    }
    glass2
    {
        type            calculated;
        value           nonuniform List<scalar> 2(-0.000269994 -0.000298622);
    }
    sun
    {
        type            calculated;
        value           uniform 0;
    }
    Table_master
    {
        type            calculated;
        value           nonuniform List<scalar> 9(-1.53822e-07 -1.53846e-07 -1.53811e-07 -1.53748e-07 -1.53695e-07 -1.5368e-07 -1.53685e-07 -1.53704e-07 -1.53727e-07);
    }
    Table_slave
    {
        type            calculated;
        value           nonuniform List<scalar> 9(1.53102e-07 1.53268e-07 1.53395e-07 1.53523e-07 1.53517e-07 1.53336e-07 1.53119e-07 1.52933e-07 1.52822e-07);
    }
    inlet
    {
        type            calculated;
        value           uniform -0.0103143;
    }
    outlet
    {
        type            calculated;
        value           nonuniform List<scalar> 2(0.0118818 0.00296441);
    }
}


// ************************************************************************* //
