// -*- C++ -*-
// File generated by PyFoam - sorry for the ugliness

FoamFile
{
 version 2.0;
 format ascii;
 class volScalarField;
 location "1500";
 object T;
}

dimensions [ 0 0 0 1 0 0 0 ];

internalField nonuniform List<scalar> 458
(
  303.836
  303.539
  303.53
  303.53
  303.53
  303.53
  303.529
  303.529
  303.528
  303.527
  303.525
  303.522
  303.517
  303.511
  303.504
  303.345
  303.334
  303.333
  303.334
  303.333
  303.332
  303.329
  303.327
  303.324
  303.321
  303.317
  303.312
  303.305
  303.284
  303.228
  303.134
  303.1
  303.093
  304.047
  303.57
  303.546
  303.55
  303.554
  303.557
  303.56
  303.562
  303.562
  303.562
  303.559
  303.551
  303.539
  303.521
  303.499
  303.481
  303.467
  303.478
  303.35
  303.34
  303.337
  303.337
  303.336
  303.33
  303.321
  303.312
  303.304
  303.296
  303.288
  303.281
  303.275
  303.262
  303.234
  303.191
  303.152
  303.11
  304.252
  303.615
  303.569
  303.577
  303.589
  303.599
  303.609
  303.617
  303.622
  303.624
  303.622
  303.611
  303.592
  303.564
  303.529
  303.495
  303.464
  303.444
  303.363
  303.35
  303.348
  303.347
  303.347
  303.336
  303.318
  303.3
  303.284
  303.272
  303.262
  303.255
  303.249
  303.242
  303.232
  303.21
  303.183
  303.13
  304.444
  303.676
  303.594
  303.604
  303.622
  303.641
  303.66
  303.676
  303.689
  303.696
  303.696
  303.685
  303.66
  303.624
  303.579
  303.531
  303.484
  303.44
  303.41
  303.386
  303.371
  303.361
  303.355
  303.354
  303.355
  303.355
  303.357
  303.358
  303.359
  303.359
  303.358
  303.356
  303.352
  303.321
  303.283
  303.238
  303.174
  304.621
  303.753
  303.625
  303.625
  303.648
  303.674
  303.7
  303.726
  303.748
  303.764
  303.769
  303.759
  303.732
  303.69
  303.639
  303.583
  303.529
  303.482
  303.444
  303.413
  303.389
  303.37
  303.36
  303.361
  303.366
  303.37
  303.374
  303.377
  303.379
  303.379
  303.378
  303.374
  303.367
  303.35
  303.321
  303.279
  303.22
  303.239
  303.341
  303.354
  304.771
  303.853
  303.687
  303.652
  303.667
  303.693
  303.723
  303.755
  303.786
  303.812
  303.826
  303.82
  303.792
  303.746
  303.69
  303.629
  303.569
  303.517
  303.474
  303.437
  303.404
  303.377
  303.362
  303.366
  303.374
  303.382
  303.387
  303.391
  303.394
  303.394
  303.393
  303.388
  303.379
  303.365
  303.343
  303.31
  303.268
  303.253
  303.279
  303.309
  304.893
  304.018
  303.857
  303.762
  303.725
  303.725
  303.745
  303.773
  303.804
  303.84
  303.862
  303.858
  303.829
  303.781
  303.722
  303.66
  303.596
  303.542
  303.495
  303.454
  303.416
  303.381
  303.363
  303.37
  303.381
  303.391
  303.398
  303.403
  303.406
  303.406
  303.404
  303.399
  303.389
  303.375
  303.356
  303.331
  303.302
  303.28
  303.28
  303.304
  305.099
  304.448
  304.278
  304.113
  303.978
  303.895
  303.859
  303.85
  303.86
  303.883
  303.891
  303.874
  303.836
  303.783
  303.723
  303.662
  303.603
  303.55
  303.503
  303.462
  303.422
  303.383
  303.362
  303.372
  303.387
  303.398
  303.406
  303.412
  303.414
  303.415
  303.413
  303.409
  303.401
  303.385
  303.368
  303.351
  303.335
  303.323
  303.325
  303.448
  305.387
  305.108
  304.811
  304.572
  304.375
  304.225
  304.12
  304.051
  304.009
  303.976
  303.925
  303.866
  303.804
  303.741
  303.682
  303.626
  303.576
  303.53
  303.49
  303.454
  303.418
  303.381
  303.359
  303.373
  303.39
  303.403
  303.412
  303.418
  303.422
  303.424
  303.424
  303.423
  303.423
  303.425
  303.43
  303.442
  303.464
  303.49
  303.515
  303.574
  297.178
  301.508
  302.915
  303.4
  303.6
  303.684
  303.713
  303.711
  303.7
  303.677
  303.647
  303.614
  303.579
  303.545
  303.513
  303.483
  303.455
  303.429
  303.401
  303.37
  303.354
  303.372
  303.391
  303.405
  303.415
  303.423
  303.429
  303.434
  303.438
  303.442
  303.446
  303.45
  303.457
  303.469
  303.486
  303.505
  303.521
  303.534
  298.114
  301.356
  302.421
  302.964
  303.238
  303.371
  303.433
  303.457
  303.467
  303.47
  303.468
  303.462
  303.453
  303.443
  303.431
  303.419
  303.407
  303.393
  303.374
  303.35
  303.345
  303.366
  303.387
  303.402
  303.413
  303.422
  303.429
  303.435
  303.441
  303.446
  303.451
  303.456
  303.462
  303.471
  303.483
  303.496
  303.491
  303.517
  300.294
  300.223
  300.218
  302.062
  302.613
  302.946
  303.165
  303.244
  303.285
  303.306
  303.317
  303.327
  303.335
  303.342
  303.348
  303.353
  303.357
  303.359
  303.358
  303.353
  303.339
  303.318
  303.33
  303.353
  303.372
  303.387
  303.399
  303.409
  303.417
  303.424
  303.431
  303.437
  303.442
  303.448
  303.454
  303.461
  303.47
  303.474
  303.473
  303.507
)
;

boundaryField
{
  floor
  {
    type wallHeatTransfer;
    Tinf uniform 305.2;
    alphaWall uniform 0.24;
    value nonuniform List<scalar> 36
(
  303.716
  303.738
  303.677
  303.667
  303.67
  303.678
  303.692
  303.707
  303.721
  303.734
  303.748
  303.762
  303.777
  303.793
  303.808
  303.813
  303.788
  303.593
  303.605
  303.605
  303.536
  303.513
  303.521
  303.528
  303.615
  303.608
  303.716
  303.69
  303.683
  303.768
  303.738
  303.768
  303.677
  303.649
  303.622
  303.616
)
;
  }
  ceiling
  {
    type wallHeatTransfer;
    Tinf uniform 303.2;
    alphaWall uniform 0.24;
    value nonuniform List<scalar> 43
(
  300.48
  300.401
  300.388
  302.124
  302.647
  302.962
  303.167
  303.241
  303.279
  303.298
  303.307
  303.315
  303.322
  303.328
  303.332
  303.336
  303.337
  303.337
  303.334
  303.327
  303.313
  303.295
  303.306
  303.325
  303.341
  303.355
  303.366
  303.376
  303.384
  303.392
  303.399
  303.406
  303.413
  303.419
  303.426
  303.434
  303.443
  303.446
  303.443
  303.473
  305.285
  305.031
  298.382
)
;
  }
  sWall
  {
    type wallHeatTransfer;
    Tinf uniform 315.2;
    alphaWall uniform 0.36;
    value uniform 301.691;
  }
  nWall
  {
    type wallHeatTransfer;
    Tinf uniform 307.2;
    alphaWall uniform 0.36;
    value nonuniform List<scalar> 6
(
  304.097
  304.047
  303.957
  304.074
  304.052
  304.102
)
;
  }
  sideWalls
  {
    type empty;
  }
  glass1
  {
    type wallHeatTransfer;
    Tinf uniform 315.2;
    alphaWall uniform 4.3;
    value nonuniform List<scalar> 9
(
  312.453
  311.637
  311.084
  310.645
  310.293
  309.999
  309.757
  309.803
  310.009
)
;
  }
  glass2
  {
    type wallHeatTransfer;
    Tinf uniform 307.2;
    alphaWall uniform 4.3;
    value nonuniform List<scalar> 2
(
  305.817
  305.891
)
;
  }
  sun
  {
    type wallHeatTransfer;
    Tinf uniform 305.2;
    alphaWall uniform 0.24;
    value nonuniform List<scalar> 14
(
  304.035
  303.776
  303.773
  303.767
  303.762
  303.758
  303.754
  303.75
  303.747
  303.743
  303.739
  303.735
  303.729
  303.723
)
;
  }
  Table_master
  {
    type zeroGradient;
  }
  Table_slave
  {
    type zeroGradient;
  }
  inlet
  {
    type fixedValue;
    value uniform 292.15;
  }
  outlet
  {
    type zeroGradient;
  }
} 	// ************************************************************************* //

