/*--------------------------------*- C++ -*----------------------------------*\
  =========                 |
  \\      /  F ield         | OpenFOAM: The Open Source CFD Toolbox
   \\    /   O peration     | Website:  https://openfoam.org
    \\  /    A nd           | Version:  6
     \\/     M anipulation  |
\*---------------------------------------------------------------------------*/
FoamFile
{
    version     2.0;
    format      ascii;
    class       volScalarField;
    location    "100";
    object      epsilon;
}
// * * * * * * * * * * * * * * * * * * * * * * * * * * * * * * * * * * * * * //

dimensions      [0 2 -3 0 0 0 0];

internalField   nonuniform List<scalar> 
458
(
0.00102454
0.00141547
0.00163051
0.00194056
0.00228982
0.0027177
0.00313223
0.00346634
0.00362607
0.00337704
0.00279011
0.00222479
0.00165017
0.00121249
0.000839345
0.000137352
0.000220803
0.000359193
0.000473975
0.00048488
0.000389734
0.000300909
0.000236004
0.000189527
0.000155587
0.00013031
0.000111046
9.5912e-05
8.37448e-05
7.33399e-05
6.3648e-05
5.40892e-05
4.12871e-05
0.00200653
0.0025002
0.00129048
0.0013273
0.00148264
0.00176558
0.00210005
0.00237521
0.00250248
0.00235
0.00196711
0.00158663
0.00126437
0.00103939
0.000838122
0.00137536
0.000953452
0.0005638
0.000125542
0.000175754
0.000294105
0.000352377
0.000379634
0.000414446
0.00032258
0.000240589
0.000181231
0.000139361
0.000109827
8.86804e-05
7.30814e-05
6.12553e-05
5.34424e-05
4.94929e-05
5.88319e-05
5.24309e-05
0.00315918
0.0048257
0.00133792
0.00121315
0.00140275
0.00175327
0.00211829
0.00237677
0.00250686
0.00240001
0.00207625
0.00169285
0.00135088
0.00107756
0.000861759
0.000818547
0.000745917
0.000833337
0.000159339
0.000283006
0.000352915
0.000390533
0.000428901
0.00091668
0.000581594
0.000376063
0.000251796
0.000175324
0.000127027
9.56738e-05
7.50921e-05
6.36011e-05
4.96474e-05
4.3532e-05
6.80673e-05
5.96263e-05
0.00459699
0.00912305
0.00176854
0.00123182
0.00145646
0.00194856
0.00231738
0.00253803
0.00266795
0.00258066
0.00224984
0.00181009
0.00140841
0.0010976
0.000865297
0.000727553
0.000651427
0.00068079
0.00107449
0.000734644
0.000587065
0.000533135
0.000513354
0.00053633
0.00144623
0.00110372
0.000874601
0.000711766
0.000584846
0.000478073
0.000384217
0.000299719
0.000221582
0.000118177
6.65536e-05
9.02167e-05
6.93985e-05
0.0064749
0.0159168
0.00311061
0.00152084
0.00184174
0.00251623
0.00278485
0.0029477
0.00305594
0.00293652
0.00251189
0.00194534
0.00143935
0.00107401
0.00083289
0.000688986
0.000618852
0.000646626
0.000776244
0.000739801
0.000707473
0.00068446
0.000647881
0.000598277
0.000595628
0.000552616
0.00050793
0.000462932
0.00041234
0.000355544
0.000294732
0.00023331
0.000174779
0.000115314
7.32236e-05
7.70908e-05
9.04809e-05
9.77825e-05
0.000106665
0.000148004
0.00902122
0.023988
0.00675073
0.00281266
0.00330901
0.00358914
0.00357203
0.00363257
0.00369492
0.00348248
0.00287715
0.0021038
0.00144764
0.00101531
0.000778616
0.000672744
0.000656452
0.000727539
0.000834495
0.000887588
0.000893789
0.000853589
0.000772122
0.000667647
0.000575054
0.000506445
0.00045386
0.000404858
0.000352885
0.000297647
0.000241614
0.000188539
0.000142432
0.000103363
7.69406e-05
7.07316e-05
8.42625e-05
9.4151e-05
0.000168446
0.000168218
0.0116607
0.0289887
0.0132967
0.00750827
0.00623372
0.00526674
0.00473776
0.00463683
0.00461451
0.00422848
0.00331949
0.00224033
0.00140173
0.00092967
0.000742864
0.000705127
0.000751715
0.000861919
0.000978452
0.00103462
0.00100873
0.000920434
0.000794581
0.000657862
0.000539163
0.00045327
0.000392753
0.000341916
0.000292809
0.00024533
0.000201448
0.000162527
0.000132871
0.000111178
9.97798e-05
9.9486e-05
0.000116122
0.000149381
0.000270596
0.000275556
0.0122102
0.0284979
0.0175663
0.0124757
0.00904355
0.00698643
0.00611354
0.00598106
0.00585461
0.00513808
0.003698
0.00219045
0.00120654
0.000860743
0.000768676
0.000783205
0.00085679
0.00096293
0.00104434
0.00104593
0.000966791
0.000835962
0.000687859
0.000550776
0.000444505
0.000371209
0.000318347
0.000275584
0.000239545
0.000211149
0.000192391
0.000184943
0.000190131
0.000209204
0.000248449
0.000338438
0.000518039
0.00085169
0.00313959
0.000889619
0.0112989
0.0184577
0.0139219
0.0105245
0.00823651
0.0073153
0.00740028
0.00776506
0.00737809
0.00587464
0.00339065
0.00168643
0.00104721
0.000850932
0.000813236
0.000839877
0.000892733
0.000941388
0.000946885
0.000888342
0.000780293
0.000651286
0.000527523
0.000424639
0.000347425
0.000291544
0.000249264
0.000216362
0.000193071
0.00018259
0.000189824
0.000220507
0.000280232
0.000374642
0.000510392
0.000693073
0.000918092
0.00115572
0.00136535
0.000764795
0.00203194
0.00389398
0.00665987
0.00927974
0.010642
0.0102718
0.00701
0.00369201
0.00193148
0.00119648
0.000924655
0.000837787
0.000821448
0.000829244
0.000835942
0.000821516
0.000771194
0.000687106
0.000586751
0.000489273
0.000406546
0.000341604
0.000291647
0.000251703
0.000218078
0.000190219
0.000170367
0.000162227
0.000169481
0.000195285
0.000243389
0.000319178
0.000427651
0.000565628
0.000708777
0.0008041
0.00079131
0.000447786
0.0105796
0.0273215
0.0206995
0.01355
0.00865088
0.00539401
0.00319399
0.00189251
0.00125293
0.000980741
0.000871877
0.000829418
0.000810722
0.000795932
0.00077361
0.000736738
0.000683526
0.000619224
0.000553067
0.000492584
0.000441011
0.000397832
0.000360748
0.000327486
0.000297019
0.000270101
0.000248792
0.000235451
0.000232074
0.000240661
0.000264218
0.000306983
0.000371836
0.000453742
0.000536834
0.000614874
0.00058034
0.000489995
0.00730932
0.00850553
0.00971353
0.0117744
0.00790387
0.00512034
0.00377505
0.00288367
0.00221301
0.00175005
0.00147794
0.00133365
0.00125749
0.00121129
0.00117168
0.00112328
0.00105656
0.000968497
0.000863823
0.000753432
0.000648626
0.000556464
0.000478826
0.000414273
0.000360432
0.000315598
0.000279223
0.000251479
0.000232553
0.000222306
0.000220442
0.000226983
0.000242704
0.000269246
0.00030826
0.000358482
0.000400368
0.000366038
0.000298463
0.000285101
)
;

boundaryField
{
    floor
    {
        Cmu             0.09;
        kappa           0.41;
        E               9.8;
        type            epsilonWallFunction;
        value           nonuniform List<scalar> 
36
(
0.000839345
0.000137352
0.000220803
0.000359193
0.000473975
0.00048488
0.000389734
0.000300909
0.000236004
0.000189527
0.000155587
0.00013031
0.000111046
9.5912e-05
8.37448e-05
7.33399e-05
6.3648e-05
5.40892e-05
4.12871e-05
4.12871e-05
5.24309e-05
5.96263e-05
6.93985e-05
9.77825e-05
0.000106665
0.000148004
0.000839345
0.00137536
0.000953452
0.0005638
0.000137352
0.0005638
0.000125542
0.000833337
0.000159339
0.00107449
)
;
    }
    ceiling
    {
        Cmu             0.09;
        kappa           0.41;
        E               9.8;
        type            epsilonWallFunction;
        value           nonuniform List<scalar> 
43
(
0.00730932
0.00850553
0.00971353
0.0117744
0.00790387
0.00512034
0.00377505
0.00288367
0.00221301
0.00175005
0.00147794
0.00133365
0.00125749
0.00121129
0.00117168
0.00112328
0.00105656
0.000968497
0.000863823
0.000753432
0.000648626
0.000556464
0.000478826
0.000414273
0.000360432
0.000315598
0.000279223
0.000251479
0.000232553
0.000222306
0.000220442
0.000226983
0.000242704
0.000269246
0.00030826
0.000358482
0.000400368
0.000366038
0.000298463
0.000285101
0.0112989
0.0184577
0.0105796
)
;
    }
    sWall
    {
        Cmu             0.09;
        kappa           0.41;
        E               9.8;
        type            epsilonWallFunction;
        value           uniform 0.00730932;
    }
    nWall
    {
        Cmu             0.09;
        kappa           0.41;
        E               9.8;
        type            epsilonWallFunction;
        value           nonuniform List<scalar> 6(0.000148004 0.000168218 0.000275556 0.000447786 0.000489995 0.000285101);
    }
    sideWalls
    {
        type            empty;
    }
    glass1
    {
        Cmu             0.09;
        kappa           0.41;
        E               9.8;
        type            epsilonWallFunction;
        value           nonuniform List<scalar> 9(0.00102454 0.00200653 0.00315918 0.00459699 0.0064749 0.00902122 0.0116607 0.0122102 0.0112989);
    }
    glass2
    {
        Cmu             0.09;
        kappa           0.41;
        E               9.8;
        type            epsilonWallFunction;
        value           nonuniform List<scalar> 2(0.000889619 0.000764795);
    }
    sun
    {
        Cmu             0.09;
        kappa           0.41;
        E               9.8;
        type            epsilonWallFunction;
        value           nonuniform List<scalar> 
14
(
0.00102454
0.00141547
0.00163051
0.00194056
0.00228982
0.0027177
0.00313223
0.00346634
0.00362607
0.00337704
0.00279011
0.00222479
0.00165017
0.00121249
)
;
    }
    Table_master
    {
        Cmu             0.09;
        kappa           0.41;
        E               9.8;
        type            epsilonWallFunction;
        value           nonuniform List<scalar> 9(0.00091668 0.000581594 0.000376063 0.000251796 0.000175324 0.000127027 9.56738e-05 7.50921e-05 6.36011e-05);
    }
    Table_slave
    {
        Cmu             0.09;
        kappa           0.41;
        E               9.8;
        type            epsilonWallFunction;
        value           nonuniform List<scalar> 9(0.00144623 0.00110372 0.000874601 0.000711766 0.000584846 0.000478073 0.000384217 0.000299719 0.000221582);
    }
    inlet
    {
        type            turbulentMixingLengthDissipationRateInlet;
        mixingLength    0.01;
        phi             phi;
        k               k;
        value           uniform 0.000471672;
    }
    outlet
    {
        type            zeroGradient;
    }
}


// ************************************************************************* //
