/*--------------------------------*- C++ -*----------------------------------*\
  =========                 |
  \\      /  F ield         | OpenFOAM: The Open Source CFD Toolbox
   \\    /   O peration     | Website:  https://openfoam.org
    \\  /    A nd           | Version:  6
     \\/     M anipulation  |
\*---------------------------------------------------------------------------*/
FoamFile
{
    version     2.0;
    format      ascii;
    class       volScalarField;
    location    "100";
    object      nut;
}
// * * * * * * * * * * * * * * * * * * * * * * * * * * * * * * * * * * * * * //

dimensions      [0 2 -1 0 0 0 0];

internalField   nonuniform List<scalar> 
458
(
0.00142515
0.00158726
0.00166386
0.00176326
0.00186324
0.00197273
0.00206832
0.0021394
0.00217178
0.00212099
0.0019902
0.00184551
0.00167056
0.00150742
0.00133347
0.000729223
0.000854247
0.0010047
0.00110198
0.00111034
0.00103237
0.000947095
0.000873417
0.000811838
0.000760153
0.000716526
0.000679312
0.000646927
0.000618318
0.000591564
0.000564259
0.000534465
0.000488444
0.00178312
0.00459527
0.00464795
0.00544464
0.00623008
0.00678111
0.00732847
0.00784971
0.00833839
0.00866898
0.00854432
0.00807748
0.007341
0.00578768
0.00379026
0.00157207
0.00139132
0.00116779
0.000707696
0.00198669
0.00320386
0.0040857
0.00421503
0.00275669
0.00224566
0.00192368
0.00169974
0.00153785
0.00141759
0.00132739
0.00125817
0.00117358
0.00108109
0.000988949
0.000960784
0.000528973
0.00207442
0.00628427
0.00581095
0.00655453
0.00697285
0.00726208
0.00759199
0.00806215
0.00876163
0.00950335
0.00983185
0.0097651
0.00935431
0.00836596
0.00672604
0.00463563
0.00345315
0.00133022
0.000766455
0.00199007
0.00348783
0.0048706
0.00503395
0.00137298
0.00117977
0.00102018
0.000892491
0.000791038
0.000710466
0.0006464
0.000596249
0.000564128
0.000681136
0.000828606
0.00107437
0.000552177
0.00235072
0.00770463
0.00608092
0.00675091
0.00680018
0.00684632
0.00696066
0.00738244
0.00824345
0.00916412
0.00977149
0.00997553
0.00983495
0.00932463
0.00830519
0.00681309
0.00526556
0.00287984
0.0014478
0.00180087
0.00300231
0.00481759
0.00644276
0.0065002
0.00159833
0.00146061
0.0013516
0.00126189
0.00118192
0.00110511
0.00102746
0.000945823
0.000855226
0.000774012
0.000789194
0.00116061
0.000580862
0.00263505
0.00946435
0.00668563
0.00701356
0.00692557
0.00670851
0.00660829
0.00702627
0.00793832
0.00895658
0.00968662
0.00999294
0.00996458
0.00969062
0.00914703
0.0082703
0.00714982
0.00571782
0.00537228
0.00630389
0.00760754
0.00888986
0.00976941
0.00984372
0.00824257
0.00726727
0.00658252
0.00590156
0.00517987
0.00443474
0.00367214
0.00289759
0.00213913
0.00151061
0.00114503
0.00119156
0.000837745
0.000651338
0.000670614
0.000747927
0.00294307
0.0114443
0.0086646
0.00783547
0.00744011
0.00683717
0.00656033
0.00696703
0.007966
0.00908505
0.00987772
0.0102144
0.0102628
0.0102201
0.0101316
0.00987857
0.00951011
0.00921517
0.00972864
0.0108492
0.0117566
0.0123202
0.0124605
0.0121236
0.0112494
0.0102717
0.00925625
0.00820398
0.00713994
0.00607716
0.00502099
0.00397856
0.00299587
0.00217708
0.00164441
0.00140465
0.00111087
0.000944181
0.00113859
0.000780531
0.00320595
0.0126792
0.01118
0.0093788
0.0080193
0.00690233
0.00654801
0.00709876
0.0082941
0.00954131
0.0103701
0.0107395
0.0110145
0.0114735
0.01183
0.0120019
0.0121423
0.0124629
0.0131835
0.0139459
0.0142889
0.0142399
0.0138348
0.013122
0.0121617
0.0110683
0.00989723
0.00872965
0.00759093
0.00649904
0.00546375
0.00447016
0.00358623
0.00285689
0.00233491
0.00198449
0.00168621
0.00150803
0.00137
0.000920225
0.00325554
0.0104833
0.00975172
0.00844041
0.00704157
0.00622495
0.00635797
0.00741672
0.00897061
0.0103205
0.011106
0.0115672
0.0124685
0.0131717
0.0135454
0.0137991
0.0140867
0.0144814
0.0149485
0.0152192
0.0150921
0.01459
0.013797
0.0127928
0.0116557
0.0104661
0.00927047
0.00810578
0.0070016
0.0059874
0.0050924
0.00434017
0.00375006
0.00329042
0.00294207
0.00278941
0.0027372
0.00264654
0.00307353
0.00136017
0.00317245
0.00373633
0.00392712
0.00392379
0.00405295
0.00481041
0.00633148
0.00832887
0.0102245
0.0113222
0.0118864
0.0126457
0.0134746
0.0139412
0.0141769
0.0143825
0.0146149
0.0148305
0.0149168
0.0147312
0.0142126
0.0134026
0.012386
0.0112474
0.0100565
0.00885714
0.00766218
0.0064756
0.00530936
0.0042092
0.00328062
0.0026412
0.00230041
0.002156
0.00210423
0.00208505
0.00204787
0.00197232
0.0018661
0.00129321
0.000813163
0.00209141
0.00435761
0.00712782
0.0095151
0.0111286
0.0119863
0.0120162
0.0121063
0.0125153
0.0128265
0.0129635
0.0130737
0.0132018
0.0132975
0.0132716
0.0130297
0.0125181
0.0117492
0.0107897
0.00972518
0.00862913
0.00754564
0.00648537
0.00544544
0.00444181
0.00352925
0.00279354
0.00230003
0.00203858
0.00194076
0.0019353
0.00196873
0.00199562
0.00197023
0.00186379
0.00167319
0.00108167
0.00310324
0.010103
0.0118367
0.011769
0.0112952
0.0106236
0.00998994
0.0096502
0.00946668
0.00931709
0.00920628
0.00918107
0.00922669
0.00928538
0.00928624
0.00916068
0.00885901
0.00837337
0.00774036
0.00702351
0.00628609
0.00556987
0.00489122
0.00425387
0.00366644
0.00314936
0.00272646
0.00241081
0.0021973
0.00206821
0.00200454
0.00199049
0.00200616
0.00201931
0.00200059
0.00196246
0.00192606
0.0011146
0.0027436
0.00288574
0.00301632
0.00321617
0.00281604
0.00243656
0.00220111
0.00201206
0.00184209
0.0017034
0.00161003
0.00155577
0.00152553
0.00150658
0.00148996
0.00146914
0.00143944
0.00139827
0.00134596
0.00128598
0.00122334
0.00116241
0.00110561
0.00105351
0.00100574
0.000962195
0.000923738
0.000892109
0.000869194
0.000856289
0.000853944
0.000862365
0.00088189
0.000912992
0.000955175
0.00100452
0.00104217
0.00101142
0.000944857
0.000930499
)
;

boundaryField
{
    floor
    {
        type            nutkWallFunction;
        Cmu             0.09;
        kappa           0.41;
        E               9.8;
        value           nonuniform List<scalar> 
36
(
0.000159273
8.83233e-05
0.000103441
0.000121293
0.000132672
0.000133648
0.000124546
0.000114499
0.000105736
9.8345e-05
9.2091e-05
8.67727e-05
8.22058e-05
7.8207e-05
7.46544e-05
7.13138e-05
6.78853e-05
6.41203e-05
5.82532e-05
5.82532e-05
6.34201e-05
6.63543e-05
6.99618e-05
7.87284e-05
8.10963e-05
9.05727e-05
0.000159273
0.000186185
0.000165847
0.000140278
8.83233e-05
0.000140278
8.56901e-05
0.000158911
9.28342e-05
0.000172241
)
;
    }
    ceiling
    {
        type            nutkWallFunction;
        Cmu             0.09;
        kappa           0.41;
        E               9.8;
        value           nonuniform List<scalar> 
43
(
0.00031285
0.000327778
0.000341428
0.000362351
0.000320667
0.000280521
0.000255278
0.000234797
0.000216204
0.000200897
0.000190517
0.000184456
0.00018107
0.000178945
0.000177077
0.000174734
0.000171384
0.000166726
0.000160784
0.000153939
0.000146752
0.000139721
0.00013313
0.000127048
0.000121442
0.000116304
0.000111743
0.000107974
0.000105232
0.000103681
0.000103395
0.000104399
0.000106728
0.00011043
0.000115428
0.000121244
0.000125666
0.000122065
0.000114215
0.000112518
0.000357948
0.00041598
0.000350179
)
;
    }
    sWall
    {
        type            nutkWallFunction;
        Cmu             0.09;
        kappa           0.41;
        E               9.8;
        value           uniform 0.000312925;
    }
    nWall
    {
        type            nutkWallFunction;
        Cmu             0.09;
        kappa           0.41;
        E               9.8;
        value           nonuniform List<scalar> 6(9.05719e-05 9.45318e-05 0.000111275 0.000130304 0.000134143 0.000112522);
    }
    sideWalls
    {
        type            empty;
    }
    glass1
    {
        type            nutkWallFunction;
        Cmu             0.09;
        kappa           0.41;
        E               9.8;
        value           nonuniform List<scalar> 9(0.000169899 0.000209933 0.000241857 0.000271693 0.000302012 0.000334472 0.000361898 0.000367058 0.00035845);
    }
    glass2
    {
        type            nutkWallFunction;
        Cmu             0.09;
        kappa           0.41;
        E               9.8;
        value           nonuniform List<scalar> 2(0.000162361 0.000154738);
    }
    sun
    {
        type            nutkWallFunction;
        Cmu             0.09;
        kappa           0.41;
        E               9.8;
        value           nonuniform List<scalar> 
14
(
0.00016967
0.000187872
0.000196404
0.000207412
0.000218418
0.000230397
0.000240797
0.000248496
0.000251994
0.000246497
0.000232298
0.000216471
0.00019715
0.000178937
)
;
    }
    Table_master
    {
        type            nutkWallFunction;
        Cmu             0.09;
        kappa           0.41;
        E               9.8;
        value           nonuniform List<scalar> 9(0.000163796 0.000141684 0.00012311 0.000108009 9.58328e-05 8.60315e-05 7.81436e-05 7.19033e-05 6.7873e-05);
    }
    Table_slave
    {
        type            nutkWallFunction;
        Cmu             0.09;
        kappa           0.41;
        E               9.8;
        value           nonuniform List<scalar> 9(0.000189165 0.00017372 0.000161379 0.00015114 0.000141943 0.000133043 0.000123973 0.000114352 0.000103562);
    }
    inlet
    {
        type            calculated;
        value           uniform 0.000167705;
    }
    outlet
    {
        type            calculated;
        value           nonuniform List<scalar> 2(0.0027436 0.00288574);
    }
}


// ************************************************************************* //
