/*--------------------------------*- C++ -*----------------------------------*=========                 |
  \      /  F ield         | OpenFOAM: The Open Source CFD Toolbox
   \    /   O peration     | Website:  https://openfoam.org
    \  /    A nd           | Version:  6
     \/     M anipulation  |
\*---------------------------------------------------------------------------*/
FoamFile
{
    version     2.0;
    format      ascii;
    class       volScalarField;
    location    "100";
    object      PPD;
}
// * * * * * * * * * * * * * * * * * * * * * * * * * * * * * * * * * * * * * //

dimensions      [0 0 0 0 0 0 0];

internalField   nonuniform List<scalar> 
458
(
29.902856003132854
19.143936818837147
17.54405010212126
16.566341982951812
16.18945808967655
16.42784869921978
17.335371225532356
19.187197725407785
22.341345853191584
26.903342661865295
26.83124926633171
25.402195017182592
24.86785775879396
25.75789479453212
26.352676495359205
52.288811941915164
50.36471689581962
48.91368081325372
48.83610891418531
49.6644346336792
50.08007531575445
49.512080570207615
49.585683497384714
50.041824444747874
50.628133550788036
51.27184282586
51.99502265409039
52.8168611449067
53.776278776286986
55.01677262834683
56.8112033025161
59.41066772602043
62.13385598859069
26.021382007173187
19.883128480651052
19.110491599507583
18.13519714982118
17.72353965372048
17.84863125198008
18.214076141333763
18.881121329014505
20.233818451664376
23.12104937512018
25.814456562717297
26.590816765845375
26.353462420480113
25.612403613013157
24.362415749273723
24.183536752857066
26.3628012523656
29.863286917693856
52.88779957306692
48.86196418830838
46.87779210823566
46.03411266028967
46.26382343315242
47.10584609700457
47.88213571188505
48.69452890768625
49.488983751601964
50.32855598179227
51.1858039835594
52.087937049339885
53.02889102636773
54.066120584369024
55.384844967843605
57.290509529013015
59.45349758479844
61.466365539473976
26.237751726329336
19.86376256379883
20.955887109736338
20.697331714917595
20.56946189759202
20.44306376706932
19.32733419131712
17.805872812630696
17.637347771835096
20.140497950435247
23.78219768890193
26.73305707896857
27.983250343422327
27.539979460414145
26.42060509365278
26.359869204479608
27.173757924934804
27.899216953048025
48.91798096700973
42.900450854584484
40.77091307168755
41.67834137313244
43.42186529269565
44.456130927515765
46.83214209754533
48.971697947534444
50.60467123219767
51.99980131001897
53.38207821851948
54.75779600251924
56.01371490253042
56.95145862803949
57.85338877701724
59.08474471300832
59.51591802131939
58.9227524346113
28.69492238072756
19.974448696479428
22.65635851041675
24.235276328977548
25.471945206213192
24.61640956677681
20.364131594615174
16.553937644551553
15.70738554186569
18.16106454791445
22.55633170834271
27.11039088308354
30.072811344810916
30.51311697357481
29.46032045896692
28.406796259352276
27.132755803022377
25.772586710160056
25.368896794416884
28.55005264847253
31.960278704038558
36.03583868240028
40.71229475506093
45.285509978865385
48.97322922668454
50.58225335423985
51.97835651436889
53.66046967269012
55.49739839673326
57.385343536742404
59.33405437880502
61.48531790200153
64.01588908490321
63.77950782055814
62.28274022451631
60.114013250528785
57.78841588209354
32.47714064380257
20.66467100140639
24.25051350325934
28.315250352951253
32.91939610430964
28.625396792571664
20.348814938999624
15.32778148381712
14.358554331756125
16.990535007014714
22.402792459608406
28.658756553832248
33.448939197091846
35.12350260221194
34.090914018474265
32.30101601693653
30.46462795722819
29.22175620814029
30.16108119725527
32.553393340420556
36.469055315090365
41.51589687002554
46.99773658129375
52.22840581786423
56.63014063726477
59.42639806023698
61.66864535414384
63.62348352096064
65.28045363400305
66.62930618812376
67.72350164060872
68.50904896200382
68.85302779700102
67.50311703284899
64.86813555789261
61.17297284168803
59.8372813220925
64.60315538576448
78.95544381849751
72.29836842579999
36.98501661609386
22.279313247267467
26.987779840733708
32.98617896198843
36.07225820357363
27.479896733845962
19.15253838808455
14.045227091358385
13.240809020687607
16.575154642350867
23.60039299382018
32.14093089542676
39.284013134729754
42.686859251576806
41.68039500853101
39.327215547582625
37.41921426098783
36.73623909991649
38.49679180529598
42.0322668571119
46.857074889073374
52.29918657329008
57.69652147667391
62.549743334278716
66.48797973486751
68.6455911131271
70.23275184625038
71.39199575868577
72.23257554386905
72.7874915139047
73.06326139953194
72.99442575964297
72.51059106511704
71.02038725600431
67.99425637178311
63.946017007250404
62.26975240697564
64.09063885655135
69.3071219535847
72.02595301804364
42.145937692539185
26.49292204632019
35.311367828602
36.29250831828933
32.11920761952588
24.350593658138692
16.293720400391592
11.923805109024073
12.21272134383554
17.2154052853636
27.157395476529132
39.10788546156496
47.70063519029183
49.534884350177656
49.01713809197736
48.16461631005493
47.95830729619784
48.75356927592573
51.742720372866465
56.23910214725897
60.95652312289445
65.11825164455124
68.62132877754522
71.32151425061198
73.33788538974409
74.76026704731913
75.64579115894338
76.23548531976085
76.62492802092557
76.81852684395443
76.77556998858407
76.40893863047472
75.62382483989981
74.26733277891661
72.11101442710182
68.33347872788647
65.8898880257701
65.4592686238614
66.07474228454683
70.45565964083042
49.65002884532941
44.32963132670068
42.49302577233886
36.98565911883411
29.342756604787027
18.808635919323464
11.37596456131331
9.097915629273487
11.675006934101987
20.336378052793847
35.72950029788663
50.78020918102967
56.27392349652351
57.5214098353505
57.157856633955475
56.89801558457515
57.54736722768201
59.61821763350544
63.253220873044036
67.40054865367807
71.10967790591987
74.08706957808347
76.3872890409916
78.0059604433483
79.04044712870243
79.60883994478488
79.95003603784069
80.14934877755027
80.18908703221781
80.1095690316106
79.84999245822829
79.36621618244828
78.62962194975859
77.47955112184715
75.86496257522467
74.22231729579411
72.9759803151679
71.69557931985221
69.23832627061884
67.35955029584697
61.38049079267932
55.71760590550007
49.31876621949821
37.75249131803085
17.97716272160301
7.765118772788298
5.6188903287997505
6.581760212318173
14.091686885884428
31.768314600773095
52.54920447912402
61.717308630191916
63.296387461614955
63.666614042567815
64.02392614142866
65.05186449116825
67.02332258034099
69.94295635178014
73.31809629699917
76.30255148989683
78.53305095531105
80.0198622772874
80.92760102660486
81.4664859926906
81.71820946478223
81.80999363826479
81.83105515642636
81.7765237195625
81.64302381533018
81.34436070399472
80.87813573764012
80.17560703069427
79.23151065839019
78.130277522611
77.05853800394947
76.22093849093505
75.88782346588226
75.97906322876007
75.86590284288216
75.99766451051084
97.225314635476
93.19611045885668
76.80558413981554
35.8869663949002
7.679357006368917
10.151251029394047
38.46640561727119
56.79493726438587
64.3760811523693
67.80929371771046
69.34237015845957
70.33036575359154
71.36873415095302
72.8260464547529
74.72888457272859
76.96070330991552
79.2301512436816
81.15886810368764
82.58969721874234
83.4740839762655
83.97127251775386
84.16901152445041
84.17002337214196
84.08179889094794
83.91368379551152
83.67317743620745
83.34791013707253
82.90479967437301
82.36885805993519
81.73288798093692
81.07377801657957
80.48999057833818
80.09671858109743
80.02913829763246
80.59178387695955
82.23399704867778
85.69332974269344
88.2936466076003
57.068191035158755
8.859226456093097
8.13702613403261
19.50251571464797
33.75624942929112
49.072330269430076
61.7369173778752
69.46294418271876
73.4007628398888
75.45575390808305
76.75965460761427
77.8781482302184
79.06339710081302
80.34664699865792
81.76754826679634
83.21257465465459
84.50898702788122
85.5396634129761
86.24845112319224
86.63555093683576
86.80924495827847
86.81378115316882
86.6858680733716
86.49233109714079
86.23271620975163
85.89156629762867
85.50834828830452
85.08984002614847
84.62411689461663
84.17455175391193
83.81495650584934
83.58974577329371
83.59459121196215
83.84435920792775
84.39607983327602
86.15319553703445
86.4360173083087
88.6308466353454
5.1466687965925075
5.2280795619259095
5.041860878669695
22.069960170621897
47.47863919503895
62.55699561908852
70.4353627344963
75.48888856905475
79.00115873300217
81.36308630031968
82.93766518158458
84.0492040896683
84.92020395191412
85.69127473681836
86.39487299720578
87.05678951980956
87.69612233066673
88.26160325086578
88.72267446567815
89.03675093471668
89.21089942398307
89.26598248261733
89.2056731302518
89.07782011956138
88.88351476655355
88.6553919987904
88.36503688159311
88.04988476071446
87.70165317791151
87.31130069818327
86.91904492355967
86.51416717888088
86.12089099392007
85.79134706600324
85.49890940264507
85.22238545189809
85.28459446211764
86.17826301934119
87.05749650422572
89.3113000347782
)
;

boundaryField
{
    ".*"
    {
        type            zeroGradient;
    }
}


// ************************************************************************* //
