/*--------------------------------*- C++ -*----------------------------------*\
  =========                 |
  \\      /  F ield         | OpenFOAM: The Open Source CFD Toolbox
   \\    /   O peration     | Website:  https://openfoam.org
    \\  /    A nd           | Version:  6
     \\/     M anipulation  |
\*---------------------------------------------------------------------------*/
FoamFile
{
    version     2.0;
    format      ascii;
    class       volScalarField;
    location    "1500";
    object      alphat;
}
// * * * * * * * * * * * * * * * * * * * * * * * * * * * * * * * * * * * * * //

dimensions      [1 -1 -1 0 0 0 0];

internalField   nonuniform List<scalar> 
458
(
0.000804488
0.000835541
0.000811429
0.000839555
0.000864844
0.000886779
0.00090604
0.000923437
0.000939842
0.000956323
0.000970204
0.000980062
0.000986249
0.000990897
0.00099438
0.000462249
0.000577335
0.000600066
0.000592711
0.00057159
0.000535409
0.000499927
0.000468426
0.000439882
0.000413218
0.000387586
0.000362004
0.000334804
0.000302528
0.000260321
0.000230515
0.000392052
0.000370176
0.00127342
0.00203942
0.00168015
0.00201397
0.00215628
0.0023028
0.00244679
0.00257714
0.00267813
0.00272885
0.00273558
0.00266698
0.00248274
0.00212613
0.0015643
0.00104159
0.00100431
0.000656576
0.000612681
0.0014685
0.00187003
0.00206204
0.00182927
0.00134965
0.0011789
0.00105946
0.000947102
0.000835368
0.000724822
0.000617299
0.000519803
0.000446516
0.00040869
0.000379454
0.000738331
0.000493036
0.00170324
0.00320012
0.00183264
0.00293212
0.00320836
0.00339092
0.00353787
0.00365364
0.00373993
0.00379218
0.0038123
0.00377879
0.00366037
0.00341942
0.00302219
0.00246938
0.00177445
0.00109397
0.000843976
0.00267995
0.00281261
0.00252574
0.00178944
0.000584802
0.000480221
0.000409019
0.000365453
0.000337925
0.000318804
0.000304697
0.000294131
0.000287084
0.00033115
0.00034677
0.000777456
0.000570153
0.00214189
0.00492822
0.00188455
0.0032979
0.00383661
0.00402613
0.00414091
0.00421536
0.00426509
0.00429727
0.0043167
0.00431856
0.00428451
0.00418587
0.00397054
0.00355155
0.0028453
0.00190171
0.00111832
0.00300486
0.00300827
0.00277292
0.00231857
0.00153671
0.000593437
0.000594001
0.000612513
0.000636887
0.000660869
0.000677802
0.000680437
0.00066242
0.000640563
0.000596571
0.000555636
0.000873659
0.000640121
0.00258412
0.00715177
0.00252576
0.00308857
0.0040942
0.00435708
0.00446252
0.00450631
0.0045181
0.00452114
0.00452469
0.00454716
0.004571
0.00457167
0.00452155
0.00440022
0.0042128
0.00395203
0.00355551
0.00325903
0.00287076
0.0025157
0.00228323
0.00218509
0.00216339
0.00228608
0.00242363
0.0025585
0.0026654
0.0027216
0.00270769
0.00259941
0.00224781
0.00179719
0.00138114
0.00108552
0.00109212
0.000795236
0.000795428
0.000877126
0.00303162
0.00950236
0.00455955
0.00289193
0.00369231
0.00424754
0.00451628
0.00463744
0.00465291
0.00460307
0.00456058
0.00459033
0.00463595
0.00466301
0.00464454
0.00456179
0.00440273
0.00412828
0.00369386
0.00316658
0.00267913
0.0023533
0.00223421
0.00224648
0.00233994
0.0025091
0.00270808
0.00289335
0.0030444
0.00314494
0.00318722
0.00316565
0.00299781
0.00264526
0.00219163
0.00165969
0.00136405
0.00111564
0.00130363
0.000901945
0.00346435
0.0114222
0.0081926
0.00473866
0.00346468
0.00337111
0.00381641
0.00428554
0.00459881
0.00456884
0.00452758
0.0045604
0.00459911
0.00461785
0.00459473
0.00451004
0.00433772
0.00404784
0.00362149
0.00310993
0.00262934
0.00231324
0.00222208
0.00224738
0.00233884
0.00249333
0.00268497
0.00287619
0.00304633
0.00317859
0.00327586
0.00335218
0.00339271
0.0032157
0.00285159
0.0024032
0.00205117
0.00180044
0.00165734
0.00107885
0.00356316
0.0112108
0.00956524
0.0081579
0.00629735
0.00489778
0.00427756
0.00421162
0.00441078
0.00450749
0.00450742
0.00450198
0.00449966
0.00448294
0.00442856
0.00431582
0.00412763
0.00384743
0.00347209
0.00303755
0.00261698
0.00231496
0.00223339
0.00226441
0.00235101
0.00248082
0.00263556
0.00279141
0.00293582
0.00306709
0.00319734
0.0033525
0.00356774
0.00380684
0.0036476
0.00350926
0.00352001
0.00343391
0.00374171
0.00161759
0.00347672
0.00417413
0.00492283
0.00527809
0.00534994
0.00508882
0.00475384
0.00450492
0.00437965
0.00431569
0.00430597
0.0043153
0.00431283
0.00427437
0.00418305
0.0040293
0.00380998
0.0035273
0.00319378
0.00283981
0.00251016
0.00227543
0.0022159
0.00225568
0.00233152
0.0024259
0.00253166
0.00263555
0.00272694
0.00280045
0.0028547
0.00288855
0.00289739
0.00287415
0.00282936
0.00276191
0.0026436
0.00246968
0.00229844
0.00155656
0.00322395
0.0062869
0.00582319
0.00552482
0.00524326
0.00500031
0.00481247
0.0046666
0.00453099
0.00439598
0.00424786
0.00407489
0.00386979
0.00363028
0.00335897
0.00306436
0.00276473
0.00249082
0.00227228
0.00213428
0.00213288
0.00218892
0.0022434
0.00229449
0.00235409
0.00242033
0.00248515
0.00254138
0.00258565
0.00261908
0.00264591
0.00266887
0.00265524
0.00258531
0.00243158
0.00219296
0.00192537
0.00129346
0.0030108
0.0068109
0.00628441
0.0058723
0.00553846
0.00524593
0.00496472
0.00470065
0.00444104
0.00413295
0.00381013
0.00348962
0.00317974
0.00288403
0.00260454
0.00234673
0.00212848
0.00198832
0.00194918
0.00194115
0.00206152
0.00218382
0.0022137
0.00219266
0.0021815
0.00220437
0.00226124
0.00234446
0.00244519
0.00255151
0.00263806
0.00271595
0.00277221
0.00277579
0.00270301
0.00261883
0.002541
0.0013159
0.00235954
0.00256717
0.00274355
0.00291428
0.00273203
0.00257371
0.00234917
0.00216587
0.00199583
0.0018363
0.00168771
0.0015616
0.00144666
0.00133683
0.00122844
0.00111908
0.00100709
0.000891766
0.000775164
0.00066645
0.000579229
0.000526317
0.000545555
0.000580318
0.000607423
0.000634898
0.000669065
0.000710907
0.000759315
0.000813358
0.000873335
0.000941629
0.00102465
0.00111391
0.00120356
0.00129514
0.00134798
0.00132393
0.0012296
0.00114097
)
;

boundaryField
{
    floor
    {
        type            compressible::alphatWallFunction;
        Prt             0.85;
        value           nonuniform List<scalar> 
36
(
0.00014153
6.34429e-05
8.09868e-05
8.43957e-05
8.32927e-05
8.0118e-05
7.46461e-05
6.92354e-05
6.43913e-05
5.99663e-05
5.57992e-05
5.17606e-05
4.76945e-05
4.33287e-05
3.80847e-05
3.11108e-05
2.61081e-05
5.24927e-05
4.90089e-05
4.90083e-05
6.8184e-05
7.99063e-05
9.03719e-05
0.0001131
0.000113128
0.00012488
0.000141528
0.000148166
0.000142931
9.28054e-05
6.34421e-05
9.28043e-05
8.62713e-05
0.000155483
0.000120121
0.000158874
)
;
    }
    ceiling
    {
        type            compressible::alphatWallFunction;
        Prt             0.85;
        value           nonuniform List<scalar> 
43
(
0.000323477
0.000349925
0.000372219
0.000393777
0.000370924
0.000350932
0.000322334
0.000298766
0.000276709
0.000255827
0.000236199
0.00021939
0.000203938
0.000189044
0.00017421
0.000159089
0.000143427
0.000127085
0.000110305
9.43835e-05
8.13784e-05
7.33574e-05
7.62712e-05
8.15244e-05
8.55938e-05
8.96941e-05
9.4761e-05
0.000100923
0.000107996
0.000115829
0.000124449
0.000134179
0.000145898
0.000158374
0.00017079
0.000183364
0.000190573
0.000187296
0.000174377
0.000162137
0.000463738
0.00054862
0.00040558
)
;
    }
    sWall
    {
        type            compressible::alphatWallFunction;
        Prt             0.85;
        value           uniform 0.00032227;
    }
    nWall
    {
        type            compressible::alphatWallFunction;
        Prt             0.85;
        value           nonuniform List<scalar> 6(0.000124677 0.000128216 0.000153156 0.000182804 0.000185866 0.000161812);
    }
    sideWalls
    {
        type            empty;
    }
    glass1
    {
        type            compressible::alphatWallFunction;
        Prt             0.85;
        value           nonuniform List<scalar> 9(0.000111327 0.000176121 0.000233289 0.000290134 0.00034628 0.000402138 0.000455386 0.000467574 0.000457226);
    }
    glass2
    {
        type            compressible::alphatWallFunction;
        Prt             0.85;
        value           nonuniform List<scalar> 2(0.000225193 0.00021713);
    }
    sun
    {
        type            compressible::alphatWallFunction;
        Prt             0.85;
        value           nonuniform List<scalar> 
14
(
0.000114464
0.000118924
0.000115449
0.0001195
0.000123129
0.000126267
0.000129014
0.00013149
0.00013382
0.000136155
0.000138119
0.000139511
0.000140384
0.000141039
)
;
    }
    Table_master
    {
        type            compressible::alphatWallFunction;
        Prt             0.85;
        value           nonuniform List<scalar> 9(8.21967e-05 6.6297e-05 5.52257e-05 4.83322e-05 4.39222e-05 4.08314e-05 3.85354e-05 3.6806e-05 3.56476e-05);
    }
    Table_slave
    {
        type            compressible::alphatWallFunction;
        Prt             0.85;
        value           nonuniform List<scalar> 9(8.35037e-05 8.35885e-05 8.6359e-05 8.99916e-05 9.35493e-05 9.60526e-05 9.64427e-05 9.3782e-05 9.05424e-05);
    }
    inlet
    {
        type            fixedValue;
        value           uniform 1.94e-05;
    }
    outlet
    {
        type            zeroGradient;
    }
}


// ************************************************************************* //
