/*--------------------------------*- C++ -*----------------------------------*\
  =========                 |
  \\      /  F ield         | OpenFOAM: The Open Source CFD Toolbox
   \\    /   O peration     | Website:  https://openfoam.org
    \\  /    A nd           | Version:  6
     \\/     M anipulation  |
\*---------------------------------------------------------------------------*/
FoamFile
{
    version     2.0;
    format      ascii;
    class       volScalarField;
    location    "2700";
    object      nut;
}
// * * * * * * * * * * * * * * * * * * * * * * * * * * * * * * * * * * * * * //

dimensions      [0 2 -1 0 0 0 0];

internalField   nonuniform List<scalar> 
458
(
0.00092871
0.00100041
0.00100468
0.00104841
0.00108844
0.00112486
0.00115905
0.00119262
0.00122564
0.00124979
0.00126125
0.00125632
0.00123385
0.00119814
0.00115679
0.000408893
0.000511437
0.000539948
0.000526459
0.000505767
0.000478312
0.000450407
0.000424844
0.000401943
0.000381464
0.00036327
0.000346889
0.000331883
0.00031775
0.000303789
0.000288863
0.000277523
0.000252715
0.00131951
0.00290133
0.00267831
0.00311802
0.0034958
0.00388359
0.00425824
0.00458253
0.00482541
0.00503795
0.00518557
0.00521045
0.00501952
0.00442649
0.00306104
0.00118856
0.00098296
0.000803143
0.000577238
0.000920472
0.00117564
0.00134803
0.00139689
0.00116174
0.00103125
0.000935254
0.000859646
0.000798191
0.000743125
0.000692544
0.000644108
0.000596359
0.00055541
0.000521207
0.000616117
0.000329339
0.0016548
0.00402941
0.00320003
0.00429346
0.00475137
0.00507703
0.00532267
0.00551284
0.00566846
0.00584259
0.00602124
0.00617486
0.00626954
0.00626831
0.00609991
0.005582
0.00458671
0.00109166
0.000902382
0.0012674
0.00155614
0.00177521
0.00179705
0.000659422
0.000587038
0.000527973
0.000480101
0.000441128
0.000409174
0.000382803
0.000361074
0.000343612
0.000372542
0.000428912
0.000689319
0.000380369
0.00198582
0.00542058
0.00317266
0.0046082
0.00516788
0.00535178
0.0054093
0.00543504
0.00549068
0.00561759
0.00580003
0.00601185
0.00623104
0.00643564
0.00657213
0.006507
0.00600912
0.004631
0.00118416
0.00153837
0.00197943
0.00232157
0.00253138
0.00243303
0.0007181
0.000661503
0.000625769
0.000601364
0.000581346
0.000560345
0.000538796
0.000515712
0.000487802
0.000460089
0.00045862
0.000767664
0.000425795
0.00232551
0.00724271
0.00367677
0.00432989
0.00518978
0.00536915
0.00531839
0.00521173
0.0051846
0.00529966
0.0054879
0.00572129
0.00597893
0.00622509
0.00638075
0.0063575
0.00608445
0.00551848
0.00444244
0.00403599
0.0038334
0.0036959
0.00358525
0.00343141
0.00296551
0.00278535
0.00270939
0.00265642
0.00258683
0.00247571
0.00225813
0.00195107
0.00158372
0.00119701
0.000888081
0.000825372
0.000668965
0.000566659
0.000641998
0.000702811
0.00268251
0.00922212
0.00556692
0.0042291
0.00471677
0.00508997
0.00523186
0.00510157
0.00503193
0.00515738
0.00533975
0.00557263
0.00583463
0.00607058
0.0061998
0.00614937
0.0059058
0.00553499
0.00510048
0.00477529
0.00449863
0.00423497
0.00400104
0.00380343
0.0036283
0.00353139
0.00346769
0.00340002
0.00331143
0.00319425
0.0030248
0.00274994
0.00237061
0.00190444
0.00145527
0.00108686
0.000861552
0.000729392
0.000962743
0.000719967
0.00301443
0.0106975
0.00844166
0.00598022
0.00512958
0.00495139
0.00511435
0.00516176
0.0051646
0.00521897
0.00535323
0.0055689
0.00583088
0.00606798
0.00618561
0.00610875
0.00584187
0.00548159
0.00514397
0.0048577
0.00454217
0.00419343
0.0038829
0.00366364
0.00354022
0.00348103
0.00343443
0.00337445
0.00329763
0.00321071
0.00312086
0.00298088
0.00270852
0.00231978
0.00190633
0.00152153
0.00124711
0.0011138
0.00106597
0.000816986
0.00308097
0.00981636
0.00873674
0.00804312
0.00714382
0.00640304
0.00604875
0.00570118
0.00544387
0.00536875
0.00546898
0.00569219
0.00596784
0.00620505
0.00629728
0.00616933
0.00584589
0.00544295
0.0050639
0.00464877
0.00417572
0.00376705
0.0034881
0.00332763
0.00324238
0.00318754
0.00313175
0.00306711
0.0030033
0.00295762
0.00294598
0.00296533
0.0028976
0.00263464
0.00237539
0.00221108
0.0022127
0.00230425
0.00278362
0.00130676
0.00300079
0.00356312
0.00412725
0.00439969
0.00462966
0.00471592
0.00472965
0.00479078
0.00498083
0.00526883
0.00560566
0.00594873
0.00625669
0.00645871
0.00645591
0.00619352
0.00575363
0.00526346
0.00467984
0.00407941
0.00360497
0.00329811
0.00311572
0.00300194
0.00291601
0.00283168
0.0027347
0.00262374
0.00250735
0.00239578
0.00229216
0.00219141
0.00209928
0.00201941
0.00197111
0.00195751
0.00193798
0.0018735
0.0017742
0.00126621
0.00205303
0.00477622
0.00508491
0.00533013
0.00561194
0.00593984
0.00619047
0.00636797
0.00650029
0.00661922
0.00671871
0.00670592
0.00644846
0.00592636
0.00524075
0.00452354
0.00390377
0.00348119
0.00322472
0.00306067
0.00293695
0.00282387
0.00270682
0.00258003
0.00244313
0.0023003
0.00216121
0.00204124
0.00195712
0.00191675
0.00190533
0.00190853
0.00191992
0.00192168
0.00188071
0.00177897
0.00163733
0.00110663
0.00214943
0.00540246
0.0060078
0.00609915
0.00631117
0.0065458
0.00668805
0.00657252
0.00644931
0.00641015
0.00642642
0.00629451
0.00579556
0.00512054
0.0044608
0.00398065
0.00371258
0.00357075
0.00347175
0.00338908
0.00330686
0.0032088
0.00308528
0.00293428
0.00276138
0.00257843
0.00240032
0.00224072
0.002109
0.00202783
0.00199533
0.00200062
0.00202535
0.0020431
0.00202537
0.00204277
0.00221256
0.00113885
0.00175478
0.00190165
0.00201097
0.00215132
0.00208868
0.00201161
0.00188042
0.00168971
0.00150267
0.00141872
0.00135841
0.00130094
0.00123558
0.0011573
0.00107859
0.00099595
0.000930515
0.000888723
0.000863996
0.000848661
0.000839083
0.000830378
0.000819866
0.000807257
0.000793383
0.000780096
0.000769924
0.000765508
0.000769063
0.00078225
0.00080631
0.000837525
0.000875191
0.00091942
0.000969682
0.00102561
0.00105856
0.00103942
0.000982134
0.000930829
)
;

boundaryField
{
    floor
    {
        type            nutkWallFunction;
        Cmu             0.09;
        kappa           0.41;
        E               9.8;
        value           nonuniform List<scalar> 
36
(
0.000139025
4.79123e-05
6.11626e-05
6.47845e-05
6.30736e-05
6.04386e-05
5.69218e-05
5.33213e-05
4.99984e-05
4.70001e-05
4.43004e-05
4.18864e-05
3.96995e-05
3.76845e-05
3.57758e-05
3.38795e-05
3.18392e-05
3.028e-05
2.68383e-05
2.68382e-05
3.7342e-05
4.4156e-05
5.01232e-05
6.81578e-05
7.75688e-05
8.5068e-05
0.000139025
0.000142697
0.000118721
9.72758e-05
4.79122e-05
9.72758e-05
6.94892e-05
0.000131463
0.000109172
0.000142187
)
;
    }
    ceiling
    {
        type            nutkWallFunction;
        Cmu             0.09;
        kappa           0.41;
        E               9.8;
        value           nonuniform List<scalar> 
43
(
0.000206417
0.000222557
0.000234485
0.000249799
0.000243044
0.000234684
0.000220357
0.000199325
0.00017844
0.000168976
0.00016214
0.000155593
0.000148107
0.000139081
0.000129936
0.000120251
0.000112516
0.000107543
0.000104588
0.00010275
0.000101601
0.000100555
9.92896e-05
9.77697e-05
9.60942e-05
9.44863e-05
9.32533e-05
9.27176e-05
9.31493e-05
9.47481e-05
9.76569e-05
0.000101416
0.000105929
0.0001112
0.000117155
0.00012374
0.0001276
0.000125359
0.000118625
0.000112556
0.000340251
0.000398479
0.000249336
)
;
    }
    sWall
    {
        type            nutkWallFunction;
        Cmu             0.09;
        kappa           0.41;
        E               9.8;
        value           uniform 0.000206473;
    }
    nWall
    {
        type            nutkWallFunction;
        Cmu             0.09;
        kappa           0.41;
        E               9.8;
        value           nonuniform List<scalar> 6(8.50662e-05 8.7168e-05 9.8946e-05 0.000133215 0.000136958 0.00011256);
    }
    sideWalls
    {
        type            empty;
    }
    glass1
    {
        type            nutkWallFunction;
        Cmu             0.09;
        kappa           0.41;
        E               9.8;
        value           nonuniform List<scalar> 9(0.000112353 0.000157891 0.000195729 0.000232257 0.000269063 0.000307134 0.000342055 0.000349016 0.000340652);
    }
    glass2
    {
        type            nutkWallFunction;
        Cmu             0.09;
        kappa           0.41;
        E               9.8;
        value           nonuniform List<scalar> 2(0.000156316 0.000151676);
    }
    sun
    {
        type            nutkWallFunction;
        Cmu             0.09;
        kappa           0.41;
        E               9.8;
        value           nonuniform List<scalar> 
14
(
0.000112305
0.000120777
0.000121279
0.000126412
0.000131087
0.000135324
0.000139287
0.000143167
0.000146969
0.000149743
0.000151058
0.000150492
0.000147912
0.000143802
)
;
    }
    Table_master
    {
        type            nutkWallFunction;
        Cmu             0.09;
        kappa           0.41;
        E               9.8;
        value           nonuniform List<scalar> 9(7.97257e-05 7.07186e-05 6.32689e-05 5.71555e-05 5.21226e-05 4.79545e-05 4.44836e-05 4.16007e-05 3.92679e-05);
    }
    Table_slave
    {
        type            nutkWallFunction;
        Cmu             0.09;
        kappa           0.41;
        E               9.8;
        value           nonuniform List<scalar> 9(8.69396e-05 7.99828e-05 7.55538e-05 7.25116e-05 7.00051e-05 6.73642e-05 6.46416e-05 6.17102e-05 5.81442e-05);
    }
    inlet
    {
        type            calculated;
        value           uniform 0.000100623;
    }
    outlet
    {
        type            calculated;
        value           nonuniform List<scalar> 2(0.00175478 0.00190165);
    }
}


// ************************************************************************* //
