/*--------------------------------*- C++ -*----------------------------------*\
  =========                 |
  \\      /  F ield         | OpenFOAM: The Open Source CFD Toolbox
   \\    /   O peration     | Website:  https://openfoam.org
    \\  /    A nd           | Version:  6
     \\/     M anipulation  |
\*---------------------------------------------------------------------------*/
FoamFile
{
    version     2.0;
    format      ascii;
    class       volScalarField;
    location    "2500";
    object      alphat;
}
// * * * * * * * * * * * * * * * * * * * * * * * * * * * * * * * * * * * * * //

dimensions      [1 -1 -1 0 0 0 0];

internalField   nonuniform List<scalar> 
458
(
0.00107731
0.000920561
0.000882077
0.000868438
0.000833082
0.000811857
0.000793396
0.000776317
0.00075854
0.00073797
0.000714608
0.0006885
0.000667156
0.000689105
0.00085093
0.000745966
0.000784317
0.00056468
0.000468531
0.000385711
0.000346523
0.000333704
0.000341881
0.000362232
0.000390891
0.000427056
0.000470623
0.000502003
0.00049914
0.000522445
0.000565841
0.000707073
0.000676751
0.00172689
0.003094
0.00397995
0.00390882
0.00442105
0.00496623
0.00522823
0.00522265
0.00506927
0.00484304
0.00455904
0.00422297
0.00385862
0.00346234
0.0034415
0.0011902
0.00112736
0.00106404
0.00108492
0.003122
0.00241702
0.00154971
0.000793211
0.000531004
0.000560995
0.000711027
0.000888587
0.00109413
0.00130754
0.00149379
0.00156084
0.00152059
0.00199869
0.00212114
0.00263447
0.00108584
0.00249813
0.00579762
0.00561507
0.00489522
0.00554156
0.00659798
0.0071835
0.00725875
0.00708137
0.00677614
0.0063615
0.00584609
0.00527473
0.00470674
0.00429669
0.00386124
0.00362891
0.00140792
0.0014398
0.00402538
0.00327034
0.00235729
0.00145837
0.000549088
0.000580605
0.000648885
0.000722471
0.000805393
0.00090256
0.00102087
0.00117184
0.00137995
0.00319644
0.00347574
0.00421512
0.00158929
0.00338928
0.00921891
0.00747754
0.00569651
0.0060737
0.00755369
0.00844039
0.0085726
0.00834491
0.00789998
0.00727372
0.00651418
0.00570292
0.00491318
0.00419991
0.00352752
0.00293732
0.00264613
0.00153101
0.00347134
0.00391677
0.00304232
0.00230003
0.00175973
0.00138076
0.0014068
0.00143381
0.00146067
0.00149374
0.00153965
0.00160635
0.00170471
0.00185165
0.0040483
0.00399024
0.00360118
0.00223019
0.00435103
0.013223
0.0099076
0.0069717
0.00655729
0.00831765
0.00950128
0.00967578
0.00947398
0.00911611
0.00870331
0.00830474
0.00797187
0.00773231
0.00758589
0.00750617
0.00743744
0.00735065
0.00741805
0.00777681
0.00780329
0.00766221
0.00760232
0.00760815
0.00760772
0.00759345
0.0074533
0.00724261
0.0069751
0.00666487
0.00633243
0.00600576
0.00571296
0.00546379
0.00509254
0.00473149
0.00426591
0.00318889
0.00331251
0.00331304
0.00525736
0.0169617
0.0122956
0.0089392
0.00736756
0.00881916
0.0100541
0.0101644
0.0100267
0.00991403
0.00987578
0.00992809
0.0100727
0.0102951
0.0105666
0.0108481
0.0110956
0.0112754
0.0113737
0.0114296
0.0114754
0.0115104
0.0115529
0.011577
0.0115353
0.0114061
0.0112114
0.0109609
0.0106606
0.0103169
0.00993619
0.00952839
0.00911337
0.00873013
0.00845026
0.00841925
0.00880747
0.00960225
0.0099097
0.00417365
0.00593345
0.0171846
0.0132104
0.0101811
0.00784166
0.00883656
0.00983594
0.00988466
0.00996152
0.0102073
0.0105715
0.0110149
0.0115119
0.0120329
0.0125474
0.0130281
0.013454
0.0137954
0.0140327
0.0141798
0.0142641
0.0142991
0.0142888
0.014217
0.0140848
0.0138936
0.0136468
0.0133469
0.0129998
0.0126157
0.0122079
0.0117939
0.0113952
0.0110367
0.0107431
0.0105518
0.0106022
0.0116621
0.0144619
0.00500526
0.00660808
0.0121833
0.0127328
0.00965599
0.00824206
0.00892064
0.00920434
0.00948068
0.0100711
0.0107983
0.0115518
0.0122812
0.0129873
0.0136561
0.0142665
0.014792
0.0152512
0.0156295
0.0159063
0.0160863
0.0161783
0.0161953
0.0161472
0.0160398
0.0158768
0.0156575
0.015378
0.0150347
0.014627
0.014159
0.0136406
0.0130896
0.012535
0.0120224
0.0116192
0.0113896
0.0112923
0.0116217
0.0160006
0.00588381
0.00804193
0.0113826
0.0235219
0.00950369
0.00763642
0.00858014
0.00934706
0.0103972
0.0115333
0.012563
0.0134391
0.0141132
0.014673
0.0151555
0.0155725
0.0159286
0.0162506
0.0165313
0.0167589
0.0169259
0.0170259
0.0170604
0.0170339
0.0169516
0.0168155
0.0166238
0.0163711
0.0160509
0.0156573
0.0151871
0.0146409
0.0140258
0.0133603
0.0126826
0.0120672
0.0116465
0.0115599
0.0119053
0.0149812
0.00577066
0.0318129
0.0201069
0.00966334
0.0116539
0.0131191
0.0140729
0.0148364
0.0153365
0.015669
0.0158533
0.0159653
0.0160499
0.0161292
0.0162169
0.016323
0.0164506
0.0165917
0.016731
0.0168516
0.0169391
0.0169837
0.0169794
0.0169225
0.0168097
0.0166373
0.0164007
0.016095
0.0157152
0.0152581
0.0147237
0.01412
0.0134696
0.0128232
0.0122814
0.0120134
0.0122041
0.0117795
0.00383478
0.0136269
0.0225316
0.0190839
0.0176738
0.016846
0.0162722
0.0158468
0.015499
0.0151966
0.0149367
0.0147233
0.0145622
0.0144593
0.0144201
0.0144475
0.0145399
0.0146891
0.0148802
0.0150937
0.0153084
0.0155044
0.0156657
0.0157804
0.015841
0.0158428
0.0157835
0.0156619
0.0154772
0.0152299
0.0149225
0.0145621
0.0141639
0.0137547
0.0133746
0.0130689
0.0130012
0.0108976
0.00330094
0.00340905
0.0042419
0.00725455
0.00731154
0.00709001
0.00679983
0.00649729
0.00620041
0.0059165
0.00564859
0.00539772
0.0051643
0.00494846
0.00475024
0.00456968
0.00440689
0.00426202
0.00413516
0.00402619
0.00393461
0.00385941
0.003799
0.00375128
0.00371377
0.00368389
0.00365908
0.00363701
0.00361566
0.00359336
0.00356881
0.00354104
0.00350946
0.003474
0.00343539
0.00339569
0.00335931
0.0033373
0.00337529
0.00321754
0.00295313
)
;

boundaryField
{
    floor
    {
        type            compressible::alphatWallFunction;
        Prt             0.85;
        value           nonuniform List<scalar> 
36
(
0.000121593
0.000106314
0.000111878
7.93999e-05
6.47221e-05
5.17779e-05
4.5535e-05
4.34682e-05
4.47825e-05
4.80439e-05
5.25988e-05
5.82866e-05
6.50572e-05
6.98858e-05
6.94427e-05
7.30033e-05
7.95836e-05
0.000100597
9.61459e-05
9.61448e-05
0.000154826
0.000223714
0.000308034
0.000429174
0.00044449
0.000444573
0.000121592
0.000169389
0.0001607
0.000151842
0.000106313
0.000151841
0.000154676
0.000199252
0.000203509
0.000215999
)
;
    }
    ceiling
    {
        type            compressible::alphatWallFunction;
        Prt             0.85;
        value           nonuniform List<scalar> 
43
(
0.000457042
0.000558507
0.000911277
0.000917756
0.000892389
0.000859059
0.000824169
0.00078978
0.000756745
0.000725431
0.000695976
0.00066845
0.000642887
0.000619313
0.000597755
0.000578245
0.000560821
0.000545513
0.000532326
0.000521214
0.000512069
0.000504707
0.000498879
0.000494291
0.000490629
0.000487582
0.000484868
0.00048224
0.000479493
0.000476468
0.000473045
0.000469152
0.000464778
0.000460013
0.000455107
0.000450605
0.00044787
0.000452532
0.000432999
0.00040004
0.0010005
0.00137201
0.00161668
)
;
    }
    sWall
    {
        type            compressible::alphatWallFunction;
        Prt             0.85;
        value           uniform 0.000456856;
    }
    nWall
    {
        type            compressible::alphatWallFunction;
        Prt             0.85;
        value           nonuniform List<scalar> 6(0.000444949 0.000550007 0.000649441 0.000508988 0.000443513 0.00040032);
    }
    sideWalls
    {
        type            empty;
    }
    glass1
    {
        type            compressible::alphatWallFunction;
        Prt             0.85;
        value           nonuniform List<scalar> 9(0.000153521 0.000242507 0.00034378 0.000457165 0.000576531 0.000686946 0.000768421 0.000848018 0.00101282);
    }
    glass2
    {
        type            compressible::alphatWallFunction;
        Prt             0.85;
        value           nonuniform List<scalar> 2(0.000765189 0.000752055);
    }
    sun
    {
        type            compressible::alphatWallFunction;
        Prt             0.85;
        value           nonuniform List<scalar> 
14
(
0.000153795
0.000131578
0.000126058
0.000124126
0.000119063
0.000116009
0.000113339
0.000110859
0.000108269
0.000105261
0.000101834
9.79897e-05
9.48302e-05
9.80681e-05
)
;
    }
    Table_master
    {
        type            compressible::alphatWallFunction;
        Prt             0.85;
        value           nonuniform List<scalar> 9(7.68026e-05 8.15505e-05 9.17428e-05 0.000102581 0.000114636 0.000128577 0.000145315 0.000166352 0.000194854);
    }
    Table_slave
    {
        type            compressible::alphatWallFunction;
        Prt             0.85;
        value           nonuniform List<scalar> 9(0.000194968 0.000198498 0.000202153 0.00020578 0.000210235 0.000216402 0.000225324 0.000238405 0.000257797);
    }
    inlet
    {
        type            fixedValue;
        value           uniform 1.94e-05;
    }
    outlet
    {
        type            zeroGradient;
    }
}


// ************************************************************************* //
