/*--------------------------------*- C++ -*----------------------------------*=========                 |
  \      /  F ield         | OpenFOAM: The Open Source CFD Toolbox
   \    /   O peration     | Website:  https://openfoam.org
    \  /    A nd           | Version:  6
     \/     M anipulation  |
\*---------------------------------------------------------------------------*/
FoamFile
{
    version     2.0;
    format      ascii;
    class       volScalarField;
    location    "1500";
    object      PMV;
}
// * * * * * * * * * * * * * * * * * * * * * * * * * * * * * * * * * * * * * //

dimensions      [0 0 0 0 0 0 0];

internalField   nonuniform List<scalar> 
458
(
0.6639421725238795
0.35621492295133644
0.3142420070490077
0.2746151716340228
0.24974902262335388
0.2371771366541649
0.239549047047005
0.2583104653597699
0.2980439037512471
0.3647526790899975
0.4624476619313213
0.5581675615226811
0.5833023185247711
0.5951587179084923
0.6117580627048691
0.7758725760140704
0.7578473029131961
0.7550012230142933
0.763539476394598
0.7701803670403582
0.7744495223795448
0.7677131667131185
0.7627419977053047
0.7638503244003274
0.7660912410250376
0.7691420492970633
0.7731729353916993
0.7782161844140307
0.7865968711343482
0.80053896277085
0.8038594524558041
0.8076543009832042
0.8256798654349946
0.5412990896058087
0.3639831556945669
0.3499081109104979
0.30856981122109695
0.2833554568312683
0.27042253775264075
0.26997134278453533
0.2820088855811934
0.3050660556901128
0.3435384973733588
0.4031246299151028
0.49037023236129335
0.5799825694642973
0.5980042885071807
0.6070153482170244
0.5567079701793923
0.5490573329628252
0.5687578159610912
0.6911229123487062
0.7440912957656426
0.7450399820719791
0.75642426237657
0.7625214411347966
0.7593881608400534
0.7581974926497002
0.7589070817364494
0.7588812089991921
0.7577176482178307
0.7572447297475753
0.7572476847868723
0.757645454748053
0.7604761918164958
0.7709067422006144
0.7758725760140704
0.7820391518127525
0.7426081042996788
0.5565833578103071
0.34303486062378735
0.3861252446553396
0.3588260475245475
0.34445285964623024
0.33465538058603583
0.33210883675269226
0.33099301988867763
0.32310255494811413
0.31697418560393154
0.33882020491544484
0.41005929199465546
0.5400976438268651
0.6112837896860528
0.6207693151332205
0.6240892808586761
0.6269349786111514
0.5883041457144176
0.5739213988155871
0.6818884737843508
0.7059070615483162
0.7223694132235796
0.7388746374029884
0.7413961241346121
0.7673463534956848
0.7782443340452221
0.7763469274249736
0.7744495223795448
0.7725521189582006
0.7706547172101321
0.768757317184479
0.7678086178328382
0.7689425040998905
0.7716034178719443
0.7553014962307253
0.6420191504551381
0.6295060359815214
0.3243272341326223
0.4107150040726354
0.41502081719681455
0.42822295983352016
0.43560700515853623
0.4347978832022631
0.4147504668085843
0.35588077588787614
0.2949783344290694
0.2845299497147895
0.3514195457985492
0.4862238924195489
0.6278835471366975
0.6435351107558357
0.6444837011645513
0.6384492403366192
0.6028687350500971
0.5147022221320005
0.623825650322525
0.6774340089887813
0.7142281645580268
0.7538251052789594
0.796353641725769
0.8258589536138229
0.813898601410444
0.802965710666331
0.7984694156562565
0.7968614933621552
0.7978656074337185
0.8056789431790724
0.8232431604685945
0.8564158676828545
0.8460772407975664
0.8133465792645753
0.7276121108395991
0.5737012283088075
0.7291221039920116
0.32619497424569405
0.42884002995726717
0.4670394486849394
0.5264646656497964
0.5790896414924157
0.5921568064071397
0.5281302798767876
0.39475475936369125
0.2790063127127185
0.24338877913417015
0.31182875389771497
0.4563081636735585
0.617219492453078
0.6738905718808493
0.6762621390049761
0.67104469982631
0.6538185636936038
0.6495482610064991
0.6697736912817236
0.715800126425904
0.7722130413291233
0.8272922620109762
0.8678976488225233
0.8906666403157982
0.9053715001457346
0.9140096927664013
0.907749930342081
0.9003521022215291
0.8926897123690022
0.8876416971545558
0.8862925684867442
0.8855720691482073
0.8621797545909596
0.8230938475174464
0.706175482247907
0.7078762287802556
0.6968765131712997
0.7961056417403505
0.6485298688395861
0.8356750372302023
0.35636121017507716
0.47046292243415244
0.5082514306331627
0.6015748355617793
0.6833768780752448
0.7255920400867119
0.6063319866748087
0.40732238279775723
0.2616215078595036
0.2163411513420848
0.2900700891419229
0.4475095495599864
0.6285456100414623
0.7137336832434732
0.7236946951785955
0.719900014139583
0.7232203594044194
0.7459886689725294
0.7825135044430058
0.8237824357179087
0.8636284454867024
0.8968332073609262
0.9219736158938628
0.939524216076425
0.950433921401046
0.9570745580603383
0.9599205320112486
0.959446203583521
0.9556515680719448
0.9480622553727734
0.9381012034450575
0.9206135776709501
0.8781311989463627
0.827319969636126
0.7215568133368471
0.7237206965386396
0.7102097380914264
0.7424781625117077
0.7480632275943102
0.9398288384393033
0.4610029574927918
0.6382267178938382
0.5853371056958361
0.6240239226904942
0.7194256798468219
0.7174750111430674
0.5603378323927118
0.37981419712395453
0.23373325906443965
0.19458017625563592
0.2872774898991822
0.47153446633262225
0.6836455900101033
0.765436871431336
0.7829878571616512
0.7853596220534844
0.7962697660099858
0.8242567931197593
0.8593592381489904
0.8958845058900745
0.9281400695513569
0.9532799137134951
0.9713043438171287
0.981265061440799
0.9864825332781143
0.9883797874277874
0.9874311609169054
0.9841109592960049
0.9779448350189475
0.96750975524912
0.9547029069807091
0.9399985532443385
0.9208681221790119
0.8607286986749567
0.7707927635605387
0.7371420402007499
0.7078520612084672
0.6648372498029573
0.8229646979955374
1.1007156126505169
0.9300983061586883
0.8733024278392797
0.7118091051530903
0.6716012187355946
0.6675773143056635
0.607194121836571
0.4660362657218053
0.28444475161007976
0.16279342487408902
0.1701611035718159
0.31656220337387014
0.5511606386861199
0.765436871431336
0.8299490831785368
0.8512951710789513
0.8617310204610523
0.8783334585293672
0.9058458486076907
0.9352551731887047
0.9622921707148228
0.9836366436697075
0.997865988826104
1.0059291650332436
1.0097235692537383
1.010197868319732
1.0087749701415079
1.0059291650332436
1.0011861310776826
0.9945458317297845
0.9855339045189432
0.972252988477472
0.958023216942812
0.9418959000122415
0.9233966460636583
0.9034741050603362
0.8954101549933349
0.8800668543329286
0.7615113646286615
0.6331363893418394
1.3439834017278312
1.2022620336945484
1.016690016133463
0.8418752286370725
0.7216641521541328
0.6444536689991976
0.5068153443860517
0.2652278131893389
0.07822561383406579
0.042104828905303246
0.16724175276854855
0.42452182319264137
0.7161053451157691
0.8475003129627534
0.9006280088149151
0.924345332054481
0.9399985532443385
0.9575488876131542
0.9779448350189475
0.9969173740132916
1.0120950612938826
1.021492943636218
1.0163777161976946
1.0098788121084703
1.0014183825032787
0.9918951372498718
0.9806224900844327
0.9678251761137363
0.9528853446241315
0.9366973072138733
0.9181154549699133
0.8984860658675964
0.8810318412345525
0.8589219434086842
0.8338551347947653
0.8126329969336066
0.8012272692976397
0.7996629471309571
0.789800342033301
0.7558838015511442
3.0
-2.218150812231332
-1.4312038166691468
-1.0296199229603988
-0.8485574598573986
-0.6381829546599754
-0.3556224897555526
-0.016179406110693413
0.36064583620230045
0.6672502184164679
0.8479746703099468
0.914002514807435
0.9291176935291502
0.9407644402317303
0.952567522778673
0.9653979967609132
0.9774555600641696
0.9854565874300348
0.988367768164875
0.9871439386302261
0.983086687974165
0.9771063165913829
0.968870073903155
0.9583809633033283
0.9458654780309315
0.932632351333422
0.9188964797261024
0.9080090549751878
0.900559263805707
0.8962335382291226
0.8937529647302982
0.8920478431602797
0.8903366992642523
0.892059830263355
0.9066416671108397
0.9559644941448819
1.0578284777062357
0.8404106042429703
3.0
-1.9488651562914205
-1.0767480957648283
-0.6073034888555369
-0.29566527021387407
-0.0317430826936312
0.2727788596719396
0.5633841154039233
0.7248725992205879
0.7948789553124228
0.8482506869825872
0.8813663510497115
0.901878954558956
0.915887801713928
0.9265269309352087
0.9360439946745674
0.9452825331967467
0.950960298518007
0.9526090570158832
0.9509744101221523
0.9467897203148129
0.9408449445121406
0.9340035619873467
0.9261944875696461
0.9189119913877236
0.9128754833526947
0.9090586543855639
0.9094473863764893
0.9136026764506345
0.921157608608005
0.9340720482316173
0.9519300668447926
0.9693267294037531
0.9818202429897186
0.9965167652113037
1.0410853551740573
1.000721125922732
0.9033569426691381
-2.4215748132061123
-2.3847511440585225
-2.245381007372496
-1.3846912554589677
-0.68752311969691
-0.20181499948014986
0.1751785795944109
0.4436782084475948
0.5902643493817412
0.685194513049266
0.7496311060903186
0.7966877669979595
0.8262935127705652
0.840317346482876
0.8459859211047194
0.8479141273899031
0.8479309933013155
0.8472071827256756
0.8462509915296743
0.8443111797887235
0.8414098326888113
0.8379367410665223
0.8337463941921887
0.8293279338115013
0.8248585266127317
0.8208040930436901
0.8179222502991097
0.8172802794002637
0.8202470230660582
0.8285158823965468
0.8420573526683699
0.8633143314315305
0.8953379495515207
0.94624857493391
1.0268642265856718
1.1026786892612395
1.0267437459782116
0.9448163830945963
0.8781053884317975
0.9065170502356102
)
;

boundaryField
{
    ".*"
    {
        type            zeroGradient;
    }
}


// ************************************************************************* //
