/*--------------------------------*- C++ -*----------------------------------*\
  =========                 |
  \\      /  F ield         | OpenFOAM: The Open Source CFD Toolbox
   \\    /   O peration     | Website:  https://openfoam.org
    \\  /    A nd           | Version:  6
     \\/     M anipulation  |
\*---------------------------------------------------------------------------*/
FoamFile
{
    version     2.0;
    format      ascii;
    class       volScalarField;
    location    "2800";
    object      nut;
}
// * * * * * * * * * * * * * * * * * * * * * * * * * * * * * * * * * * * * * //

dimensions      [0 2 -1 0 0 0 0];

internalField   nonuniform List<scalar> 
458
(
0.000705368
0.000722248
0.000654182
0.000677824
0.00070414
0.000729287
0.000753224
0.000776474
0.000799891
0.000824691
0.000845964
0.000862589
0.000874236
0.000881813
0.000884009
0.000421338
0.000479119
0.000484996
0.000403347
0.000322766
0.000276146
0.000246922
0.00022735
0.000213308
0.000206308
0.000215942
0.000255622
0.000329853
0.000432628
0.000563739
0.000646943
0.000640259
0.000513396
0.00123234
0.00213321
0.00153773
0.0021061
0.00229887
0.0024824
0.00266864
0.00284297
0.00298545
0.00307138
0.00311061
0.0030614
0.00286703
0.00243734
0.00170235
0.000955616
0.000888035
0.000682312
0.000540225
0.0010609
0.00115061
0.00103133
0.00075258
0.00053171
0.00046273
0.000412629
0.000380375
0.000361293
0.000344831
0.0003412
0.000467369
0.000875688
0.00153143
0.00187497
0.00187908
0.000622632
0.00169504
0.0036027
0.0016321
0.00299909
0.00350318
0.00374289
0.00394888
0.00412921
0.00427602
0.0043784
0.00444231
0.00443514
0.00431011
0.00400129
0.00345696
0.0027166
0.00183258
0.000936719
0.000813393
0.00180527
0.00143645
0.00105009
0.000702973
0.000289564
0.000240205
0.000222567
0.000209458
0.000200137
0.00020309
0.000244856
0.000364274
0.000606598
0.00192512
0.00232385
0.00211833
0.000682472
0.00213213
0.0054605
0.00190757
0.00312844
0.00415108
0.00445352
0.004659
0.00483828
0.00499455
0.00512347
0.00523388
0.00532248
0.00535269
0.00525328
0.00491744
0.00423172
0.00314002
0.00183981
0.000977261
0.00170661
0.00166631
0.00140124
0.00121137
0.00101832
0.000836413
0.000861025
0.000888961
0.000917607
0.000945763
0.000973808
0.001004
0.00104341
0.00109279
0.00227595
0.00290783
0.00295962
0.00102904
0.00253728
0.00747712
0.00266819
0.00282223
0.00429536
0.00472444
0.00493846
0.00511088
0.00526228
0.00540224
0.00555178
0.00576047
0.00601585
0.00627247
0.00645518
0.00648273
0.00629531
0.0058608
0.00520088
0.00455607
0.00406465
0.00380754
0.00361961
0.00350577
0.00345502
0.00348843
0.00356275
0.00365166
0.00373399
0.00380341
0.00387185
0.00396468
0.00407455
0.00420293
0.00426302
0.00411621
0.0032021
0.00149186
0.00134916
0.00119671
0.00291707
0.00929937
0.00422984
0.0026839
0.00378893
0.00446034
0.00479661
0.00501028
0.0051416
0.00521969
0.00533465
0.00557529
0.00593488
0.00638438
0.00686165
0.00727834
0.0075337
0.00752096
0.00720178
0.00668983
0.00615841
0.00570727
0.00534744
0.00505674
0.00482638
0.00467313
0.00459695
0.00456539
0.00453707
0.00449225
0.00444435
0.00442253
0.00443308
0.00446371
0.00454213
0.00465875
0.00456347
0.00415749
0.00321193
0.00130587
0.003267
0.0106322
0.00687975
0.00385329
0.00307338
0.00348504
0.00409967
0.00456322
0.00481892
0.00482082
0.0048687
0.00503759
0.00533377
0.00576813
0.00632124
0.00692069
0.00744439
0.00775166
0.00776846
0.0075454
0.00721583
0.00688322
0.00657254
0.00626079
0.00593543
0.00563261
0.00540396
0.00524805
0.00510794
0.00493054
0.00471197
0.0044919
0.00429971
0.00413011
0.00395834
0.00373605
0.00337949
0.00288288
0.00234111
0.00125154
0.00333609
0.0105292
0.0084918
0.00675362
0.00495598
0.00399824
0.00392286
0.00422716
0.00453157
0.00453188
0.00451903
0.00456231
0.00468403
0.00491229
0.00528068
0.00579654
0.00639094
0.00691518
0.00723859
0.00732685
0.00726943
0.0071626
0.00705316
0.0069364
0.00677701
0.0065525
0.00630902
0.00611947
0.00597548
0.00579808
0.00551845
0.00513683
0.00468485
0.00420649
0.00369994
0.00316156
0.00263087
0.00221112
0.00189712
0.00131635
0.0032283
0.003824
0.00515027
0.00549666
0.00521911
0.00473639
0.00435518
0.00413993
0.00405325
0.00402409
0.00403932
0.00407473
0.00412474
0.00420276
0.00434054
0.00458071
0.0049461
0.00539211
0.00581325
0.00612457
0.00632073
0.00644494
0.00654286
0.00664131
0.00674514
0.00683393
0.00686799
0.00683025
0.0067662
0.00675881
0.00681839
0.00682909
0.00676149
0.00654368
0.0061254
0.00544643
0.00448707
0.00357387
0.0032027
0.00138645
0.00733784
0.00935371
0.00680862
0.00576057
0.00512791
0.00470733
0.00442167
0.00421581
0.00405507
0.00392481
0.0038171
0.00373137
0.00367604
0.00366949
0.00373691
0.00389587
0.00413536
0.00441475
0.00469152
0.00494406
0.00517334
0.00539367
0.0056232
0.00587104
0.00611516
0.00631793
0.00644801
0.00654498
0.00666126
0.00677736
0.00684946
0.0068378
0.00667725
0.0062076
0.00541103
0.00433835
0.00352264
0.0013526
0.00411889
0.00932238
0.00715314
0.00605343
0.00535834
0.00485173
0.00446065
0.00414711
0.00388377
0.00363352
0.00340602
0.00320713
0.00304103
0.00291223
0.00282686
0.00279239
0.00281465
0.00289364
0.00302144
0.00317831
0.00335123
0.00353307
0.00372258
0.00392727
0.00416449
0.0044328
0.00470847
0.00496029
0.0051762
0.00535328
0.00547435
0.00550182
0.00533175
0.0048228
0.00396579
0.00290504
0.00225504
0.00117551
0.00246609
0.0028694
0.00335521
0.00311683
0.0027355
0.00246778
0.00222787
0.00202359
0.00184979
0.00169975
0.00156906
0.00145822
0.00136117
0.00127459
0.00119668
0.00112657
0.00106394
0.0010088
0.000961242
0.000921264
0.00088863
0.000863577
0.000845186
0.000832361
0.000824405
0.000821264
0.000823934
0.00083414
0.00085414
0.000885781
0.000928668
0.000978329
0.00102547
0.00105715
0.0010685
0.00106694
0.00104452
0.00100027
0.000990963
0.00116799
)
;

boundaryField
{
    floor
    {
        type            nutkWallFunction;
        Cmu             0.09;
        kappa           0.41;
        E               9.8;
        value           nonuniform List<scalar> 
36
(
0.000106971
4.95734e-05
5.70608e-05
5.78153e-05
4.72191e-05
3.65037e-05
3.01447e-05
2.60794e-05
2.3321e-05
2.13209e-05
2.03131e-05
2.16829e-05
2.72718e-05
3.74413e-05
5.10457e-05
6.78172e-05
7.82061e-05
7.73685e-05
6.14277e-05
6.14276e-05
7.51761e-05
8.25741e-05
0.00012412
0.000177187
0.000161049
0.000143587
0.000106971
0.000115474
0.000107446
8.25472e-05
4.95733e-05
8.25472e-05
6.48462e-05
0.00011323
9.85137e-05
0.00011802
)
;
    }
    ceiling
    {
        type            nutkWallFunction;
        Cmu             0.09;
        kappa           0.41;
        E               9.8;
        value           nonuniform List<scalar> 
43
(
0.000283647
0.000326283
0.000376833
0.000352184
0.000312247
0.000283866
0.000258156
0.000236035
0.000217026
0.000200461
0.000185902
0.000173451
0.000162464
0.000152587
0.000143636
0.000135523
0.000128228
0.000121765
0.000116158
0.000111419
0.000107532
0.000104536
0.00010233
0.000100787
9.98269e-05
9.94458e-05
9.97645e-05
0.00010099
0.00010339
0.000107177
0.000112287
0.000118172
0.000123729
0.000127447
0.000128778
0.000128601
0.000125982
0.00012079
0.000119686
0.000140336
0.000363869
0.000425087
0.00045483
)
;
    }
    sWall
    {
        type            nutkWallFunction;
        Cmu             0.09;
        kappa           0.41;
        E               9.8;
        value           uniform 0.000283713;
    }
    nWall
    {
        type            nutkWallFunction;
        Cmu             0.09;
        kappa           0.41;
        E               9.8;
        value           nonuniform List<scalar> 6(0.000143594 0.000156175 0.000149955 0.000161515 0.000141219 0.000140346);
    }
    sideWalls
    {
        type            empty;
    }
    glass1
    {
        type            nutkWallFunction;
        Cmu             0.09;
        kappa           0.41;
        E               9.8;
        value           nonuniform List<scalar> 9(8.53439e-05 0.000147876 0.000200188 0.000248156 0.000291676 0.000331808 0.000368306 0.000375475 0.000364322);
    }
    glass2
    {
        type            nutkWallFunction;
        Cmu             0.09;
        kappa           0.41;
        E               9.8;
        value           nonuniform List<scalar> 2(0.000157414 0.000165405);
    }
    sun
    {
        type            nutkWallFunction;
        Cmu             0.09;
        kappa           0.41;
        E               9.8;
        value           nonuniform List<scalar> 
14
(
8.53795e-05
8.74461e-05
7.90802e-05
8.19977e-05
8.52308e-05
8.83068e-05
9.12229e-05
9.4045e-05
9.68771e-05
9.98659e-05
0.000102421
0.000104413
0.000105805
0.000106709
)
;
    }
    Table_master
    {
        type            nutkWallFunction;
        Cmu             0.09;
        kappa           0.41;
        E               9.8;
        value           nonuniform List<scalar> 9(3.19966e-05 2.51572e-05 2.26671e-05 2.07984e-05 1.94587e-05 1.98746e-05 2.5771e-05 4.20041e-05 7.31199e-05);
    }
    Table_slave
    {
        type            nutkWallFunction;
        Cmu             0.09;
        kappa           0.41;
        E               9.8;
        value           nonuniform List<scalar> 9(0.000101271 0.000104228 0.000107573 0.000110991 0.000114338 0.000117659 0.000121221 0.00012585 0.000131604);
    }
    inlet
    {
        type            calculated;
        value           uniform 3.3541e-05;
    }
    outlet
    {
        type            calculated;
        value           nonuniform List<scalar> 2(0.00246609 0.0028694);
    }
}


// ************************************************************************* //
