/*--------------------------------*- C++ -*----------------------------------*\
  =========                 |
  \\      /  F ield         | OpenFOAM: The Open Source CFD Toolbox
   \\    /   O peration     | Website:  https://openfoam.org
    \\  /    A nd           | Version:  6
     \\/     M anipulation  |
\*---------------------------------------------------------------------------*/
FoamFile
{
    version     2.0;
    format      ascii;
    class       volScalarField;
    location    "2700";
    object      k;
}
// * * * * * * * * * * * * * * * * * * * * * * * * * * * * * * * * * * * * * //

dimensions      [0 2 -2 0 0 0 0];

internalField   nonuniform List<scalar> 
458
(
0.00171027
0.00198453
0.00200149
0.00217955
0.00234915
0.00250899
0.00266381
0.00282037
0.00297868
0.00309722
0.00315428
0.00312967
0.0030187
0.0028465
0.00265345
0.000331533
0.000518669
0.000578099
0.000549575
0.000507223
0.000453651
0.000402263
0.000357899
0.000320356
0.000288543
0.000261676
0.000238609
0.000218412
0.000200206
0.000183
0.000165459
0.000152723
0.00012664
0.00345246
0.00652132
0.00315535
0.00328601
0.00352765
0.00379936
0.00409405
0.00441472
0.00475382
0.00507636
0.00530538
0.00535202
0.00514665
0.00466647
0.00391032
0.00280121
0.00191591
0.00127909
0.000660747
0.00089384
0.000948572
0.000929287
0.000860658
0.000739813
0.000625834
0.000531945
0.000456403
0.000395359
0.000345117
0.000303259
0.000267942
0.00023908
0.000220435
0.000210972
0.000352428
0.00021508
0.00543
0.012726
0.00406685
0.00380788
0.0040196
0.00430486
0.00462455
0.00499552
0.00541811
0.00584524
0.00617914
0.00633654
0.00628175
0.00604932
0.00574173
0.00526798
0.00419211
0.00236312
0.00161464
0.00147209
0.00134161
0.0012186
0.00109193
0.000862228
0.000683327
0.000552741
0.000457051
0.000385859
0.000331983
0.000290572
0.000258521
0.000234121
0.000215305
0.000213535
0.000489643
0.000286896
0.00781966
0.021768
0.00545401
0.00405789
0.00416081
0.0044386
0.00476313
0.00517372
0.00569546
0.00621059
0.00658924
0.00677533
0.00676332
0.00657403
0.00624707
0.00573278
0.00489997
0.00421043
0.00278041
0.00229206
0.00193893
0.00167395
0.00146591
0.00129083
0.0010225
0.000867679
0.000776472
0.000717092
0.00067015
0.00062261
0.000575646
0.000527378
0.000471841
0.000361551
0.000291511
0.000622408
0.000359515
0.0107237
0.0338329
0.00869978
0.00449635
0.00427408
0.00450102
0.00483678
0.00535975
0.00610372
0.00671728
0.00708716
0.00723446
0.00718536
0.00693141
0.00645889
0.00576313
0.00489051
0.00404037
0.00325954
0.00268187
0.00222943
0.00187826
0.00162052
0.00143666
0.00130983
0.00124832
0.00121997
0.00119581
0.00115726
0.00109209
0.000992791
0.000875938
0.000749117
0.000593783
0.000451254
0.000556855
0.00058214
0.000636737
0.000817302
0.00097947
0.0142689
0.0464536
0.0166053
0.00668995
0.00523269
0.00512179
0.00537666
0.0061068
0.00709048
0.00765016
0.00788433
0.00790936
0.00775797
0.00740056
0.00679361
0.00593691
0.00493472
0.00397507
0.00319797
0.00264761
0.00222624
0.00189446
0.00166013
0.00151822
0.00146118
0.00146553
0.00148635
0.00149596
0.0014786
0.00142011
0.00130188
0.00114535
0.000972882
0.000793441
0.000638234
0.000586088
0.000614107
0.00065169
0.00121039
0.00102787
0.0180186
0.0545824
0.0301244
0.0154545
0.0107142
0.00875732
0.00825103
0.0087896
0.00913753
0.00918217
0.00906652
0.00886056
0.00854402
0.00804276
0.00728253
0.00625892
0.00509709
0.00399597
0.00313445
0.00254235
0.00213481
0.0018461
0.00166726
0.00158547
0.00158076
0.00162142
0.00167193
0.00171452
0.00173965
0.00173524
0.00168277
0.00153437
0.00134615
0.00114865
0.00099085
0.000904868
0.000924443
0.00105968
0.00147968
0.00132356
0.0188229
0.0551433
0.0390003
0.0314854
0.024533
0.0191159
0.015988
0.0138709
0.0123261
0.0112886
0.0105906
0.0100479
0.00949629
0.00878709
0.00781251
0.00656488
0.00520236
0.00393398
0.00299295
0.00237223
0.00202276
0.00181672
0.00171263
0.00167951
0.00169278
0.00173301
0.00178661
0.0018502
0.0019265
0.00201895
0.0021264
0.00222088
0.00221838
0.00218894
0.00224709
0.00256712
0.00330843
0.00438253
0.00866394
0.00338614
0.0178559
0.0251751
0.0253591
0.0228537
0.0204941
0.0180963
0.016021
0.0143987
0.0133122
0.0125419
0.0118904
0.0112261
0.0104504
0.00945068
0.0081433
0.00655392
0.00496221
0.00355161
0.00273172
0.00227249
0.00202942
0.00190534
0.00184575
0.00181833
0.00180745
0.00180785
0.00182086
0.00185293
0.00191246
0.00200617
0.00213612
0.00229961
0.00250372
0.00277634
0.00316393
0.00366022
0.00416974
0.0045476
0.00476007
0.00317926
0.0106891
0.0244558
0.0215546
0.019689
0.0184088
0.0174064
0.0162109
0.0148744
0.0135353
0.0122516
0.010956
0.00946076
0.00766524
0.0055725
0.00401912
0.00310884
0.00266423
0.00245834
0.00235667
0.00229428
0.00223827
0.00217088
0.00208672
0.00198993
0.00189233
0.00181133
0.00176677
0.0017777
0.00186042
0.00202077
0.00225207
0.00255148
0.00291552
0.00329951
0.00359347
0.0036773
0.0035562
0.00242839
0.00916164
0.0218443
0.0207881
0.0189237
0.0178768
0.0168416
0.0156482
0.0140782
0.0126843
0.0115188
0.0103179
0.0087706
0.0070273
0.00550296
0.00451567
0.00402223
0.00383649
0.00377718
0.00374123
0.00370295
0.00364494
0.00354705
0.00339834
0.00320035
0.00296819
0.00272811
0.00251103
0.00234493
0.0022501
0.0022571
0.0023697
0.00258153
0.00287002
0.00317983
0.00341286
0.00369337
0.00413592
0.00257184
0.00610614
0.00717107
0.00801922
0.00917767
0.00865086
0.00802418
0.00701163
0.00566142
0.0044773
0.00399097
0.00365887
0.00335587
0.00302716
0.00265573
0.00230682
0.00196687
0.0017169
0.00156614
0.0014802
0.00142811
0.00139606
0.00136724
0.00133284
0.00129216
0.00124813
0.00120668
0.00117542
0.00116198
0.00117281
0.00121338
0.00128917
0.00139093
0.00151886
0.00167625
0.00186454
0.00208584
0.00222199
0.00214236
0.00191273
0.00171811
)
;

boundaryField
{
    floor
    {
        type            kqRWallFunction;
        value           nonuniform List<scalar> 
36
(
0.00265345
0.000331533
0.000518669
0.000578099
0.000549575
0.000507223
0.000453651
0.000402263
0.000357899
0.000320356
0.000288543
0.000261676
0.000238609
0.000218412
0.000200206
0.000183
0.000165459
0.000152723
0.00012664
0.00012664
0.00021508
0.000286896
0.000359515
0.000636737
0.000817302
0.00097947
0.00265345
0.00280121
0.00191591
0.00127909
0.000331533
0.00127909
0.000660747
0.00236312
0.00161464
0.00278041
)
;
    }
    ceiling
    {
        type            kqRWallFunction;
        value           nonuniform List<scalar> 
43
(
0.00610614
0.00717107
0.00801922
0.00917767
0.00865086
0.00802418
0.00701163
0.00566142
0.0044773
0.00399097
0.00365887
0.00335587
0.00302716
0.00265573
0.00230682
0.00196687
0.0017169
0.00156614
0.0014802
0.00142811
0.00139606
0.00136724
0.00133284
0.00129216
0.00124813
0.00120668
0.00117542
0.00116198
0.00117281
0.00121338
0.00128917
0.00139093
0.00151886
0.00167625
0.00186454
0.00208584
0.00222199
0.00214236
0.00191273
0.00171811
0.0178559
0.0251751
0.00916164
)
;
    }
    sWall
    {
        type            kqRWallFunction;
        value           uniform 0.00610614;
    }
    nWall
    {
        type            kqRWallFunction;
        value           nonuniform List<scalar> 6(0.00097947 0.00102787 0.00132356 0.00242839 0.00257184 0.00171811);
    }
    sideWalls
    {
        type            empty;
    }
    glass1
    {
        type            kqRWallFunction;
        value           nonuniform List<scalar> 9(0.00171027 0.00345246 0.00543 0.00781966 0.0107237 0.0142689 0.0180186 0.0188229 0.0178559);
    }
    glass2
    {
        type            kqRWallFunction;
        value           nonuniform List<scalar> 2(0.00338614 0.00317926);
    }
    sun
    {
        type            kqRWallFunction;
        value           nonuniform List<scalar> 
14
(
0.00171027
0.00198453
0.00200149
0.00217955
0.00234915
0.00250899
0.00266381
0.00282037
0.00297868
0.00309722
0.00315428
0.00312967
0.0030187
0.0028465
)
;
    }
    Table_master
    {
        type            kqRWallFunction;
        value           nonuniform List<scalar> 9(0.000862228 0.000683327 0.000552741 0.000457051 0.000385859 0.000331983 0.000290572 0.000258521 0.000234121);
    }
    Table_slave
    {
        type            kqRWallFunction;
        value           nonuniform List<scalar> 9(0.0010225 0.000867679 0.000776472 0.000717092 0.00067015 0.00062261 0.000575646 0.000527378 0.000471841);
    }
    inlet
    {
        type            turbulentIntensityKineticEnergyInlet;
        intensity       0.05;
        value           uniform 0.0003375;
    }
    outlet
    {
        type            zeroGradient;
    }
}


// ************************************************************************* //
