/*--------------------------------*- C++ -*----------------------------------*\
  =========                 |
  \\      /  F ield         | OpenFOAM: The Open Source CFD Toolbox
   \\    /   O peration     | Website:  https://openfoam.org
    \\  /    A nd           | Version:  6
     \\/     M anipulation  |
\*---------------------------------------------------------------------------*/
FoamFile
{
    version     2.0;
    format      ascii;
    class       volScalarField;
    location    "200";
    object      alphat;
}
// * * * * * * * * * * * * * * * * * * * * * * * * * * * * * * * * * * * * * //

dimensions      [1 -1 -1 0 0 0 0];

internalField   nonuniform List<scalar> 
458
(
0.000883352
0.000905225
0.000826993
0.000856545
0.000888361
0.000918164
0.000946024
0.000972661
0.000999141
0.00102705
0.0010509
0.00106947
0.00108304
0.00109384
0.00110196
0.000613534
0.00075864
0.000757436
0.00068281
0.000583844
0.000446612
0.000266136
0.000257048
0.000274747
0.000295704
0.000295303
0.00028171
0.00026702
0.0002889
0.000377684
0.000473384
0.000533543
0.000491124
0.00151968
0.00260648
0.00188427
0.00248416
0.00268003
0.00287412
0.00307114
0.00325353
0.00339791
0.00347388
0.00349439
0.00341515
0.00317951
0.00270488
0.00194491
0.00119918
0.00114708
0.000893697
0.000883901
0.00180253
0.00209386
0.00206952
0.00164563
0.00107599
0.000818082
0.000746862
0.000800737
0.000854277
0.000803679
0.000643881
0.000462522
0.000400452
0.000716174
0.00138176
0.00201673
0.000748632
0.00207014
0.00431056
0.00200411
0.00357325
0.0040539
0.00428563
0.00448307
0.00465161
0.00478354
0.0048667
0.00490568
0.00486511
0.00469524
0.00433357
0.00374695
0.00300182
0.00214884
0.00127339
0.00118266
0.00336364
0.00307918
0.00252797
0.00197156
0.000686026
0.00056865
0.000507376
0.000466462
0.000434144
0.000405667
0.000376775
0.000346941
0.000386366
0.00119798
0.00202894
0.0027076
0.000867499
0.00258853
0.0064735
0.00226111
0.0038254
0.00483338
0.0050973
0.00526349
0.00540153
0.00551879
0.00561244
0.00569203
0.00575706
0.00577044
0.00565697
0.00529966
0.00458092
0.00348319
0.00225104
0.00142116
0.00358151
0.00373158
0.00316632
0.00244211
0.00170344
0.00113168
0.0011557
0.00119797
0.00125322
0.00131923
0.00140731
0.00146032
0.00148003
0.00145673
0.001783
0.00219738
0.00297365
0.00128504
0.00306981
0.0088542
0.00305255
0.00350352
0.00507446
0.00543796
0.00557377
0.00566395
0.00573868
0.00581215
0.00590567
0.00607258
0.00630907
0.00658049
0.00681864
0.00694418
0.0069042
0.00667922
0.00631204
0.00617827
0.0058289
0.00547543
0.00526223
0.00516458
0.00515711
0.00531339
0.00554629
0.00582687
0.00610886
0.00632918
0.00640725
0.0063131
0.00607913
0.00575065
0.0049916
0.0042836
0.00308967
0.00151854
0.00144174
0.00132034
0.0035235
0.0110347
0.00478655
0.00322077
0.00459409
0.00525457
0.00550503
0.00561005
0.00563707
0.00562883
0.00565858
0.00581571
0.00609799
0.00649055
0.00694881
0.00739523
0.00772667
0.00781934
0.00762069
0.00724913
0.00684345
0.00654829
0.00641587
0.00640711
0.00647607
0.00661632
0.00682561
0.00707318
0.00729694
0.0074269
0.00741164
0.00722811
0.00699656
0.00680146
0.00653631
0.00601167
0.00539443
0.00502102
0.00463767
0.00159447
0.00394376
0.0126576
0.00789416
0.0043567
0.0036007
0.00412431
0.00481858
0.0052801
0.00547704
0.0053935
0.00532826
0.0053943
0.00558419
0.00590385
0.00634495
0.00685803
0.00733046
0.00760534
0.00758532
0.00734175
0.00702672
0.00677449
0.00664704
0.00663839
0.00672465
0.00689641
0.00714014
0.00740953
0.00762232
0.00768469
0.00755122
0.0072775
0.0070042
0.00690163
0.00709575
0.00731997
0.00720922
0.00670677
0.00611006
0.00186603
0.00402824
0.0125526
0.00996638
0.00779387
0.00574975
0.00457309
0.00445467
0.0048711
0.00527675
0.0051918
0.0050647
0.00502431
0.00508258
0.00524232
0.00551377
0.0059022
0.00636198
0.0067636
0.0069378
0.00689519
0.00673415
0.00656182
0.00645587
0.00645785
0.00659391
0.0068745
0.00725687
0.00765249
0.00794596
0.00800639
0.0077648
0.00730458
0.0068268
0.00653497
0.00652618
0.00660557
0.00617224
0.00535735
0.00463146
0.00189743
0.00390444
0.00466069
0.0052708
0.00551182
0.0053652
0.00495052
0.00458119
0.00438619
0.00433321
0.00433845
0.0043848
0.00445508
0.00454355
0.00465469
0.0048047
0.00501942
0.00531316
0.0056477
0.00592928
0.00609302
0.00613893
0.00611457
0.00608212
0.00610389
0.00625401
0.00661875
0.00717109
0.00779212
0.00832591
0.00856862
0.00833998
0.00765983
0.00672275
0.00571843
0.00483576
0.00409856
0.0035315
0.00304799
0.00264507
0.00194753
0.00335758
0.00540554
0.00543969
0.0052191
0.00494429
0.00470817
0.00453493
0.00441422
0.00434274
0.00430934
0.00430072
0.00431215
0.00435106
0.00443682
0.00459258
0.00482397
0.00509794
0.00535612
0.00555184
0.00567435
0.00574617
0.00581329
0.00594432
0.0062218
0.00669015
0.00734669
0.00817692
0.00897126
0.00939932
0.00938435
0.00925771
0.00908005
0.0085756
0.00778425
0.00688187
0.00617258
0.00571132
0.00198826
0.00314411
0.00595361
0.00586029
0.00552991
0.00523612
0.00495182
0.00468922
0.00445746
0.00425779
0.00404416
0.00384018
0.00367185
0.00356233
0.00353373
0.00360541
0.00378471
0.00405243
0.00435978
0.00464881
0.0048808
0.00505033
0.00518336
0.0053276
0.00552944
0.00579946
0.00614384
0.00667347
0.00745417
0.00822763
0.00849858
0.00862733
0.00868371
0.0086055
0.00835823
0.00796101
0.00750605
0.00560522
0.00203074
0.00258779
0.00275601
0.00290576
0.00303234
0.00281111
0.0025515
0.00236087
0.00219213
0.00204088
0.00190569
0.0017848
0.00168232
0.001593
0.00151364
0.00144313
0.00138176
0.00133087
0.00129246
0.00126839
0.00125906
0.00126243
0.00127443
0.0012908
0.00130892
0.00132875
0.00135209
0.00138072
0.00141744
0.00147173
0.00155165
0.00165894
0.00177045
0.00186737
0.00199494
0.00214473
0.00226162
0.00228996
0.00219206
0.00203616
0.00183165
)
;

boundaryField
{
    floor
    {
        type            compressible::alphatWallFunction;
        Prt             0.85;
        value           nonuniform List<scalar> 
36
(
0.00015645
8.62623e-05
0.000107635
0.00010746
9.65357e-05
8.1817e-05
6.08786e-05
3.19514e-05
3.04322e-05
3.33694e-05
3.68184e-05
3.6753e-05
3.4521e-05
3.20939e-05
3.57139e-05
5.00357e-05
6.4991e-05
7.42e-05
6.77288e-05
6.77279e-05
0.000106156
0.000123329
0.000181685
0.000213334
0.000202991
0.000186518
0.000156448
0.00016992
0.000162716
0.000127108
8.62612e-05
0.000127107
0.000125694
0.000180113
0.000167624
0.000200223
)
;
    }
    ceiling
    {
        type            compressible::alphatWallFunction;
        Prt             0.85;
        value           nonuniform List<scalar> 
43
(
0.000352509
0.000373754
0.000392554
0.000408435
0.000380775
0.000348007
0.000323716
0.000302038
0.000282454
0.000264815
0.000248926
0.000235366
0.000223471
0.000212841
0.000203345
0.000195038
0.000188118
0.000182876
0.000179581
0.000178303
0.000178764
0.000180409
0.000182649
0.000185125
0.000187828
0.000191006
0.000194896
0.000199873
0.000207207
0.000217944
0.000232267
0.000247027
0.000259775
0.000276449
0.000295892
0.000310966
0.000314607
0.000302007
0.000281817
0.000255075
0.000515856
0.000606848
0.000422215
)
;
    }
    sWall
    {
        type            compressible::alphatWallFunction;
        Prt             0.85;
        value           uniform 0.00035127;
    }
    nWall
    {
        type            compressible::alphatWallFunction;
        Prt             0.85;
        value           nonuniform List<scalar> 6(0.000186226 0.000223202 0.000259142 0.00027517 0.000280693 0.000254655);
    }
    sideWalls
    {
        type            empty;
    }
    glass1
    {
        type            compressible::alphatWallFunction;
        Prt             0.85;
        value           nonuniform List<scalar> 9(0.000121687 0.000207975 0.000279604 0.000345369 0.000405305 0.000460989 0.000511963 0.000522309 0.000507657);
    }
    glass2
    {
        type            compressible::alphatWallFunction;
        Prt             0.85;
        value           nonuniform List<scalar> 2(0.000260815 0.000267454);
    }
    sun
    {
        type            compressible::alphatWallFunction;
        Prt             0.85;
        value           nonuniform List<scalar> 
14
(
0.000125655
0.000128753
0.000117548
0.000121794
0.000126347
0.000130594
0.00013455
0.000138319
0.000142054
0.000145978
0.000149322
0.00015192
0.000153813
0.00015532
)
;
    }
    Table_master
    {
        type            compressible::alphatWallFunction;
        Prt             0.85;
        value           nonuniform List<scalar> 9(9.72499e-05 7.97652e-05 7.04634e-05 6.41741e-05 5.91568e-05 5.4696e-05 5.01287e-05 4.53648e-05 5.16623e-05);
    }
    Table_slave
    {
        type            compressible::alphatWallFunction;
        Prt             0.85;
        value           nonuniform List<scalar> 9(0.000160827 0.000164158 0.000169999 0.000177602 0.000186633 0.000198605 0.000205774 0.000208434 0.000205296);
    }
    inlet
    {
        type            fixedValue;
        value           uniform 1.94e-05;
    }
    outlet
    {
        type            zeroGradient;
    }
}


// ************************************************************************* //
