/*--------------------------------*- C++ -*----------------------------------*\
  =========                 |
  \\      /  F ield         | OpenFOAM: The Open Source CFD Toolbox
   \\    /   O peration     | Website:  https://openfoam.org
    \\  /    A nd           | Version:  6
     \\/     M anipulation  |
\*---------------------------------------------------------------------------*/
FoamFile
{
    version     2.0;
    format      ascii;
    class       volScalarField;
    location    "2600";
    object      k;
}
// * * * * * * * * * * * * * * * * * * * * * * * * * * * * * * * * * * * * * //

dimensions      [0 2 -2 0 0 0 0];

internalField   nonuniform List<scalar> 
458
(
0.00310479
0.00376551
0.00395376
0.00437982
0.00482106
0.00529581
0.00573664
0.00603424
0.00613055
0.00599247
0.00559268
0.00478573
0.00377604
0.00273289
0.00198246
0.000725231
0.00103219
0.00139745
0.00155077
0.00151947
0.00134741
0.00116671
0.00101429
0.000889799
0.000787727
0.000703393
0.000632975
0.000573509
0.000521611
0.000474182
0.000427672
0.00038687
0.00031831
0.00557737
0.0104597
0.00643276
0.00690384
0.00770558
0.00864742
0.00959955
0.0103568
0.0107395
0.0106625
0.0101103
0.00902889
0.00765793
0.00631057
0.0045659
0.00335971
0.00249368
0.00172158
0.000697797
0.00158673
0.0022406
0.00258412
0.00261948
0.0022474
0.00184665
0.00152328
0.00127386
0.00108031
0.000928359
0.000806794
0.000704691
0.000616334
0.000550973
0.000510666
0.000712259
0.000449485
0.00813245
0.0185283
0.00802229
0.00786066
0.00868808
0.00984035
0.01097
0.0117745
0.0121544
0.0120945
0.0115671
0.0105166
0.00921992
0.00783716
0.00635927
0.00507737
0.00416298
0.00238766
0.00162007
0.00227064
0.0027836
0.00309394
0.0030951
0.00239405
0.00181645
0.00140324
0.00111051
0.000900419
0.000746695
0.000632267
0.00054806
0.000489991
0.000457092
0.000463857
0.000975191
0.000560563
0.0109945
0.0294192
0.0103033
0.00861117
0.00941866
0.0109295
0.0121357
0.0128143
0.013095
0.0130189
0.0124608
0.0114277
0.0100741
0.00861239
0.00720701
0.00596648
0.00495029
0.00379571
0.00322152
0.00336792
0.00366822
0.00393456
0.00401331
0.00382567
0.00300062
0.00247634
0.00213619
0.00189075
0.00168938
0.00151516
0.00135453
0.00119437
0.00102237
0.000746871
0.000595377
0.00125988
0.000688711
0.0143291
0.0435359
0.0154788
0.010471
0.0112
0.0131865
0.0140223
0.0143141
0.0143971
0.0142242
0.0135902
0.0123826
0.0107472
0.00902524
0.00750696
0.00630139
0.00541249
0.00490152
0.00522637
0.00530947
0.00535599
0.00529625
0.00504336
0.00460249
0.00406784
0.00367551
0.00341213
0.00318712
0.00294793
0.00265788
0.00231943
0.00194991
0.00156979
0.001173
0.000875438
0.00107141
0.00110451
0.0010282
0.00120529
0.00116966
0.0182758
0.0583734
0.0272816
0.0166696
0.0172081
0.017321
0.0168763
0.0164873
0.0162745
0.0159602
0.0151463
0.0135986
0.0114987
0.00934748
0.00758606
0.00640663
0.00583567
0.00584254
0.0063012
0.0066131
0.00659773
0.00626131
0.00569431
0.00502193
0.0044343
0.00407505
0.00384893
0.00364291
0.00340746
0.00311806
0.00276022
0.00236281
0.00195593
0.00155741
0.00124676
0.00113017
0.00111552
0.00149303
0.00333253
0.00186531
0.0218769
0.0667784
0.0443481
0.0313441
0.0263278
0.0226882
0.0203958
0.0192341
0.0187479
0.0182776
0.0171768
0.0150991
0.0123317
0.00964309
0.00766046
0.00662127
0.0063947
0.00671487
0.00719658
0.00734435
0.00705707
0.00644133
0.00566539
0.00489964
0.00433
0.00402569
0.003854
0.00371393
0.00356901
0.00340926
0.00320247
0.00292017
0.00259887
0.00226357
0.00200312
0.00186302
0.00186399
0.00226255
0.00504426
0.00292867
0.022273
0.0586419
0.0440359
0.0351892
0.0291067
0.0250371
0.0228369
0.0220481
0.0218549
0.021317
0.019691
0.0166636
0.012852
0.00958009
0.00755374
0.00685772
0.0068259
0.00709523
0.00729315
0.00710716
0.00653277
0.0057506
0.0049557
0.00430087
0.00387365
0.00365636
0.00356089
0.00353165
0.0035555
0.00363665
0.00377854
0.00394643
0.00406375
0.0041423
0.00437398
0.00505071
0.00643759
0.00829768
0.0181252
0.00474586
0.0209197
0.027742
0.0254104
0.0227069
0.0217271
0.0225077
0.0242637
0.0260345
0.0266886
0.0254337
0.0221203
0.0168813
0.0114069
0.00852233
0.00720238
0.00672824
0.0066226
0.00659408
0.00640234
0.00594116
0.00526852
0.00453171
0.00388572
0.00342084
0.00315112
0.00303218
0.00301099
0.00306099
0.00317706
0.00336235
0.00362074
0.00395154
0.00436572
0.00488533
0.0055597
0.00636689
0.00716482
0.00775349
0.00810981
0.00443209
0.00378181
0.016726
0.0281043
0.0350598
0.0375273
0.0355581
0.0294776
0.0225413
0.0164856
0.0118755
0.00879157
0.00716008
0.0063593
0.00597271
0.00573974
0.00549341
0.00512579
0.00461973
0.00404445
0.00349429
0.00304943
0.00275242
0.00259556
0.00253852
0.00254844
0.00261027
0.00272203
0.00289066
0.00313152
0.00346748
0.00390941
0.00445708
0.00509992
0.00576659
0.00631167
0.00656004
0.00624615
0.00321964
0.0176733
0.0349605
0.0321234
0.0287006
0.0253694
0.0215238
0.0170643
0.0129708
0.00984366
0.00772707
0.00640467
0.00563487
0.00518263
0.00488285
0.00462521
0.00434277
0.0040125
0.00365689
0.00331941
0.00303419
0.0028146
0.00265882
0.00256841
0.00253207
0.00254407
0.00260503
0.00271906
0.00289166
0.00313249
0.0034642
0.00389859
0.00444186
0.0050779
0.00574569
0.0064284
0.00779024
0.00443414
0.00351692
0.00853211
0.00999837
0.0111977
0.0108018
0.00980696
0.00924209
0.00838
0.00717938
0.00581544
0.00458573
0.00367799
0.00307054
0.00267258
0.0024038
0.00220663
0.00204039
0.00188047
0.0017182
0.00156042
0.00142347
0.00132149
0.00125974
0.00123664
0.00124622
0.00127686
0.00132577
0.0013925
0.00147845
0.00158695
0.00172418
0.00189764
0.00210744
0.00235909
0.00265801
0.00300898
0.00341192
0.00381182
0.00316073
0.00267015
0.00314247
)
;

boundaryField
{
    floor
    {
        type            kqRWallFunction;
        value           nonuniform List<scalar> 
36
(
0.00198246
0.000725231
0.00103219
0.00139745
0.00155077
0.00151947
0.00134741
0.00116671
0.00101429
0.000889799
0.000787727
0.000703393
0.000632975
0.000573509
0.000521611
0.000474182
0.000427672
0.00038687
0.00031831
0.00031831
0.000449485
0.000560563
0.000688711
0.0010282
0.00120529
0.00116966
0.00198246
0.00335971
0.00249368
0.00172158
0.000725231
0.00172158
0.000697797
0.00238766
0.00162007
0.00322152
)
;
    }
    ceiling
    {
        type            kqRWallFunction;
        value           nonuniform List<scalar> 
43
(
0.00853211
0.00999837
0.0111977
0.0108018
0.00980696
0.00924209
0.00838
0.00717938
0.00581544
0.00458573
0.00367799
0.00307054
0.00267258
0.0024038
0.00220663
0.00204039
0.00188047
0.0017182
0.00156042
0.00142347
0.00132149
0.00125974
0.00123664
0.00124622
0.00127686
0.00132577
0.0013925
0.00147845
0.00158695
0.00172418
0.00189764
0.00210744
0.00235909
0.00265801
0.00300898
0.00341192
0.00381182
0.00316073
0.00267015
0.00314247
0.0209197
0.027742
0.0176733
)
;
    }
    sWall
    {
        type            kqRWallFunction;
        value           uniform 0.00853211;
    }
    nWall
    {
        type            kqRWallFunction;
        value           nonuniform List<scalar> 6(0.00116966 0.00186531 0.00292867 0.00321964 0.00351692 0.00314247);
    }
    sideWalls
    {
        type            empty;
    }
    glass1
    {
        type            kqRWallFunction;
        value           nonuniform List<scalar> 9(0.00310479 0.00557737 0.00813245 0.0109945 0.0143291 0.0182758 0.0218769 0.022273 0.0209197);
    }
    glass2
    {
        type            kqRWallFunction;
        value           nonuniform List<scalar> 2(0.00474586 0.00443209);
    }
    sun
    {
        type            kqRWallFunction;
        value           nonuniform List<scalar> 
14
(
0.00310479
0.00376551
0.00395376
0.00437982
0.00482106
0.00529581
0.00573664
0.00603424
0.00613055
0.00599247
0.00559268
0.00478573
0.00377604
0.00273289
)
;
    }
    Table_master
    {
        type            kqRWallFunction;
        value           nonuniform List<scalar> 9(0.00239405 0.00181645 0.00140324 0.00111051 0.000900419 0.000746695 0.000632267 0.00054806 0.000489991);
    }
    Table_slave
    {
        type            kqRWallFunction;
        value           nonuniform List<scalar> 9(0.00300062 0.00247634 0.00213619 0.00189075 0.00168938 0.00151516 0.00135453 0.00119437 0.00102237);
    }
    inlet
    {
        type            turbulentIntensityKineticEnergyInlet;
        intensity       0.05;
        value           uniform 0.000937501;
    }
    outlet
    {
        type            zeroGradient;
    }
}


// ************************************************************************* //
