/*--------------------------------*- C++ -*----------------------------------*=========                 |
  \      /  F ield         | OpenFOAM: The Open Source CFD Toolbox
   \    /   O peration     | Website:  https://openfoam.org
    \  /    A nd           | Version:  6
     \/     M anipulation  |
\*---------------------------------------------------------------------------*/
FoamFile
{
    version     2.0;
    format      ascii;
    class       volScalarField;
    location    "2600";
    object      PMV;
}
// * * * * * * * * * * * * * * * * * * * * * * * * * * * * * * * * * * * * * //

dimensions      [0 0 0 0 0 0 0];

internalField   nonuniform List<scalar> 
458
(
1.2322030755741555
0.979874598213894
0.9488971932833644
0.924908826892111
0.9141178142669745
0.9148253276177197
0.9284967866613983
0.9545252077479991
0.9960789378402659
1.0560359138882525
1.1350642613981363
1.1420980936361407
1.1468752016911417
1.1497414420610377
1.1578623544424893
1.3083040197780609
1.2906370505207683
1.2868170066218863
1.2982769708298285
1.3073490799683167
1.295371570953559
1.2826192640382
1.2803607836749575
1.2822475057018061
1.2858995426938584
1.2901278062826294
1.2955683630189891
1.3022599243327222
1.3118742148632156
1.3270609446243111
1.352043789308913
1.3813452391703152
1.4033004134560445
1.154001300400114
0.9995204095419711
0.9919859331759657
0.9692719652573275
0.9606237298170793
0.9621073363618459
0.9728870492962584
0.9899952972332006
1.0163546840154354
1.0535843907312452
1.102315844724126
1.1416203800616584
1.1478306172039001
1.1506968513878157
1.1526076637938092
1.1149059168663058
1.110765455842089
1.126755906149793
1.2820136706730567
1.2720138234022749
1.2758340765968332
1.2741478789627059
1.2744815078522476
1.2748822356851757
1.2767031194977712
1.2803147554789847
1.2834261746919224
1.2860321139453021
1.289256713446137
1.2927855753625797
1.2976485741368333
1.304213850630966
1.3170995469814937
1.3432436265019563
1.3679178137947672
1.3737745758113593
1.176826041086801
0.9967877247970023
1.0347637774945153
1.0272750190779256
1.0284157139133883
1.0342031926105413
1.0373927053324494
1.033168695936748
1.0299166556182793
1.0368168986520807
1.0607493992529067
1.1076839802305516
1.1535630668554293
1.1592954406882034
1.1607285220756425
1.1534623878952028
1.14899554269142
1.1397371500428668
1.1553181402288044
1.1988084394372553
1.213317916056326
1.2352882479674467
1.2570557207420165
1.2610549013770858
1.284814792582611
1.3037187000738317
1.313145896169531
1.3180828867438894
1.322706358519927
1.3270713913544239
1.3297732424801967
1.3274628414569014
1.3314725858868934
1.3501298151144079
1.3445300982929995
1.300306461124777
1.243015177809068
0.9973465928535351
1.0708309896996167
1.0943933862612447
1.123654843268924
1.1427011715163422
1.1199582260607248
1.0713500266694305
1.02940940865774
1.01123546659677
1.0251257386368768
1.067173689579881
1.1221543376737362
1.165848324112345
1.1756168959445075
1.1596277190724722
1.1235951420140542
1.098228015063064
1.052362089872528
1.1056625426772877
1.1578626093709392
1.207989217208534
1.2599107042861846
1.3114082566152236
1.3515292397312566
1.3569228283945511
1.3611975168452206
1.3702152547837394
1.3798524585637875
1.3914687744263083
1.405235201516979
1.4249180258420258
1.453655322976194
1.4323401799364255
1.3956830326049459
1.3353062013411516
1.2638819451772298
1.3285398507607196
1.0153755015022494
1.1066370760693245
1.1707025535252369
1.255777170189766
1.2705812149030322
1.1692602210951932
1.0732989136654245
1.0113417509365048
0.9844955363561947
0.9967313608137092
1.0422617870176698
1.1056182558549492
1.164877115757961
1.1949289416614357
1.188453007455528
1.1584412196029839
1.1345008742873062
1.1376938271764787
1.1675146322146606
1.2191084136627774
1.280772338683444
1.343209988948203
1.4021469788569951
1.4513800310230351
1.4737342883427293
1.487429520427
1.4983080787361696
1.5062188098385263
1.5099228303853367
1.5113537829294859
1.5113165760122844
1.5076192573870968
1.4775948385365345
1.4264657654214958
1.3371978069726504
1.3226402761141678
1.2710263886183555
1.2683704713563533
1.267825101249183
1.4197411020936421
1.0608425688928598
1.1775436184101753
1.2763012801811962
1.3168983117309676
1.2416573071130963
1.131009556919746
1.038734060472605
0.9766826756258876
0.9543947921976678
0.9756506799560293
1.0348786873077294
1.1161380967191359
1.1964226945635337
1.2419275486311858
1.2490912256900906
1.250076791029682
1.2384948207351443
1.2543747494462207
1.2932353468452307
1.3480517915895474
1.4104152063830167
1.4639022201384844
1.5006343418387982
1.5302043652530355
1.5521394141764489
1.5683499732117483
1.579791498644301
1.5869405256096483
1.5888472379524796
1.5855104720889663
1.5778846492925016
1.5619949614848814
1.5202310768441203
1.4644262845217622
1.381985948395712
1.3600501790252817
1.3757179738293532
1.3540902636897936
1.2936779974331634
1.5165703591395352
1.1694008422297155
1.3775267005503062
1.3306557902056793
1.2475025898704393
1.1517268146066666
1.0498964744407895
0.9648980687248024
0.9185136998325334
0.9190978983915427
0.9671679273599355
1.0560879055259622
1.168990299013811
1.2701036771041159
1.3011418825176793
1.317853214383589
1.3274020315790107
1.3445889172253258
1.3765720547087363
1.4180948752045541
1.4624709271094884
1.50540410463252
1.5426028683871744
1.5726406655398715
1.5950438489570071
1.6102956930502235
1.6203036471127767
1.6260220894645425
1.628404689321197
1.6264986134274275
1.6193505457412418
1.6083893191724687
1.5936138896411454
1.5726406655398715
1.5190970997504456
1.4474202435813968
1.4052960844448532
1.3934827836524466
1.3395104798396096
1.3196164011641456
1.6585641337287855
1.5444122035088526
1.4803338084762234
1.3152432302371784
1.1652401445674323
1.0193394045051976
0.9028114065299295
0.8384638328134022
0.8369661895357198
0.8920004712062659
0.9948960613813401
1.1383666503833023
1.2810868379451439
1.3455437060654654
1.3875502102305275
1.4056866957396814
1.4200037521325157
1.4433858466484526
1.477737401987572
1.515897041551447
1.5535698377249103
1.5864638429342528
1.6126786170193557
1.631740244992475
1.6441285816156335
1.6507986476442353
1.6536571219079108
1.653180714790681
1.649845806095865
1.6441285816156335
1.6365051530227035
1.6264986134274275
1.613155196010056
1.5940905446093037
1.5731174002643515
1.5492785212136149
1.5325887787504975
1.5171123756706444
1.3933531652813473
1.2728138346650955
1.8754909702657736
1.7674548372425578
1.5277835242746822
1.1106770784592508
0.793262121483854
0.6257925495976773
0.5860218359107937
0.6458197483049646
0.7776210132150924
0.9451938808340916
1.1460811109994884
1.2882495295588203
1.398050487604924
1.4529286573505285
1.4801226572719735
1.498726394233004
1.518281694749636
1.5435565531701034
1.5735941332085899
1.602670013756267
1.6240288518216157
1.6334091849658947
1.6379848446876082
1.638208548716182
1.6359179627095999
1.631182181607213
1.6238665293557917
1.6141848477737435
1.6021588202486978
1.5878534417033061
1.5716233653466969
1.5530071762620026
1.5333364546650736
1.5129967994272677
1.4882126898297736
1.462802221178619
1.4414068518357563
1.426626362525451
1.4104808841146805
1.3779721468777482
3.0
-2.4871131586862516
-1.183985518065787
-0.24362235388609663
0.44410367603834927
0.8587613868032209
1.1549961674961695
1.3006643994722937
1.361265340494708
1.4089995430000801
1.453100840105036
1.4846523397482296
1.5073586355541762
1.5286343822514181
1.5514034486116492
1.5746032402405912
1.5964338577595802
1.6130395317450343
1.6226216368568755
1.6259646100523157
1.6238394016522781
1.6188130247219192
1.6108906949613588
1.6015224807137223
1.5907767227180212
1.5794694021026918
1.5676838261109287
1.5562039718494796
1.5459772802986724
1.5369016524192605
1.5284642776150803
1.5215577361864665
1.5150781313758712
1.5105446560595035
1.513748950655452
1.5367892933727765
1.603398871340423
1.5647251890221676
-0.7002466693161052
-0.006038417126498302
0.38962383909590204
0.6907096346279503
0.9231878066931771
1.108822921837542
1.2510923999366932
1.344066364349869
1.4085826852538252
1.457344912177047
1.4950667061907101
1.5233036286277268
1.5459816968392086
1.565277123229953
1.582875219074119
1.5982931315744235
1.6104244046836207
1.6177968187635272
1.6206823138168007
1.6199615579692164
1.616522939403545
1.6119245877600248
1.606124316845626
1.5999749775502943
1.5929652838965014
1.585658036132811
1.5786918452566348
1.5723526365345868
1.5671603176523723
1.563201900777009
1.5626222836554693
1.5667278400431015
1.575011914453072
1.583577031188433
1.5964325748905965
1.6464612534116299
1.5920715010031854
1.698479233312019
0.4394868902526588
0.3231776661905831
0.3692845183909011
0.8938827956600621
1.0705162067410217
1.1717359598803732
1.2617610033946214
1.343431591353958
1.413020628138212
1.4674120628215757
1.5094417120326544
1.541457950853281
1.5664265667522488
1.5859651241321644
1.6005140348918372
1.6119267404096906
1.620189287043799
1.6250445303342265
1.6257816819784647
1.6231309300716414
1.6172959145935744
1.6101484775158659
1.6028772240168903
1.5956798536610493
1.5890749292469746
1.5830601646352203
1.5777069792796459
1.5732021892175891
1.5704003924955432
1.5693306410488894
1.5705909631110535
1.5754127818573964
1.587122901531796
1.6103785844460108
1.6571054572387915
1.6769984466899128
1.6822376149984808
1.6050990098394695
1.5922605914950525
1.5467578245356168
)
;

boundaryField
{
    ".*"
    {
        type            zeroGradient;
    }
}


// ************************************************************************* //
