/*--------------------------------*- C++ -*----------------------------------*\
  =========                 |
  \\      /  F ield         | OpenFOAM: The Open Source CFD Toolbox
   \\    /   O peration     | Website:  https://openfoam.org
    \\  /    A nd           | Version:  6
     \\/     M anipulation  |
\*---------------------------------------------------------------------------*/
FoamFile
{
    version     2.0;
    format      ascii;
    class       volScalarField;
    location    "2000";
    object      epsilon;
}
// * * * * * * * * * * * * * * * * * * * * * * * * * * * * * * * * * * * * * //

dimensions      [0 2 -3 0 0 0 0];

internalField   nonuniform List<scalar> 
458
(
0.000108186
0.000118409
0.000105622
0.000116563
0.000127091
0.000136691
0.000145452
0.000153617
0.000161535
0.00016972
0.0001767
0.000181448
0.000183971
0.000185356
0.000185855
2.86667e-05
5.45765e-05
6.79607e-05
7.42731e-05
7.36034e-05
6.60103e-05
5.80258e-05
5.12254e-05
4.5564e-05
4.06987e-05
3.64331e-05
3.26354e-05
2.92007e-05
2.60218e-05
2.29889e-05
1.99379e-05
1.73072e-05
1.29471e-05
0.000461023
0.00108532
0.000113456
9.09001e-05
9.0551e-05
9.18729e-05
9.41053e-05
9.79173e-05
0.000104057
0.000113241
0.000124088
0.000134997
0.000144749
0.000153092
0.000166903
0.000208308
0.000178082
0.000128007
7.46561e-05
7.62964e-05
6.32282e-05
5.74776e-05
5.30305e-05
5.09328e-05
4.33854e-05
3.86524e-05
3.47885e-05
3.09996e-05
2.73443e-05
2.389e-05
2.06587e-05
1.77673e-05
1.59717e-05
1.54169e-05
2.9903e-05
2.244e-05
0.00113862
0.00365648
0.00022657
9.95551e-05
9.46808e-05
9.81072e-05
0.000103562
0.00011113
0.000120981
0.000132957
0.000145788
0.000156035
0.0001614
0.000162153
0.000162993
0.000171021
0.00018976
0.000254846
0.000132026
9.77947e-05
6.98643e-05
4.94066e-05
4.37089e-05
7.98989e-05
5.56953e-05
4.05452e-05
3.2052e-05
2.69862e-05
2.35511e-05
2.10025e-05
1.91325e-05
1.81102e-05
1.56449e-05
1.51302e-05
5.08014e-05
3.26358e-05
0.0023045
0.00861207
0.000552082
0.000122753
0.000106106
0.000113523
0.000124169
0.000137201
0.000152782
0.000170856
0.000190225
0.000204394
0.000208826
0.000203019
0.000189984
0.000176537
0.000177366
0.000213285
0.000281643
0.000153117
6.85537e-05
4.32428e-05
3.15988e-05
3.42639e-05
6.92187e-05
7.13267e-05
7.54313e-05
7.95735e-05
8.21268e-05
8.14604e-05
7.63412e-05
6.95227e-05
6.18348e-05
4.36975e-05
3.11013e-05
7.73995e-05
4.81625e-05
0.00407898
0.0159135
0.00140127
0.000179779
0.000119622
0.000127167
0.000143008
0.000163679
0.000189691
0.00022162
0.000256584
0.000280869
0.000287366
0.000276502
0.000251385
0.000217613
0.000184799
0.00015631
0.000118518
6.83581e-05
4.25789e-05
3.02743e-05
2.84434e-05
3.31292e-05
4.33595e-05
5.07487e-05
5.70471e-05
6.2878e-05
6.6651e-05
6.65725e-05
6.1655e-05
5.45603e-05
4.91939e-05
4.28943e-05
3.5646e-05
5.47568e-05
7.01838e-05
8.14964e-05
9.12808e-05
9.48748e-05
0.00659927
0.0233339
0.00360804
0.00044746
0.000182131
0.000158086
0.000169319
0.000193741
0.000230562
0.000286399
0.00034891
0.000383731
0.000387583
0.000367545
0.000330324
0.000282178
0.000231027
0.000175496
0.000116285
6.86461e-05
4.1825e-05
2.90921e-05
2.98896e-05
3.58479e-05
4.32684e-05
5.37158e-05
6.48985e-05
7.68233e-05
8.72032e-05
9.26978e-05
8.99006e-05
7.57532e-05
6.14473e-05
4.9608e-05
4.10925e-05
4.41611e-05
5.28942e-05
8.08207e-05
0.000350306
0.000205212
0.00987455
0.0274182
0.00883088
0.00225666
0.000827127
0.000428119
0.000332174
0.000318292
0.000340053
0.000428324
0.000509411
0.000531494
0.000512589
0.000469779
0.000413216
0.000347925
0.000282339
0.000213647
0.000144566
8.82931e-05
5.19668e-05
3.18663e-05
3.2351e-05
4.02684e-05
4.90204e-05
6.07634e-05
7.59555e-05
9.43971e-05
0.00011404
0.000130614
0.000139774
0.000133943
0.000107783
8.57051e-05
7.32719e-05
7.31105e-05
8.54902e-05
0.000131159
0.000600007
0.000374123
0.0107811
0.0332109
0.0171299
0.0108217
0.00586852
0.0029894
0.00169081
0.00114478
0.000926655
0.00087022
0.000820544
0.00074993
0.000666091
0.000577939
0.000490465
0.000406251
0.000326293
0.000249497
0.000177055
0.000115382
6.86105e-05
3.68915e-05
3.55497e-05
4.62049e-05
5.80867e-05
7.29437e-05
9.21923e-05
0.000115917
0.000143743
0.000174937
0.000208381
0.000241149
0.000255107
0.000252086
0.000287159
0.000393349
0.000647435
0.00104971
0.0039634
0.000977119
0.0100428
0.0173848
0.0155954
0.0118092
0.0085631
0.00589974
0.00401486
0.00280207
0.00206641
0.00158338
0.00124709
0.0010032
0.000817495
0.00066918
0.000545826
0.000440201
0.000348084
0.000266846
0.00019577
0.000136474
8.88033e-05
4.30106e-05
3.86233e-05
5.21381e-05
6.73576e-05
8.4647e-05
0.00010607
0.000132559
0.000165203
0.000205789
0.000257027
0.000322475
0.000405894
0.000510684
0.000669967
0.000904928
0.00119802
0.00149093
0.00174946
0.000907313
0.00821563
0.0147996
0.00897076
0.00614742
0.00434796
0.00314171
0.00233242
0.00177781
0.00137829
0.00108334
0.000860305
0.000686735
0.000547611
0.000433257
0.000337707
0.000257522
0.000191134
0.000137977
9.44324e-05
4.7545e-05
3.98074e-05
5.44839e-05
7.16452e-05
8.92448e-05
0.000109008
0.000132023
0.000159209
0.000192027
0.000232925
0.000285891
0.00035711
0.00045349
0.000579146
0.000728597
0.000865006
0.000922875
0.000868206
0.000473358
0.00645702
0.0119
0.00742729
0.00525781
0.00387428
0.00289931
0.00218785
0.00166964
0.00129022
0.00100628
0.000789896
0.000621295
0.000486934
0.000377806
0.000288158
0.000214535
0.000155059
0.000108511
7.13425e-05
4.3019e-05
3.89687e-05
4.91955e-05
6.14316e-05
7.6414e-05
9.40425e-05
0.000115202
0.000141149
0.000173718
0.000215542
0.000270258
0.000342392
0.000436115
0.000553253
0.000684265
0.000813808
0.000923378
0.000638878
0.000483628
0.00319972
0.00407773
0.00495946
0.00595206
0.0047842
0.00390377
0.00297641
0.00233624
0.00183782
0.00144465
0.00113259
0.000905567
0.000727675
0.000582124
0.000460324
0.000357651
0.000271563
0.000200633
0.000144016
0.000100988
7.0105e-05
4.93268e-05
4.58534e-05
6.04024e-05
7.63328e-05
9.41911e-05
0.000114216
0.000136724
0.000162175
0.00019137
0.000225795
0.000268378
0.000321323
0.000384403
0.000459262
0.000545981
0.000656034
0.000627576
0.000487066
0.000381488
)
;

boundaryField
{
    floor
    {
        Cmu             0.09;
        kappa           0.41;
        E               9.8;
        type            epsilonWallFunction;
        value           nonuniform List<scalar> 
36
(
0.000185855
2.86667e-05
5.45765e-05
6.79607e-05
7.42731e-05
7.36034e-05
6.60103e-05
5.80258e-05
5.12254e-05
4.5564e-05
4.06987e-05
3.64331e-05
3.26354e-05
2.92007e-05
2.60218e-05
2.29889e-05
1.99379e-05
1.73072e-05
1.29471e-05
1.29471e-05
2.244e-05
3.26358e-05
4.81625e-05
8.14964e-05
9.12808e-05
9.48748e-05
0.000185855
0.000208308
0.000178082
0.000128007
2.86667e-05
0.000128007
7.46561e-05
0.000254846
0.000132026
0.000281643
)
;
    }
    ceiling
    {
        Cmu             0.09;
        kappa           0.41;
        E               9.8;
        type            epsilonWallFunction;
        value           nonuniform List<scalar> 
43
(
0.00319972
0.00407773
0.00495946
0.00595206
0.0047842
0.00390377
0.00297641
0.00233624
0.00183782
0.00144465
0.00113259
0.000905567
0.000727675
0.000582124
0.000460324
0.000357651
0.000271563
0.000200633
0.000144016
0.000100988
7.0105e-05
4.93268e-05
4.58534e-05
6.04024e-05
7.63328e-05
9.41911e-05
0.000114216
0.000136724
0.000162175
0.00019137
0.000225795
0.000268378
0.000321323
0.000384403
0.000459262
0.000545981
0.000656034
0.000627576
0.000487066
0.000381488
0.0100428
0.0173848
0.00645702
)
;
    }
    sWall
    {
        Cmu             0.09;
        kappa           0.41;
        E               9.8;
        type            epsilonWallFunction;
        value           uniform 0.00319972;
    }
    nWall
    {
        Cmu             0.09;
        kappa           0.41;
        E               9.8;
        type            epsilonWallFunction;
        value           nonuniform List<scalar> 6(9.48748e-05 0.000205212 0.000374123 0.000473358 0.000483628 0.000381488);
    }
    sideWalls
    {
        type            empty;
    }
    glass1
    {
        Cmu             0.09;
        kappa           0.41;
        E               9.8;
        type            epsilonWallFunction;
        value           nonuniform List<scalar> 9(0.000108186 0.000461023 0.00113862 0.0023045 0.00407898 0.00659927 0.00987455 0.0107811 0.0100428);
    }
    glass2
    {
        Cmu             0.09;
        kappa           0.41;
        E               9.8;
        type            epsilonWallFunction;
        value           nonuniform List<scalar> 2(0.000977119 0.000907313);
    }
    sun
    {
        Cmu             0.09;
        kappa           0.41;
        E               9.8;
        type            epsilonWallFunction;
        value           nonuniform List<scalar> 
14
(
0.000108186
0.000118409
0.000105622
0.000116563
0.000127091
0.000136691
0.000145452
0.000153617
0.000161535
0.00016972
0.0001767
0.000181448
0.000183971
0.000185356
)
;
    }
    Table_master
    {
        Cmu             0.09;
        kappa           0.41;
        E               9.8;
        type            epsilonWallFunction;
        value           nonuniform List<scalar> 9(7.98989e-05 5.56953e-05 4.05452e-05 3.2052e-05 2.69862e-05 2.35511e-05 2.10025e-05 1.91325e-05 1.81102e-05);
    }
    Table_slave
    {
        Cmu             0.09;
        kappa           0.41;
        E               9.8;
        type            epsilonWallFunction;
        value           nonuniform List<scalar> 9(6.92187e-05 7.13267e-05 7.54313e-05 7.95735e-05 8.21268e-05 8.14604e-05 7.63412e-05 6.95227e-05 6.18348e-05);
    }
    inlet
    {
        type            turbulentMixingLengthDissipationRateInlet;
        mixingLength    0.01;
        phi             phi;
        k               k;
        value           uniform 0.000101881;
    }
    outlet
    {
        type            zeroGradient;
    }
}


// ************************************************************************* //
