/*--------------------------------*- C++ -*----------------------------------*\
  =========                 |
  \\      /  F ield         | OpenFOAM: The Open Source CFD Toolbox
   \\    /   O peration     | Website:  https://openfoam.org
    \\  /    A nd           | Version:  6
     \\/     M anipulation  |
\*---------------------------------------------------------------------------*/
FoamFile
{
    version     2.0;
    format      ascii;
    class       volScalarField;
    location    "2000";
    object      k;
}
// * * * * * * * * * * * * * * * * * * * * * * * * * * * * * * * * * * * * * //

dimensions      [0 2 -2 0 0 0 0];

internalField   nonuniform List<scalar> 
458
(
0.000899874
0.000955707
0.000885601
0.00094575
0.00100187
0.00105171
0.00109618
0.00113684
0.00117557
0.00121495
0.00124805
0.0012703
0.00128205
0.00128849
0.0012908
0.000371196
0.000570305
0.000660096
0.000700336
0.000696104
0.00064736
0.000594041
0.000546669
0.000505609
0.000468943
0.000435575
0.000404753
0.000375831
0.000348034
0.000320436
0.000291417
0.000265184
0.00021853
0.00236529
0.00449571
0.00130107
0.00128455
0.00132353
0.00137511
0.00143243
0.00149775
0.00157251
0.00165501
0.00173371
0.00178418
0.00178085
0.00169314
0.00151853
0.00139278
0.00125457
0.00100666
0.000702639
0.00109732
0.00114252
0.00112654
0.00104339
0.000904862
0.000796995
0.000734383
0.000678841
0.000621723
0.000564783
0.000509061
0.000454057
0.000400275
0.000360186
0.000337602
0.000498
0.000315316
0.00432171
0.0104676
0.00190345
0.00162081
0.00165049
0.00172434
0.00180799
0.00190248
0.00200787
0.00211913
0.00222373
0.00228717
0.00228388
0.00220523
0.0020731
0.001926
0.00174191
0.0015932
0.00102767
0.00156081
0.00133281
0.00106402
0.00089893
0.000735195
0.000577985
0.00046773
0.00039989
0.000356562
0.000325626
0.000301691
0.000283508
0.000273318
0.000281436
0.000305149
0.000696215
0.000404759
0.00691492
0.0200978
0.00303467
0.00190933
0.00191579
0.00202893
0.00215352
0.00228723
0.00243149
0.00258376
0.00273309
0.00283052
0.00284144
0.00275393
0.00257105
0.0023148
0.0020514
0.00183999
0.00170305
0.00196863
0.00127676
0.000950195
0.000768315
0.000719877
0.000668156
0.000681656
0.000707563
0.000733237
0.000748842
0.000744789
0.000713253
0.000670124
0.000619765
0.000517122
0.000443534
0.000895673
0.000524661
0.0101182
0.0330087
0.00566215
0.00223573
0.00210797
0.00224151
0.00240932
0.00259738
0.00280888
0.00304581
0.00328402
0.00344587
0.00349158
0.00341562
0.00321983
0.00292548
0.00259868
0.00227087
0.00183059
0.00128157
0.000917107
0.000710425
0.000688181
0.000785249
0.000941608
0.0010633
0.00116036
0.00124489
0.00129819
0.00129938
0.00123389
0.00110474
0.000961241
0.000797158
0.000643036
0.00077258
0.000785526
0.000745017
0.000803501
0.000824454
0.0139444
0.046086
0.0122937
0.00340216
0.00248292
0.00248247
0.00264834
0.00287572
0.00315219
0.0035087
0.00386246
0.00406836
0.00411149
0.00401405
0.00378907
0.00345132
0.00303519
0.00251421
0.00187835
0.00128157
0.00087565
0.000655688
0.000679415
0.000807134
0.000946325
0.0011173
0.00128176
0.00144319
0.0015763
0.00164883
0.0016288
0.00147182
0.00126414
0.00104468
0.000851522
0.000783197
0.000764122
0.000953175
0.00240516
0.0013789
0.0182423
0.0547969
0.026008
0.00986108
0.00503459
0.00362001
0.00342229
0.00355924
0.00381713
0.00428625
0.00465123
0.00477479
0.00471545
0.00452879
0.0042389
0.00384875
0.00338865
0.00282201
0.00215355
0.00150656
0.000997602
0.00066838
0.000683704
0.000839397
0.000989489
0.00116271
0.0013623
0.00158202
0.00179699
0.00196962
0.00207236
0.00204989
0.0018049
0.00152232
0.00129799
0.00117792
0.00115461
0.00137808
0.00332054
0.00205783
0.0193424
0.0600708
0.0396105
0.0288394
0.0184366
0.011501
0.00807717
0.00663267
0.00614505
0.00604634
0.00588085
0.00562645
0.005309
0.00494415
0.00453512
0.00408225
0.0035838
0.00302438
0.00240537
0.00178049
0.00119349
0.000710221
0.000692067
0.000883309
0.00106444
0.00125624
0.00147466
0.00171559
0.00197104
0.00223461
0.00250456
0.00277362
0.00292996
0.00284623
0.00290069
0.00327846
0.00419445
0.00543027
0.0119449
0.00390269
0.018449
0.0265979
0.0273173
0.024562
0.0209374
0.0168414
0.013359
0.0108309
0.00916219
0.00796438
0.00706598
0.00635242
0.00574204
0.00518227
0.00464172
0.00410435
0.00356306
0.00301362
0.00246029
0.00192394
0.00139829
0.000755521
0.000686344
0.000910629
0.00112199
0.00132192
0.00153465
0.00176359
0.00200906
0.00227376
0.00256202
0.00287587
0.00320954
0.00355912
0.00403307
0.00467334
0.00535905
0.00588902
0.00622837
0.00371454
0.0160743
0.0298433
0.0223453
0.0179611
0.0146642
0.0121368
0.0102381
0.00879236
0.00762676
0.00666302
0.0058424
0.00512006
0.00446488
0.00385778
0.0032891
0.00275645
0.00226488
0.00182238
0.00138903
0.000764478
0.00063921
0.000868735
0.00109334
0.00128564
0.00147072
0.00165798
0.00185027
0.00205207
0.00227234
0.00252643
0.00283646
0.003212
0.00363451
0.00405634
0.00433216
0.00427907
0.00387723
0.00240728
0.0137432
0.0279093
0.0211206
0.0171297
0.0142499
0.011968
0.010095
0.00856888
0.00731917
0.00623331
0.00529959
0.00449452
0.00379433
0.00317904
0.00263402
0.00215076
0.00172747
0.00136488
0.00102616
0.000642273
0.000548535
0.000700147
0.000857988
0.00102
0.00119071
0.00137799
0.00158802
0.00182707
0.00210134
0.00241491
0.00277711
0.00319542
0.003653
0.00408713
0.00444189
0.00468176
0.00366026
0.00244198
0.0086061
0.0101161
0.0115263
0.013017
0.0112531
0.0098263
0.00820092
0.00697823
0.00594662
0.00506496
0.0043064
0.00370978
0.00320646
0.0027632
0.00236289
0.00199699
0.00166207
0.00135833
0.00108895
0.000859504
0.000673857
0.000533074
0.000507697
0.000610105
0.000713154
0.000820454
0.000932977
0.00105185
0.00117864
0.00131616
0.00146962
0.00164902
0.00185934
0.00209535
0.00235924
0.00264759
0.00299238
0.00290521
0.00245353
0.00208475
)
;

boundaryField
{
    floor
    {
        type            kqRWallFunction;
        value           nonuniform List<scalar> 
36
(
0.0012908
0.000371196
0.000570305
0.000660096
0.000700336
0.000696104
0.00064736
0.000594041
0.000546669
0.000505609
0.000468943
0.000435575
0.000404753
0.000375831
0.000348034
0.000320436
0.000291417
0.000265184
0.00021853
0.00021853
0.000315316
0.000404759
0.000524661
0.000745017
0.000803501
0.000824454
0.0012908
0.00139278
0.00125457
0.00100666
0.000371196
0.00100666
0.000702639
0.0015932
0.00102767
0.00170305
)
;
    }
    ceiling
    {
        type            kqRWallFunction;
        value           nonuniform List<scalar> 
43
(
0.0086061
0.0101161
0.0115263
0.013017
0.0112531
0.0098263
0.00820092
0.00697823
0.00594662
0.00506496
0.0043064
0.00370978
0.00320646
0.0027632
0.00236289
0.00199699
0.00166207
0.00135833
0.00108895
0.000859504
0.000673857
0.000533074
0.000507697
0.000610105
0.000713154
0.000820454
0.000932977
0.00105185
0.00117864
0.00131616
0.00146962
0.00164902
0.00185934
0.00209535
0.00235924
0.00264759
0.00299238
0.00290521
0.00245353
0.00208475
0.018449
0.0265979
0.0137432
)
;
    }
    sWall
    {
        type            kqRWallFunction;
        value           uniform 0.0086061;
    }
    nWall
    {
        type            kqRWallFunction;
        value           nonuniform List<scalar> 6(0.000824454 0.0013789 0.00205783 0.00240728 0.00244198 0.00208475);
    }
    sideWalls
    {
        type            empty;
    }
    glass1
    {
        type            kqRWallFunction;
        value           nonuniform List<scalar> 9(0.000899874 0.00236529 0.00432171 0.00691492 0.0101182 0.0139444 0.0182423 0.0193424 0.018449);
    }
    glass2
    {
        type            kqRWallFunction;
        value           nonuniform List<scalar> 2(0.00390269 0.00371454);
    }
    sun
    {
        type            kqRWallFunction;
        value           nonuniform List<scalar> 
14
(
0.000899874
0.000955707
0.000885601
0.00094575
0.00100187
0.00105171
0.00109618
0.00113684
0.00117557
0.00121495
0.00124805
0.0012703
0.00128205
0.00128849
)
;
    }
    Table_master
    {
        type            kqRWallFunction;
        value           nonuniform List<scalar> 9(0.000735195 0.000577985 0.00046773 0.00039989 0.000356562 0.000325626 0.000301691 0.000283508 0.000273318);
    }
    Table_slave
    {
        type            kqRWallFunction;
        value           nonuniform List<scalar> 9(0.000668156 0.000681656 0.000707563 0.000733237 0.000748842 0.000744789 0.000713253 0.000670124 0.000619765);
    }
    inlet
    {
        type            turbulentIntensityKineticEnergyInlet;
        intensity       0.05;
        value           uniform 0.0003375;
    }
    outlet
    {
        type            zeroGradient;
    }
}


// ************************************************************************* //
