/*--------------------------------*- C++ -*----------------------------------*\
  =========                 |
  \\      /  F ield         | OpenFOAM: The Open Source CFD Toolbox
   \\    /   O peration     | Website:  https://openfoam.org
    \\  /    A nd           | Version:  6
     \\/     M anipulation  |
\*---------------------------------------------------------------------------*/
FoamFile
{
    version     2.0;
    format      ascii;
    class       surfaceScalarField;
    location    "2800";
    object      phi;
}
// * * * * * * * * * * * * * * * * * * * * * * * * * * * * * * * * * * * * * //

dimensions      [1 0 -1 0 0 0 0];

internalField   nonuniform List<scalar> 
850
(
-0.00278713
0.00284196
-0.00366407
0.000876937
-0.00436565
0.000701582
-0.00495174
0.00058609
-0.00539647
0.000444729
-0.00568495
0.000288478
-0.00579931
0.000114351
-0.00571689
-8.24209e-05
-0.00541486
-0.00030203
-0.0048896
-0.000525257
-0.00416782
-0.00072178
-0.00330103
-0.000866795
-0.00234084
-0.000960195
-0.00128318
-0.00105766
-0.00128218
-0.000493322
0.000495383
-7.99712e-05
-0.000413346
0.000498968
-0.000578935
0.00090841
-0.000409437
0.001167
-0.000258589
0.00130328
-0.000136273
0.00136375
-6.04634e-05
0.00139397
-3.02161e-05
0.00141004
-1.60666e-05
0.00141607
-6.02141e-06
0.00141372
2.3594e-06
0.00140167
1.20547e-05
0.00137182
2.98569e-05
0.00130248
6.93469e-05
0.00115745
0.000145037
0.000921039
0.000236421
0.000628536
0.000292512
0.000631287
-0.00198521
0.00497434
-0.0028776
0.00176933
-0.00361086
0.00143484
-0.00418454
0.00115977
-0.00461551
0.000875699
-0.00490251
0.000575472
-0.00502938
0.000241225
-0.00497161
-0.000140198
-0.00471091
-0.000562727
-0.00425349
-0.000982683
-0.00363862
-0.00133665
-0.00292858
-0.00157684
-0.00219861
-0.00169017
-0.0015742
-0.00168207
-0.00140484
-0.00145155
-0.000600736
-0.000802183
-0.000293078
-0.000305381
-0.000286178
0.000505659
-4.63297e-06
0.000886476
-0.000794159
0.00110225
-0.000794711
0.00129347
-0.000600646
0.00142879
-0.000393903
0.00145116
-0.000158645
0.00145376
-6.30596e-05
0.00145809
-3.45425e-05
0.00146202
-1.99815e-05
0.00146432
-8.31592e-06
0.00146493
1.75315e-06
0.00146317
1.38235e-05
0.00145577
3.72564e-05
0.00141523
0.000109901
0.00124911
0.000311163
0.000957068
0.000528468
0.000581592
0.000667996
0.00122005
-0.0013982
0.0065968
-0.00219127
0.00256239
-0.00283592
0.00207949
-0.00331583
0.00163969
-0.00368327
0.00124314
-0.0039402
0.000832402
-0.00406329
0.000364314
-0.00401523
-0.000188264
-0.00377044
-0.00080752
-0.00334544
-0.00140769
-0.00279226
-0.00188984
-0.00217869
-0.00219041
-0.00157879
-0.00229007
-0.00107454
-0.00218632
-0.000679112
-0.00184698
-0.000235348
-0.00124595
0.00010262
-0.000643349
-0.000178178
0.00129002
-0.00128874
0.00148539
-0.000989529
0.00149826
-0.000807586
0.00153736
-0.000639737
0.00162614
-0.000482684
0.00146765
0.00140475
0.00137037
0.00135054
0.00134238
0.0013443
0.00135828
0.00139569
0.00150576
0.00126533
0.000551597
0.000957904
0.000835901
0.000533553
0.00109235
0.00176462
-0.000992541
0.00787847
-0.00164677
0.00321662
-0.00205575
0.00248847
-0.00236086
0.00194479
-0.00260443
0.00148671
-0.00278514
0.00101312
-0.00287196
0.00045113
-0.00280641
-0.000253813
-0.00255608
-0.00105785
-0.00215944
-0.00180434
-0.00168313
-0.00236615
-0.00119094
-0.0026826
-0.000735376
-0.00274565
-0.000347541
-0.00257416
4.07171e-06
-0.0021986
0.000400774
-0.00164265
0.00085116
-0.00109374
0.00140103
-0.000728044
0.00205922
-0.000652627
0.00164649
-0.000876007
0.00155198
-0.000895013
0.00148982
-0.000745426
0.0014413
-0.000591219
0.00137721
-0.000418582
0.00157012
-0.00019306
0.00169041
-0.000120439
0.00178722
-9.69548e-05
0.00186605
-7.89829e-05
0.00191565
-4.97459e-05
0.00191495
5.56735e-07
0.0018388
7.6005e-05
0.0016558
0.000182862
0.00131319
0.000342464
0.00117911
0.000685682
0.000913778
0.00110124
0.000509382
0.00149676
0.00228841
-0.000713703
0.00893584
-0.00123661
0.00373953
-0.00129378
0.00254564
-0.00134603
0.00199705
-0.00140799
0.00154866
-0.00145707
0.00106221
-0.00145008
0.000444135
-0.00131396
-0.000389925
-0.00103908
-0.00133274
-0.000692157
-0.00215127
-0.0003388
-0.00271952
-2.08016e-05
-0.00300061
0.000239624
-0.00300608
0.000444004
-0.00277855
0.000623283
-0.00237788
0.000843871
-0.00186324
0.00110721
-0.00135707
0.001362
-0.000982833
0.00151351
-0.00080414
0.00142286
-0.000785362
0.00128148
-0.000753628
0.00118153
-0.000645472
0.00111273
-0.000522417
0.00108964
-0.000395485
0.00116897
-0.00027238
0.00125583
-0.000207297
0.0013398
-0.000180917
0.00141949
-0.000158662
0.00148666
-0.000116903
0.00152464
-3.74233e-05
0.00151275
8.79023e-05
0.00143778
0.000257845
0.0013029
0.000477355
0.00118695
0.000801636
0.00107376
0.00121444
0.000857976
0.00171255
0.00104851
0.00209789
-0.000899428
0.00196101
-0.00153203
0.000644037
-0.00147708
-0.000639649
0.0099649
-0.00102807
0.00412795
-0.000603183
0.00212076
-0.000276288
0.00167015
-0.000100792
0.00137317
2.57219e-05
0.000935695
0.000199683
0.000270176
0.000467848
-0.00065809
0.000756966
-0.00162186
0.000999343
-0.00239365
0.00116204
-0.00288222
0.00123886
-0.00307744
0.00124481
-0.00301203
0.00120739
-0.00274113
0.00115801
-0.0023285
0.00113666
-0.0018419
0.00114798
-0.0013684
0.00115884
-0.000993688
0.00111933
-0.00076463
0.000997485
-0.000663516
0.000842961
-0.000599101
0.000721804
-0.000524309
0.00064709
-0.000447698
0.000626758
-0.000375146
0.00066666
-0.000312275
0.000737146
-0.000277775
0.000819456
-0.000263219
0.0009075
-0.000246697
0.000997612
-0.000207006
0.0010825
-0.000122306
0.00114327
2.71416e-05
0.00116998
0.000231152
0.00117568
0.000471665
0.0012084
0.00076892
0.00131571
0.00110715
0.00152011
0.00150816
0.00186532
0.00175268
0.00212268
0.00170367
0.00165093
0.00111579
0.000227639
-0.000722016
0.0111177
-0.000654007
0.00405994
0.000443578
0.00102317
0.00112303
0.000990707
0.00148414
0.00101206
0.00179839
0.000621462
0.00216908
-0.00010051
0.00252573
-0.00101474
0.00274297
-0.00183911
0.00279403
-0.00244473
0.00269224
-0.00278044
0.0024697
-0.00285492
0.0021695
-0.00271185
0.00183728
-0.00240892
0.0015127
-0.00200392
0.00122821
-0.00155741
0.000994111
-0.0011343
0.000798787
-0.000798362
0.000621626
-0.000587466
0.000443146
-0.000485032
0.000280708
-0.000436657
0.00015915
-0.000402744
8.65813e-05
-0.000375122
6.36045e-05
-0.000352161
8.58215e-05
-0.000334483
0.0001359
-0.000327844
0.000199668
-0.000326978
0.000273772
-0.000320791
0.00036206
-0.000295284
0.000470576
-0.000230812
0.000597739
-0.000100012
0.000727505
0.000101397
0.000860526
0.000338655
0.00103511
0.000594349
0.00129024
0.000852022
0.00166392
0.00113449
0.00217214
0.00124447
0.00281316
0.00106265
0.00292336
0.00100561
0.00320946
0.00240798
0.00919155
0.00305493
0.00341299
0.00355059
0.000527514
0.00389022
0.000651088
0.00413944
0.000762837
0.00447829
0.000282629
0.00483658
-0.0004588
0.00499587
-0.00117404
0.00490256
-0.00174582
0.00457131
-0.0021135
0.00405907
-0.00226823
0.00343592
-0.00223178
0.00276984
-0.00204578
0.00211813
-0.00175722
0.00151951
-0.00140531
0.00100195
-0.00103984
0.000578151
-0.000710499
0.00024687
-0.000467077
-5.76637e-06
-0.000334823
-0.000202425
-0.000288366
-0.000352545
-0.000286529
-0.000460266
-0.000295015
-0.000529433
-0.000305945
-0.00056499
-0.000316594
-0.000573552
-0.000325911
-0.000566553
-0.000334833
-0.000552384
-0.000341137
-0.000532645
-0.000340519
-0.000501377
-0.000326541
-0.000442129
-0.00029005
-0.000324548
-0.000217582
-0.000145551
-7.75893e-05
7.10418e-05
0.000122072
0.000331001
0.0003344
0.000646198
0.000536835
0.00104354
0.00073716
0.00150308
0.000784947
0.00190142
0.000664319
0.00125363
0.00165341
0.00468839
0.00971655
0.0131186
0.0125194
0.00112673
0.0113548
0.00181569
0.0105247
0.00159296
0.00981788
0.000989434
0.00900203
0.000357022
0.00803901
-0.000211053
0.00695882
-0.000665673
0.00582413
-0.000978848
0.00469048
-0.00113461
0.00360404
-0.00114536
0.00260305
-0.00104481
0.00171628
-0.00087045
0.000951754
-0.000640784
0.000321155
-0.000409242
-0.000155989
-0.000233348
-0.000483934
-0.000139126
-0.000704738
-0.000114011
-0.000866265
-0.00012683
-0.000994199
-0.000158586
-0.00109686
-0.000192346
-0.00117958
-0.000223216
-0.00124697
-0.000249187
-0.00130474
-0.000268132
-0.00136124
-0.000278321
-0.00142548
-0.000276889
-0.00150631
-0.000259677
-0.00161281
-0.000220031
-0.00175475
-0.000148099
-0.00193561
-3.67134e-05
-0.00214688
0.000133694
-0.00239757
0.00037277
-0.00275555
0.000692391
-0.00331667
0.00109796
-0.00416012
0.00158063
-0.00541854
0.00204338
-0.00697125
0.00221703
-0.00670952
0.00139168
-0.00177343
0.00328428
0.00244059
0.00388824
0.00121149
0.0050481
0.000432887
0.00523676
0.000800579
0.00495427
0.00063934
0.00450939
0.000233702
0.00394311
-9.94846e-05
0.00325924
-0.000295029
0.00250145
-0.000376848
0.00171865
-0.000362564
0.000959716
-0.000285883
0.000260242
-0.000170971
-0.00033476
-4.5771e-05
-0.000774909
3.09179e-05
-0.00106075
5.24989e-05
-0.00124202
4.21552e-05
-0.00137009
1.40689e-05
-0.00147588
-2.10273e-05
-0.00157614
-5.83114e-05
-0.00167767
-9.08058e-05
-0.00178247
-0.000118407
-0.00188992
-0.000141723
-0.0019997
-0.000158347
-0.00211241
-0.000165594
-0.00222942
-0.000159866
-0.00235221
-0.000136877
-0.00248094
-9.12969e-05
-0.0026145
-1.45293e-05
-0.0027411
8.99021e-05
-0.00284693
0.000239532
-0.00293536
0.000461211
-0.00301242
0.000769463
-0.00307612
0.00116167
-0.00309917
0.00160369
-0.00305616
0.00200037
-0.00279116
0.00195205
-0.00151419
0.000114716
-0.0032231
-0.000295728
0.00280409
0.000310811
0.000604819
0.000299301
0.000444306
0.000549027
0.000550774
0.000715242
0.000473062
0.000677829
0.000271077
0.000489206
8.91265e-05
0.000183919
1.02655e-05
-0.000207409
1.45085e-05
-0.000622512
5.25578e-05
-0.000999962
9.1581e-05
-0.00129538
0.00012446
-0.00148492
0.000143786
-0.00159422
0.000140224
-0.00165964
0.000117934
-0.00170372
8.62442e-05
-0.00174331
5.36685e-05
-0.00179182
2.74935e-05
-0.00185815
8.03005e-06
-0.00194305
-5.88757e-06
-0.00204673
-1.47223e-05
-0.00216865
-1.97891e-05
-0.00230509
-2.18897e-05
-0.00244915
-2.15279e-05
-0.00259033
-1.8672e-05
-0.00271503
-1.21624e-05
-0.00280686
5.40696e-07
-0.0028474
2.60169e-05
-0.00283822
8.07397e-05
-0.00276681
0.000168132
-0.00260625
0.000300654
-0.00232967
0.000492899
-0.00191408
0.000746083
-0.0013203
0.00100992
-0.000385037
0.00106513
0.000980878
0.000586141
0.00163837
-0.000542766
-0.00151467
-0.00523918
-0.00810418
-0.00526167
-0.00464166
-0.00418839
-0.00363225
-0.00315682
-0.00288615
-0.00279994
-0.00279463
-0.00278675
-0.00274233
-0.00266034
-0.0025469
-0.0024155
-0.00228885
-0.00218537
-0.00211415
-0.0020759
-0.0020641
-0.002072
-0.00209405
-0.00212517
-0.00216165
-0.00220056
-0.00223947
-0.00227586
-0.00230599
-0.00232354
-0.00231555
-0.00225263
-0.002102
-0.00181845
-0.00134218
-0.000612232
0.000382046
0.00143173
0.00200215
0.001443
)
;

boundaryField
{
    floor
    {
        type            calculated;
        value           nonuniform List<scalar> 
36
(
0
0
0
0
0
0
0
0
0
0
0
0
0
0
0
0
0
0
0
-2.74204e-06
-7.16216e-06
-1.10077e-05
-1.44016e-05
-1.3064e-05
-1.14246e-05
-1.06546e-05
-1.001e-06
-1.91716e-06
-2.27598e-06
-2.72852e-06
-2.05571e-06
-4.1691e-06
-5.6358e-06
-5.38003e-06
-5.90757e-06
-5.57023e-06
)
;
    }
    ceiling
    {
        type            calculated;
        value           nonuniform List<scalar> 
43
(
-4.12932e-05
-3.99659e-05
-3.84061e-05
-1.51812e-05
-8.95607e-06
-5.35453e-06
-2.35659e-06
4.21156e-07
2.92458e-06
4.96551e-06
6.64191e-06
8.1504e-06
9.59892e-06
1.10317e-05
1.24059e-05
1.35855e-05
1.44588e-05
1.50418e-05
1.54268e-05
1.57071e-05
1.59454e-05
1.617e-05
1.64132e-05
1.67028e-05
1.7036e-05
1.73909e-05
1.77246e-05
1.79797e-05
1.80984e-05
1.80373e-05
1.78312e-05
1.75151e-05
1.71115e-05
1.66435e-05
1.61459e-05
1.56527e-05
1.54465e-05
1.57327e-05
1.63946e-05
1.78526e-05
1.4292e-05
1.08878e-05
-6.786e-05
)
;
    }
    sWall
    {
        type            calculated;
        value           uniform -0.000278229;
    }
    nWall
    {
        type            calculated;
        value           nonuniform List<scalar> 6(-4.42844e-05 -5.37812e-05 -5.84532e-05 -6.45022e-05 -7.00556e-05 -8.95057e-05);
    }
    sideWalls
    {
        type            empty;
        value           nonuniform 0();
    }
    glass1
    {
        type            calculated;
        value           nonuniform List<scalar> 9(-5.48252e-05 -0.000147172 -0.000224256 -0.000289132 -0.000343668 -0.000389421 -0.000430751 -0.000481863 -0.000539292);
    }
    glass2
    {
        type            calculated;
        value           nonuniform List<scalar> 2(-0.000225287 -0.000247688);
    }
    sun
    {
        type            calculated;
        value           uniform 0;
    }
    Table_master
    {
        type            calculated;
        value           nonuniform List<scalar> 9(-1.52458e-07 -1.52544e-07 -1.52575e-07 -1.52594e-07 -1.52608e-07 -1.52616e-07 -1.52617e-07 -1.5261e-07 -1.52577e-07);
    }
    Table_slave
    {
        type            calculated;
        value           nonuniform List<scalar> 9(1.52395e-07 1.52397e-07 1.52369e-07 1.52345e-07 1.52332e-07 1.52336e-07 1.52343e-07 1.52377e-07 1.52449e-07);
    }
    inlet
    {
        type            calculated;
        value           uniform -0.00459826;
    }
    outlet
    {
        type            calculated;
        value           nonuniform List<scalar> 2(0.00555871 0.00290498);
    }
}


// ************************************************************************* //
