/*--------------------------------*- C++ -*----------------------------------*\
  =========                 |
  \\      /  F ield         | OpenFOAM: The Open Source CFD Toolbox
   \\    /   O peration     | Website:  https://openfoam.org
    \\  /    A nd           | Version:  6
     \\/     M anipulation  |
\*---------------------------------------------------------------------------*/
FoamFile
{
    version     2.0;
    format      ascii;
    class       volScalarField;
    location    "2800";
    object      k;
}
// * * * * * * * * * * * * * * * * * * * * * * * * * * * * * * * * * * * * * //

dimensions      [0 2 -2 0 0 0 0];

internalField   nonuniform List<scalar> 
458
(
0.00187617
0.00220275
0.00224609
0.00245741
0.00266069
0.00285482
0.00304586
0.00324286
0.00343368
0.00357394
0.00363647
0.00359661
0.00344728
0.00321484
0.00294763
0.000349399
0.00055188
0.000670471
0.00064008
0.00058794
0.000519648
0.000454799
0.00039978
0.00035402
0.000315834
0.000283832
0.000256858
0.000233629
0.000213009
0.000193797
0.000174463
0.000159464
0.000130799
0.00367741
0.00694087
0.00357085
0.0037532
0.00406263
0.00440727
0.00477928
0.00518023
0.00559943
0.00598812
0.00625426
0.0062989
0.00604679
0.00547224
0.00456333
0.00313331
0.00199928
0.00120043
0.000465053
0.000976768
0.00110769
0.0011079
0.00102971
0.000876383
0.000730973
0.000612245
0.000518156
0.000443405
0.000383287
0.000333947
0.000292841
0.00025936
0.000236929
0.000224486
0.000353651
0.000216444
0.00568862
0.0132888
0.00456702
0.0043259
0.00460724
0.00497317
0.00538107
0.0058493
0.00637205
0.00687756
0.00725517
0.00741753
0.0073216
0.00699873
0.0065691
0.00593117
0.00467746
0.002492
0.00187566
0.00173619
0.00160681
0.00147157
0.00131815
0.0010284
0.000804466
0.000642353
0.000524484
0.000437458
0.000372043
0.000322122
0.000283726
0.000254564
0.000231574
0.000226828
0.000483353
0.000285076
0.00808942
0.0224156
0.00605873
0.00459346
0.00475286
0.00511687
0.00554585
0.00608762
0.00673073
0.00732113
0.00774035
0.00794326
0.00790778
0.00764492
0.00722947
0.00658195
0.00570261
0.00495361
0.00338718
0.00277111
0.00237032
0.00206926
0.00181866
0.00159345
0.0012479
0.00103746
0.000906019
0.000816519
0.000746623
0.000681514
0.000623009
0.000564435
0.000499312
0.000378527
0.000302996
0.000606411
0.000353726
0.0109975
0.034539
0.00954747
0.00512602
0.00491922
0.00523666
0.00570942
0.00645297
0.00729931
0.00793564
0.00831931
0.00848774
0.00842197
0.00809098
0.00750483
0.00667802
0.00570402
0.00477453
0.00393155
0.00330653
0.002799
0.00238445
0.00205464
0.00179579
0.00159653
0.00147514
0.00139994
0.00133866
0.0012705
0.00118214
0.00106441
0.000930647
0.000787671
0.00061738
0.000465123
0.000553587
0.000559771
0.000616295
0.000800232
0.000963217
0.0145495
0.0472189
0.0178449
0.00772001
0.00620603
0.0061598
0.00660398
0.00770288
0.00857674
0.0090364
0.00924238
0.0092832
0.00912397
0.00868464
0.00792056
0.0068772
0.00571845
0.00467077
0.00386544
0.00329539
0.00283036
0.00242963
0.00211003
0.00188084
0.00174688
0.00169166
0.00166623
0.00163748
0.00158755
0.00150259
0.00136549
0.00119604
0.00101224
0.000822405
0.000658668
0.000594934
0.000606591
0.000637548
0.00119212
0.00101159
0.0182295
0.0552651
0.0313936
0.0172032
0.012671
0.0108358
0.010515
0.0109014
0.0109316
0.0107787
0.0106113
0.0104295
0.0101077
0.00949558
0.00851779
0.00724085
0.00586876
0.00466315
0.00377977
0.00317564
0.00271982
0.00235072
0.00207801
0.0019085
0.00183421
0.0018238
0.00183374
0.0018404
0.00183292
0.00180027
0.00172246
0.00156748
0.00137779
0.00117859
0.00101752
0.000925226
0.000934677
0.00106037
0.00147462
0.00131275
0.0189762
0.0549074
0.0392077
0.0323292
0.0264029
0.021663
0.0184621
0.015873
0.0140618
0.0129627
0.0123443
0.0119052
0.0113493
0.0104589
0.00915859
0.00756721
0.00593106
0.00454868
0.00358663
0.00294433
0.00252767
0.00223325
0.00204427
0.00194329
0.00190667
0.00190863
0.0019287
0.00196065
0.00200761
0.00207419
0.00215969
0.00223233
0.00222648
0.00220218
0.00225917
0.00257075
0.00328943
0.00433058
0.00853175
0.00332499
0.0179593
0.0251747
0.0248556
0.022269
0.0200446
0.0179745
0.0162966
0.0151612
0.0145885
0.0143272
0.0140891
0.0136159
0.0127178
0.0113119
0.00944988
0.00741216
0.00549642
0.00406577
0.00323985
0.00273672
0.00242365
0.00222842
0.00211188
0.00204262
0.00199871
0.00196865
0.00195042
0.00195047
0.0019792
0.00204529
0.00215126
0.00229513
0.00248676
0.0027516
0.0031279
0.00361084
0.00410936
0.00448342
0.0046962
0.00313477
0.00875565
0.0214618
0.0209741
0.0203987
0.0202037
0.0200402
0.0194331
0.0183926
0.0170117
0.0152896
0.0132091
0.0108055
0.00810614
0.00581896
0.00434182
0.00348858
0.00304112
0.0028047
0.00267331
0.0025842
0.00250559
0.00241824
0.00231108
0.00218423
0.00204892
0.00192566
0.00183996
0.0018171
0.00187756
0.00201762
0.00223233
0.00252047
0.0028769
0.00325781
0.0035562
0.00365293
0.00354519
0.00243584
0.00791223
0.0203961
0.0218788
0.0205913
0.0203962
0.0200229
0.0190422
0.0175322
0.0156158
0.0133442
0.0109848
0.00872186
0.00676866
0.00538497
0.00458936
0.00421807
0.00409523
0.00407851
0.00408479
0.00407065
0.00402272
0.00393058
0.00377851
0.00356217
0.00329379
0.00300198
0.00272485
0.00249952
0.00236134
0.00232864
0.0024041
0.00258382
0.00284568
0.0031344
0.00335507
0.00362285
0.0041663
0.00259504
0.00564929
0.00659964
0.00732413
0.00855115
0.00840661
0.00809471
0.00751623
0.00664867
0.00577832
0.005127
0.00460789
0.00406879
0.00348743
0.00292139
0.00243539
0.0020784
0.00185245
0.00172083
0.00164395
0.00159414
0.00155537
0.00152092
0.00148302
0.00143599
0.00138194
0.00132682
0.00127941
0.00124948
0.00124592
0.00127602
0.00133517
0.00142089
0.00153451
0.00167871
0.00185416
0.00206034
0.00218811
0.0021076
0.00189086
0.00171132
)
;

boundaryField
{
    floor
    {
        type            kqRWallFunction;
        value           nonuniform List<scalar> 
36
(
0.00294763
0.000349399
0.00055188
0.000670471
0.00064008
0.00058794
0.000519648
0.000454799
0.00039978
0.00035402
0.000315834
0.000283832
0.000256858
0.000233629
0.000213009
0.000193797
0.000174463
0.000159464
0.000130799
0.000130799
0.000216444
0.000285076
0.000353726
0.000616295
0.000800232
0.000963217
0.00294763
0.00313331
0.00199928
0.00120043
0.000349399
0.00120043
0.000465053
0.002492
0.00187566
0.00338718
)
;
    }
    ceiling
    {
        type            kqRWallFunction;
        value           nonuniform List<scalar> 
43
(
0.00564929
0.00659964
0.00732413
0.00855115
0.00840661
0.00809471
0.00751623
0.00664867
0.00577832
0.005127
0.00460789
0.00406879
0.00348743
0.00292139
0.00243539
0.0020784
0.00185245
0.00172083
0.00164395
0.00159414
0.00155537
0.00152092
0.00148302
0.00143599
0.00138194
0.00132682
0.00127941
0.00124948
0.00124592
0.00127602
0.00133517
0.00142089
0.00153451
0.00167871
0.00185416
0.00206034
0.00218811
0.0021076
0.00189086
0.00171132
0.0179593
0.0251747
0.00791223
)
;
    }
    sWall
    {
        type            kqRWallFunction;
        value           uniform 0.00564929;
    }
    nWall
    {
        type            kqRWallFunction;
        value           nonuniform List<scalar> 6(0.000963217 0.00101159 0.00131275 0.00243584 0.00259504 0.00171132);
    }
    sideWalls
    {
        type            empty;
    }
    glass1
    {
        type            kqRWallFunction;
        value           nonuniform List<scalar> 9(0.00187617 0.00367741 0.00568862 0.00808942 0.0109975 0.0145495 0.0182295 0.0189762 0.0179593);
    }
    glass2
    {
        type            kqRWallFunction;
        value           nonuniform List<scalar> 2(0.00332499 0.00313477);
    }
    sun
    {
        type            kqRWallFunction;
        value           nonuniform List<scalar> 
14
(
0.00187617
0.00220275
0.00224609
0.00245741
0.00266069
0.00285482
0.00304586
0.00324286
0.00343368
0.00357394
0.00363647
0.00359661
0.00344728
0.00321484
)
;
    }
    Table_master
    {
        type            kqRWallFunction;
        value           nonuniform List<scalar> 9(0.0010284 0.000804466 0.000642353 0.000524484 0.000437458 0.000372043 0.000322122 0.000283726 0.000254564);
    }
    Table_slave
    {
        type            kqRWallFunction;
        value           nonuniform List<scalar> 9(0.0012479 0.00103746 0.000906019 0.000816519 0.000746623 0.000681514 0.000623009 0.000564435 0.000499312);
    }
    inlet
    {
        type            turbulentIntensityKineticEnergyInlet;
        intensity       0.05;
        value           uniform 0.0003375;
    }
    outlet
    {
        type            zeroGradient;
    }
}


// ************************************************************************* //
