/*--------------------------------*- C++ -*----------------------------------*\
  =========                 |
  \\      /  F ield         | OpenFOAM: The Open Source CFD Toolbox
   \\    /   O peration     | Website:  https://openfoam.org
    \\  /    A nd           | Version:  6
     \\/     M anipulation  |
\*---------------------------------------------------------------------------*/
FoamFile
{
    version     2.0;
    format      ascii;
    class       volScalarField;
    location    "1000";
    object      k;
}
// * * * * * * * * * * * * * * * * * * * * * * * * * * * * * * * * * * * * * //

dimensions      [0 2 -2 0 0 0 0];

internalField   nonuniform List<scalar> 
458
(
0.00164124
0.0018507
0.00178494
0.00191174
0.00203101
0.00213861
0.00223736
0.00233159
0.00242302
0.00247711
0.00247953
0.0024197
0.0023023
0.00215691
0.00201677
0.000355913
0.000528473
0.00053916
0.000530422
0.000515026
0.000477852
0.000435003
0.000395782
0.000360649
0.000328924
0.000300198
0.000274134
0.000250387
0.000228513
0.000207747
0.000187005
0.000185187
0.000163969
0.00357746
0.00683371
0.00290084
0.00291458
0.00305896
0.00323082
0.00341853
0.00362003
0.00382513
0.00399962
0.00408569
0.00402105
0.00376479
0.00332337
0.0027353
0.00205387
0.00160423
0.00143519
0.000793084
0.000841267
0.000824235
0.000833694
0.000821398
0.000736177
0.000646813
0.000568628
0.000500651
0.000441756
0.000391235
0.000348321
0.000312562
0.00028602
0.000272852
0.000268568
0.000597609
0.000347313
0.00581722
0.0138044
0.00391093
0.00348249
0.00357573
0.00374813
0.003954
0.0041962
0.00446119
0.00470967
0.00486743
0.00487374
0.00471437
0.00444318
0.00415287
0.00376056
0.00290226
0.00217717
0.00127372
0.00115059
0.00106898
0.00104491
0.00100715
0.000817095
0.000661975
0.000549082
0.000467641
0.000407813
0.000362652
0.000327736
0.000300495
0.000280072
0.000274865
0.00028751
0.000842618
0.000487739
0.00851233
0.0237988
0.00542491
0.0038301
0.00380986
0.00397112
0.00418224
0.00445365
0.00478264
0.00509107
0.00527311
0.00527566
0.0051085
0.00482224
0.00444925
0.00393078
0.00325047
0.00308834
0.0016442
0.00171588
0.00133739
0.0011954
0.00113571
0.00108371
0.000897581
0.000842431
0.000840478
0.000856501
0.000869936
0.000865132
0.000829771
0.000782023
0.000722279
0.000573879
0.000469524
0.00101385
0.000628092
0.0117001
0.0366863
0.00862981
0.00429254
0.00398059
0.00410025
0.00432719
0.0046746
0.00515189
0.00554965
0.00572699
0.00566513
0.00541518
0.00504923
0.00459037
0.00398148
0.0032441
0.00264698
0.00225307
0.00167635
0.00137695
0.00123816
0.00119033
0.00118758
0.00123175
0.00132832
0.0014397
0.00153622
0.00159588
0.00159679
0.00152268
0.00137434
0.0012
0.000982822
0.000771425
0.000879162
0.000969202
0.000906275
0.00095988
0.0009614
0.0154671
0.0496868
0.0160506
0.00604739
0.00465602
0.00449989
0.00466996
0.00511633
0.00584369
0.00629387
0.00638965
0.00618695
0.00578202
0.00528635
0.0047496
0.00409552
0.00332158
0.00257576
0.00196197
0.00155892
0.00134207
0.00124966
0.00124493
0.0012996
0.00142103
0.00159503
0.00177882
0.00194225
0.00206414
0.00211772
0.00207126
0.00188306
0.00163341
0.00135741
0.0011024
0.000973368
0.000951968
0.00115958
0.00275765
0.00157974
0.019466
0.0579603
0.0295483
0.0134394
0.00853254
0.00667998
0.00623698
0.00663129
0.0072698
0.00746888
0.00729909
0.00684493
0.00620974
0.00555029
0.00494069
0.00427228
0.0034555
0.00259502
0.00189369
0.00149565
0.00132188
0.00128011
0.00132338
0.00142496
0.00158252
0.00178981
0.00201892
0.00223959
0.0024382
0.00259318
0.00267241
0.00261902
0.00235135
0.00203148
0.00176533
0.00161641
0.00161116
0.00189772
0.00417312
0.0024623
0.020332
0.0597889
0.04105
0.0308837
0.0217368
0.0154354
0.0121968
0.0108198
0.00993696
0.00920477
0.00845821
0.00758427
0.00661069
0.00573034
0.00505992
0.0044084
0.00355235
0.00259179
0.00184322
0.00147092
0.00135048
0.00135158
0.00142478
0.00155044
0.00172223
0.00193326
0.0021706
0.00242332
0.00268748
0.00296242
0.00324875
0.00354141
0.00373356
0.00372444
0.00388194
0.00448348
0.00579134
0.00724908
0.0145483
0.00446257
0.0192617
0.0272389
0.0280247
0.0252806
0.0220393
0.0185551
0.0156692
0.0135587
0.0119321
0.0106379
0.00941257
0.00808013
0.00670488
0.00560536
0.00496665
0.00442329
0.0035411
0.00249725
0.00180237
0.00152324
0.00144413
0.00145703
0.00152564
0.00163824
0.0017895
0.00197383
0.00218476
0.00241849
0.00267599
0.00296235
0.00328382
0.00364235
0.00403005
0.00445684
0.00501779
0.00573093
0.00642655
0.00688748
0.0071772
0.00417846
0.0161611
0.0299902
0.0236009
0.01987
0.0171092
0.0149425
0.0130835
0.0113166
0.00953254
0.00767785
0.00595728
0.00481349
0.0044762
0.00422417
0.00330881
0.00231992
0.00184225
0.00167516
0.00162458
0.00161893
0.00164696
0.00170907
0.00180408
0.00192793
0.00207504
0.00224071
0.00242329
0.0026261
0.00285937
0.00314219
0.00350468
0.00393992
0.00441656
0.00485883
0.00508591
0.00490501
0.00433309
0.00263383
0.0139808
0.0281257
0.0223479
0.0186738
0.0158883
0.0134991
0.0112825
0.0092704
0.00729901
0.00546354
0.0039566
0.00309499
0.00301197
0.00291844
0.00259246
0.00210626
0.00184074
0.00171943
0.00163613
0.00156816
0.00152481
0.0015162
0.00154707
0.0016188
0.00173209
0.00188828
0.0020897
0.00233934
0.0026398
0.00299063
0.00341363
0.00390241
0.0044283
0.00490869
0.00525504
0.00544208
0.00399577
0.00267561
0.00873626
0.0102225
0.0115891
0.0128426
0.0110723
0.00982038
0.00805016
0.00651412
0.00515476
0.00399353
0.00314668
0.00237949
0.0016389
0.00126885
0.00127792
0.0012728
0.00101006
0.000868233
0.000811658
0.000800665
0.000810358
0.000835057
0.000874464
0.000928594
0.000997135
0.00107975
0.00117637
0.00128745
0.00141442
0.0015605
0.0017323
0.00194347
0.00218544
0.00245989
0.00276609
0.00309997
0.00343761
0.00331556
0.00278424
0.00234624
)
;

boundaryField
{
    floor
    {
        type            kqRWallFunction;
        value           nonuniform List<scalar> 
36
(
0.00201677
0.000355913
0.000528473
0.00053916
0.000530422
0.000515026
0.000477852
0.000435003
0.000395782
0.000360649
0.000328924
0.000300198
0.000274134
0.000250387
0.000228513
0.000207747
0.000187005
0.000185187
0.000163969
0.000163969
0.000347313
0.000487739
0.000628092
0.000906275
0.00095988
0.0009614
0.00201677
0.00205387
0.00160423
0.00143519
0.000355913
0.00143519
0.000793084
0.00217717
0.00127372
0.0016442
)
;
    }
    ceiling
    {
        type            kqRWallFunction;
        value           nonuniform List<scalar> 
43
(
0.00873626
0.0102225
0.0115891
0.0128426
0.0110723
0.00982038
0.00805016
0.00651412
0.00515476
0.00399353
0.00314668
0.00237949
0.0016389
0.00126885
0.00127792
0.0012728
0.00101006
0.000868233
0.000811658
0.000800665
0.000810358
0.000835057
0.000874464
0.000928594
0.000997135
0.00107975
0.00117637
0.00128745
0.00141442
0.0015605
0.0017323
0.00194347
0.00218544
0.00245989
0.00276609
0.00309997
0.00343761
0.00331556
0.00278424
0.00234624
0.0192617
0.0272389
0.0139808
)
;
    }
    sWall
    {
        type            kqRWallFunction;
        value           uniform 0.00873626;
    }
    nWall
    {
        type            kqRWallFunction;
        value           nonuniform List<scalar> 6(0.0009614 0.00157974 0.0024623 0.00263383 0.00267561 0.00234624);
    }
    sideWalls
    {
        type            empty;
    }
    glass1
    {
        type            kqRWallFunction;
        value           nonuniform List<scalar> 9(0.00164124 0.00357746 0.00581722 0.00851233 0.0117001 0.0154671 0.019466 0.020332 0.0192617);
    }
    glass2
    {
        type            kqRWallFunction;
        value           nonuniform List<scalar> 2(0.00446257 0.00417846);
    }
    sun
    {
        type            kqRWallFunction;
        value           nonuniform List<scalar> 
14
(
0.00164124
0.0018507
0.00178494
0.00191174
0.00203101
0.00213861
0.00223736
0.00233159
0.00242302
0.00247711
0.00247953
0.0024197
0.0023023
0.00215691
)
;
    }
    Table_master
    {
        type            kqRWallFunction;
        value           nonuniform List<scalar> 9(0.000817095 0.000661975 0.000549082 0.000467641 0.000407813 0.000362652 0.000327736 0.000300495 0.000280072);
    }
    Table_slave
    {
        type            kqRWallFunction;
        value           nonuniform List<scalar> 9(0.000897581 0.000842431 0.000840478 0.000856501 0.000869936 0.000865132 0.000829771 0.000782023 0.000722279);
    }
    inlet
    {
        type            turbulentIntensityKineticEnergyInlet;
        intensity       0.05;
        value           uniform 0.0003375;
    }
    outlet
    {
        type            zeroGradient;
    }
}


// ************************************************************************* //
