/*--------------------------------*- C++ -*----------------------------------*\
  =========                 |
  \\      /  F ield         | OpenFOAM: The Open Source CFD Toolbox
   \\    /   O peration     | Website:  https://openfoam.org
    \\  /    A nd           | Version:  6
     \\/     M anipulation  |
\*---------------------------------------------------------------------------*/
FoamFile
{
    version     2.0;
    format      ascii;
    class       volScalarField;
    location    "1000";
    object      nut;
}
// * * * * * * * * * * * * * * * * * * * * * * * * * * * * * * * * * * * * * //

dimensions      [0 2 -1 0 0 0 0];

internalField   nonuniform List<scalar> 
458
(
0.000909644
0.000965927
0.000948594
0.000981702
0.00101185
0.0010383
0.00106199
0.00108411
0.00110516
0.00111742
0.00111797
0.00110441
0.00107731
0.00104276
0.00100835
0.000423619
0.00051621
0.000521381
0.000517142
0.000509588
0.000490859
0.000468341
0.000446735
0.000426451
0.000407266
0.000389079
0.000371807
0.000355338
0.000339462
0.000323669
0.000307084
0.000305579
0.00028754
0.00134304
0.00283241
0.00254604
0.00298494
0.00329525
0.00361129
0.00391345
0.00416558
0.00433142
0.00445517
0.00450346
0.00442095
0.00412125
0.00345956
0.00227433
0.0010176
0.000899402
0.000850733
0.000632421
0.000922807
0.00118057
0.00144493
0.00155999
0.00127098
0.00115063
0.00105302
0.000965704
0.000887778
0.000818746
0.000757767
0.000703533
0.000656835
0.000623346
0.000589938
0.000759071
0.00041848
0.00171266
0.00402369
0.00295153
0.00415333
0.00454756
0.00478792
0.00496207
0.00509007
0.00517656
0.00526788
0.00534993
0.00539732
0.00538359
0.00528255
0.00503795
0.004483
0.00326437
0.00104774
0.000801384
0.00136575
0.00179083
0.00213341
0.00210472
0.000641846
0.000577719
0.000526157
0.000485573
0.000453451
0.000427609
0.000406505
0.000389247
0.000375788
0.000423932
0.000492622
0.000844621
0.000495914
0.00207178
0.00551689
0.00294613
0.00445249
0.00497663
0.00507204
0.00507273
0.00506108
0.00506823
0.00511725
0.00519609
0.00528307
0.0053685
0.00544912
0.0054784
0.00532046
0.00480537
0.0037764
0.000910441
0.00171925
0.00220203
0.00258771
0.00278266
0.00252951
0.000672699
0.000651724
0.000650983
0.00065717
0.000662313
0.000660487
0.000646853
0.00062797
0.00060351
0.000575622
0.000567001
0.000929962
0.000562764
0.00242896
0.00738614
0.00345502
0.00418255
0.00502045
0.00508314
0.00497239
0.00486237
0.00481701
0.00484904
0.00492219
0.00500093
0.00508245
0.00518211
0.00526383
0.00522035
0.0049731
0.00450943
0.00369409
0.00330353
0.00320877
0.00317581
0.00313932
0.00303998
0.00273448
0.00273975
0.00280845
0.00286997
0.00289559
0.0028669
0.00276498
0.00248749
0.00207743
0.00161727
0.00122648
0.00104386
0.000894676
0.000676002
0.000695714
0.000696272
0.00279277
0.00934487
0.00520063
0.00396721
0.00461442
0.00489676
0.00488646
0.00477213
0.00465932
0.0046975
0.00476539
0.00481424
0.00484695
0.00490872
0.00499158
0.00498842
0.00480946
0.00448806
0.00403749
0.00366127
0.00338514
0.0031921
0.0030894
0.0030582
0.00309234
0.00320206
0.00331962
0.00341107
0.0034623
0.00346524
0.00341348
0.00326524
0.00295497
0.00249607
0.00199068
0.00149974
0.00118563
0.0012063
0.00171597
0.000892527
0.00313309
0.0108215
0.00806595
0.00532695
0.0044422
0.00435487
0.00457676
0.00471204
0.00465858
0.00469017
0.00472592
0.00472369
0.00468468
0.00468129
0.00475881
0.00480531
0.00466653
0.00432828
0.00389017
0.00347509
0.00315009
0.00296297
0.00290668
0.00293639
0.00303098
0.00316538
0.00329749
0.00340298
0.00347744
0.00352112
0.00353781
0.00352785
0.00337725
0.00303296
0.00258985
0.00213053
0.00176944
0.00165446
0.00202653
0.00111428
0.00320204
0.0101181
0.00877871
0.00764959
0.0063308
0.00539085
0.00503243
0.00497379
0.00485075
0.00477833
0.00474262
0.00466997
0.00454209
0.00446856
0.00455698
0.00467311
0.00456464
0.00416413
0.0036198
0.00312729
0.00284241
0.00273624
0.00273551
0.00279269
0.00288516
0.00299453
0.00310107
0.00319375
0.00327356
0.00334893
0.00343486
0.00354974
0.00367185
0.00352531
0.00326572
0.00309519
0.00313268
0.00320852
0.00388007
0.00150012
0.00311663
0.00370626
0.00441024
0.00475027
0.004899
0.00482266
0.00470381
0.00463528
0.00463164
0.00468017
0.00468971
0.00456702
0.00432716
0.00417946
0.00432687
0.00455553
0.0044538
0.00391255
0.00323146
0.00278624
0.00260079
0.0025517
0.00256421
0.00260766
0.00266774
0.0027328
0.0027919
0.0028378
0.00286771
0.00288118
0.00287708
0.00285047
0.0027925
0.00271789
0.0026445
0.00259383
0.00252029
0.00238228
0.00222856
0.00145159
0.00286012
0.0055167
0.00534035
0.00525436
0.00519292
0.00516193
0.00512099
0.00501394
0.00478161
0.00437548
0.00389717
0.00367516
0.00399254
0.0043828
0.00418267
0.00338753
0.00276965
0.00250888
0.00241982
0.00238557
0.002374
0.00237885
0.0023966
0.00242149
0.00244617
0.00246403
0.00247094
0.0024664
0.00245444
0.00244378
0.00244757
0.00245033
0.00243122
0.00237105
0.00223113
0.00198985
0.00168902
0.00115247
0.00265538
0.00604715
0.00584135
0.00559375
0.00539242
0.00519381
0.00494536
0.00460319
0.00405221
0.00338489
0.00279614
0.00261503
0.00316014
0.00352793
0.00316277
0.00249762
0.0021602
0.00203763
0.00196681
0.00190295
0.00185047
0.00181939
0.00181489
0.00183764
0.00188572
0.00195572
0.00204279
0.00214006
0.00223752
0.00231955
0.00240735
0.00248858
0.00254594
0.00255273
0.00249907
0.00240258
0.00202193
0.00116157
0.00209905
0.00227059
0.00241762
0.00254503
0.00236311
0.00222552
0.0020149
0.00181259
0.00161254
0.00141942
0.00126009
0.00109598
0.000909727
0.000799683
0.000802406
0.00080118
0.000713655
0.000661631
0.000639725
0.000635397
0.000639242
0.000648916
0.000664055
0.000684303
0.000709112
0.000737906
0.000770216
0.000805761
0.00084456
0.0008871
0.000934656
0.000989983
0.0010498
0.00111376
0.00118105
0.00125029
0.00131663
0.00129305
0.00118492
0.00108774
)
;

boundaryField
{
    floor
    {
        type            nutkWallFunction;
        Cmu             0.09;
        kappa           0.41;
        E               9.8;
        value           nonuniform List<scalar> 
36
(
0.00012172
4.98601e-05
6.17872e-05
6.2448e-05
6.19083e-05
6.09452e-05
5.85508e-05
5.56571e-05
5.28642e-05
5.02269e-05
4.7718e-05
4.53259e-05
4.3041e-05
4.08499e-05
3.87253e-05
3.65992e-05
3.4352e-05
3.41487e-05
3.16841e-05
3.1684e-05
4.91897e-05
5.9199e-05
6.76829e-05
8.17824e-05
8.42055e-05
8.4273e-05
0.00012172
0.000122804
0.00010882
0.000103
4.986e-05
0.000103
7.63865e-05
0.000126333
9.70711e-05
0.000110145
)
;
    }
    ceiling
    {
        type            nutkWallFunction;
        Cmu             0.09;
        kappa           0.41;
        E               9.8;
        value           nonuniform List<scalar> 
43
(
0.000244034
0.00026253
0.000278266
0.000291931
0.000272573
0.000257815
0.000235028
0.000212873
0.000190695
0.000169004
0.000150857
0.000131886
0.000109969
9.68857e-05
9.72302e-05
9.70358e-05
8.64063e-05
8.00139e-05
7.73014e-05
7.67622e-05
7.72379e-05
7.84358e-05
8.03066e-05
8.2801e-05
8.58455e-05
8.93633e-05
9.32914e-05
9.75906e-05
0.000102258
0.000107347
0.000113003
0.000119542
0.000126564
0.000134023
0.000141816
0.000149785
0.000157372
0.00015468
0.000142263
0.000130994
0.000352269
0.000413061
0.000303378
)
;
    }
    sWall
    {
        type            nutkWallFunction;
        Cmu             0.09;
        kappa           0.41;
        E               9.8;
        value           uniform 0.000244099;
    }
    nWall
    {
        type            nutkWallFunction;
        Cmu             0.09;
        kappa           0.41;
        E               9.8;
        value           nonuniform List<scalar> 6(8.42707e-05 0.000108 0.000134093 0.000138523 0.000139577 0.000131003);
    }
    sideWalls
    {
        type            empty;
    }
    glass1
    {
        type            nutkWallFunction;
        Cmu             0.09;
        kappa           0.41;
        E               9.8;
        value           nonuniform List<scalar> 9(0.000110095 0.000160587 0.000202166 0.000241622 0.000280137 0.000318754 0.000354403 0.000361584 0.000352713);
    }
    glass2
    {
        type            nutkWallFunction;
        Cmu             0.09;
        kappa           0.41;
        E               9.8;
        value           nonuniform List<scalar> 2(0.000178228 0.000172759);
    }
    sun
    {
        type            nutkWallFunction;
        Cmu             0.09;
        kappa           0.41;
        E               9.8;
        value           nonuniform List<scalar> 
14
(
0.000110049
0.000116722
0.000114674
0.000118587
0.000122138
0.000125242
0.000128016
0.000130599
0.000133051
0.000134478
0.000134541
0.000132963
0.000129802
0.000125761
)
;
    }
    Table_master
    {
        type            nutkWallFunction;
        Cmu             0.09;
        kappa           0.41;
        E               9.8;
        value           nonuniform List<scalar> 9(7.75679e-05 6.95697e-05 6.30603e-05 5.78817e-05 5.37448e-05 5.03901e-05 4.76316e-05 4.53623e-05 4.35838e-05);
    }
    Table_slave
    {
        type            nutkWallFunction;
        Cmu             0.09;
        kappa           0.41;
        E               9.8;
        value           nonuniform List<scalar> 9(8.13831e-05 7.87907e-05 7.86972e-05 7.94609e-05 8.00952e-05 7.9869e-05 7.81824e-05 7.58396e-05 7.27924e-05);
    }
    inlet
    {
        type            calculated;
        value           uniform 0.000100623;
    }
    outlet
    {
        type            calculated;
        value           nonuniform List<scalar> 2(0.00209905 0.00227059);
    }
}


// ************************************************************************* //
