/*--------------------------------*- C++ -*----------------------------------*\
  =========                 |
  \\      /  F ield         | OpenFOAM: The Open Source CFD Toolbox
   \\    /   O peration     | Website:  https://openfoam.org
    \\  /    A nd           | Version:  6
     \\/     M anipulation  |
\*---------------------------------------------------------------------------*/
FoamFile
{
    version     2.0;
    format      ascii;
    class       surfaceScalarField;
    location    "1800";
    object      phi;
}
// * * * * * * * * * * * * * * * * * * * * * * * * * * * * * * * * * * * * * //

dimensions      [1 0 -1 0 0 0 0];

internalField   nonuniform List<scalar> 
850
(
-0.00222671
0.00227875
-0.00242038
0.000193766
-0.00264662
0.000226337
-0.00290876
0.000262233
-0.00315467
0.000246005
-0.00336078
0.000206208
-0.00351178
0.000151091
-0.00359348
8.17952e-05
-0.00359108
-2.30709e-06
-0.00348707
-0.00010392
-0.00326321
-0.000223762
-0.00290239
-0.000360728
-0.00236749
-0.000534806
-0.0015183
-0.000849105
-0.00151823
-0.000250874
0.00025315
-0.000206048
-4.47437e-05
-9.83687e-05
-0.000107598
1.77314e-05
-0.000116018
0.000119905
-0.000102093
0.000218974
-9.89889e-05
0.000304056
-8.50023e-05
0.0003722
-6.80659e-05
0.00042764
-5.53647e-05
0.000468148
-4.04351e-05
0.000484328
-1.61094e-05
0.000472225
1.21707e-05
0.000430493
4.17987e-05
0.00037718
5.33795e-05
0.000345908
3.13398e-05
0.00037849
-3.25165e-05
0.000373042
5.51212e-06
0.000375169
-0.001611
0.00402492
-0.00210343
0.000686298
-0.00245629
0.000579291
-0.00274736
0.000553399
-0.00300321
0.000501944
-0.00321864
0.000421733
-0.00338452
0.000317059
-0.00349034
0.000187714
-0.00352498
3.24225e-05
-0.00348044
-0.000148369
-0.00335162
-0.000352494
-0.00313095
-0.000581311
-0.00281126
-0.000854405
-0.00246931
-0.00119096
-0.0025494
-0.00143805
-0.00125901
-0.00129036
0.000127442
-0.00138634
0.000128353
0.000406194
-0.000148581
0.000214698
0.000146839
-1.80311e-05
0.000125223
-0.000135221
1.26074e-06
-0.000207634
-2.95939e-05
-0.000201973
-0.000104568
-0.000206873
-8.0023e-05
-0.0002234
-5.14632e-05
-0.000252877
-2.58153e-05
-0.000295867
2.62218e-06
-0.000343573
3.16625e-05
-0.000390084
5.87482e-05
-0.000437341
8.91239e-05
-0.000475688
9.1799e-05
-0.000471802
2.75312e-05
-0.000547131
4.28979e-05
-0.000549686
8.15998e-06
-0.000170401
-0.00119017
0.00541592
-0.00178989
0.00128611
-0.00216527
0.000954764
-0.00244682
0.000835041
-0.00268628
0.000741499
-0.00288753
0.000623073
-0.00304604
0.000475661
-0.00315465
0.000296412
-0.00320544
8.33077e-05
-0.00319254
-0.000161181
-0.00311663
-0.000428314
-0.00298611
-0.000711741
-0.0028267
-0.00101373
-0.00270219
-0.00131538
-0.00261109
-0.00152906
-0.00226984
-0.00163152
-0.00192406
-0.00173203
-0.00179525
-0.000870925
0.000726025
-0.000969056
0.000245046
-0.000939362
9.56077e-05
-0.000906101
-3.19217e-05
-0.000766638
-0.00016898
-0.000870988
-0.000950795
-0.00100204
-0.00102764
-0.00102479
-0.000992902
-0.000933924
-0.000844566
-0.000752528
-0.000377476
-0.000347428
-0.000108546
-0.000225938
3.32614e-05
-0.000133553
-0.00013529
-0.000891054
0.00656125
-0.00151359
0.00190875
-0.00183089
0.00127216
-0.00207882
0.00108306
-0.00228355
0.000946319
-0.00245107
0.00079068
-0.00258251
0.000607194
-0.00267456
0.000388549
-0.00272104
0.000129881
-0.00271657
-0.000165571
-0.00266958
-0.000475214
-0.00260546
-0.000775772
-0.00256166
-0.00105745
-0.00257685
-0.0013001
-0.00264048
-0.00146535
-0.00272281
-0.00154909
-0.00290594
-0.00154881
-0.00345429
-0.00124681
-0.00291363
-0.000539753
-0.0021695
-1.80279e-05
-0.00199721
7.28427e-05
-0.00192219
2.0676e-05
-0.00188795
-6.60684e-05
-0.00192432
-0.000132523
-0.00180594
-0.000118438
-0.00168709
-0.000118908
-0.00156138
-0.000125768
-0.00142999
-0.00013145
-0.00129211
-0.000137931
-0.00114439
-0.000147782
-0.000978964
-0.000165489
-0.00077844
-0.000200586
-0.000502636
-0.000275866
-0.000429603
-0.000420373
-0.000190273
-0.00046518
0.00010397
-0.000427707
-3.10515e-05
-0.000670101
0.00753083
-0.00128514
0.00252388
-0.00147743
0.00146454
-0.00166524
0.00127096
-0.00182205
0.00110321
-0.00193637
0.000905097
-0.00201467
0.000685574
-0.00205991
0.000433884
-0.00206799
0.000138049
-0.00203415
-0.000199323
-0.00197577
-0.000533508
-0.00192801
-0.000823447
-0.00192398
-0.0010614
-0.00198165
-0.00124234
-0.00209064
-0.00135627
-0.00224048
-0.00139917
-0.00244959
-0.00133961
-0.0026228
-0.00107351
-0.0025114
-0.000651071
-0.00222457
-0.000304763
-0.00199515
-0.000156494
-0.00184358
-0.000130802
-0.00175495
-0.000154602
-0.00170623
-0.000181151
-0.00163639
-0.000188191
-0.00156147
-0.000193738
-0.00148638
-0.000200761
-0.00140983
-0.000207908
-0.00133125
-0.00021642
-0.00124885
-0.000230089
-0.00115758
-0.000256674
-0.00104784
-0.000310243
-0.000915586
-0.000408028
-0.000791252
-0.000544621
-0.000570222
-0.000686124
-0.000166094
-0.000831751
0.000693498
-0.00089056
0.00146509
-0.000772663
0.00140493
5.90719e-05
0.00142685
-0.00062832
0.00849795
-0.00118841
0.00308406
-0.00109118
0.0013674
-0.00114259
0.00132247
-0.00126565
0.00122637
-0.00132409
0.00096362
-0.00132705
0.000688625
-0.00129679
0.000403711
-0.00123284
7.41822e-05
-0.0011406
-0.000291475
-0.00105369
-0.000620332
-0.00100679
-0.000870265
-0.00102116
-0.00104694
-0.00110233
-0.00116108
-0.00123994
-0.00121857
-0.00142063
-0.0012184
-0.00162138
-0.00113878
-0.00175344
-0.000941355
-0.00174151
-0.000662911
-0.00162439
-0.000421797
-0.00149867
-0.000282124
-0.00140519
-0.000224194
-0.00134785
-0.000211853
-0.00131381
-0.000215099
-0.00128393
-0.000217976
-0.00125596
-0.000221616
-0.0012315
-0.000225128
-0.00121219
-0.00022713
-0.00120061
-0.000227909
-0.00119956
-0.000231048
-0.00121044
-0.000245714
-0.00123232
-0.000288274
-0.00126245
-0.000377811
-0.00128413
-0.000522861
-0.00124506
-0.000725102
-0.00107886
-0.000997878
-0.000634371
-0.00133496
0.000166542
-0.00157349
0.000717601
-0.000491904
0.00217158
-0.000827489
0.0097002
-0.000911983
0.00316865
-0.000304232
0.000759752
-0.000186591
0.00120493
-0.000371781
0.00141165
-0.000427673
0.0010196
-0.00036034
0.000621381
-0.000244367
0.000287828
-0.000103148
-6.69491e-05
2.83665e-05
-0.000422902
0.000110177
-0.000702057
0.000128625
-0.000888627
8.04139e-05
-0.000998642
-3.19243e-05
-0.00104866
-0.000197723
-0.00105269
-0.00039926
-0.00101678
-0.00060449
-0.000933464
-0.000756857
-0.000788902
-0.000818637
-0.000601044
-0.000811304
-0.000429043
-0.000781777
-0.000311563
-0.000758628
-0.000247254
-0.00075076
-0.000219632
-0.000754934
-0.000210835
-0.000764319
-0.000208501
-0.000777312
-0.000208532
-0.000795177
-0.000207173
-0.000821416
-0.000200802
-0.000862555
-0.00018668
-0.000928786
-0.000164728
-0.0010336
-0.000140816
-0.00119148
-0.000130308
-0.00141013
-0.000159074
-0.00167792
-0.000254989
-0.00196087
-0.000442067
-0.00221858
-0.000740082
-0.00239769
-0.00115577
-0.00238127
-0.00158984
-0.0014021
-0.00147099
0.000800906
0.00163444
0.00848548
0.00220137
0.00260181
0.00235487
0.000606349
0.00193427
0.00162563
0.00155734
0.00178867
0.00141343
0.00116361
0.00139141
0.000643495
0.00143968
0.00023965
0.00151617
-0.000143352
0.00155194
-0.000458583
0.0015244
-0.000674429
0.00144065
-0.000804795
0.00131082
-0.000868723
0.00114333
-0.00088109
0.000944561
-0.00085383
0.000723892
-0.000796025
0.000502245
-0.000711734
0.000314436
-0.000601009
0.000186388
-0.000472911
0.000111069
-0.000353638
6.39331e-05
-0.000264341
2.53616e-05
-0.000208597
-1.42979e-05
-0.000179886
-5.6719e-05
-0.000168327
-0.000100203
-0.00016493
-0.000144532
-0.000164115
-0.000190529
-0.000161088
-0.000240212
-0.000151031
-0.000297826
-0.000128978
-0.000371639
-9.08275e-05
-0.000476426
-3.59409e-05
-0.000641125
3.44772e-05
-0.000911169
0.000111055
-0.00133055
0.000164475
-0.00191274
0.000140208
-0.00264566
-7.08873e-06
-0.00357418
-0.000227163
-0.00468981
-0.000474129
-0.00470058
-0.00146014
-0.00378158
0.00893549
0.0115198
0.00992729
0.00219889
0.00715207
0.00440093
0.00591316
0.00302767
0.00512738
0.00194948
0.00455699
0.00121397
0.00414168
0.000655051
0.00378209
0.000216328
0.00344018
-0.000116592
0.00312367
-0.000357835
0.00283133
-0.000512366
0.00255711
-0.000594414
0.00229558
-0.000619481
0.00204253
-0.000600692
0.00179655
-0.000549962
0.00156297
-0.000478071
0.00135592
-0.000393876
0.00118753
-0.000304438
0.00105737
-0.000223393
0.000955256
-0.000162144
0.000870185
-0.000123443
0.000794329
-0.000103945
0.000723665
-9.75785e-05
0.000656784
-9.79633e-05
0.000592755
-0.000100001
0.000531137
-9.93834e-05
0.000472251
-9.20585e-05
0.000417318
-7.3958e-05
0.00036821
-4.16328e-05
0.00032855
3.80443e-06
0.000299189
6.39242e-05
0.000282289
0.00012804
0.000283581
0.000163267
0.00029291
0.000130963
0.000291483
-5.57961e-06
0.000274072
-0.000209669
0.000265146
-0.000465122
8.43016e-05
-0.00127922
-0.00356683
0.000144929
0.00283233
0.00293391
0.00161203
0.00416516
0.00179651
0.00445062
0.00166411
0.00447683
0.00118784
0.00442857
0.000703395
0.00431687
0.000328116
0.00414306
5.73066e-05
0.00392291
-0.000137601
0.0036709
-0.00026027
0.00340226
-0.000325689
0.00312925
-0.000346384
0.00286197
-0.000333329
0.00260879
-0.000296702
0.00237696
-0.000246156
0.00217396
-0.000190793
0.00200211
-0.000132506
0.00186028
-8.14783e-05
0.00174347
-4.52586e-05
0.00164512
-2.50116e-05
0.00155918
-1.79248e-05
0.00148119
-1.95053e-05
0.00140846
-2.51501e-05
0.00133963
-3.10839e-05
0.00127466
-3.43307e-05
0.00121512
-3.24433e-05
0.0011646
-2.33503e-05
0.00112838
-5.33618e-06
0.00111124
2.10292e-05
0.00112347
5.17858e-05
0.00117611
7.54833e-05
0.00127632
6.31398e-05
0.00140947
-2.1106e-06
0.00155416
-0.000150183
0.0017033
-0.000358729
0.00181085
-0.000572588
0.00149525
-0.000963545
-0.00204332
-8.31023e-05
0.00290443
0.00185435
-0.000325348
0.0028706
0.000780336
0.00345461
0.00108017
0.00387414
0.000768396
0.00413358
0.000444035
0.00424766
0.000214126
0.00424565
5.94003e-05
0.00413552
-2.73859e-05
0.00394574
-7.04112e-05
0.00370612
-8.59804e-05
0.00344161
-8.17913e-05
0.00317446
-6.60943e-05
0.00292327
-4.5429e-05
0.00270127
-2.40744e-05
0.00251452
-3.96129e-06
0.00236859
1.35029e-05
0.00226132
2.58758e-05
0.0021833
3.28371e-05
0.00212338
3.49929e-05
0.00207206
3.34715e-05
0.00202298
2.96573e-05
0.00197301
2.49014e-05
0.00192166
2.03422e-05
0.00187053
1.68825e-05
0.00182295
1.5207e-05
0.00178391
1.57696e-05
0.00176
1.86575e-05
0.00175584
2.52712e-05
0.00177691
3.07914e-05
0.00182625
2.62258e-05
0.00189174
-2.27565e-06
0.00195948
-6.97682e-05
0.00199198
-0.000182604
0.00199548
-0.000362146
0.00206091
-0.000637939
0.00211989
-0.00102244
0.000106982
0.00424754
-0.00240204
0.000486177
0.000140718
0.00089791
0.0019527
0.00269319
0.00310679
0.00328803
0.0033122
0.00324751
0.00313811
0.00301191
0.00288911
0.00278169
0.002695
0.00262999
0.00258553
0.00255906
0.00254544
0.00253916
0.00253533
0.00253021
0.0025215
0.00250826
0.00249071
0.00246996
0.00244783
0.00242656
0.0024085
0.00239735
0.00239201
0.00238232
0.00234421
0.00223868
0.00202025
0.00162194
0.000946968
-0.000112802
)
;

boundaryField
{
    floor
    {
        type            calculated;
        value           nonuniform List<scalar> 
36
(
0
0
0
0
0
0
0
0
0
0
0
0
0
0
0
0
0
0
0
-2.06938e-06
-4.01506e-06
-1.76294e-06
-1.80824e-07
1.15555e-06
1.17428e-06
1.24903e-06
2.72228e-08
5.27272e-08
-2.33381e-08
-2.97079e-07
-2.19601e-06
-5.21497e-07
-4.38734e-06
-3.73843e-07
-3.59968e-06
-8.15545e-07
)
;
    }
    ceiling
    {
        type            calculated;
        value           nonuniform List<scalar> 
43
(
4.94742e-05
3.2497e-05
1.6286e-05
2.01827e-05
2.32256e-05
2.54698e-05
2.79896e-05
3.05172e-05
3.29716e-05
3.5312e-05
3.73923e-05
3.90668e-05
4.03089e-05
4.10865e-05
4.14079e-05
4.1346e-05
4.10242e-05
4.0575e-05
4.00541e-05
3.95777e-05
3.91984e-05
3.89057e-05
3.8666e-05
3.84453e-05
3.82191e-05
3.79739e-05
3.77052e-05
3.74154e-05
3.7111e-05
3.68009e-05
3.64905e-05
3.62063e-05
3.5992e-05
3.59075e-05
3.584e-05
3.58997e-05
3.62414e-05
3.71093e-05
3.74042e-05
3.57488e-05
2.15634e-05
1.76275e-05
1.10675e-05
)
;
    }
    sWall
    {
        type            calculated;
        value           uniform -0.00014517;
    }
    nWall
    {
        type            calculated;
        value           nonuniform List<scalar> 6(-2.30857e-05 -2.70417e-05 -3.13457e-05 -2.81749e-05 -3.03331e-05 -4.14908e-05);
    }
    sideWalls
    {
        type            empty;
        value           nonuniform 0();
    }
    glass1
    {
        type            calculated;
        value           nonuniform List<scalar> 9(-5.19536e-05 -0.000135084 -0.000200733 -0.000254198 -0.000299394 -0.000338711 -0.000374679 -0.000419643 -0.000471489);
    }
    glass2
    {
        type            calculated;
        value           nonuniform List<scalar> 2(-0.000118016 -0.000130379);
    }
    sun
    {
        type            calculated;
        value           uniform 0;
    }
    Table_master
    {
        type            calculated;
        value           nonuniform List<scalar> 9(-1.52161e-07 -1.5211e-07 -1.52056e-07 -1.52008e-07 -1.51966e-07 -1.51921e-07 -1.51874e-07 -1.51818e-07 -1.51718e-07);
    }
    Table_slave
    {
        type            calculated;
        value           nonuniform List<scalar> 9(1.50999e-07 1.51043e-07 1.51081e-07 1.51119e-07 1.51158e-07 1.51197e-07 1.51238e-07 1.51283e-07 1.5131e-07);
    }
    inlet
    {
        type            calculated;
        value           uniform -0.0007783;
    }
    outlet
    {
        type            calculated;
        value           nonuniform List<scalar> 2(-0.00415175 0.00661717);
    }
}


// ************************************************************************* //
