/*--------------------------------*- C++ -*----------------------------------*\
  =========                 |
  \\      /  F ield         | OpenFOAM: The Open Source CFD Toolbox
   \\    /   O peration     | Website:  https://openfoam.org
    \\  /    A nd           | Version:  6
     \\/     M anipulation  |
\*---------------------------------------------------------------------------*/
FoamFile
{
    version     2.0;
    format      ascii;
    class       surfaceScalarField;
    location    "3000";
    object      phi;
}
// * * * * * * * * * * * * * * * * * * * * * * * * * * * * * * * * * * * * * //

dimensions      [1 0 -1 0 0 0 0];

internalField   nonuniform List<scalar> 
850
(
-0.00287016
0.00292615
-0.00383201
0.000961882
-0.00456006
0.000728082
-0.005141
0.000580974
-0.00554658
0.000405604
-0.00575947
0.000212919
-0.0057636
4.16273e-06
-0.00554347
-0.000220093
-0.00510042
-0.000443019
-0.00446349
-0.000636896
-0.0036851
-0.000778365
-0.00282853
-0.000856535
-0.00194512
-0.000883376
-0.00103395
-0.00091114
-0.0010326
-0.000549155
0.000551806
-0.000104995
-0.000444137
0.00054068
-0.000645652
0.00102502
-0.000484316
0.00135424
-0.000329193
0.00152744
-0.000173182
0.00159577
-6.83098e-05
0.00162454
-2.87436e-05
0.00163677
-1.22129e-05
0.00163753
-7.41712e-07
0.00162913
8.42335e-06
0.00161036
1.87884e-05
0.00157224
3.81428e-05
0.0014901
8.2153e-05
0.0013229
0.000167222
0.0010525
0.000270419
0.000712716
0.000339798
0.000716144
-0.00204137
0.00511762
-0.00299227
0.00191281
-0.003743
0.00147884
-0.00430956
0.00114757
-0.00470223
0.000798305
-0.00491505
0.000425765
-0.00493077
1.99184e-05
-0.00473497
-0.000415856
-0.00433707
-0.000840894
-0.0037758
-0.00119813
-0.00310892
-0.00144521
-0.00240107
-0.00156435
-0.00171455
-0.00156986
-0.00113852
-0.00148714
-0.000901908
-0.00126919
-9.07892e-05
-0.000808608
0.00019694
-0.000284691
0.000206676
0.000536108
2.30733e-05
0.000927542
-0.000835547
0.00117153
-0.000889618
0.00141413
-0.000726889
0.00160503
-0.000520072
0.00164045
-0.000208582
0.00164235
-7.01882e-05
0.00164693
-3.3301e-05
0.00165118
-1.64423e-05
0.00165307
-2.60972e-06
0.00165274
8.77336e-06
0.00164973
2.18115e-05
0.00164052
4.73781e-05
0.00159385
0.000128843
0.00140659
0.000354498
0.00107857
0.000598452
0.00065191
0.000766479
0.00137698
-0.00143075
0.00677727
-0.00226278
0.00274487
-0.0029233
0.00213939
-0.00339867
0.00162297
-0.00373208
0.00113174
-0.00391654
0.000610259
-0.00392088
2.42934e-05
-0.0037211
-0.000615604
-0.00333988
-0.00122208
-0.0028291
-0.00170888
-0.00224912
-0.00202515
-0.00166048
-0.00215295
-0.00111644
-0.00211387
-0.000673297
-0.00193025
-0.000360065
-0.00158239
-0.000116729
-0.00105192
-1.1189e-05
-0.000390202
0.000202999
0.00130628
-0.00127566
0.0015164
-0.00104564
0.00154339
-0.000916592
0.0016153
-0.000798775
0.0018
-0.000704752
0.00159159
0.00152158
0.00148845
0.00147218
0.00146975
0.00147869
0.00150068
0.00154823
0.00167724
0.00142089
0.000610873
0.00108854
0.000930812
0.00060948
0.00124556
0.00200013
-0.00100579
0.0080788
-0.00167667
0.00341578
-0.00209992
0.00256268
-0.00239696
0.00192004
-0.00260431
0.00133912
-0.00270684
0.000712819
-0.00265056
-3.19565e-05
-0.00241024
-0.000855888
-0.00203565
-0.00159664
-0.00159036
-0.00215413
-0.00112755
-0.00248792
-0.0006921
-0.00258836
-0.000311806
-0.00249413
-1.91082e-06
-0.00224011
0.000252857
-0.00183713
0.000516119
-0.00131515
0.000881968
-0.000756025
0.00150805
-0.000423057
0.00207566
-0.000560494
0.00166199
-0.00086197
0.00156704
-0.00095067
0.00150389
-0.000853422
0.00144268
-0.000737548
0.0013114
-0.000573447
0.0015921
-0.000280838
0.00177174
-0.00017978
0.00192478
-0.000153177
0.0020608
-0.000136163
0.00216683
-0.000106168
0.00221679
-5.01064e-05
0.00217443
4.22191e-05
0.00199677
0.000177519
0.0016177
0.000378923
0.00145811
0.000770477
0.00116366
0.00122527
0.000715646
0.00169359
0.00273349
-0.000714591
0.00914583
-0.00123537
0.00393659
-0.0012961
0.00262344
-0.00131637
0.00194034
-0.00131649
0.00133927
-0.00125087
0.00064722
-0.00105611
-0.000226693
-0.000750262
-0.0011617
-0.000404089
-0.00194277
-7.24419e-05
-0.00248573
0.000211967
-0.00277228
0.00043621
-0.00281256
0.000600642
-0.00265852
0.000716584
-0.00235602
0.000821697
-0.00194221
0.000969327
-0.00146275
0.00121152
-0.000998188
0.0014914
-0.000702921
0.0015949
-0.000663972
0.00148555
-0.000752591
0.00132734
-0.000792447
0.00120954
-0.000735604
0.00111835
-0.000646342
0.00107409
-0.000529173
0.0011775
-0.000384239
0.00130286
-0.000305121
0.00142904
-0.00027935
0.00155484
-0.000261959
0.0016712
-0.000222519
0.00175946
-0.000138355
0.00179049
1.11894e-05
0.00174156
0.000226456
0.00162179
0.000498706
0.00152282
0.000869457
0.00144845
0.00129965
0.00137511
0.00176695
0.0022095
0.00189911
0.00152263
0.000704514
0.00143783
0.00010188
0.00150967
-0.000632934
0.0101791
-0.000998955
0.00430264
-0.000553164
0.00217768
-0.000140238
0.00152744
0.00016713
0.00103192
0.000499582
0.000314792
0.00089709
-0.000624176
0.00124653
-0.0015111
0.00149538
-0.00219158
0.00163185
-0.00262214
0.00166471
-0.00280509
0.00161991
-0.00276772
0.00152036
-0.00255893
0.00139405
-0.00222967
0.00127856
-0.0018267
0.00121277
-0.00139693
0.00121498
-0.00100038
0.00123758
-0.0007255
0.00118996
-0.000616327
0.00105442
-0.000617037
0.000884115
-0.000622127
0.000743366
-0.000594843
0.000646231
-0.000549196
0.000608297
-0.000491229
0.000652046
-0.00042798
0.000743261
-0.000396328
0.000854856
-0.000390939
0.000977091
-0.000384189
0.00110482
-0.000350242
0.00123021
-0.000263741
0.00133729
-9.58867e-05
0.00140583
0.000157914
0.00144752
0.000457028
0.00151886
0.000798117
0.00167722
0.00114129
0.0019508
0.00149338
0.00224351
0.00160641
0.00183503
0.00111301
0.00102922
0.0009077
0.00259482
-0.000666579
0.01129
-0.000553947
0.00419004
0.000617776
0.00100599
0.00146783
0.000677419
0.00211294
0.000386831
0.0027257
-0.00029795
0.0032184
-0.00111685
0.0034875
-0.00178016
0.00353205
-0.00223608
0.00338691
-0.00247695
0.00309856
-0.00251668
0.00271989
-0.002389
0.00230018
-0.00213917
0.00188312
-0.00181257
0.00150757
-0.00145113
0.00120309
-0.00109242
0.000977019
-0.000774297
0.000805232
-0.000553696
0.000643514
-0.000454595
0.000467648
-0.000441159
0.000296235
-0.000450703
0.000156491
-0.000455089
6.07752e-05
-0.000453472
1.77009e-05
-0.000448149
3.31837e-05
-0.000443458
8.91117e-05
-0.000452253
0.000166248
-0.000468073
0.0002576
-0.000475539
0.000365448
-0.000458087
0.000497897
-0.000396189
0.000664699
-0.000262687
0.000842752
-2.01383e-05
0.0010184
0.000281383
0.00122813
0.000588391
0.00150358
0.00086584
0.001856
0.00114096
0.00224011
0.00122232
0.00240174
0.00095139
0.00187719
0.00143225
0.00452847
0.00254523
0.00924268
0.00327032
0.00346498
0.00391132
0.00036502
0.00465684
-6.80854e-05
0.00536683
-0.00032314
0.00589967
-0.000830754
0.0060956
-0.00131272
0.00596533
-0.00164983
0.00555962
-0.0018303
0.00494864
-0.0018659
0.00421136
-0.00177934
0.00342511
-0.00160271
0.00265455
-0.00136857
0.00194645
-0.00110444
0.00133371
-0.000838365
0.000836558
-0.000595258
0.000454668
-0.000392396
0.00017517
-0.000274188
-3.89559e-05
-0.000240461
-0.000220006
-0.000260101
-0.000374598
-0.000296104
-0.000499556
-0.000330126
-0.000591844
-0.00036118
-0.000649571
-0.000390419
-0.000673901
-0.000419127
-0.000676591
-0.000449562
-0.000667773
-0.00047689
-0.00065044
-0.000492871
-0.000620489
-0.000488037
-0.000565161
-0.000451515
-0.000456551
-0.000371295
-0.000243293
-0.000233394
3.21677e-05
5.92442e-06
0.000333274
0.000287288
0.000668467
0.000530651
0.00104033
0.000769102
0.00139411
0.00086855
0.00155925
0.000786253
0.000901777
0.00208973
0.00568111
0.00978927
0.0132459
0.0127013
0.000909613
0.0120107
0.000622599
0.0113731
0.000314433
0.0105622
-1.9761e-05
0.00948705
-0.000237437
0.0082388
-0.000401472
0.00690799
-0.000499414
0.00556844
-0.000526288
0.00428706
-0.000497915
0.00311925
-0.000434868
0.00209982
-0.000349126
0.00124038
-0.000244993
0.00054341
-0.000141383
6.46134e-06
-5.83036e-05
-0.000368377
-1.75536e-05
-0.000611593
-3.09678e-05
-0.000784871
-6.71779e-05
-0.00092971
-0.000115258
-0.0010599
-0.000165909
-0.00117721
-0.000212813
-0.00128162
-0.000256773
-0.00137352
-0.000298517
-0.00145617
-0.000336475
-0.00153704
-0.000368687
-0.00162333
-0.000390602
-0.00172106
-0.000395144
-0.00183659
-0.000372506
-0.00197867
-0.000309427
-0.00216078
-0.000189185
-0.00239712
2.95074e-06
-0.00266589
0.000274692
-0.00301347
0.00063487
-0.00357901
0.0010962
-0.00445837
0.00164847
-0.00579236
0.00220255
-0.00751678
0.00251067
-0.00733232
0.00190528
-0.00137509
0.00329338
0.00230369
0.0031397
0.000776566
0.00376909
-0.000314719
0.0038481
-9.86746e-05
0.003547
6.37018e-05
0.00304755
9.79929e-05
0.00243526
0.000112865
0.00176693
0.000142021
0.00109356
0.000175437
0.000456343
0.000202337
-0.000111614
0.000218816
-0.000574317
0.000217706
-0.000914327
0.000198626
-0.0011458
0.000173172
-0.00129643
0.000133078
-0.00140738
7.99799e-05
-0.00150289
2.83278e-05
-0.00159896
-1.91828e-05
-0.0017009
-6.39724e-05
-0.00180999
-0.000103724
-0.00192736
-0.000139402
-0.00205276
-0.000173111
-0.00218717
-0.000202068
-0.00233232
-0.000223536
-0.00248924
-0.000233678
-0.00265746
-0.000226927
-0.00283417
-0.000195793
-0.00301252
-0.000131072
-0.00318071
-2.09916e-05
-0.00332443
0.000146676
-0.00343745
0.000387716
-0.00353724
0.00073466
-0.0036355
0.00119446
-0.00372696
0.00173994
-0.00379564
0.00227123
-0.00371253
0.00242757
-0.00224463
0.000437371
-0.00354661
-0.000527435
0.00290016
-0.000253562
0.000502805
-0.000740213
0.000172002
-0.00100967
0.000170802
-0.00114684
0.000200854
-0.00127553
0.000226655
-0.00141431
0.00025163
-0.00154616
0.000273856
-0.00165909
0.000288351
-0.00174748
0.000290719
-0.00180796
0.00027928
-0.00184361
0.000253351
-0.0018624
0.000217412
-0.00186976
0.000180535
-0.00187997
0.000143286
-0.00190593
0.000105938
-0.00194897
7.13627e-05
-0.00200896
4.08077e-05
-0.00208707
1.41336e-05
-0.00218018
-1.0611e-05
-0.00228695
-3.26357e-05
-0.00240766
-5.24032e-05
-0.00254026
-6.94635e-05
-0.00268117
-8.26273e-05
-0.00282485
-8.99955e-05
-0.00296305
-8.87246e-05
-0.00308402
-7.48163e-05
-0.00317189
-4.3201e-05
-0.00320563
1.27454e-05
-0.00317255
0.000113601
-0.00304883
0.000263999
-0.00279577
0.000481601
-0.00239138
0.00079008
-0.00181904
0.00116761
-0.000930865
0.00138306
0.000582303
0.000914407
0.00143317
-0.000413488
-0.0020331
-0.00577513
-0.00866937
-0.00573049
-0.00521128
-0.00502933
-0.00485176
-0.00464647
-0.00441727
-0.00416471
-0.00389133
-0.00360471
-0.00331693
-0.00304175
-0.00279365
-0.00258254
-0.0024092
-0.00227381
-0.00217631
-0.00211379
-0.00208212
-0.00207732
-0.00209739
-0.00213951
-0.00220138
-0.00228024
-0.00237214
-0.00247126
-0.0025689
-0.00265241
-0.00270405
-0.00269946
-0.00259369
-0.00233722
-0.00186285
-0.00107973
8.11634e-05
0.00145762
0.00236523
0.00194445
)
;

boundaryField
{
    floor
    {
        type            calculated;
        value           nonuniform List<scalar> 
36
(
0
0
0
0
0
0
0
0
0
0
0
0
0
0
0
0
0
0
0
-3.41343e-06
-8.90647e-06
-1.36563e-05
-1.76979e-05
-1.76354e-05
-1.70721e-05
-1.64641e-05
-1.31984e-06
-2.48199e-06
-3.00947e-06
-3.85071e-06
-2.62734e-06
-5.85259e-06
-7.35186e-06
-7.48276e-06
-7.52162e-06
-7.08588e-06
)
;
    }
    ceiling
    {
        type            calculated;
        value           nonuniform List<scalar> 
43
(
-4.18867e-05
-4.03054e-05
-3.87263e-05
-1.64248e-05
-9.96755e-06
-6.78697e-06
-4.45919e-06
-2.55538e-06
-9.43756e-07
4.58811e-07
1.72692e-06
2.92596e-06
4.09977e-06
5.24511e-06
6.29656e-06
7.18861e-06
7.89585e-06
8.43405e-06
8.8367e-06
9.13206e-06
9.33612e-06
9.4502e-06
9.48578e-06
9.46626e-06
9.39563e-06
9.27794e-06
9.11825e-06
8.92217e-06
8.69472e-06
8.43898e-06
8.15422e-06
7.84049e-06
7.53147e-06
7.23399e-06
6.95768e-06
6.72464e-06
6.60808e-06
6.79453e-06
7.2974e-06
8.5407e-06
1.13911e-05
8.41839e-06
-6.89501e-05
)
;
    }
    sWall
    {
        type            calculated;
        value           uniform -0.000270283;
    }
    nWall
    {
        type            calculated;
        value           nonuniform List<scalar> 6(-5.53608e-05 -5.5922e-05 -5.64422e-05 -7.31031e-05 -8.0336e-05 -9.71894e-05);
    }
    sideWalls
    {
        type            empty;
        value           nonuniform 0();
    }
    glass1
    {
        type            calculated;
        value           nonuniform List<scalar> 9(-5.59611e-05 -0.000150056 -0.000228864 -0.000295718 -0.000352402 -0.000400309 -0.000444282 -0.000497894 -0.000557949);
    }
    glass2
    {
        type            calculated;
        value           nonuniform List<scalar> 2(-0.000250858 -0.000276112);
    }
    sun
    {
        type            calculated;
        value           uniform 0;
    }
    Table_master
    {
        type            calculated;
        value           nonuniform List<scalar> 9(-1.52832e-07 -1.52948e-07 -1.52987e-07 -1.53011e-07 -1.53028e-07 -1.53036e-07 -1.53038e-07 -1.53031e-07 -1.52994e-07);
    }
    Table_slave
    {
        type            calculated;
        value           nonuniform List<scalar> 9(1.52789e-07 1.52781e-07 1.52732e-07 1.52687e-07 1.52652e-07 1.52638e-07 1.52643e-07 1.52667e-07 1.52738e-07);
    }
    inlet
    {
        type            calculated;
        value           uniform -0.00468737;
    }
    outlet
    {
        type            calculated;
        value           nonuniform List<scalar> 2(0.00608729 0.00293453);
    }
}


// ************************************************************************* //
