/*--------------------------------*- C++ -*----------------------------------*\
  =========                 |
  \\      /  F ield         | OpenFOAM: The Open Source CFD Toolbox
   \\    /   O peration     | Website:  https://openfoam.org
    \\  /    A nd           | Version:  6
     \\/     M anipulation  |
\*---------------------------------------------------------------------------*/
FoamFile
{
    version     2.0;
    format      ascii;
    class       volScalarField;
    location    "2500";
    object      nut;
}
// * * * * * * * * * * * * * * * * * * * * * * * * * * * * * * * * * * * * * //

dimensions      [0 2 -1 0 0 0 0];

internalField   nonuniform List<scalar> 
458
(
0.000968119
0.00104529
0.00104976
0.00109573
0.00113812
0.00117688
0.00121348
0.00124975
0.00128348
0.00130662
0.00131487
0.00130436
0.00127397
0.00122826
0.00117548
0.000418254
0.000516008
0.000559392
0.000546414
0.000525754
0.000496726
0.000466768
0.000439248
0.000414599
0.000392594
0.000373072
0.000355535
0.000339531
0.000324552
0.000309886
0.000294452
0.000284766
0.000260852
0.00136901
0.00311789
0.00290044
0.00337564
0.00379312
0.00421891
0.00462486
0.00496564
0.00523118
0.00545937
0.00561308
0.00563383
0.00542682
0.00479376
0.00330855
0.00120038
0.000979465
0.00081512
0.000549989
0.000930992
0.00121654
0.00142087
0.00148584
0.00122735
0.00108746
0.000984557
0.000903436
0.00083737
0.000778383
0.000724822
0.00067438
0.000625525
0.000583555
0.000547586
0.00065982
0.000347933
0.00171022
0.00432496
0.00350589
0.00466024
0.00516024
0.00551292
0.00577768
0.00598027
0.00615353
0.00634205
0.00652925
0.00668205
0.00675985
0.00671578
0.00646575
0.00582783
0.00474736
0.00111124
0.00092514
0.00129884
0.00161194
0.00186677
0.0019047
0.000688929
0.000612662
0.000550602
0.000500407
0.000459589
0.000426128
0.000398477
0.000375626
0.000357182
0.000388461
0.000448112
0.000742037
0.000405648
0.00204372
0.0057533
0.00350563
0.00500716
0.00560943
0.00580426
0.00586594
0.00589918
0.00596669
0.00610902
0.00630743
0.00653228
0.00675107
0.00692925
0.00700671
0.00685885
0.00627714
0.00480267
0.00121825
0.00158244
0.00205144
0.00243901
0.00269348
0.00259644
0.00075212
0.000692355
0.000654795
0.000629328
0.000608626
0.00058697
0.000564133
0.000539761
0.000510394
0.000484315
0.000485577
0.000835243
0.000456871
0.00238351
0.00759332
0.00403913
0.00473955
0.00563665
0.00582086
0.00575893
0.00564761
0.00563749
0.00576409
0.00596928
0.00622482
0.0064932
0.00671774
0.00681362
0.00672216
0.00639034
0.00577283
0.00462634
0.00421814
0.00404385
0.00394625
0.00386907
0.00371854
0.00318633
0.00297622
0.00288341
0.00281903
0.00274025
0.00262036
0.00239345
0.00206859
0.00167951
0.00127607
0.000953155
0.000883805
0.000736793
0.000602287
0.000666742
0.000728881
0.00273897
0.00957165
0.00595153
0.00467435
0.00518679
0.00556976
0.00570613
0.00549667
0.00547589
0.00559645
0.00579287
0.00605189
0.00632698
0.00653946
0.00660778
0.00648123
0.00617996
0.00579063
0.00536387
0.00506879
0.00483278
0.00460907
0.00439711
0.00418737
0.00396212
0.00381425
0.00370981
0.00361218
0.00350249
0.00337096
0.00319484
0.00291128
0.00251769
0.00203395
0.00156538
0.00116257
0.000932047
0.00079194
0.0010273
0.000749503
0.00306444
0.0110074
0.0087713
0.00639841
0.00561937
0.0054902
0.00566012
0.00561028
0.00557454
0.00562083
0.00577826
0.00602993
0.00630984
0.0065194
0.00656232
0.00639165
0.00605597
0.00568931
0.00540539
0.00519634
0.00494772
0.00463556
0.00431256
0.00403347
0.00383149
0.00370791
0.00361898
0.00353478
0.00344612
0.00335404
0.00326242
0.00313556
0.00286679
0.00247152
0.00204387
0.00163733
0.00135264
0.00121617
0.00116211
0.000864168
0.00312641
0.00999098
0.00892474
0.00826755
0.00745159
0.00678709
0.00640766
0.0060059
0.00575
0.00571438
0.00587412
0.0061527
0.00644648
0.00663862
0.00662909
0.00638314
0.00598137
0.00558923
0.00530443
0.00500088
0.00457898
0.00414335
0.00378535
0.00353738
0.00338481
0.00329049
0.00321933
0.00315691
0.00310492
0.00307275
0.00307207
0.00310334
0.00306959
0.0028146
0.00255806
0.00240071
0.00242228
0.00252248
0.00300611
0.00136778
0.00304093
0.00360126
0.0041648
0.00443357
0.00466941
0.00477632
0.00483578
0.00496984
0.0052496
0.0056346
0.00605976
0.00645715
0.00675049
0.00685179
0.00669435
0.00628738
0.00578839
0.00535934
0.00487724
0.00432983
0.00381756
0.00342696
0.00316621
0.00299976
0.00288701
0.0027979
0.00271582
0.00263577
0.00255807
0.0024826
0.00240572
0.00232111
0.00223653
0.00216062
0.00211098
0.00209054
0.00205684
0.00197373
0.00186028
0.00131217
0.00205292
0.00478251
0.00521131
0.00554875
0.00593576
0.00635849
0.00669139
0.00693099
0.00709544
0.00719259
0.00717166
0.00694515
0.00648831
0.00587453
0.00520218
0.00453075
0.0038903
0.00339168
0.0030549
0.00283404
0.00268196
0.00256534
0.00246452
0.00236979
0.00227833
0.00219215
0.0021162
0.00205666
0.00201947
0.00200932
0.00201724
0.0020292
0.00203965
0.00203018
0.00196713
0.00183608
0.00166502
0.00111392
0.00217839
0.00552395
0.00633345
0.00647258
0.00675689
0.00705417
0.00720856
0.00710556
0.00696375
0.00684476
0.00661646
0.00610286
0.00545454
0.00475779
0.00410939
0.00361259
0.00330028
0.00310742
0.00296318
0.0028374
0.00272174
0.00260672
0.00248996
0.00237445
0.00226611
0.00217143
0.00209574
0.00204169
0.00200781
0.002004
0.0020303
0.00207695
0.00212725
0.0021572
0.00213652
0.002144
0.00223085
0.00113957
0.00177489
0.00192132
0.0020297
0.00216172
0.00209618
0.00202182
0.00190041
0.001729
0.00156084
0.00145996
0.00137366
0.00128143
0.00118066
0.00107799
0.000971039
0.000877841
0.000810548
0.000767499
0.000740431
0.000722425
0.000710481
0.000702131
0.000695342
0.000690611
0.000688914
0.00069136
0.000698927
0.000712358
0.000732243
0.000759294
0.000794822
0.000836938
0.000884461
0.000937709
0.000996389
0.00106187
0.00109674
0.00107573
0.00100989
0.000948035
)
;

boundaryField
{
    floor
    {
        type            nutkWallFunction;
        Cmu             0.09;
        kappa           0.41;
        E               9.8;
        value           nonuniform List<scalar> 
36
(
0.000141187
4.91428e-05
6.17493e-05
6.72466e-05
6.56081e-05
6.29897e-05
5.92889e-05
5.54412e-05
5.18794e-05
4.86653e-05
4.57753e-05
4.31943e-05
4.08608e-05
3.87185e-05
3.67014e-05
3.47146e-05
3.26105e-05
3.12826e-05
2.79775e-05
2.79774e-05
3.98442e-05
4.74912e-05
5.41621e-05
7.26281e-05
8.06312e-05
8.82595e-05
0.000141187
0.000144061
0.000118309
9.87201e-05
4.91427e-05
9.87201e-05
6.60562e-05
0.000133742
0.000111882
0.000146121
)
;
    }
    ceiling
    {
        type            nutkWallFunction;
        Cmu             0.09;
        kappa           0.41;
        E               9.8;
        value           nonuniform List<scalar> 
43
(
0.000208628
0.000224699
0.000236512
0.00025091
0.000243848
0.000235789
0.000222545
0.000203681
0.000184973
0.000173641
0.000163878
0.000153365
0.000141783
0.000129864
0.000117311
0.000106243
9.81664e-05
9.29588e-05
8.96667e-05
8.74688e-05
8.60071e-05
8.49837e-05
8.41506e-05
8.35696e-05
8.33613e-05
8.36622e-05
8.45918e-05
8.62384e-05
8.86695e-05
9.19639e-05
9.62698e-05
0.000101345
0.000107036
0.00011337
0.000120303
0.000127985
0.000132053
0.000129604
0.000121892
0.000114594
0.000344428
0.000402374
0.000252451
)
;
    }
    sWall
    {
        type            nutkWallFunction;
        Cmu             0.09;
        kappa           0.41;
        E               9.8;
        value           uniform 0.000208685;
    }
    nWall
    {
        type            nutkWallFunction;
        Cmu             0.09;
        kappa           0.41;
        E               9.8;
        value           nonuniform List<scalar> 6(8.82582e-05 9.0773e-05 0.000104613 0.00013406 0.000137039 0.000114599);
    }
    sideWalls
    {
        type            empty;
    }
    glass1
    {
        type            nutkWallFunction;
        Cmu             0.09;
        kappa           0.41;
        E               9.8;
        value           nonuniform List<scalar> 9(0.000117036 0.000163541 0.000201895 0.000238573 0.000275283 0.000313098 0.000347272 0.000353744 0.00034484);
    }
    glass2
    {
        type            nutkWallFunction;
        Cmu             0.09;
        kappa           0.41;
        E               9.8;
        value           nonuniform List<scalar> 2(0.000163269 0.000156935);
    }
    sun
    {
        type            nutkWallFunction;
        Cmu             0.09;
        kappa           0.41;
        E               9.8;
        value           nonuniform List<scalar> 
14
(
0.000116974
0.000126048
0.000126571
0.000131938
0.000136864
0.000141351
0.000145572
0.000149741
0.000153606
0.00015625
0.000157192
0.000155991
0.000152516
0.000147271
)
;
    }
    Table_master
    {
        type            nutkWallFunction;
        Cmu             0.09;
        kappa           0.41;
        E               9.8;
        value           nonuniform List<scalar> 9(8.33682e-05 7.39275e-05 6.61404e-05 5.97635e-05 5.45196e-05 5.01773e-05 4.65567e-05 4.35403e-05 4.10889e-05);
    }
    Table_slave
    {
        type            nutkWallFunction;
        Cmu             0.09;
        kappa           0.41;
        E               9.8;
        value           nonuniform List<scalar> 9(9.10954e-05 8.37889e-05 7.91587e-05 7.60011e-05 7.3423e-05 7.07147e-05 6.78456e-05 6.47681e-05 6.10369e-05);
    }
    inlet
    {
        type            calculated;
        value           uniform 0.000100623;
    }
    outlet
    {
        type            calculated;
        value           nonuniform List<scalar> 2(0.00177489 0.00192132);
    }
}


// ************************************************************************* //
