/*--------------------------------*- C++ -*----------------------------------*\
  =========                 |
  \\      /  F ield         | OpenFOAM: The Open Source CFD Toolbox
   \\    /   O peration     | Website:  https://openfoam.org
    \\  /    A nd           | Version:  6
     \\/     M anipulation  |
\*---------------------------------------------------------------------------*/
FoamFile
{
    version     2.0;
    format      ascii;
    class       volScalarField;
    location    "1900";
    object      alphat;
}
// * * * * * * * * * * * * * * * * * * * * * * * * * * * * * * * * * * * * * //

dimensions      [1 -1 -1 0 0 0 0];

internalField   nonuniform List<scalar> 
458
(
0.00106273
0.00113056
0.00111128
0.00115054
0.00118635
0.00121787
0.00124621
0.00127278
0.00129786
0.00131245
0.00131301
0.00129667
0.00126406
0.00122239
0.00118061
0.000493985
0.000601696
0.00060865
0.000603653
0.000594613
0.000572536
0.000546051
0.00052065
0.000496829
0.000474325
0.000453022
0.000432823
0.0004136
0.000395105
0.000376744
0.0003575
0.000355815
0.000334722
0.00156495
0.00332521
0.00299584
0.0035108
0.00387974
0.00425565
0.00461487
0.00491414
0.00511403
0.00526453
0.00532607
0.00523349
0.0048849
0.00410704
0.00269854
0.00119073
0.00104897
0.0009895
0.000735182
0.00107613
0.00137785
0.00168493
0.00181828
0.00148197
0.00134139
0.00122744
0.00112553
0.00103468
0.000954288
0.000883374
0.000820383
0.000766163
0.000727187
0.000688363
0.000885682
0.000486901
0.00199204
0.00471503
0.00348049
0.00488251
0.00534849
0.00563467
0.00584278
0.00599635
0.00610285
0.00621561
0.00631769
0.00637855
0.00636595
0.00624724
0.00595686
0.00530192
0.00387656
0.00122222
0.000934931
0.00158489
0.00207715
0.00247789
0.00245001
0.000749107
0.000674205
0.000613949
0.000566487
0.000528898
0.000498645
0.00047393
0.000453712
0.000437933
0.000493982
0.000574317
0.000985378
0.000577012
0.00240617
0.00644838
0.00347395
0.00523269
0.00584732
0.00596191
0.00596534
0.00595485
0.00596676
0.0060307
0.00613158
0.00624329
0.00635255
0.00645012
0.00648206
0.00629168
0.00568586
0.00448233
0.00106643
0.00197697
0.0025531
0.00301246
0.00324902
0.00295742
0.00078495
0.00075957
0.000758069
0.000764874
0.000770631
0.000768392
0.000752478
0.000730445
0.000701932
0.000669945
0.000660575
0.00108439
0.000654811
0.00281765
0.00861706
0.0040654
0.0049171
0.00589416
0.00596875
0.0058395
0.00571198
0.00566064
0.00570494
0.00580029
0.00590619
0.00601819
0.00614357
0.00623715
0.00617615
0.00587163
0.00531355
0.00433524
0.00388379
0.00377535
0.00373777
0.00369247
0.00356883
0.00319854
0.0031982
0.00327483
0.00334444
0.00337297
0.00333875
0.0032196
0.00289631
0.00241871
0.00188333
0.00142897
0.00121692
0.00104221
0.000786574
0.000809423
0.000809874
0.00323674
0.0108883
0.00609811
0.00466916
0.00541744
0.00574559
0.005731
0.00559198
0.00546581
0.00551652
0.00560401
0.00567619
0.00573778
0.00582772
0.00592386
0.00590493
0.00567856
0.00529372
0.00476678
0.00433346
0.00400997
0.0037736
0.00363889
0.00358891
0.00361788
0.00373912
0.00387192
0.00397565
0.00403339
0.00403551
0.00397446
0.00380196
0.00344095
0.00290723
0.00231959
0.00174871
0.00138247
0.00140586
0.00199842
0.00103837
0.00362789
0.012591
0.009415
0.00625367
0.00523205
0.0051292
0.00538313
0.00551354
0.00546226
0.00550061
0.00554691
0.00555774
0.00553907
0.0055647
0.00566173
0.00569766
0.00551348
0.00511051
0.00460518
0.00412501
0.00373326
0.00349297
0.00340998
0.00343382
0.00353782
0.00369069
0.00384203
0.00396311
0.00404852
0.00409839
0.00411707
0.00410512
0.0039309
0.00353157
0.00301705
0.00248348
0.0020637
0.00192996
0.00236202
0.00129649
0.00370426
0.0117359
0.0102009
0.00891519
0.00740901
0.00633333
0.00592414
0.0058323
0.00568015
0.00559616
0.00555783
0.0054839
0.00536593
0.00532299
0.00544045
0.00555223
0.00539574
0.00491919
0.0042876
0.00370273
0.00334689
0.00320379
0.00319215
0.00325368
0.00335918
0.00348554
0.00360903
0.00371658
0.00380919
0.00389658
0.00399609
0.00412907
0.00427086
0.00410468
0.00380473
0.00360812
0.00365276
0.00373999
0.00451763
0.00174413
0.0036013
0.00428545
0.00510314
0.0055017
0.00568503
0.00561061
0.00548514
0.00541308
0.00542011
0.00548438
0.0054946
0.00535517
0.00511265
0.00500289
0.0051952
0.00542393
0.00526386
0.00462249
0.00381857
0.00327324
0.00303536
0.00296725
0.00297781
0.00302768
0.00309823
0.00317503
0.00324496
0.00329953
0.00333538
0.00335194
0.00334787
0.00331753
0.00325072
0.00316452
0.00307928
0.00301975
0.00293303
0.00277135
0.00259192
0.00168681
0.00337261
0.00644703
0.00623116
0.0061362
0.00607651
0.0060544
0.00601686
0.00588771
0.0055965
0.00511826
0.00461608
0.00445227
0.00484034
0.00522441
0.00493772
0.00400567
0.00325862
0.00292379
0.00280358
0.00275801
0.00274399
0.00275123
0.00277431
0.00280587
0.00283712
0.0028603
0.00287053
0.00286719
0.00285483
0.00284349
0.00284843
0.00285196
0.00282969
0.00275935
0.00259604
0.00231496
0.00196488
0.00133926
0.00312756
0.00707042
0.00683261
0.00654312
0.00631546
0.00609071
0.00580904
0.00538062
0.00470264
0.00393275
0.00332692
0.00323595
0.00387244
0.0042008
0.00372351
0.00294726
0.00252815
0.00236204
0.00226852
0.00219107
0.00213071
0.00209698
0.00209476
0.0021242
0.00218277
0.00226641
0.00236953
0.00248423
0.00259896
0.00269566
0.00279872
0.00289388
0.00296101
0.00296907
0.00290641
0.00279368
0.00235425
0.00134995
0.00245671
0.00265811
0.0028298
0.00296224
0.00274692
0.00258462
0.00234356
0.00210256
0.00186253
0.00163467
0.00144381
0.00124376
0.0010272
0.000940894
0.000946281
0.000922721
0.000824289
0.000764751
0.000738571
0.000733027
0.000737582
0.000749225
0.00076731
0.000791322
0.000820589
0.000854439
0.00089233
0.000933946
0.000979315
0.00102901
0.00108452
0.00114904
0.00121879
0.00129334
0.00137173
0.00145242
0.00152929
0.0015018
0.0013762
0.00126309
)
;

boundaryField
{
    floor
    {
        type            compressible::alphatWallFunction;
        Prt             0.85;
        value           nonuniform List<scalar> 
36
(
0.000167487
6.83046e-05
8.46145e-05
8.56581e-05
8.49104e-05
8.35554e-05
8.02373e-05
7.62362e-05
7.23763e-05
6.87351e-05
6.52752e-05
6.19808e-05
5.88392e-05
5.5832e-05
5.2922e-05
5.00158e-05
4.69501e-05
4.66811e-05
4.32941e-05
4.32935e-05
6.72062e-05
8.09012e-05
9.25122e-05
0.000111808
0.000115111
0.000115178
0.000167485
0.000168881
0.000149163
0.0001408
6.83037e-05
0.000140798
0.000104334
0.000173208
0.000133091
0.000151627
)
;
    }
    ceiling
    {
        type            compressible::alphatWallFunction;
        Prt             0.85;
        value           nonuniform List<scalar> 
43
(
0.000335854
0.000361407
0.000383031
0.000399722
0.000372748
0.000352258
0.00032157
0.000290511
0.000259185
0.000229049
0.00020344
0.00017618
0.000146148
0.000134088
0.000134862
0.000131453
0.000117379
0.000108766
0.00010495
0.000104137
0.0001048
0.000106498
0.000109129
0.000112612
0.00011684
0.000121707
0.000127129
0.000133053
0.000139477
0.000146473
0.000154241
0.000163214
0.000172849
0.000183078
0.000193762
0.000204688
0.000215032
0.000211339
0.000194369
0.00017894
0.000478986
0.000561992
0.000420101
)
;
    }
    sWall
    {
        type            compressible::alphatWallFunction;
        Prt             0.85;
        value           uniform 0.000334631;
    }
    nWall
    {
        type            compressible::alphatWallFunction;
        Prt             0.85;
        value           nonuniform List<scalar> 6(0.000114961 0.000147437 0.000183146 0.000188998 0.000190452 0.000178591);
    }
    sideWalls
    {
        type            empty;
    }
    glass1
    {
        type            compressible::alphatWallFunction;
        Prt             0.85;
        value           nonuniform List<scalar> 9(0.000147132 0.000214719 0.00027045 0.000323368 0.000375077 0.000426992 0.000474864 0.000484284 0.000471991);
    }
    glass2
    {
        type            compressible::alphatWallFunction;
        Prt             0.85;
        value           nonuniform List<scalar> 2(0.000241617 0.000234126);
    }
    sun
    {
        type            compressible::alphatWallFunction;
        Prt             0.85;
        value           nonuniform List<scalar> 
14
(
0.000151123
0.000160561
0.000157883
0.000163336
0.000168292
0.00017264
0.000176538
0.000180185
0.000183617
0.000185611
0.000185686
0.000183451
0.000178984
0.000173255
)
;
    }
    Table_master
    {
        type            compressible::alphatWallFunction;
        Prt             0.85;
        value           nonuniform List<scalar> 9(0.000106514 9.55274e-05 8.6581e-05 7.94583e-05 7.37646e-05 6.91452e-05 6.53453e-05 6.22179e-05 5.97649e-05);
    }
    Table_slave
    {
        type            compressible::alphatWallFunction;
        Prt             0.85;
        value           nonuniform List<scalar> 9(0.000111729 0.00010804 0.000107819 0.000108807 0.000109642 0.000109316 0.000107 0.000103783 9.96043e-05);
    }
    inlet
    {
        type            fixedValue;
        value           uniform 1.94e-05;
    }
    outlet
    {
        type            zeroGradient;
    }
}


// ************************************************************************* //
