/*--------------------------------*- C++ -*----------------------------------*\
  =========                 |
  \\      /  F ield         | OpenFOAM: The Open Source CFD Toolbox
   \\    /   O peration     | Website:  https://openfoam.org
    \\  /    A nd           | Version:  6
     \\/     M anipulation  |
\*---------------------------------------------------------------------------*/
FoamFile
{
    version     2.0;
    format      ascii;
    class       surfaceScalarField;
    location    "600";
    object      phi;
}
// * * * * * * * * * * * * * * * * * * * * * * * * * * * * * * * * * * * * * //

dimensions      [1 0 -1 0 0 0 0];

internalField   nonuniform List<scalar> 
850
(
-0.00207539
0.00212721
-0.002042
-3.31852e-05
-0.00183832
-0.000203467
-0.00171437
-0.000123746
-0.00164058
-7.3587e-05
-0.00159405
-4.63353e-05
-0.00156282
-3.10239e-05
-0.00153777
-2.48558e-05
-0.00150923
-2.83362e-05
-0.00146524
-4.37928e-05
-0.00139106
-7.39715e-05
-0.00126856
-0.000122296
-0.00106688
-0.000201469
-0.000704448
-0.00036222
-0.000704268
-0.000460633
0.000464338
-0.000457263
-3.2306e-06
-0.000331177
-0.000125942
-0.000218443
-0.000112587
-2.14406e-05
-0.000196854
0.000164107
-0.000185396
0.000311055
-0.000146799
0.000419056
-0.000107852
0.000502696
-8.34952e-05
0.000572586
-6.9748e-05
0.000639934
-6.7208e-05
0.000688414
-4.83421e-05
0.000702409
-1.38605e-05
0.00069944
3.09939e-06
0.000712993
-1.34227e-05
0.000783313
-7.0197e-05
0.000686343
9.70875e-05
0.000690418
-0.00148701
0.0037443
-0.00185145
0.000331478
-0.00185697
-0.000197727
-0.00182835
-0.000152147
-0.00179601
-0.000105713
-0.001766
-7.6129e-05
-0.00174135
-5.54618e-05
-0.00172151
-4.44774e-05
-0.00170302
-4.66169e-05
-0.00167961
-6.69898e-05
-0.00164177
-0.000111595
-0.00157494
-0.000188909
-0.00146146
-0.000314721
-0.0013204
-0.000503057
-0.00133194
-0.000692491
-0.000616689
-0.000715241
0.000165952
-0.000782544
0.000167168
0.000733957
-0.0002625
0.000626799
0.000104114
0.00031475
0.000186287
7.87617e-05
0.00012357
-0.000160689
4.27617e-05
-5.39073e-05
-0.00029201
-5.26016e-06
-0.000195281
9.85452e-06
-0.000122809
7.19808e-06
-8.06881e-05
-1.32327e-05
-4.9175e-05
-6.18357e-05
-1.84705e-05
-0.000137005
2.69528e-05
-0.000226385
7.56307e-05
-0.000331836
0.000108653
-0.000513886
0.000168725
-0.000745223
0.000161247
-0.000786304
0.000138295
-8.64047e-05
-0.00105639
0.00498993
-0.00154519
0.000820511
-0.00171536
-2.73229e-05
-0.0017748
-9.24756e-05
-0.00178229
-9.79928e-05
-0.0017684
-8.97947e-05
-0.00175011
-7.35282e-05
-0.00173578
-5.85923e-05
-0.0017284
-5.37687e-05
-0.00172705
-6.81216e-05
-0.00172743
-0.000110987
-0.00172303
-0.000193086
-0.00171194
-0.000325573
-0.00170886
-0.000505907
-0.0017077
-0.000693406
-0.00157048
-0.000852213
-0.00134135
-0.00101142
-0.00117424
-0.00052904
0.000272043
-0.000568149
0.000143434
-0.00048273
0.000101071
-0.000405251
4.62814e-05
-0.000306271
-5.60449e-05
-0.000597957
-0.000792916
-0.000915412
-0.000995799
-0.00104469
-0.00106288
-0.00103566
-0.000959761
-0.000850825
-0.000597547
-8.43987e-05
-0.000350688
-8.54555e-05
5.01722e-06
-0.000217247
-8.11086e-05
-0.000703661
0.00593096
-0.001184
0.00130109
-0.00141169
0.000200625
-0.00155168
4.77598e-05
-0.00162504
-2.4393e-05
-0.00164235
-7.22444e-05
-0.00163463
-8.10152e-05
-0.00162345
-6.95418e-05
-0.00162156
-5.54279e-05
-0.00163513
-5.43207e-05
-0.00166688
-7.90107e-05
-0.00171908
-0.000140647
-0.0017986
-0.000245822
-0.00191692
-0.000387337
-0.00206989
-0.000540189
-0.00223705
-0.000684796
-0.00244925
-0.000798971
-0.00289681
-0.000726405
-0.00254049
-0.000356357
-0.00218517
-8.30182e-05
-0.00208977
4.82954e-05
-0.00206949
8.10599e-05
-0.00209266
6.97196e-05
-0.00217049
2.20602e-05
-0.00216247
-7.87514e-06
-0.00211942
-4.29068e-05
-0.00205303
-6.62456e-05
-0.00197311
-7.97684e-05
-0.00188466
-8.82938e-05
-0.0017893
-9.52061e-05
-0.00168501
-0.000104132
-0.00156419
-0.000120667
-0.00141024
-0.000153813
-0.0012672
-0.000227151
-0.00105424
-0.000298139
-0.000833814
-0.000437395
-0.000920872
-0.000415091
0.00662504
-0.000824533
0.00171079
-0.000899708
0.000276081
-0.00101838
0.000166708
-0.00121005
0.000167548
-0.00133794
5.58939e-05
-0.00137725
-4.14712e-05
-0.00137817
-6.83808e-05
-0.0013771
-5.62589e-05
-0.00138936
-4.18196e-05
-0.00142388
-4.42569e-05
-0.00148726
-7.7026e-05
-0.00158626
-0.000146577
-0.00172494
-0.000248401
-0.00189728
-0.000367596
-0.00209687
-0.000484947
-0.00233518
-0.000560391
-0.00255306
-0.00050825
-0.00257371
-0.000335429
-0.00249235
-0.000164101
-0.00239153
-5.22328e-05
-0.00230977
-4.22809e-07
-0.00224689
7.13347e-06
-0.00220757
-1.69609e-05
-0.00216467
-5.04771e-05
-0.00212356
-8.37155e-05
-0.00208017
-0.000109329
-0.00203242
-0.00012721
-0.00198061
-0.000139794
-0.00192532
-0.000150186
-0.00186658
-0.000162564
-0.00180367
-0.000183273
-0.00173618
-0.000220999
-0.00168109
-0.000281947
-0.00160036
-0.000378571
-0.00147809
-0.000559361
-0.0015643
-0.000834374
-0.000758705
-0.000812957
-0.000105347
-0.000660827
-9.74383e-05
-0.000315608
0.00725666
-0.00053513
0.00193058
-0.000217766
-4.09639e-05
-0.000137586
8.68424e-05
-0.000407383
0.000437641
-0.000729668
0.000378451
-0.00091195
0.000141067
-0.000976344
-3.73758e-06
-0.000995182
-3.71738e-05
-0.00100828
-2.84704e-05
-0.00103471
-1.75779e-05
-0.00108641
-2.50816e-05
-0.00117194
-6.07917e-05
-0.0012952
-0.000124879
-0.00145325
-0.000209287
-0.00164073
-0.000297196
-0.00184515
-0.000355692
-0.00201084
-0.000342273
-0.00208472
-0.000261262
-0.00208071
-0.000167817
-0.00203649
-9.61622e-05
-0.00198041
-5.62006e-05
-0.00192649
-4.64813e-05
-0.0018831
-6.00463e-05
-0.00184819
-8.50748e-05
-0.00181887
-0.000112722
-0.00179077
-0.000137108
-0.00176085
-0.000156813
-0.00172778
-0.000172547
-0.00169139
-0.000186247
-0.00165241
-0.000201227
-0.00161275
-0.000222606
-0.00157633
-0.000257109
-0.00154477
-0.000313192
-0.00151444
-0.000408593
-0.00151165
-0.000561836
-0.0016008
-0.000744912
-0.00148893
-0.000924499
-0.000975793
-0.00117361
-0.00106213
-0.000651274
0.00825754
-1.31137e-05
0.00129271
0.000883065
-0.000936794
0.00103908
-6.88256e-05
0.000645513
0.000831532
0.000201778
0.000822483
-0.000133047
0.000476164
-0.000335979
0.000199454
-0.000433599
6.07054e-05
-0.000475386
1.35797e-05
-0.000502142
9.4449e-06
-0.000538722
1.17661e-05
-0.000599182
-6.26006e-08
-0.00069053
-3.32583e-05
-0.000814326
-8.52144e-05
-0.000965597
-0.000145642
-0.00112745
-0.000193547
-0.00126454
-0.000204895
-0.00134741
-0.000178091
-0.00137769
-0.000137231
-0.00137229
-0.000101254
-0.00134845
-7.97254e-05
-0.00131938
-7.52288e-05
-0.00129357
-8.55336e-05
-0.00127351
-0.000104813
-0.0012582
-0.000127699
-0.00124467
-0.000150304
-0.00123005
-0.000171099
-0.00121226
-0.000190003
-0.00119022
-0.000207943
-0.00116422
-0.000226882
-0.0011366
-0.000249884
-0.00111218
-0.000281186
-0.00109713
-0.000327905
-0.00110258
-0.000402809
-0.00115256
-0.00051153
-0.0012688
-0.000628354
-0.00139692
-0.000796066
-0.00126702
-0.00130319
-0.00231958
0.00164728
0.00700518
0.00277462
0.00016566
0.00306095
-0.00122275
0.00240086
0.000591646
0.0016126
0.00162013
0.00109517
0.00134023
0.000752746
0.000818862
0.000512254
0.000440215
0.000353058
0.000220175
0.000259839
0.000107079
0.000209615
5.99572e-05
0.000176015
4.56586e-05
0.000136666
3.95856e-05
7.72752e-05
2.64344e-05
-7.18631e-06
-4.51439e-07
-0.000114347
-3.81755e-05
-0.000232956
-7.46273e-05
-0.000341312
-9.6224e-05
-0.000419574
-9.95088e-05
-0.000464468
-9.20122e-05
-0.000482819
-8.25745e-05
-0.000484302
-7.79101e-05
-0.000478275
-8.09204e-05
-0.000471773
-9.16967e-05
-0.000468332
-0.000107911
-0.000468691
-0.000126994
-0.000471384
-0.000147261
-0.000474131
-0.000167999
-0.000474593
-0.000189184
-0.000470753
-0.000211423
-0.000461268
-0.000236004
-0.000445873
-0.000264913
-0.000425785
-0.000300909
-0.000404981
-0.000348346
-0.000394342
-0.000413088
-0.000413545
-0.000491973
-0.000486279
-0.000555273
-0.000649075
-0.000632932
-0.000745855
-0.00120608
-0.00301943
0.00743109
0.00757794
0.00565693
0.000698719
0.00293348
0.00331553
0.00186642
0.00268757
0.00146165
0.0017453
0.00129793
0.000982877
0.00120941
0.000529021
0.00114717
0.000282712
0.00110371
0.00015086
0.00107597
8.80189e-05
0.00105739
6.45743e-05
0.0010394
5.79099e-05
0.0010124
5.37836e-05
0.000967364
4.49257e-05
0.000901356
2.81805e-05
0.000821905
5.17138e-06
0.0007428
-1.67714e-05
0.000675877
-3.22363e-05
0.000625755
-4.15395e-05
0.000591417
-4.78821e-05
0.000569315
-5.54518e-05
0.000554133
-6.53801e-05
0.000541138
-7.8341e-05
0.000526815
-9.32243e-05
0.000509226
-0.000109039
0.000488587
-0.000126254
0.000466207
-0.000145247
0.000443817
-0.000166419
0.000423279
-0.000190507
0.000406402
-0.000218748
0.000394855
-0.000252984
0.000390085
-0.000295757
0.000392613
-0.000350492
0.000400741
-0.000420838
0.00041465
-0.000505508
0.000453157
-0.000593412
0.000539017
-0.000718433
0.000490986
-0.00115769
-0.00247935
-0.00388509
0.00251146
-0.00216893
0.00159988
-0.000279987
0.00079902
0.000834865
0.000630812
0.00139768
0.000420417
0.00168955
0.000237517
0.00185326
0.000119378
0.00195318
5.13356e-05
0.00201568
2.59176e-05
0.00205263
2.80308e-05
0.00207049
4.04457e-05
0.0020723
5.23753e-05
0.00205936
5.82696e-05
0.00203153
5.64062e-05
0.00198865
4.84448e-05
0.00193609
3.61765e-05
0.0018811
2.3147e-05
0.00182936
1.05844e-05
0.00178386
-1.9912e-06
0.00174437
-1.55754e-05
0.00170865
-2.92775e-05
0.00167455
-4.38493e-05
0.00163957
-5.78527e-05
0.00160176
-7.08431e-05
0.00156086
-8.4971e-05
0.00151711
-0.000101113
0.00147103
-0.000119944
0.0014233
-0.000142385
0.0013747
-0.000169756
0.00132602
-0.000203909
0.00127798
-0.00024733
0.00123105
-0.000303174
0.00118542
-0.00037482
0.00114402
-0.00046372
0.00111858
-0.000567599
0.00109981
-0.000699296
0.000899353
-0.000956874
-0.00157005
-0.00047418
0.0029582
0.00107917
4.70779e-05
0.00171332
0.000165371
0.00223283
0.000111792
0.00268128
-2.75362e-05
0.00298465
-6.53429e-05
0.00315076
-4.62257e-05
0.00321433
-1.17227e-05
0.00321511
2.56311e-05
0.00318686
5.67735e-05
0.00315067
7.71143e-05
0.00311678
8.67364e-05
0.00308773
8.77751e-05
0.00306157
8.30272e-05
0.00303537
7.50836e-05
0.00300647
6.55151e-05
0.00297451
5.55356e-05
0.00294007
4.54529e-05
0.00290322
3.5288e-05
0.0028623
2.57579e-05
0.00281768
1.57586e-05
0.00276876
5.49057e-06
0.00271577
-4.45586e-06
0.00265954
-1.42005e-05
0.00259959
-2.46172e-05
0.00253498
-3.61005e-05
0.00246471
-4.92664e-05
0.00238764
-6.49125e-05
0.00230238
-8.40971e-05
0.00220709
-0.000108217
0.00209924
-0.000139084
0.0019755
-0.000179033
0.0018321
-0.000231037
0.0016676
-0.000298826
0.00148778
-0.000387407
0.0012921
-0.000503242
0.000995543
-0.000659951
-0.000564707
0.00450472
0.0017252
0.00463866
0.0046396
0.00475466
0.00481093
0.00472238
0.00459106
0.00447473
0.00438998
0.00434121
0.00432369
0.00432761
0.00434275
0.00436064
0.00437541
0.00438376
0.00438391
0.00437536
0.0043579
0.00433137
0.00429632
0.00425222
0.00419873
0.00413613
0.0040646
0.00398344
0.00389153
0.00378714
0.00366774
0.00352977
0.00336823
0.00317633
0.00294493
0.00266191
0.0023114
0.0018725
0.00131781
0.000606689
)
;

boundaryField
{
    floor
    {
        type            calculated;
        value           nonuniform List<scalar> 
36
(
0
0
0
0
0
0
0
0
0
0
0
0
0
0
0
0
0
0
0
-3.96418e-06
-9.34057e-06
-1.25877e-07
6.23385e-06
7.64911e-06
7.71349e-06
7.63834e-06
3.92509e-08
2.28515e-07
1.41405e-07
-3.72324e-07
-3.57119e-06
-6.34365e-07
-6.93186e-06
3.03546e-07
-5.28997e-06
2.92267e-07
)
;
    }
    ceiling
    {
        type            calculated;
        value           nonuniform List<scalar> 
43
(
0.000128472
0.000102923
4.52902e-05
4.67142e-05
5.09029e-05
5.61331e-05
6.16121e-05
6.65821e-05
7.07019e-05
7.3618e-05
7.49843e-05
7.48721e-05
7.37514e-05
7.21443e-05
7.04226e-05
6.87718e-05
6.72503e-05
6.5858e-05
6.45771e-05
6.33923e-05
6.22935e-05
6.12698e-05
6.0319e-05
5.94351e-05
5.85888e-05
5.77638e-05
5.69791e-05
5.62404e-05
5.55474e-05
5.48986e-05
5.42932e-05
5.37332e-05
5.32227e-05
5.27684e-05
5.23798e-05
5.20729e-05
5.18776e-05
5.18272e-05
5.15345e-05
5.56599e-05
2.15053e-05
1.90768e-05
2.81236e-05
)
;
    }
    sWall
    {
        type            calculated;
        value           uniform -8.37571e-05;
    }
    nWall
    {
        type            calculated;
        value           nonuniform List<scalar> 6(-1.52662e-05 -1.06764e-05 -9.24836e-06 -9.59038e-06 -9.4372e-06 -1.33068e-05);
    }
    sideWalls
    {
        type            empty;
        value           nonuniform 0();
    }
    glass1
    {
        type            calculated;
        value           nonuniform List<scalar> 9(-5.16303e-05 -0.00012988 -0.000189049 -0.000237171 -0.000278785 -0.000315795 -0.000349392 -0.000394694 -0.000447195);
    }
    glass2
    {
        type            calculated;
        value           nonuniform List<scalar> 2(-4.56758e-05 -4.8757e-05);
    }
    sun
    {
        type            calculated;
        value           uniform 0;
    }
    Table_master
    {
        type            calculated;
        value           nonuniform List<scalar> 9(-1.52891e-07 -1.52773e-07 -1.52652e-07 -1.52549e-07 -1.52457e-07 -1.52374e-07 -1.52295e-07 -1.52205e-07 -1.52078e-07);
    }
    Table_slave
    {
        type            calculated;
        value           nonuniform List<scalar> 9(1.50454e-07 1.50442e-07 1.50441e-07 1.50448e-07 1.5046e-07 1.50473e-07 1.50488e-07 1.50506e-07 1.50518e-07);
    }
    inlet
    {
        type            calculated;
        value           uniform 0.00207312;
    }
    outlet
    {
        type            calculated;
        value           nonuniform List<scalar> 2(-0.00454904 0.00267701);
    }
}


// ************************************************************************* //
