// -*- C++ -*-
// File generated by PyFoam - sorry for the ugliness

FoamFile
{
 version 2.0;
 format ascii;
 class volVectorField;
 location "2100";
 object U;
}

dimensions [ 0 1 -1 0 0 0 0 ];

internalField nonuniform List<vector> 458
(
  (0.0843396 0.0698943 0)
  (-0.139446 0.00691258 0)
  (-0.133337 0.00961482 0)
  (-0.153775 0.00889905 0)
  (-0.172467 0.00682811 0)
  (-0.188661 0.0041871 0)
  (-0.201559 0.00107929 0)
  (-0.210446 -0.00255974 0)
  (-0.214533 -0.00685694 0)
  (-0.212745 -0.0120016 0)
  (-0.203273 -0.0185181 0)
  (-0.183132 -0.0269877 0)
  (-0.150743 -0.0391674 0)
  (-0.116461 -0.058736 0)
  (-0.116379 -0.086377 0)
  (0.0193933 0.00542813 0)
  (-0.0210426 -0.0117057 0)
  (0.00175522 -0.020685 0)
  (0.0289851 -0.0257464 0)
  (0.0536996 -0.0231776 0)
  (0.0749773 -0.0128927 0)
  (0.0841775 -0.00713896 0)
  (0.0848414 -0.0044711 0)
  (0.0824068 -0.0028878 0)
  (0.0795833 -0.00179036 0)
  (0.0767381 -0.00104865 0)
  (0.0737867 -0.000506 0)
  (0.0705984 6.85497e-05 0)
  (0.0667113 0.00102856 0)
  (0.061147 0.00271133 0)
  (0.0528895 0.00474897 0)
  (0.0446202 0.00705507 0)
  (-0.00581492 0.0221039 0)
  (0.281769 0.151407 0)
  (-0.158545 0.0292725 0)
  (-0.119401 0.0325455 0)
  (-0.145214 0.0310845 0)
  (-0.165155 0.0280102 0)
  (-0.182303 0.0240151 0)
  (-0.196249 0.0190674 0)
  (-0.206488 0.0129569 0)
  (-0.212336 0.00542 0)
  (-0.212826 -0.00382586 0)
  (-0.207146 -0.0146563 0)
  (-0.194487 -0.0270312 0)
  (-0.176035 -0.0421561 0)
  (-0.158488 -0.0619588 0)
  (-0.146523 -0.0788361 0)
  (-0.114123 -0.0615601 0)
  (-0.0616312 -0.0660615 0)
  (-0.021876 0.0746831 0)
  (0.0917667 0.0220754 0)
  (-0.00945588 -0.00423223 0)
  (0.00311079 -0.0239318 0)
  (0.0201676 -0.0389929 0)
  (0.0347022 -0.041811 0)
  (0.0569625 -0.0161937 0)
  (0.0607648 -0.00282251 0)
  (0.0582593 0.00235181 0)
  (0.0557578 0.00475147 0)
  (0.054274 0.00585619 0)
  (0.0533104 0.00612825 0)
  (0.052648 0.0060992 0)
  (0.052216 0.00632355 0)
  (0.0514487 0.00754412 0)
  (0.0486258 0.0111903 0)
  (0.0415417 0.0149685 0)
  (0.0407559 0.0187178 0)
  (-0.0513559 0.0450091 0)
  (0.452129 0.231531 0)
  (-0.202006 0.0592972 0)
  (-0.0958343 0.0571354 0)
  (-0.127219 0.0506488 0)
  (-0.145603 0.0442597 0)
  (-0.161753 0.0368359 0)
  (-0.175243 0.02792 0)
  (-0.185669 0.0172083 0)
  (-0.192374 0.00453596 0)
  (-0.194385 -0.00998811 0)
  (-0.190903 -0.0261958 0)
  (-0.182469 -0.0436915 0)
  (-0.170962 -0.0620638 0)
  (-0.159974 -0.0800482 0)
  (-0.148731 -0.0913848 0)
  (-0.130245 -0.0896647 0)
  (-0.115722 -0.0980401 0)
  (-0.134647 -0.0994583 0)
  (0.0940653 0.0287481 0)
  (-0.0267631 -0.00305667 0)
  (-0.0113386 -0.0290318 0)
  (-0.00046504 -0.053794 0)
  (0.00276264 -0.0702956 0)
  (0.0410042 -0.0381644 0)
  (0.0245131 -0.0121896 0)
  (0.0122588 -0.00329516 0)
  (0.0149197 -0.000554672 0)
  (0.0198565 0.000219692 0)
  (0.0238812 8.25366e-05 0)
  (0.0274125 -0.000249137 0)
  (0.031021 -0.000138733 0)
  (0.0353643 0.00294775 0)
  (0.0390535 0.0171125 0)
  (0.0334373 0.025489 0)
  (0.0459 0.0323464 0)
  (-0.093919 0.0685067 0)
  (0.593822 0.298493 0)
  (-0.25128 0.092738 0)
  (-0.0655454 0.0798359 0)
  (-0.103334 0.0687727 0)
  (-0.117977 0.0605185 0)
  (-0.131415 0.0513505 0)
  (-0.143189 0.0403245 0)
  (-0.152875 0.0268947 0)
  (-0.159765 0.0106828 0)
  (-0.162704 -0.00828591 0)
  (-0.160474 -0.0292383 0)
  (-0.15465 -0.0506973 0)
  (-0.147142 -0.0708722 0)
  (-0.140255 -0.0873763 0)
  (-0.13378 -0.0966521 0)
  (-0.127061 -0.0981535 0)
  (-0.127101 -0.0950228 0)
  (-0.138567 -0.0701542 0)
  (-0.125425 -0.00423082 0)
  (-0.0679698 0.00263646 0)
  (-0.0568835 -0.0137258 0)
  (-0.0340617 -0.039116 0)
  (-0.0289888 -0.0608062 0)
  (-0.0355761 -0.0679947 0)
  (-0.0322241 -0.0412126 0)
  (0.0107027 -0.0270862 0)
  (0.03465 -0.0217737 0)
  (0.0556972 -0.0186466 0)
  (0.0747502 -0.0161776 0)
  (0.0912627 -0.0134608 0)
  (0.103763 -0.00973384 0)
  (0.109913 -0.00444051 0)
  (0.106907 0.0029421 0)
  (0.0913468 0.0192223 0)
  (0.071507 0.0359292 0)
  (0.0729032 0.0524183 0)
  (-0.0847825 0.0948198 0)
  (0.707008 0.353475 0)
  (-0.295986 0.126171 0)
  (-0.0331424 0.0950406 0)
  (-0.0750988 0.0818446 0)
  (-0.0851538 0.0726308 0)
  (-0.0944569 0.0623909 0)
  (-0.10299 0.0499004 0)
  (-0.110389 0.0343931 0)
  (-0.116071 0.0152642 0)
  (-0.118575 -0.00749366 0)
  (-0.116107 -0.0323386 0)
  (-0.111308 -0.0564097 0)
  (-0.10601 -0.0770338 0)
  (-0.101848 -0.0921987 0)
  (-0.0990496 -0.100624 0)
  (-0.0978915 -0.103254 0)
  (-0.100006 -0.100838 0)
  (-0.102183 -0.0869684 0)
  (-0.0947309 -0.0554675 0)
  (-0.074859 -0.0347459 0)
  (-0.0523153 -0.0345404 0)
  (-0.0364686 -0.0493865 0)
  (-0.0306257 -0.0637694 0)
  (-0.0274895 -0.0664909 0)
  (-0.0182458 -0.0509626 0)
  (0.00137825 -0.0403165 0)
  (0.0213535 -0.03332 0)
  (0.0388741 -0.0295415 0)
  (0.0554183 -0.0262483 0)
  (0.0705944 -0.0217001 0)
  (0.0835769 -0.0141058 0)
  (0.0931415 -0.00175606 0)
  (0.0972433 0.0145033 0)
  (0.0945045 0.0337927 0)
  (0.0857279 0.0525331 0)
  (0.0986309 0.0719358 0)
  (0.045513 0.0975941 0)
  (0.101287 0.116238 0)
  (0.122653 0.130524 0)
  (-0.174195 0.16513 0)
  (0.780006 0.402127 0)
  (-0.33122 0.154467 0)
  (-0.00905772 0.0956798 0)
  (-0.041212 0.0897699 0)
  (-0.047497 0.0810101 0)
  (-0.0528374 0.069485 0)
  (-0.0572363 0.0559276 0)
  (-0.060802 0.0393517 0)
  (-0.0635156 0.0185509 0)
  (-0.0630956 -0.00719166 0)
  (-0.0586768 -0.0355346 0)
  (-0.0543006 -0.0610874 0)
  (-0.0511774 -0.0809882 0)
  (-0.0500621 -0.094232 0)
  (-0.0509016 -0.100785 0)
  (-0.0536287 -0.101429 0)
  (-0.0578261 -0.0960617 0)
  (-0.0604192 -0.0828023 0)
  (-0.0568959 -0.0640239 0)
  (-0.0469023 -0.0500794 0)
  (-0.0352319 -0.0481858 0)
  (-0.0278808 -0.0567281 0)
  (-0.0253837 -0.0675667 0)
  (-0.0231437 -0.0708383 0)
  (-0.0171183 -0.0631347 0)
  (-0.00722716 -0.0549646 0)
  (0.00567144 -0.0488896 0)
  (0.0180972 -0.0453096 0)
  (0.0307354 -0.0419567 0)
  (0.0433364 -0.0369223 0)
  (0.0557161 -0.0279681 0)
  (0.0676128 -0.0125043 0)
  (0.0791447 0.00983862 0)
  (0.0848981 0.0335838 0)
  (0.0865103 0.0549379 0)
  (0.0994125 0.0742438 0)
  (0.0929438 0.0784729 0)
  (0.10052 0.0402434 0)
  (0.124755 0.00596695 0)
  (-0.199433 0.0921482 0)
  (0.801056 0.446015 0)
  (-0.344572 0.149352 0)
  (0.00813545 0.0540911 0)
  (0.0117606 0.0880178 0)
  (0.00515506 0.0934595 0)
  (-0.00141251 0.0766349 0)
  (-0.00337902 0.0584924 0)
  (-0.00303297 0.0405093 0)
  (-0.00213549 0.0179296 0)
  (0.00532582 -0.0113447 0)
  (0.0121129 -0.0411193 0)
  (0.014771 -0.0650812 0)
  (0.0141117 -0.0822104 0)
  (0.0105968 -0.0927767 0)
  (0.00484327 -0.0974201 0)
  (-0.00268495 -0.0968694 0)
  (-0.0105621 -0.0912812 0)
  (-0.0166691 -0.0805398 0)
  (-0.0186908 -0.0671402 0)
  (-0.0168627 -0.0562444 0)
  (-0.0143854 -0.0525347 0)
  (-0.0147804 -0.0573697 0)
  (-0.0178484 -0.0671179 0)
  (-0.0202923 -0.0723576 0)
  (-0.0196158 -0.068249 0)
  (-0.0166495 -0.0622626 0)
  (-0.0120573 -0.0580072 0)
  (-0.00635096 -0.0552548 0)
  (0.000369974 -0.0526992 0)
  (0.00796243 -0.0486164 0)
  (0.0166241 -0.040953 0)
  (0.0269311 -0.026706 0)
  (0.0425509 -0.00245864 0)
  (0.0581258 0.0247081 0)
  (0.0679414 0.0464968 0)
  (0.0826447 0.0635985 0)
  (0.0931499 0.0665765 0)
  (0.102442 0.049298 0)
  (0.152807 0.0562553 0)
  (-0.140888 0.153082 0)
  (0.897517 0.462787 0)
  (-0.123251 0.130941 0)
  (0.0830983 -0.0259236 0)
  (0.132862 0.024001 0)
  (0.111393 0.0617175 0)
  (0.089841 0.0578372 0)
  (0.0824205 0.0411194 0)
  (0.0819504 0.0227976 0)
  (0.08399 -1.78372e-05 0)
  (0.0927944 -0.0246743 0)
  (0.0964878 -0.0467582 0)
  (0.0936103 -0.0645624 0)
  (0.0860997 -0.0772567 0)
  (0.0754958 -0.0848292 0)
  (0.0630151 -0.0876788 0)
  (0.049722 -0.0864281 0)
  (0.0366996 -0.0815434 0)
  (0.0252754 -0.0734208 0)
  (0.0167298 -0.0634792 0)
  (0.0109962 -0.0544835 0)
  (0.00613768 -0.0493943 0)
  (-0.00055691 -0.0511878 0)
  (-0.00968077 -0.0605951 0)
  (-0.0183604 -0.068223 0)
  (-0.0238813 -0.066292 0)
  (-0.0277745 -0.0618514 0)
  (-0.0306427 -0.058922 0)
  (-0.0326257 -0.0572381 0)
  (-0.0339573 -0.0557056 0)
  (-0.0345442 -0.0530919 0)
  (-0.0339488 -0.048126 0)
  (-0.0314016 -0.0394789 0)
  (-0.0246555 -0.0257906 0)
  (0.00435427 -0.00370465 0)
  (0.0204291 0.0169527 0)
  (0.0377344 0.0271674 0)
  (0.0534765 0.0222762 0)
  (0.0665896 0.00342391 0)
  (0.151121 0.0607805 0)
  (-0.43461 0.243324 0)
  (1.0283 0.430466 0)
  (0.487033 0.283615 0)
  (0.497923 0.19706 0)
  (0.488068 0.177521 0)
  (0.402858 0.160735 0)
  (0.325352 0.129017 0)
  (0.279356 0.0927153 0)
  (0.252492 0.0583378 0)
  (0.235899 0.0266882 0)
  (0.218713 -0.0029036 0)
  (0.198926 -0.0280908 0)
  (0.178274 -0.0471847 0)
  (0.157234 -0.0600866 0)
  (0.13609 -0.0675636 0)
  (0.11527 -0.0705476 0)
  (0.0952983 -0.0698862 0)
  (0.0767332 -0.0662762 0)
  (0.0601754 -0.0603811 0)
  (0.0460997 -0.0531662 0)
  (0.0343312 -0.0460671 0)
  (0.0237073 -0.0408621 0)
  (0.0126 -0.0401661 0)
  (-0.00143862 -0.0481205 0)
  (-0.0167255 -0.0582001 0)
  (-0.0282616 -0.0580012 0)
  (-0.0386064 -0.0543927 0)
  (-0.0487482 -0.0520583 0)
  (-0.0587822 -0.0506249 0)
  (-0.0690863 -0.0489933 0)
  (-0.0799826 -0.0459122 0)
  (-0.0918637 -0.0399376 0)
  (-0.105404 -0.029384 0)
  (-0.121111 -0.0126176 0)
  (-0.137564 0.0108073 0)
  (-0.150923 0.0370725 0)
  (-0.177824 0.065201 0)
  (-0.220732 0.0950837 0)
  (-0.27267 0.125949 0)
  (-0.345247 0.154509 0)
  (-0.650263 0.178953 0)
  (-0.541605 0.000887847 0)
  (0.184281 0.139653 0)
  (0.250605 0.154072 0)
  (0.242702 0.135932 0)
  (0.243912 0.104601 0)
  (0.246135 0.0694234 0)
  (0.24433 0.0370621 0)
  (0.237896 0.0105524 0)
  (0.225706 -0.0104288 0)
  (0.208666 -0.0261763 0)
  (0.188393 -0.037282 0)
  (0.166258 -0.0443423 0)
  (0.143512 -0.0479405 0)
  (0.121203 -0.0486503 0)
  (0.100141 -0.0470137 0)
  (0.08093 -0.0435579 0)
  (0.0638977 -0.038889 0)
  (0.0489017 -0.03378 0)
  (0.0351615 -0.029313 0)
  (0.0214289 -0.0275613 0)
  (0.0059836 -0.0329521 0)
  (-0.0141414 -0.0441905 0)
  (-0.0302173 -0.0452902 0)
  (-0.045099 -0.041681 0)
  (-0.0605426 -0.0390729 0)
  (-0.0762425 -0.0369632 0)
  (-0.0922606 -0.0342769 0)
  (-0.108522 -0.0299627 0)
  (-0.124634 -0.0230218 0)
  (-0.139787 -0.0124941 0)
  (-0.152463 0.00259964 0)
  (-0.160274 0.0228705 0)
  (-0.164997 0.0482375 0)
  (-0.16971 0.0750287 0)
  (-0.172861 0.0939512 0)
  (-0.165302 0.0838643 0)
  (-0.155588 0.00240249 0)
  (-0.288852 -0.200614 0)
  (-0.243558 0.183068 0)
  (0.117471 0.123768 0)
  (0.0897651 0.106961 0)
  (0.116481 0.105257 0)
  (0.15166 0.0853615 0)
  (0.179333 0.056676 0)
  (0.196419 0.0307616 0)
  (0.202967 0.0108154 0)
  (0.200926 -0.00359915 0)
  (0.191753 -0.01381 0)
  (0.177428 -0.0209054 0)
  (0.159718 -0.025499 0)
  (0.140123 -0.0280141 0)
  (0.119889 -0.0288158 0)
  (0.100044 -0.0282268 0)
  (0.0814079 -0.0265365 0)
  (0.0645521 -0.0240506 0)
  (0.0496779 -0.0211897 0)
  (0.0363928 -0.0186676 0)
  (0.0234967 -0.0176058 0)
  (0.0106593 -0.0195918 0)
  (-0.00791946 -0.0268319 0)
  (-0.0268634 -0.0295663 0)
  (-0.0429342 -0.0268369 0)
  (-0.0594344 -0.0253821 0)
  (-0.0754987 -0.0243682 0)
  (-0.0908109 -0.0229936 0)
  (-0.104991 -0.0205772 0)
  (-0.11725 -0.0163977 0)
  (-0.126197 -0.00950421 0)
  (-0.129824 0.00162427 0)
  (-0.126648 0.0184811 0)
  (-0.11496 0.0417829 0)
  (-0.0955839 0.0695567 0)
  (-0.0707989 0.0930019 0)
  (-0.0469395 0.0975755 0)
  (0.127452 0.015353 0)
  (-0.225076 -0.116242 0)
  (0.000659085 -0.282523 0)
  (-0.355435 -0.0926109 0)
  (-0.290458 0.0966266 0)
  (-0.141824 0.0342166 0)
  (-0.100241 0.0440435 0)
  (-0.0224789 0.0621781 0)
  (0.0562176 0.0513445 0)
  (0.104345 0.0342361 0)
  (0.138586 0.0206002 0)
  (0.156952 0.0112097 0)
  (0.161702 0.00511982 0)
  (0.157469 0.00112397 0)
  (0.146892 -0.00134801 0)
  (0.132224 -0.00250716 0)
  (0.115142 -0.0024038 0)
  (0.0969498 -0.00101309 0)
  (0.0787307 0.0017697 0)
  (0.0614025 0.00615647 0)
  (0.0457724 0.0124612 0)
  (0.0326129 0.0209333 0)
  (0.0226664 0.0310288 0)
  (0.0161357 0.0398504 0)
  (0.0128426 0.0411673 0)
  (0.00757256 0.0225164 0)
  (-0.0203795 0.00360969 0)
  (-0.0364817 0.00963318 0)
  (-0.0513091 0.0116378 0)
  (-0.0651295 0.0121892 0)
  (-0.078025 0.0126034 0)
  (-0.0896193 0.0133796 0)
  (-0.0989891 0.0147608 0)
  (-0.104311 0.0169619 0)
  (-0.102698 0.0204099 0)
  (-0.0902834 0.0269329 0)
  (-0.065086 0.0385188 0)
  (-0.0316976 0.055516 0)
  (0.0323176 0.0764009 0)
  (0.0781928 0.0655306 0)
  (0.161212 0.0334883 0)
  (-0.203376 -0.034676 0)
)
;

boundaryField
{
  floor
  {
    type noSlip;
  }
  ceiling
  {
    type noSlip;
  }
  sWall
  {
    type noSlip;
  }
  nWall
  {
    type noSlip;
  }
  sideWalls
  {
    type empty;
  }
  glass1
  {
    type noSlip;
  }
  glass2
  {
    type noSlip;
  }
  sun
  {
    type noSlip;
  }
  Table_master
  {
    type noSlip;
  }
  Table_slave
  {
    type noSlip;
  }
  inlet
  {
    type fixedValue;
    value uniform (0.212132 -0.212132 0);
  }
  outlet
  {
    type zeroGradient;
  }
} 	// ************************************************************************* //

