/*--------------------------------*- C++ -*----------------------------------*\
  =========                 |
  \\      /  F ield         | OpenFOAM: The Open Source CFD Toolbox
   \\    /   O peration     | Website:  https://openfoam.org
    \\  /    A nd           | Version:  6
     \\/     M anipulation  |
\*---------------------------------------------------------------------------*/
FoamFile
{
    version     2.0;
    format      ascii;
    class       volScalarField;
    location    "300";
    object      alphat;
}
// * * * * * * * * * * * * * * * * * * * * * * * * * * * * * * * * * * * * * //

dimensions      [1 -1 -1 0 0 0 0];

internalField   nonuniform List<scalar> 
458
(
0.00080452
0.000831388
0.000791762
0.000822627
0.000852273
0.000878949
0.000903128
0.000925605
0.000947335
0.000969569
0.000989699
0.00100587
0.00101815
0.00102819
0.00103586
0.000438791
0.000521996
0.000528061
0.000432907
0.0003411
0.000287562
0.000270345
0.000270125
0.000268306
0.000248941
0.000226144
0.000212281
0.000222413
0.000239371
0.000292572
0.000415759
0.000459578
0.000407125
0.00131998
0.00215757
0.00167038
0.00204931
0.00219666
0.00235346
0.00251292
0.00266238
0.00278468
0.00285708
0.0028843
0.00283724
0.0026697
0.0023108
0.0017086
0.00110661
0.00106432
0.000767863
0.000570986
0.00149135
0.00174403
0.00171452
0.00140712
0.00105351
0.000864225
0.000814045
0.000729499
0.000574041
0.000401617
0.000296788
0.000296367
0.000423363
0.000927322
0.00149025
0.0016698
0.00057123
0.00177399
0.00340714
0.00180171
0.00298267
0.00326605
0.00344943
0.00360858
0.00374292
0.00384966
0.0039226
0.00396467
0.00395563
0.00386177
0.00363647
0.00324005
0.00268145
0.00194286
0.00114205
0.000960096
0.00272021
0.00254239
0.00210067
0.00162723
0.000593678
0.000487283
0.000429166
0.000386593
0.000349974
0.000314726
0.000281413
0.000335091
0.00056472
0.00154794
0.00203821
0.00174774
0.000641717
0.00221626
0.00509994
0.00187053
0.0033624
0.00391997
0.00410419
0.00422934
0.0043233
0.00439442
0.00444705
0.00448817
0.0045207
0.00453241
0.00448962
0.00431916
0.00390583
0.00313599
0.00206328
0.00119366
0.0025757
0.00303389
0.00259763
0.00198894
0.0013717
0.000902133
0.000917947
0.000948987
0.000991123
0.00104306
0.00111465
0.00116828
0.00120119
0.00120531
0.00165617
0.00208543
0.0024753
0.0010902
0.00264093
0.00710642
0.00231659
0.00321059
0.00421847
0.00444527
0.00454906
0.00460864
0.00464028
0.0046581
0.00467232
0.00471793
0.00481274
0.00495925
0.00513768
0.00530989
0.00543154
0.00543255
0.00521867
0.00500121
0.00467476
0.00436117
0.00417042
0.00408171
0.00405993
0.00416914
0.00434683
0.00457122
0.00481175
0.00503581
0.00518952
0.00523076
0.00515903
0.0050244
0.00457725
0.00404008
0.00280198
0.00127235
0.00120428
0.00109366
0.00304937
0.00906401
0.003516
0.00279755
0.00407457
0.00450515
0.00467995
0.00476088
0.00476793
0.00472056
0.00463936
0.00462121
0.00467952
0.00482033
0.00504065
0.00532049
0.00560452
0.00577466
0.00571571
0.00546752
0.00518866
0.00502414
0.00499454
0.0050323
0.00508635
0.0051757
0.00532635
0.0055257
0.00573482
0.00591025
0.00601402
0.00601794
0.0059446
0.00586821
0.0058064
0.0055257
0.0049859
0.00438553
0.00385395
0.00131737
0.00345128
0.0105909
0.00596534
0.00305681
0.00302515
0.00373825
0.00431755
0.00467989
0.00484589
0.00477041
0.00454779
0.00443987
0.00441403
0.0044653
0.00459581
0.00480301
0.0050504
0.00523832
0.00526395
0.00512884
0.00495716
0.00489374
0.0049739
0.00511934
0.00525558
0.00538583
0.00555202
0.0057555
0.00595185
0.00608152
0.00610624
0.00603209
0.00591671
0.00585489
0.0059424
0.00613847
0.00603175
0.0055179
0.00487092
0.00150012
0.003564
0.0110881
0.00821862
0.00571645
0.00400586
0.00342111
0.0036961
0.00419768
0.00457829
0.00451935
0.00432838
0.00418157
0.00409917
0.00407368
0.00409848
0.00417404
0.00429581
0.00442316
0.00448454
0.00444632
0.00436318
0.00434327
0.00446907
0.00472101
0.00503135
0.00534002
0.00563581
0.00591636
0.00614565
0.00625435
0.00619584
0.00598434
0.0056926
0.00542264
0.00524928
0.00513861
0.0048659
0.00428442
0.00373452
0.00152696
0.00348269
0.00423624
0.00462813
0.0046366
0.00429357
0.00387159
0.00358855
0.00348301
0.00348953
0.00352466
0.00355733
0.00357852
0.00358789
0.00358835
0.00358461
0.00358356
0.00359232
0.00360954
0.00361994
0.0036092
0.00358834
0.00359832
0.00369658
0.00393585
0.00434636
0.00490644
0.00549961
0.00598302
0.00634997
0.00654868
0.00650836
0.00620495
0.00566915
0.00497831
0.0042428
0.00356165
0.00299941
0.00261229
0.00233665
0.00164797
0.00228368
0.00340877
0.00380208
0.0037819
0.00364868
0.00352178
0.00342479
0.00334821
0.00329199
0.00324579
0.00320086
0.00315136
0.00309501
0.00303328
0.00297079
0.0029135
0.00286645
0.00283384
0.00282263
0.00284601
0.00292555
0.00309393
0.00340014
0.00390709
0.00464263
0.00548984
0.00625062
0.00676389
0.00705678
0.00726402
0.00746762
0.00765633
0.00767268
0.00733145
0.00666162
0.00598649
0.00549035
0.0017471
0.00244194
0.00378208
0.00402672
0.00395242
0.00379672
0.00362866
0.00347385
0.00333766
0.00320273
0.00305742
0.00291265
0.00277485
0.0026478
0.00253409
0.00243631
0.00235818
0.00230527
0.00228543
0.00230853
0.00238532
0.00252591
0.00273923
0.00303496
0.00342055
0.00389184
0.00445508
0.00505757
0.00559274
0.00597776
0.00625585
0.00650434
0.00674521
0.00690895
0.00685489
0.00648719
0.00577676
0.00508218
0.00166612
0.00216723
0.00226937
0.00236061
0.00251414
0.00237944
0.00219394
0.00205022
0.00192335
0.00180907
0.00170413
0.00160927
0.00152396
0.00144413
0.00136743
0.0012925
0.00121877
0.00114635
0.00107605
0.00100932
0.000948201
0.000894977
0.000851862
0.000820697
0.000802832
0.000799217
0.000811443
0.000842745
0.000889522
0.000948869
0.00101851
0.0010954
0.00117998
0.00127714
0.00139172
0.00151494
0.00160795
0.00161039
0.00153758
0.00148141
0.0013351
)
;

boundaryField
{
    floor
    {
        type            compressible::alphatWallFunction;
        Prt             0.85;
        value           nonuniform List<scalar> 
36
(
0.000147367
5.97971e-05
7.26046e-05
7.35264e-05
5.88715e-05
4.43335e-05
3.56252e-05
3.27808e-05
3.27446e-05
3.2443e-05
2.92121e-05
2.53642e-05
2.29983e-05
2.47296e-05
2.76028e-05
3.64496e-05
5.61821e-05
6.30053e-05
5.48253e-05
5.48246e-05
8.00432e-05
9.05832e-05
0.000154946
0.000180119
0.000170765
0.000155435
0.000147365
0.00015725
0.000151349
0.000109142
5.97963e-05
0.00010914
8.00249e-05
0.000162169
0.00013668
0.000169308
)
;
    }
    ceiling
    {
        type            compressible::alphatWallFunction;
        Prt             0.85;
        value           nonuniform List<scalar> 
43
(
0.000298901
0.000312057
0.000323759
0.000343381
0.000326225
0.000302411
0.000283808
0.000267268
0.000252266
0.000238399
0.000225783
0.000214365
0.000203618
0.000193227
0.000183013
0.000172897
0.000162893
0.00015311
0.000143757
0.000135126
0.000127556
0.000121385
0.0001169
0.000114318
0.000113793
0.000115557
0.000120064
0.000126764
0.000135207
0.000145035
0.000155797
0.000167534
0.000180898
0.000196513
0.000213144
0.000225597
0.000225924
0.000216184
0.000208634
0.00018882
0.000464475
0.00055611
0.000334117
)
;
    }
    sWall
    {
        type            compressible::alphatWallFunction;
        Prt             0.85;
        value           uniform 0.000297779;
    }
    nWall
    {
        type            compressible::alphatWallFunction;
        Prt             0.85;
        value           nonuniform List<scalar> 6(0.000155221 0.000186055 0.000210801 0.000243735 0.000233001 0.000188486);
    }
    sideWalls
    {
        type            empty;
    }
    glass1
    {
        type            compressible::alphatWallFunction;
        Prt             0.85;
        value           nonuniform List<scalar> 9(0.000111353 0.000182419 0.000242566 0.000299669 0.000353447 0.000404373 0.000453829 0.000467714 0.000457986);
    }
    glass2
    {
        type            compressible::alphatWallFunction;
        Prt             0.85;
        value           nonuniform List<scalar> 2(0.000213151 0.000229304);
    }
    sun
    {
        type            compressible::alphatWallFunction;
        Prt             0.85;
        value           nonuniform List<scalar> 
14
(
0.000114473
0.00011833
0.00011261
0.000117068
0.000121331
0.000125153
0.000128604
0.000131803
0.000134887
0.000138034
0.000140876
0.000143153
0.00014488
0.00014629
)
;
    }
    Table_master
    {
        type            compressible::alphatWallFunction;
        Prt             0.85;
        value           nonuniform List<scalar> 9(8.35387e-05 6.73953e-05 5.83929e-05 5.16997e-05 4.58659e-05 4.01743e-05 3.47169e-05 4.34703e-05 7.91838e-05);
    }
    Table_slave
    {
        type            compressible::alphatWallFunction;
        Prt             0.85;
        value           nonuniform List<scalar> 9(0.000128555 0.000130807 0.000135215 0.000141171 0.000148472 0.000158467 0.000165905 0.000170451 0.000171019);
    }
    inlet
    {
        type            fixedValue;
        value           uniform 1.94e-05;
    }
    outlet
    {
        type            zeroGradient;
    }
}


// ************************************************************************* //
