/*--------------------------------*- C++ -*----------------------------------*=========                 |
  \      /  F ield         | OpenFOAM: The Open Source CFD Toolbox
   \    /   O peration     | Website:  https://openfoam.org
    \  /    A nd           | Version:  6
     \/     M anipulation  |
\*---------------------------------------------------------------------------*/
FoamFile
{
    version     2.0;
    format      ascii;
    class       volScalarField;
    location    "900";
    object      PPD;
}
// * * * * * * * * * * * * * * * * * * * * * * * * * * * * * * * * * * * * * //

dimensions      [0 0 0 0 0 0 0];

internalField   nonuniform List<scalar> 
458
(
93.60832464693614
90.3523168831611
90.43597839317324
90.30076110731483
90.19182550420825
90.11244545027643
90.03637163264658
89.9935419653107
89.98712584940014
90.0086881764034
90.07099339894145
90.1601098433964
90.3352570642187
90.48180491744651
90.18937635225645
73.66913706263898
73.96631374461933
74.28475650584689
73.94350433040535
73.8978602490007
74.05746702111406
73.85218255531318
73.57741447274637
73.41658151805083
73.3705551560693
73.393572441225
73.32449599656726
73.30145414014285
73.57741447274637
74.35277700488625
75.43045164749958
75.47491217629195
75.27455740942105
94.61599372218893
90.92804569281824
91.152223650037
91.04997316817374
91.02148393803716
91.02557227180807
91.01937451282471
91.0279861956932
91.02540094156393
91.0286089576713
91.01336135255153
90.94619649497203
90.81926170687557
90.52408247606007
89.99105594223231
89.80230167747506
89.7187369933066
89.69267968941406
74.47321450543882
76.48744447559784
76.89992906030824
76.9215442023419
76.20326849287785
76.11551417580804
75.96158921098453
75.8292957514358
75.8292957514358
76.00561374650174
76.42200516084868
77.30898334127
78.24281923471966
79.34203385132224
80.53162523034597
80.27265446598608
79.40339728331085
77.191467586839
95.95338111554243
91.34971861920974
91.81248322385244
91.73949481805023
91.82774989013302
91.94143864942265
92.04066743721553
92.13581301750938
92.2027335671367
92.24360427909986
92.23418124659872
92.13333956022862
91.89941392603089
91.46000020972602
90.80604830914433
90.10765710481179
89.22253322370943
88.28572007422562
82.36874317124204
81.97114290409031
82.21785242153268
82.72425225938514
82.76143953710209
78.13766094953345
78.49418222007965
79.21902905513463
79.93130583563268
80.63075088864153
81.37533575326127
82.19894114889826
83.3320885929127
84.96112318695978
86.93799308214992
86.31408295464229
85.63885481080003
85.37557679876561
97.07522966873617
91.96801978306962
92.395531160863
92.32032039050443
92.52630268803287
92.73620872319792
92.9442485430022
93.1389353179018
93.29937235747718
93.40706618989627
93.44030354916075
93.36877461391403
93.13533291199718
92.68627138674381
92.02350706110978
91.10486079925055
89.8200608931011
88.08557307614952
86.65196463482623
86.08793575535212
87.05698068274664
88.09775812943937
88.88178106242299
89.2741549774273
89.61468996540339
89.77590804813349
89.94013077981477
90.13032688904696
90.3492444733523
90.52230270907106
90.58615288179863
90.61161120960524
90.56064785329643
90.04071493665404
89.78716483005404
89.50197501600496
89.28119144097356
97.92160725277422
92.78982794741933
92.97291520964589
92.82822934697998
93.08439214374182
93.37316252554874
93.6787975875434
93.95894247405718
94.20377185095717
94.38895169382283
94.48416608616428
94.45678737006081
94.28650824050824
93.95895276589604
93.46671069275631
92.79697297300129
91.95514637242057
91.06455506179591
90.36875032449089
89.9587374585406
89.97143994526346
90.1284088534543
90.25913187760464
90.30548626600792
90.33805844717855
90.3870242213244
90.45427188451933
90.56377390765437
90.69022699656017
90.85891109249764
91.03580483293759
91.1354807060244
91.19648309401964
91.19648309401964
91.23294584025989
91.23294584025989
91.01260793724454
90.57718934503816
90.03607722607838
90.63301829723777
98.49977802736606
93.86389461558946
93.90544162414311
93.50130110761214
93.61089271407346
93.9173527146945
94.27430320703311
94.63346032818279
94.94839762764003
95.1970260156876
95.29891241256006
95.2820674712221
95.15712923717184
94.92928262041634
94.58910890189907
94.12525898852608
93.55719996315493
92.93955336573758
92.39840960874812
91.982762490714
91.73125419573526
91.56611731622363
91.43188100368096
91.30188623505514
91.19675886484272
91.11367327521464
91.06374475083577
91.0571301378246
91.06623656861294
91.12203348687397
91.18388179142411
91.25925350628188
91.31982926724622
91.35313749080545
91.4100466584498
91.51456860723252
91.6103266669492
91.61217595670965
91.00388125723651
90.02095884779759
98.89565396472881
95.40049438147496
95.77246427474964
94.82963031156471
94.42690910433105
94.5497568648875
94.90383491420299
95.1567500707481
95.38942377626414
95.64273998557785
95.75845815427769
95.68404403861761
95.59458519290273
95.46306854066307
95.28161184460511
95.02171895488614
94.68849308139094
94.32948446397216
93.97521663121357
93.62950853719444
93.21339068187612
92.85196147069118
92.55308393690377
92.28994227410661
92.0657086484743
91.8830615922336
91.73254737026343
91.61543072537651
91.5446111652254
91.5446111652254
91.49249310782072
91.40875253275094
91.32310951415256
91.22601803047401
91.13272882597049
91.03757049281165
90.96196808387892
90.9788554040508
91.1397840152857
89.12645920469154
100.0
97.89999976559346
97.40968880612785
96.66211391294108
95.95844519809988
95.5551041480369
95.38996263345264
95.36021339086004
95.4218906932052
95.51555286388312
95.57763369154185
95.5869487105437
95.5603296926986
95.49811943371499
95.41643224496653
95.3087748663839
95.17804259388969
95.02198908620349
94.82456159980164
94.45813940127388
94.08199104572736
93.71620966596252
93.38411504515284
93.08071358069284
92.79922830646133
92.54224842584338
92.32318837999662
92.12219062892841
91.95189488400659
91.84849136619138
91.81381863349237
91.84849136619138
91.7526430806785
91.45012461478645
91.13689415697573
90.83242877439751
90.60149588680528
90.4465189256026
90.24617755453392
89.57939523867793
100.0
100.0
98.43403706284887
97.7964658580108
97.14541557088259
96.61700465477443
96.22442348940132
95.96356494939235
95.81650115992718
95.70982672689456
95.60044529810888
95.50608377421223
95.41460526318781
95.32935445519054
95.26115125057011
95.19518020342272
95.12408778467714
95.0462443198589
94.92984568861307
94.7801961164545
94.59075962647887
94.37934972865767
94.10946560719223
93.82100631549987
93.53215761411047
93.26392955476555
93.0085060250029
92.75684257660507
92.5205439046174
92.31211759137531
92.15594410136563
92.05437829162703
92.02031923652206
92.03168358913291
92.0657086484743
92.08833539085964
92.11091686159926
92.15594410136563
91.57012026588163
89.78900670351439
5.538742669822383
87.75612172481425
93.31072961984313
94.6342172744119
95.06174009952824
95.19410548967619
95.21221139463573
95.18760470545557
95.14341449922924
95.08996950809343
95.03707580492646
94.98541322832503
94.95232010724101
94.92739681893156
94.89918775927474
94.87175548648932
94.81293822640035
94.72576718886259
94.59112673469818
94.42762253346756
94.24677720378463
94.05147299156977
93.84348146261564
93.65168769339486
93.44727909290951
93.24741462611796
93.037366563268
92.83021735330286
92.59377585724715
92.35338134777683
92.12382353903465
91.93202561441824
91.79694203606016
91.64783853861394
91.4690804406814
91.25849139337706
90.80069770185536
90.67128155317775
19.951019723507287
81.04593739273511
90.9566091071744
93.19741421149998
94.02984847841265
94.35865667505497
94.47197772288652
94.48974230422264
94.48785761934883
94.48033082438474
94.48300565866205
94.49072809469351
94.49874914891681
94.51208612354559
94.5167204339648
94.49918555454728
94.47454634837943
94.41532994346869
94.3286289178449
94.21186538137124
94.05654373911727
93.88368521704477
93.69493826152977
93.49180872162677
93.27567324355802
93.0576793160477
92.81738657787618
92.58706852611276
92.34118746465691
92.09056961972115
91.838981141764
91.59556595355203
91.35449931825468
91.16228911016191
91.01327659478562
90.89166948865488
90.47022523267685
90.80930671717192
77.67536600626892
65.56736036625298
49.24076183338602
88.76390515795585
91.38438366588055
93.02063905308343
93.6870318542342
93.83549748347066
93.83194602306732
93.79640232358862
93.73136787553075
93.68953543826075
93.6575614188489
93.6286487951582
93.57977571327304
93.54542143129831
93.50569646878422
93.46091075808705
93.40978183924352
93.35516256347097
93.28227500104678
93.19714910659238
93.08656072751627
92.94966001792203
92.79773944634746
92.61913898235132
92.4138203753555
92.20647758364568
91.97302986411515
91.72653378719049
91.4805941680637
91.22088430715365
90.9695242369981
90.73233995639087
90.50579865847085
90.33735210104577
90.22234907607537
90.16837282409253
89.71860080837048
88.03535430404276
)
;

boundaryField
{
    ".*"
    {
        type            zeroGradient;
    }
}


// ************************************************************************* //
