// -*- C++ -*-
// File generated by PyFoam - sorry for the ugliness

FoamFile
{
 version 2.0;
 format ascii;
 class volScalarField;
 location "900";
 object T;
}

dimensions [ 0 0 0 1 0 0 0 ];

internalField nonuniform List<scalar> 458
(
  305.351
  305.1
  305.096
  305.099
  305.102
  305.105
  305.106
  305.107
  305.108
  305.108
  305.107
  305.102
  305.095
  305.085
  305.073
  304.06
  304.073
  304.087
  304.072
  304.07
  304.077
  304.068
  304.056
  304.049
  304.047
  304.048
  304.045
  304.044
  304.056
  304.09
  304.138
  304.14
  304.131
  305.541
  305.158
  305.139
  305.148
  305.157
  305.166
  305.172
  305.177
  305.179
  305.179
  305.175
  305.164
  305.146
  305.118
  305.079
  305.042
  305.005
  304.927
  304.161
  304.186
  304.205
  304.206
  304.173
  304.169
  304.162
  304.156
  304.156
  304.164
  304.183
  304.224
  304.268
  304.321
  304.38
  304.367
  304.324
  304.281
  305.719
  305.218
  305.178
  305.192
  305.209
  305.226
  305.24
  305.252
  305.26
  305.264
  305.262
  305.251
  305.229
  305.193
  305.142
  305.082
  305.015
  304.958
  304.475
  304.454
  304.467
  304.494
  304.496
  304.263
  304.28
  304.315
  304.35
  304.385
  304.423
  304.466
  304.527
  304.619
  304.739
  304.7
  304.659
  304.662
  305.882
  305.289
  305.216
  305.229
  305.254
  305.278
  305.301
  305.322
  305.339
  305.35
  305.353
  305.346
  305.325
  305.287
  305.233
  305.161
  305.071
  304.962
  304.86
  304.781
  304.823
  304.876
  304.925
  304.953
  304.975
  304.977
  304.979
  304.982
  304.986
  304.99
  304.995
  304.997
  304.993
  304.953
  304.934
  304.913
  304.897
  306.031
  305.371
  305.263
  305.261
  305.288
  305.317
  305.348
  305.377
  305.403
  305.423
  305.434
  305.433
  305.418
  305.388
  305.343
  305.284
  305.215
  305.144
  305.081
  305.035
  305.02
  305.019
  305.021
  305.02
  305.018
  305.016
  305.015
  305.017
  305.02
  305.026
  305.032
  305.039
  305.044
  305.044
  305.047
  305.047
  305.029
  305.048
  305.043
  305.047
  306.159
  305.474
  305.348
  305.31
  305.32
  305.346
  305.378
  305.412
  305.444
  305.472
  305.49
  305.497
  305.49
  305.469
  305.434
  305.386
  305.329
  305.267
  305.209
  305.161
  305.128
  305.105
  305.088
  305.074
  305.063
  305.054
  305.048
  305.046
  305.046
  305.051
  305.058
  305.068
  305.079
  305.089
  305.098
  305.105
  305.109
  305.111
  305.083
  305.064
  306.27
  305.63
  305.523
  305.447
  305.406
  305.398
  305.414
  305.441
  305.471
  305.505
  305.527
  305.536
  305.534
  305.521
  305.498
  305.463
  305.418
  305.368
  305.316
  305.267
  305.225
  305.19
  305.162
  305.138
  305.118
  305.102
  305.089
  305.079
  305.073
  305.073
  305.078
  305.087
  305.099
  305.111
  305.122
  305.13
  305.134
  305.132
  305.118
  305.073
  306.448
  305.969
  305.855
  305.742
  305.633
  305.565
  305.535
  305.527
  305.534
  305.55
  305.561
  305.563
  305.558
  305.546
  305.529
  305.506
  305.477
  305.441
  305.4
  305.357
  305.315
  305.276
  305.242
  305.212
  305.185
  305.161
  305.141
  305.123
  305.108
  305.099
  305.096
  305.099
  305.108
  305.119
  305.131
  305.142
  305.152
  305.162
  305.172
  305.189
  306.695
  306.484
  306.13
  305.992
  305.869
  305.777
  305.713
  305.671
  305.646
  305.626
  305.606
  305.588
  305.57
  305.552
  305.535
  305.517
  305.497
  305.475
  305.448
  305.418
  305.385
  305.351
  305.318
  305.287
  305.257
  305.23
  305.205
  305.181
  305.159
  305.14
  305.126
  305.117
  305.114
  305.115
  305.118
  305.12
  305.122
  305.126
  305.135
  305.184
  301.648
  305.046
  305.405
  305.523
  305.566
  305.578
  305.577
  305.571
  305.562
  305.551
  305.539
  305.526
  305.514
  305.502
  305.489
  305.476
  305.46
  305.442
  305.42
  305.396
  305.371
  305.345
  305.318
  305.293
  305.267
  305.242
  305.217
  305.194
  305.171
  305.152
  305.138
  305.129
  305.125
  305.122
  305.12
  305.119
  305.117
  305.124
  302.523
  304.615
  305.123
  305.333
  305.425
  305.466
  305.483
  305.488
  305.489
  305.487
  305.484
  305.48
  305.475
  305.47
  305.464
  305.456
  305.448
  305.437
  305.424
  305.409
  305.391
  305.372
  305.352
  305.331
  305.309
  305.287
  305.263
  305.24
  305.216
  305.193
  305.173
  305.158
  305.147
  305.139
  305.132
  305.124
  305.115
  305.119
  304.706
  304.104
  303.551
  304.876
  305.163
  305.309
  305.378
  305.404
  305.415
  305.42
  305.42
  305.42
  305.42
  305.42
  305.418
  305.417
  305.415
  305.412
  305.408
  305.403
  305.396
  305.388
  305.378
  305.366
  305.353
  305.338
  305.321
  305.304
  305.285
  305.265
  305.245
  305.224
  305.204
  305.186
  305.17
  305.155
  305.14
  305.124
  305.105
  305.107
)
;

boundaryField
{
  floor
  {
    type wallHeatTransfer;
    Tinf uniform 305.2;
    alphaWall uniform 0.24;
    value nonuniform List<scalar> 36
(
  305.088
  304.38
  304.372
  304.382
  304.41
  304.44
  304.467
  304.455
  304.432
  304.409
  304.391
  304.381
  304.378
  304.376
  304.378
  304.386
  304.408
  304.416
  304.427
  304.427
  304.491
  304.755
  304.938
  305.064
  305.061
  305.067
  305.088
  305.06
  305.029
  304.972
  304.38
  304.972
  304.394
  304.986
  304.592
  304.9
)
;
  }
  ceiling
  {
    type wallHeatTransfer;
    Tinf uniform 303.2;
    alphaWall uniform 0.24;
    value nonuniform List<scalar> 43
(
  304.601
  304.052
  303.535
  304.792
  305.066
  305.2
  305.253
  305.265
  305.264
  305.257
  305.245
  305.236
  305.227
  305.221
  305.216
  305.213
  305.211
  305.21
  305.208
  305.205
  305.2
  305.193
  305.184
  305.172
  305.16
  305.146
  305.13
  305.114
  305.097
  305.079
  305.06
  305.041
  305.021
  305.004
  304.987
  304.971
  304.955
  304.934
  304.914
  304.927
  306.53
  306.348
  302.546
)
;
  }
  sWall
  {
    type wallHeatTransfer;
    Tinf uniform 315.2;
    alphaWall uniform 0.36;
    value uniform 305.762;
  }
  nWall
  {
    type wallHeatTransfer;
    Tinf uniform 307.2;
    alphaWall uniform 0.36;
    value nonuniform List<scalar> 6
(
  305.437
  305.434
  305.442
  305.365
  305.358
  305.391
)
;
  }
  sideWalls
  {
    type empty;
  }
  glass1
  {
    type wallHeatTransfer;
    Tinf uniform 315.2;
    alphaWall uniform 4.3;
    value nonuniform List<scalar> 9
(
  312.846
  312.077
  311.567
  311.178
  310.877
  310.636
  310.46
  310.522
  310.719
)
;
  }
  glass2
  {
    type wallHeatTransfer;
    Tinf uniform 307.2;
    alphaWall uniform 4.3;
    value nonuniform List<scalar> 2
(
  306.48
  306.423
)
;
  }
  sun
  {
    type wallHeatTransfer;
    Tinf uniform 305.2;
    alphaWall uniform 0.24;
    value nonuniform List<scalar> 14
(
  305.329
  305.115
  305.111
  305.114
  305.116
  305.118
  305.119
  305.12
  305.12
  305.12
  305.118
  305.114
  305.108
  305.1
)
;
  }
  Table_master
  {
    type zeroGradient;
  }
  Table_slave
  {
    type zeroGradient;
  }
  inlet
  {
    type fixedValue;
    value uniform 293.15;
  }
  outlet
  {
    type zeroGradient;
  }
} 	// ************************************************************************* //

