/*--------------------------------*- C++ -*----------------------------------*\
  =========                 |
  \\      /  F ield         | OpenFOAM: The Open Source CFD Toolbox
   \\    /   O peration     | Website:  https://openfoam.org
    \\  /    A nd           | Version:  6
     \\/     M anipulation  |
\*---------------------------------------------------------------------------*/
FoamFile
{
    version     2.0;
    format      ascii;
    class       volScalarField;
    location    "500";
    object      k;
}
// * * * * * * * * * * * * * * * * * * * * * * * * * * * * * * * * * * * * * //

dimensions      [0 2 -2 0 0 0 0];

internalField   nonuniform List<scalar> 
458
(
0.00137529
0.00155936
0.00155164
0.00167913
0.00179773
0.00190674
0.00200919
0.00210897
0.00221119
0.00230746
0.00237781
0.00241066
0.00240123
0.00236342
0.00231756
0.00036633
0.000580964
0.000564267
0.000536361
0.000506116
0.00046873
0.000431665
0.000398408
0.000369055
0.000343219
0.00032028
0.00029952
0.000280251
0.000261693
0.000242886
0.000222168
0.000200953
0.000163141
0.00293337
0.00551804
0.0023394
0.00240631
0.00254056
0.00269167
0.00285537
0.00303793
0.0032411
0.00345662
0.00364745
0.0037536
0.00370884
0.00347961
0.00307418
0.00249136
0.00189883
0.00140467
0.000946897
0.000928938
0.000883016
0.000830195
0.000768543
0.000676708
0.000593201
0.000526071
0.000471117
0.00042433
0.000383273
0.00034625
0.000311681
0.000280031
0.000260779
0.000255004
0.000367237
0.000236367
0.00479394
0.0113062
0.00306832
0.00283497
0.00295238
0.00311433
0.00329075
0.00349729
0.00374376
0.004024
0.00429664
0.00449068
0.00455539
0.00451592
0.00447151
0.00432017
0.00353971
0.00229951
0.00140247
0.00124547
0.00110624
0.00100103
0.000916073
0.000750838
0.00061337
0.000508234
0.000428789
0.000368631
0.000322812
0.000287674
0.000261042
0.000242352
0.000230056
0.000238142
0.00047074
0.000295469
0.00714898
0.0202526
0.00430921
0.00309331
0.00314104
0.00329774
0.00346
0.00365649
0.00392234
0.00426255
0.00459182
0.00480411
0.00485403
0.00477884
0.00465709
0.00445834
0.00396748
0.00349526
0.0021684
0.00182237
0.00151151
0.00127773
0.00112222
0.00100992
0.000805635
0.000714159
0.000680603
0.000671133
0.000664729
0.000647194
0.000612425
0.000574228
0.000525541
0.00040221
0.000323491
0.000573289
0.000362359
0.0101029
0.032601
0.00749557
0.00354152
0.00331594
0.00341392
0.00354302
0.00373957
0.00408165
0.00457575
0.0050023
0.00521523
0.00519483
0.00500395
0.0047279
0.00437601
0.00383955
0.00322741
0.00255194
0.0020287
0.00164323
0.00136768
0.00120295
0.00111336
0.00108499
0.00112645
0.00118637
0.00123146
0.00124463
0.0012134
0.00112922
0.00100843
0.00087016
0.000688633
0.000518556
0.000554312
0.000522935
0.00051277
0.000590129
0.000645542
0.0137854
0.0458371
0.016115
0.00590767
0.00426977
0.00393128
0.00387702
0.00400769
0.00446895
0.00520009
0.00568612
0.00583583
0.00569045
0.00535659
0.00493578
0.00446735
0.00389561
0.00321473
0.002511
0.00198339
0.00161768
0.00137508
0.0012588
0.0012357
0.00129118
0.00139505
0.00149646
0.00157292
0.00161166
0.00159766
0.00151362
0.00134468
0.00114862
0.000935805
0.000741779
0.000634486
0.000578924
0.000735517
0.00201371
0.00117233
0.0177714
0.0546959
0.0315495
0.016183
0.0101797
0.00720354
0.00590625
0.00553318
0.00596031
0.00653394
0.00676478
0.00667586
0.00632695
0.00581843
0.00526812
0.00472355
0.00410294
0.00334485
0.00255142
0.00194459
0.0015763
0.00139207
0.00134773
0.00138025
0.00146378
0.00157677
0.00169372
0.00180104
0.00188508
0.00193526
0.00192919
0.00180231
0.00158928
0.00135214
0.00115259
0.00102504
0.00097744
0.00116634
0.00270035
0.00175146
0.0186395
0.0552147
0.0404553
0.0344677
0.0260038
0.0184377
0.0136311
0.0110723
0.00979994
0.00898971
0.00837077
0.00775687
0.00703821
0.00627738
0.00559396
0.00500304
0.00433445
0.00347225
0.00255572
0.00188568
0.00158752
0.00148219
0.00147989
0.00152741
0.00160421
0.00170076
0.00180961
0.00192875
0.00205822
0.00220004
0.00235361
0.00250907
0.0025284
0.00245534
0.00248961
0.00278169
0.00351022
0.00452893
0.00983961
0.0033849
0.0177311
0.0249685
0.0244725
0.0227638
0.0211222
0.0186504
0.0159911
0.0137843
0.0120848
0.0107857
0.0097161
0.00866132
0.00752483
0.00650435
0.00575576
0.00519887
0.00447403
0.00343447
0.00242823
0.00190889
0.0017052
0.00164774
0.00164969
0.00167456
0.00171305
0.00176525
0.0018338
0.00192313
0.00203802
0.00218192
0.0023555
0.0025555
0.00277327
0.0030337
0.00342465
0.00395842
0.00454833
0.0050285
0.00534912
0.00327562
0.0114173
0.0226469
0.0200568
0.0182612
0.0165062
0.0148516
0.0133601
0.0119105
0.0104187
0.00884122
0.00725253
0.00617207
0.00563801
0.00529739
0.00441988
0.0031549
0.00243531
0.00215097
0.00205211
0.00201327
0.00198315
0.00194625
0.0019034
0.00186217
0.00183249
0.00182464
0.00184848
0.00191341
0.00202866
0.00220437
0.00244881
0.00274988
0.00311079
0.00349709
0.00379693
0.00385205
0.0036316
0.00235115
0.0107929
0.0218219
0.019658
0.0181491
0.0166007
0.0146649
0.0127785
0.0109508
0.00902695
0.00713641
0.00551347
0.00526736
0.00566997
0.00594442
0.00519779
0.0042472
0.00367791
0.00343859
0.00332183
0.00324425
0.00315653
0.00303866
0.00289073
0.00272548
0.00256165
0.00241858
0.00231282
0.0022574
0.00226235
0.00233385
0.00249398
0.00274582
0.00307002
0.00340992
0.00371182
0.00392251
0.00391933
0.00244518
0.00622552
0.00751677
0.00862017
0.00987085
0.0103948
0.0101338
0.00927651
0.00740195
0.00592741
0.00452501
0.00357422
0.0027745
0.00191193
0.00162028
0.00173826
0.00175903
0.00161282
0.00144472
0.00133386
0.00126238
0.00122397
0.0011923
0.00116129
0.00113195
0.0011091
0.00109862
0.0011054
0.00113253
0.00118159
0.00125397
0.00135266
0.00148489
0.00164252
0.00182361
0.00203143
0.00225834
0.00251032
0.00243708
0.00209753
0.0018169
)
;

boundaryField
{
    floor
    {
        type            kqRWallFunction;
        value           nonuniform List<scalar> 
36
(
0.00231756
0.00036633
0.000580964
0.000564267
0.000536361
0.000506116
0.00046873
0.000431665
0.000398408
0.000369055
0.000343219
0.00032028
0.00029952
0.000280251
0.000261693
0.000242886
0.000222168
0.000200953
0.000163141
0.000163141
0.000236367
0.000295469
0.000362359
0.00051277
0.000590129
0.000645542
0.00231756
0.00249136
0.00189883
0.00140467
0.00036633
0.00140467
0.000946897
0.00229951
0.00140247
0.0021684
)
;
    }
    ceiling
    {
        type            kqRWallFunction;
        value           nonuniform List<scalar> 
43
(
0.00622552
0.00751677
0.00862017
0.00987085
0.0103948
0.0101338
0.00927651
0.00740195
0.00592741
0.00452501
0.00357422
0.0027745
0.00191193
0.00162028
0.00173826
0.00175903
0.00161282
0.00144472
0.00133386
0.00126238
0.00122397
0.0011923
0.00116129
0.00113195
0.0011091
0.00109862
0.0011054
0.00113253
0.00118159
0.00125397
0.00135266
0.00148489
0.00164252
0.00182361
0.00203143
0.00225834
0.00251032
0.00243708
0.00209753
0.0018169
0.0177311
0.0249685
0.0107929
)
;
    }
    sWall
    {
        type            kqRWallFunction;
        value           uniform 0.00622552;
    }
    nWall
    {
        type            kqRWallFunction;
        value           nonuniform List<scalar> 6(0.000645542 0.00117233 0.00175146 0.00235115 0.00244518 0.0018169);
    }
    sideWalls
    {
        type            empty;
    }
    glass1
    {
        type            kqRWallFunction;
        value           nonuniform List<scalar> 9(0.00137529 0.00293337 0.00479394 0.00714898 0.0101029 0.0137854 0.0177714 0.0186395 0.0177311);
    }
    glass2
    {
        type            kqRWallFunction;
        value           nonuniform List<scalar> 2(0.0033849 0.00327562);
    }
    sun
    {
        type            kqRWallFunction;
        value           nonuniform List<scalar> 
14
(
0.00137529
0.00155936
0.00155164
0.00167913
0.00179773
0.00190674
0.00200919
0.00210897
0.00221119
0.00230746
0.00237781
0.00241066
0.00240123
0.00236342
)
;
    }
    Table_master
    {
        type            kqRWallFunction;
        value           nonuniform List<scalar> 9(0.000750838 0.00061337 0.000508234 0.000428789 0.000368631 0.000322812 0.000287674 0.000261042 0.000242352);
    }
    Table_slave
    {
        type            kqRWallFunction;
        value           nonuniform List<scalar> 9(0.000805635 0.000714159 0.000680603 0.000671133 0.000664729 0.000647194 0.000612425 0.000574228 0.000525541);
    }
    inlet
    {
        type            turbulentIntensityKineticEnergyInlet;
        intensity       0.05;
        value           uniform 0.0024;
    }
    outlet
    {
        type            zeroGradient;
    }
}


// ************************************************************************* //
