/*--------------------------------*- C++ -*----------------------------------*\
  =========                 |
  \\      /  F ield         | OpenFOAM: The Open Source CFD Toolbox
   \\    /   O peration     | Website:  https://openfoam.org
    \\  /    A nd           | Version:  6
     \\/     M anipulation  |
\*---------------------------------------------------------------------------*/
FoamFile
{
    version     2.0;
    format      ascii;
    class       volScalarField;
    location    "200";
    object      T;
}
// * * * * * * * * * * * * * * * * * * * * * * * * * * * * * * * * * * * * * //

dimensions      [0 0 0 1 0 0 0];

internalField   nonuniform List<scalar> 
458
(
303.262
303.045
303.006
302.929
302.902
302.894
302.892
302.895
302.901
302.907
302.914
302.921
302.929
302.94
302.957
303.546
303.477
303.428
303.392
303.389
303.412
303.438
303.466
303.494
303.521
303.55
303.578
303.607
303.636
303.667
303.701
303.744
303.811
303.473
303.231
303.022
302.908
302.859
302.84
302.835
302.838
302.844
302.852
302.862
302.874
302.889
302.907
302.932
302.941
302.958
302.993
303.57
303.498
303.37
303.329
303.333
303.355
303.386
303.419
303.455
303.493
303.534
303.575
303.616
303.655
303.694
303.732
303.774
303.833
303.771
303.315
303.013
302.857
302.796
302.781
302.784
302.791
302.8
302.811
302.825
302.841
302.859
302.88
302.904
302.922
302.942
302.975
303.583
303.428
303.312
303.275
303.296
303.321
303.359
303.404
303.457
303.519
303.589
303.67
303.75
303.799
303.81
303.815
303.826
303.861
304.094
303.231
302.855
302.718
302.703
302.73
302.759
302.778
302.793
302.808
302.822
302.836
302.852
302.87
302.891
302.911
302.932
302.961
302.977
303.134
303.143
303.157
303.206
303.283
303.364
303.419
303.466
303.507
303.546
303.584
303.62
303.656
303.693
303.751
303.805
303.845
303.881
303.06
302.587
302.428
302.506
302.659
302.778
302.843
302.87
302.878
302.872
302.866
302.865
302.869
302.879
302.894
302.911
302.929
302.952
302.971
303.012
303.048
303.12
303.228
303.35
303.461
303.544
303.61
303.666
303.715
303.753
303.782
303.802
303.814
303.824
303.843
303.867
303.896
304.048
304.281
304.253
302.64
301.964
302.089
302.625
302.956
303.059
303.051
303.013
302.964
302.93
302.908
302.896
302.893
302.897
302.907
302.921
302.938
302.958
302.982
303.026
303.105
303.232
303.382
303.525
303.643
303.731
303.798
303.849
303.886
303.912
303.927
303.932
303.927
303.915
303.905
303.904
303.918
304.003
304.097
304.164
302.369
301.544
302.089
303.087
303.191
303.162
303.108
303.054
303.006
302.97
302.946
302.931
302.925
302.926
302.934
302.949
302.969
303.002
303.062
303.168
303.314
303.481
303.642
303.776
303.877
303.948
303.996
304.026
304.045
304.056
304.059
304.052
304.036
304.011
303.984
303.965
303.962
304.002
304.053
304.109
302.075
301.292
301.833
303.23
303.293
303.235
303.168
303.109
303.06
303.028
303.005
302.992
302.988
302.993
303.007
303.034
303.077
303.158
303.293
303.469
303.654
303.809
303.944
304.039
304.103
304.142
304.163
304.175
304.181
304.181
304.175
304.162
304.141
304.114
304.081
304.056
304.048
304.073
304.112
304.237
301.666
300.691
300.631
303.33
303.429
303.362
303.293
303.234
303.187
303.157
303.139
303.134
303.14
303.16
303.198
303.258
303.348
303.481
303.652
303.833
303.993
304.113
304.196
304.248
304.278
304.293
304.3
304.301
304.298
304.292
304.281
304.269
304.256
304.247
304.248
304.264
304.297
304.336
304.366
304.431
298.229
303.423
303.603
303.549
303.493
303.448
303.415
303.393
303.387
303.395
303.42
303.463
303.527
303.615
303.73
303.868
304.015
304.15
304.256
304.329
304.375
304.399
304.41
304.413
304.411
304.405
304.396
304.384
304.372
304.358
304.347
304.34
304.342
304.355
304.382
304.423
304.485
304.623
303.303
303.793
303.814
303.785
303.757
303.736
303.723
303.719
303.728
303.752
303.791
303.846
303.918
304.005
304.104
304.207
304.304
304.385
304.443
304.479
304.499
304.507
304.507
304.503
304.495
304.485
304.473
304.46
304.447
304.433
304.421
304.411
304.407
304.41
304.424
304.458
304.522
304.601
303.972
303.885
303.875
304.086
304.097
304.103
304.11
304.119
304.13
304.144
304.163
304.192
304.23
304.275
304.326
304.38
304.434
304.484
304.524
304.553
304.571
304.579
304.581
304.577
304.571
304.564
304.555
304.545
304.535
304.524
304.512
304.501
304.49
304.479
304.471
304.466
304.476
304.503
304.546
304.642
)
;

boundaryField
{
    floor
    {
        type            wallHeatTransfer;
        Tinf            uniform 305.2;
        alphaWall       uniform 0.24;
        value           nonuniform List<scalar> 
36
(
303.181
303.846
303.761
303.697
303.646
303.629
303.66
303.696
303.733
303.768
303.801
303.834
303.866
303.897
303.928
303.961
303.997
304.042
304.112
304.112
304.12
304.136
304.138
304.249
304.429
304.394
303.181
303.16
303.189
303.248
303.846
303.248
303.873
303.218
303.885
303.221
)
;
    }
    ceiling
    {
        type            wallHeatTransfer;
        Tinf            uniform 303.2;
        alphaWall       uniform 0.24;
        value           nonuniform List<scalar> 
43
(
303.9
303.824
303.817
304.001
304.012
304.018
304.025
304.035
304.046
304.059
304.078
304.105
304.139
304.181
304.227
304.276
304.324
304.367
304.401
304.424
304.437
304.44
304.438
304.432
304.423
304.413
304.402
304.39
304.378
304.367
304.355
304.345
304.336
304.328
304.324
304.323
304.334
304.357
304.389
304.473
301.745
300.812
303.296
)
;
    }
    sWall
    {
        type            wallHeatTransfer;
        Tinf            uniform 315.2;
        alphaWall       uniform 0.36;
        value           uniform 305.465;
    }
    nWall
    {
        type            wallHeatTransfer;
        Tinf            uniform 307.2;
        alphaWall       uniform 0.36;
        value           nonuniform List<scalar> 6(304.865 304.781 304.682 305.009 304.978 305.069);
    }
    sideWalls
    {
        type            empty;
    }
    glass1
    {
        type            wallHeatTransfer;
        Tinf            uniform 315.2;
        alphaWall       uniform 4.3;
        value           nonuniform List<scalar> 9(310.418 310.378 310.558 310.571 308.964 308.609 308.473 308.437 308.398);
    }
    glass2
    {
        type            wallHeatTransfer;
        Tinf            uniform 307.2;
        alphaWall       uniform 4.3;
        value           nonuniform List<scalar> 2(306.187 306.263);
    }
    sun
    {
        type            wallHeatTransfer;
        Tinf            uniform 305.2;
        alphaWall       uniform 0.24;
        value           nonuniform List<scalar> 
14
(
303.409
303.192
303.142
303.07
303.05
303.048
303.053
303.062
303.075
303.087
303.1
303.114
303.131
303.151
)
;
    }
    Table_master
    {
        type            zeroGradient;
    }
    Table_slave
    {
        type            zeroGradient;
    }
    inlet
    {
        type            fixedValue;
        value           uniform 292.15;
    }
    outlet
    {
        type            zeroGradient;
    }
}


// ************************************************************************* //
