/*--------------------------------*- C++ -*----------------------------------*\
  =========                 |
  \\      /  F ield         | OpenFOAM: The Open Source CFD Toolbox
   \\    /   O peration     | Website:  https://openfoam.org
    \\  /    A nd           | Version:  6
     \\/     M anipulation  |
\*---------------------------------------------------------------------------*/
FoamFile
{
    version     2.0;
    format      ascii;
    class       volScalarField;
    location    "300";
    object      k;
}
// * * * * * * * * * * * * * * * * * * * * * * * * * * * * * * * * * * * * * //

dimensions      [0 2 -2 0 0 0 0];

internalField   nonuniform List<scalar> 
458
(
0.00452699
0.00564561
0.00641
0.0071909
0.00722651
0.0067357
0.00586886
0.00514923
0.00447927
0.00386263
0.00331599
0.00287505
0.00248296
0.00209933
0.00169598
0.000502894
0.000676027
0.000885037
0.00107938
0.00117637
0.00104061
0.000890775
0.000769385
0.000673686
0.000597122
0.000535048
0.000483886
0.000440796
0.00040343
0.000369134
0.00033515
0.000302733
0.000251133
0.00622992
0.0108337
0.0113606
0.0118742
0.0117584
0.0110571
0.0100074
0.0088731
0.00774015
0.00670454
0.00579893
0.0049836
0.00424037
0.00352226
0.00266107
0.00228438
0.00186118
0.0013748
0.000471691
0.000648964
0.00130164
0.00166169
0.00188253
0.00165278
0.00133358
0.00107735
0.000889381
0.000749984
0.000645286
0.000565374
0.000501319
0.000442719
0.000396015
0.000366504
0.000488379
0.000323486
0.0077811
0.0153704
0.0155654
0.0129296
0.0122326
0.0115369
0.010666
0.00965738
0.00861189
0.00762216
0.00672104
0.00588891
0.00510452
0.00432477
0.00349792
0.00289299
0.00255101
0.00174269
0.000498082
0.000853999
0.00127996
0.00176558
0.00207751
0.00167577
0.00129088
0.000989715
0.000767457
0.000605462
0.000487169
0.000400206
0.000337778
0.000301358
0.000299874
0.00031688
0.000676138
0.000392803
0.00790861
0.0127979
0.0139741
0.0130106
0.0124495
0.0117438
0.0108685
0.00988087
0.00886304
0.00790624
0.00705387
0.00627176
0.00551973
0.00476458
0.00399687
0.00332077
0.00279633
0.00216988
0.00192465
0.00159438
0.00164668
0.00200472
0.00245723
0.00273415
0.00236928
0.00207823
0.00186254
0.00168883
0.00153915
0.00140508
0.00127194
0.00113124
0.000975508
0.00071926
0.000529291
0.000989024
0.000498197
0.00793051
0.0118408
0.0132685
0.0133975
0.0130791
0.0124301
0.0115326
0.0105092
0.00945498
0.00853967
0.00764436
0.00676728
0.0059162
0.00509265
0.00430739
0.00360297
0.00302668
0.00256559
0.00251695
0.00246359
0.00272819
0.00320494
0.00361837
0.00375606
0.00357025
0.00333336
0.00316435
0.00301533
0.00283519
0.00258883
0.00227923
0.00191978
0.00153511
0.00113896
0.000811461
0.000921528
0.000852221
0.000845946
0.00100589
0.00120102
0.0128855
0.0211598
0.0194431
0.0171081
0.0158301
0.0147402
0.0136157
0.0125714
0.0113298
0.00979422
0.00838292
0.00719811
0.00619318
0.00531731
0.00455305
0.00391274
0.00345843
0.00326226
0.00345483
0.00390448
0.00447831
0.00492761
0.00505533
0.00483052
0.00442123
0.00409909
0.00388192
0.00367262
0.00340761
0.00308142
0.00269975
0.00228028
0.00185153
0.00144136
0.00111373
0.000977855
0.000957043
0.000959095
0.00154625
0.00129266
0.0162698
0.0347853
0.0230419
0.0173639
0.0163075
0.0146881
0.0132275
0.0119883
0.0104133
0.00907747
0.00796245
0.00701224
0.00617138
0.0054554
0.00486829
0.0044431
0.00428751
0.00452341
0.00517781
0.00593317
0.0063632
0.00637544
0.00601805
0.00542069
0.00481314
0.00439582
0.00412814
0.00389072
0.00362789
0.00332931
0.00299685
0.00264121
0.00227827
0.00192365
0.00164368
0.00147679
0.00147092
0.00164048
0.00212125
0.00183591
0.0163808
0.0290287
0.0156102
0.0102908
0.00985948
0.0089406
0.00864361
0.00845873
0.0081763
0.00773597
0.00723641
0.00672474
0.00623914
0.00582786
0.00553983
0.00543517
0.00562168
0.00616869
0.00685487
0.00726627
0.00719459
0.00665236
0.00589443
0.00513837
0.0045461
0.00416699
0.00392693
0.00374674
0.00359461
0.00346766
0.00336608
0.00327569
0.00320033
0.00314679
0.00319991
0.00363463
0.00462355
0.00609955
0.0115712
0.00435402
0.0128739
0.0145153
0.0158362
0.00892805
0.00621997
0.00613703
0.00637559
0.00660955
0.00679282
0.00683057
0.00676651
0.00664017
0.00649777
0.00638883
0.00636063
0.0064515
0.0066822
0.00698137
0.00711949
0.00690151
0.00634229
0.00559109
0.00483306
0.00419333
0.00373042
0.00342836
0.00322925
0.0030888
0.00299316
0.00294917
0.00297267
0.00308078
0.00328858
0.00361888
0.00408931
0.00468697
0.0052862
0.00571458
0.00593307
0.00386694
0.0234375
0.010499
0.00568077
0.00521949
0.00546825
0.00577382
0.00605992
0.00627728
0.00642253
0.00650078
0.00652883
0.00652763
0.00651272
0.00648285
0.00640904
0.00621782
0.00582085
0.00521678
0.00450361
0.00380893
0.00322569
0.00278729
0.00248375
0.00228458
0.00216332
0.00210829
0.00211785
0.00219356
0.00233817
0.00255658
0.00285527
0.00323807
0.00368595
0.00412246
0.00439332
0.00434756
0.0039931
0.00252689
0.00606259
0.00695708
0.00466284
0.00445401
0.00466022
0.00492513
0.00517691
0.00538041
0.0055196
0.00558197
0.00556453
0.00547026
0.00530208
0.00505741
0.00472687
0.00429931
0.00378342
0.00322856
0.00270474
0.00226936
0.00194841
0.00173764
0.00161714
0.00156607
0.0015704
0.00162313
0.00172208
0.00186864
0.00206776
0.00232804
0.00266009
0.00306891
0.00353411
0.00398679
0.00429114
0.0045881
0.00414026
0.00260822
0.0032123
0.00345567
0.00359173
0.0027728
0.00272549
0.00280243
0.00288708
0.00296122
0.00302478
0.00306058
0.00305053
0.00299318
0.00289024
0.00274544
0.00256328
0.00234845
0.00210694
0.00184884
0.00159207
0.00136076
0.00117549
0.00104562
0.000968186
0.000933127
0.000929925
0.000951232
0.000993231
0.00105461
0.00113565
0.00123776
0.00136335
0.0015159
0.00170021
0.00192219
0.00218671
0.00250853
0.00269929
0.00259104
0.00223281
0.00192399
)
;

boundaryField
{
    floor
    {
        type            kqRWallFunction;
        value           nonuniform List<scalar> 
36
(
0.00169598
0.000502894
0.000676027
0.000885037
0.00107938
0.00117637
0.00104061
0.000890775
0.000769385
0.000673686
0.000597122
0.000535048
0.000483886
0.000440796
0.00040343
0.000369134
0.00033515
0.000302733
0.000251133
0.000251133
0.000323486
0.000392803
0.000498197
0.000845946
0.00100589
0.00120102
0.00169598
0.00228438
0.00186118
0.0013748
0.000502894
0.0013748
0.000471691
0.00174269
0.000498082
0.00192465
)
;
    }
    ceiling
    {
        type            kqRWallFunction;
        value           nonuniform List<scalar> 
43
(
0.0032123
0.00345567
0.00359173
0.0027728
0.00272549
0.00280243
0.00288708
0.00296122
0.00302478
0.00306058
0.00305053
0.00299318
0.00289024
0.00274544
0.00256328
0.00234845
0.00210694
0.00184884
0.00159207
0.00136076
0.00117549
0.00104562
0.000968186
0.000933127
0.000929925
0.000951232
0.000993231
0.00105461
0.00113565
0.00123776
0.00136335
0.0015159
0.00170021
0.00192219
0.00218671
0.00250853
0.00269929
0.00259104
0.00223281
0.00192399
0.0128739
0.0145153
0.00606259
)
;
    }
    sWall
    {
        type            kqRWallFunction;
        value           uniform 0.0032123;
    }
    nWall
    {
        type            kqRWallFunction;
        value           nonuniform List<scalar> 6(0.00120102 0.00129266 0.00183591 0.00252689 0.00260822 0.00192399);
    }
    sideWalls
    {
        type            empty;
    }
    glass1
    {
        type            kqRWallFunction;
        value           nonuniform List<scalar> 9(0.00452699 0.00622992 0.0077811 0.00790861 0.00793051 0.0128855 0.0162698 0.0163808 0.0128739);
    }
    glass2
    {
        type            kqRWallFunction;
        value           nonuniform List<scalar> 2(0.00435402 0.00386694);
    }
    sun
    {
        type            kqRWallFunction;
        value           nonuniform List<scalar> 
14
(
0.00452699
0.00564561
0.00641
0.0071909
0.00722651
0.0067357
0.00586886
0.00514923
0.00447927
0.00386263
0.00331599
0.00287505
0.00248296
0.00209933
)
;
    }
    Table_master
    {
        type            kqRWallFunction;
        value           nonuniform List<scalar> 9(0.00167577 0.00129088 0.000989715 0.000767457 0.000605462 0.000487169 0.000400206 0.000337778 0.000301358);
    }
    Table_slave
    {
        type            kqRWallFunction;
        value           nonuniform List<scalar> 9(0.00236928 0.00207823 0.00186254 0.00168883 0.00153915 0.00140508 0.00127194 0.00113124 0.000975508);
    }
    inlet
    {
        type            turbulentIntensityKineticEnergyInlet;
        intensity       0.05;
        value           uniform 0.0003375;
    }
    outlet
    {
        type            zeroGradient;
    }
}


// ************************************************************************* //
