/*--------------------------------*- C++ -*----------------------------------*\
  =========                 |
  \\      /  F ield         | OpenFOAM: The Open Source CFD Toolbox
   \\    /   O peration     | Website:  https://openfoam.org
    \\  /    A nd           | Version:  6
     \\/     M anipulation  |
\*---------------------------------------------------------------------------*/
FoamFile
{
    version     2.0;
    format      ascii;
    class       volScalarField;
    location    "600";
    object      k;
}
// * * * * * * * * * * * * * * * * * * * * * * * * * * * * * * * * * * * * * //

dimensions      [0 2 -2 0 0 0 0];

internalField   nonuniform List<scalar> 
458
(
0.00247997
0.00294935
0.00309438
0.00341424
0.00372459
0.00403072
0.00434597
0.00469082
0.005027
0.00531234
0.00548921
0.00548353
0.00521718
0.00455188
0.00250042
0.000551406
0.000768607
0.000980034
0.00102802
0.00097874
0.000856283
0.000733465
0.000631478
0.000548964
0.000481738
0.000426453
0.000380828
0.000342402
0.000309098
0.000279027
0.000250354
0.000235497
0.000200411
0.00450916
0.00828916
0.00457356
0.00483174
0.00520885
0.00565369
0.00617507
0.00677682
0.00747903
0.00821226
0.00881081
0.00909648
0.00896406
0.00838714
0.00708145
0.00430763
0.00289018
0.00190323
0.000558598
0.0012186
0.00157317
0.00172096
0.00170043
0.0014478
0.00118149
0.00096649
0.000801406
0.000674047
0.000574459
0.00049439
0.000428433
0.000373747
0.000334751
0.000312572
0.000605252
0.000355977
0.00667183
0.015021
0.00547776
0.00528213
0.00550816
0.00583001
0.00624633
0.00679834
0.00750629
0.00827583
0.00893023
0.0093384
0.00942836
0.00911928
0.00801647
0.00638892
0.00498487
0.00258356
0.00149638
0.00184006
0.00200915
0.00208255
0.00201488
0.00156735
0.00120093
0.000935535
0.000745554
0.000608155
0.000507118
0.000431796
0.000375241
0.000333837
0.000308839
0.000312329
0.000958576
0.000499992
0.00914776
0.0244712
0.00671188
0.00535615
0.00537732
0.00556693
0.00586761
0.00639143
0.00716533
0.0079853
0.00865679
0.00912323
0.00933242
0.00911499
0.00822638
0.00707896
0.00596814
0.00445614
0.00347143
0.0032019
0.00298518
0.00285178
0.00270664
0.00248432
0.00195013
0.0016263
0.00142386
0.00128298
0.00116856
0.00106134
0.000963899
0.000866181
0.000758769
0.000573441
0.000464666
0.00141993
0.000652147
0.0120801
0.0373357
0.00980809
0.00559902
0.00524839
0.00530309
0.00554245
0.00619093
0.00723476
0.00816297
0.00883347
0.00929489
0.00948977
0.00912838
0.0081107
0.00689986
0.00587832
0.00509292
0.0048665
0.00435636
0.00394924
0.00361343
0.00327817
0.00291935
0.00257765
0.00235794
0.00222317
0.00211152
0.00198672
0.00182757
0.00162892
0.00140875
0.00117844
0.000923369
0.000707458
0.00110021
0.00131913
0.00115714
0.00126281
0.00147155
0.0156849
0.0513361
0.0181922
0.0076552
0.00599251
0.00560111
0.0056422
0.00659917
0.00801512
0.0089426
0.00953723
0.00992435
0.0100074
0.00944091
0.00808058
0.00647304
0.00527732
0.00472634
0.00460963
0.00452076
0.00430335
0.00395398
0.00353671
0.00312406
0.00281704
0.00266474
0.00258865
0.00251737
0.00241613
0.00226392
0.00203704
0.00177128
0.00149113
0.00120973
0.000984499
0.0010037
0.00121469
0.00125812
0.00189862
0.00158623
0.0195741
0.0603926
0.0332269
0.0175393
0.0116751
0.00896308
0.00807623
0.00897522
0.00986718
0.0103612
0.0106998
0.0109096
0.0108393
0.0100371
0.0082612
0.00619787
0.00479733
0.00437156
0.00444572
0.00446511
0.00425651
0.00387871
0.00345169
0.00307795
0.00284393
0.00275989
0.00274593
0.00274233
0.00272334
0.00266903
0.00253983
0.0023059
0.00202825
0.00174
0.00151873
0.00144196
0.0015843
0.00189984
0.00256553
0.00225758
0.0204604
0.0594367
0.0435604
0.0353034
0.0270935
0.0202708
0.016344
0.0142278
0.0129859
0.0124699
0.0122986
0.012181
0.0118752
0.0107585
0.00846052
0.00594897
0.00447739
0.00417204
0.00420636
0.00412787
0.00385637
0.00348918
0.0031416
0.0028885
0.00276062
0.00273786
0.00277504
0.00284717
0.0029505
0.00308709
0.00325296
0.00337668
0.00338084
0.00339065
0.00354273
0.00422415
0.00578671
0.00809252
0.0159177
0.00540341
0.0195599
0.0277899
0.0271934
0.0252682
0.0230442
0.0203415
0.017885
0.0159695
0.0148461
0.0143696
0.0139485
0.0134701
0.0128776
0.0112873
0.00819239
0.00546318
0.00433304
0.00399913
0.00385506
0.0036549
0.00337971
0.00309728
0.00286968
0.00272278
0.00265233
0.00263908
0.00266711
0.00273438
0.0028486
0.00301913
0.00325157
0.00354264
0.00390743
0.00439989
0.00505989
0.00584281
0.00655578
0.00697071
0.00713244
0.00458345
0.00590542
0.00941554
0.0125912
0.0146251
0.0157208
0.0164456
0.0169963
0.0167711
0.0154536
0.0141756
0.0131755
0.0106893
0.00742113
0.00544549
0.00455244
0.00414464
0.00389204
0.00367416
0.00346696
0.00328255
0.00313131
0.0030115
0.00291523
0.0028359
0.00277338
0.00273674
0.00274359
0.00281839
0.00299122
0.00327878
0.00367476
0.00417219
0.00473361
0.00523305
0.00544932
0.00519749
0.00448542
0.00296991
0.0132986
0.0290847
0.0253562
0.0256457
0.0253592
0.0246895
0.0224016
0.0175142
0.0126428
0.00924868
0.00755097
0.00633574
0.00562092
0.00526309
0.00505151
0.00486437
0.00464304
0.00442281
0.00421422
0.00401985
0.00383857
0.00366813
0.00350877
0.00336607
0.00325134
0.00317881
0.00316201
0.00321093
0.0033496
0.00359837
0.00396485
0.00444306
0.00499629
0.0055524
0.00592092
0.00620251
0.00468145
0.00304975
0.0146864
0.0150867
0.0155818
0.0178362
0.0160426
0.0146719
0.0123457
0.00899078
0.00559238
0.00420026
0.00328447
0.0028447
0.0026335
0.00243344
0.00222793
0.00206036
0.00193437
0.0018385
0.00176821
0.00170764
0.0016577
0.00161885
0.0015914
0.00157609
0.00157439
0.00158855
0.00162144
0.00167664
0.00175913
0.00187711
0.0020304
0.0022217
0.00245486
0.00273432
0.00306326
0.00349076
0.00369445
0.00355235
0.00308036
0.0026319
)
;

boundaryField
{
    floor
    {
        type            kqRWallFunction;
        value           nonuniform List<scalar> 
36
(
0.00250042
0.000551406
0.000768607
0.000980034
0.00102802
0.00097874
0.000856283
0.000733465
0.000631478
0.000548964
0.000481738
0.000426453
0.000380828
0.000342402
0.000309098
0.000279027
0.000250354
0.000235497
0.000200411
0.000200411
0.000355977
0.000499992
0.000652147
0.00115714
0.00126281
0.00147155
0.00250042
0.00430763
0.00289018
0.00190323
0.000551406
0.00190323
0.000558598
0.00258356
0.00149638
0.00347143
)
;
    }
    ceiling
    {
        type            kqRWallFunction;
        value           nonuniform List<scalar> 
43
(
0.0146864
0.0150867
0.0155818
0.0178362
0.0160426
0.0146719
0.0123457
0.00899078
0.00559238
0.00420026
0.00328447
0.0028447
0.0026335
0.00243344
0.00222793
0.00206036
0.00193437
0.0018385
0.00176821
0.00170764
0.0016577
0.00161885
0.0015914
0.00157609
0.00157439
0.00158855
0.00162144
0.00167664
0.00175913
0.00187711
0.0020304
0.0022217
0.00245486
0.00273432
0.00306326
0.00349076
0.00369445
0.00355235
0.00308036
0.0026319
0.0195599
0.0277899
0.0132986
)
;
    }
    sWall
    {
        type            kqRWallFunction;
        value           uniform 0.0146864;
    }
    nWall
    {
        type            kqRWallFunction;
        value           nonuniform List<scalar> 6(0.00147155 0.00158623 0.00225758 0.00296991 0.00304975 0.0026319);
    }
    sideWalls
    {
        type            empty;
    }
    glass1
    {
        type            kqRWallFunction;
        value           nonuniform List<scalar> 9(0.00247997 0.00450916 0.00667183 0.00914776 0.0120801 0.0156849 0.0195741 0.0204604 0.0195599);
    }
    glass2
    {
        type            kqRWallFunction;
        value           nonuniform List<scalar> 2(0.00540341 0.00458345);
    }
    sun
    {
        type            kqRWallFunction;
        value           nonuniform List<scalar> 
14
(
0.00247997
0.00294935
0.00309438
0.00341424
0.00372459
0.00403072
0.00434597
0.00469082
0.005027
0.00531234
0.00548921
0.00548353
0.00521718
0.00455188
)
;
    }
    Table_master
    {
        type            kqRWallFunction;
        value           nonuniform List<scalar> 9(0.00156735 0.00120093 0.000935535 0.000745554 0.000608155 0.000507118 0.000431796 0.000375241 0.000333837);
    }
    Table_slave
    {
        type            kqRWallFunction;
        value           nonuniform List<scalar> 9(0.00195013 0.0016263 0.00142386 0.00128298 0.00116856 0.00106134 0.000963899 0.000866181 0.000758769);
    }
    inlet
    {
        type            turbulentIntensityKineticEnergyInlet;
        intensity       0.05;
        value           uniform 0.00375;
    }
    outlet
    {
        type            zeroGradient;
    }
}


// ************************************************************************* //
