/*--------------------------------*- C++ -*----------------------------------*\
  =========                 |
  \\      /  F ield         | OpenFOAM: The Open Source CFD Toolbox
   \\    /   O peration     | Website:  https://openfoam.org
    \\  /    A nd           | Version:  6
     \\/     M anipulation  |
\*---------------------------------------------------------------------------*/
FoamFile
{
    version     2.0;
    format      ascii;
    class       volScalarField;
    location    "600";
    object      nut;
}
// * * * * * * * * * * * * * * * * * * * * * * * * * * * * * * * * * * * * * //

dimensions      [0 2 -1 0 0 0 0];

internalField   nonuniform List<scalar> 
458
(
0.00111833
0.00121957
0.0012492
0.00131218
0.00137052
0.00142573
0.00148043
0.00153805
0.00159221
0.00163677
0.0016638
0.00166294
0.00162205
0.0015151
0.00112293
0.000527328
0.000622583
0.000703017
0.000720023
0.000702554
0.000657135
0.000608185
0.000564319
0.00052616
0.000492891
0.000463746
0.000438238
0.00041554
0.000394814
0.000375118
0.000355322
0.000344617
0.00031791
0.00150797
0.0034173
0.00312622
0.00356452
0.00400821
0.0044776
0.0049317
0.00529712
0.00565544
0.00602467
0.00636291
0.00662339
0.00675951
0.00666969
0.00570306
0.00147389
0.00120728
0.000979697
0.000530755
0.0012324
0.00178001
0.00218971
0.00230647
0.00171137
0.00145156
0.00127378
0.00114165
0.00103976
0.000958386
0.000886499
0.000819003
0.000752103
0.000692703
0.000640702
0.000782583
0.000423694
0.00183429
0.00462983
0.00383395
0.00469113
0.00508184
0.00536113
0.00556595
0.00573378
0.00594703
0.00623117
0.00656852
0.00694121
0.00731686
0.00759965
0.00738181
0.00596366
0.00449722
0.00114145
0.000868691
0.00146572
0.00206521
0.00262788
0.00275982
0.000889056
0.000778225
0.000686872
0.000613176
0.000553799
0.000505707
0.000466642
0.00043501
0.000410309
0.000451743
0.000519789
0.000912687
0.000502136
0.00214784
0.00593901
0.00380483
0.00499764
0.00529151
0.00530526
0.00523904
0.00522993
0.00534387
0.00557414
0.00590712
0.00633965
0.0068421
0.00732128
0.00750836
0.00715014
0.00611787
0.00331329
0.00132312
0.00175854
0.00239996
0.00310349
0.00366496
0.00362683
0.000991695
0.000905621
0.000847382
0.000804369
0.000767665
0.000731598
0.000697206
0.000660921
0.000618585
0.000579743
0.000575947
0.001097
0.000573473
0.0024682
0.00769817
0.00410577
0.00483316
0.00528442
0.00517482
0.00492684
0.00480174
0.00488785
0.00511453
0.00545132
0.00590473
0.0064346
0.00690435
0.00709744
0.00702649
0.0066392
0.00548703
0.00509055
0.00499341
0.00513106
0.00531672
0.00539639
0.00522624
0.00440986
0.00401067
0.00379335
0.00363284
0.00346487
0.00323705
0.00287947
0.00243248
0.00193492
0.0014602
0.00108822
0.00105323
0.0009547
0.000763898
0.000798017
0.000861453
0.00281246
0.00969926
0.00584112
0.00461085
0.00498061
0.00507162
0.00489415
0.00465068
0.00473188
0.00495764
0.00529085
0.0057429
0.00625352
0.00664002
0.00672331
0.00660007
0.00649071
0.00638007
0.00652115
0.0066966
0.00675979
0.00665839
0.00641053
0.0060464
0.00559547
0.00524784
0.00498242
0.00474776
0.00451605
0.00427032
0.00394449
0.00350303
0.00295003
0.00233293
0.00177219
0.00126759
0.001091
0.000995908
0.00125686
0.000894388
0.00314185
0.0111848
0.00872906
0.00615889
0.00515982
0.00481901
0.00484507
0.00482903
0.00488305
0.00503344
0.00532061
0.005746
0.00624077
0.00659127
0.00657404
0.0063627
0.00643883
0.00687018
0.00728627
0.00744131
0.00731036
0.00695971
0.00648044
0.0059547
0.00546898
0.00510095
0.00482431
0.0045913
0.00438188
0.00419608
0.00403231
0.00378439
0.00338215
0.00285622
0.00232626
0.00182185
0.00153006
0.00144552
0.00139659
0.001067
0.00321219
0.0100505
0.00911768
0.00834267
0.00727027
0.00631074
0.00583637
0.00547561
0.00521915
0.00523081
0.00546783
0.00586809
0.00635594
0.00668843
0.00659544
0.00639331
0.00673019
0.0071413
0.00730848
0.00718537
0.00680632
0.00626258
0.00566576
0.00511733
0.00468844
0.00438513
0.00416084
0.00398192
0.0038434
0.00375467
0.0037265
0.00373625
0.00357879
0.00324564
0.00293869
0.00279001
0.0029218
0.00319983
0.00397014
0.00165074
0.00314071
0.00374358
0.00424993
0.00466607
0.00495519
0.00500427
0.00493908
0.00490296
0.00500899
0.00529111
0.00563115
0.0060438
0.00653541
0.00684279
0.00667129
0.00657238
0.0066314
0.00658909
0.00638561
0.00601483
0.00551641
0.00498256
0.00450332
0.00412408
0.00384008
0.00361737
0.00342409
0.0032475
0.003088
0.00294768
0.00282379
0.00270762
0.00261117
0.00253459
0.00249686
0.0024885
0.00244621
0.0023238
0.0021629
0.00152034
0.000743576
0.00160284
0.00259034
0.0034341
0.00409317
0.00469037
0.00531451
0.00577473
0.00595393
0.00621535
0.0066232
0.00687382
0.00671578
0.00634696
0.00589002
0.00547361
0.00508867
0.00471834
0.00436741
0.00406001
0.00380792
0.00360136
0.00341985
0.00324521
0.00306927
0.00289562
0.00273628
0.00260717
0.00252394
0.00248961
0.00248188
0.00248641
0.00248681
0.00244847
0.00232323
0.00209568
0.00180559
0.00122381
0.00258969
0.00407491
0.00459493
0.00542382
0.00607401
0.00666078
0.00681247
0.0061263
0.00535907
0.00540881
0.00551654
0.00546178
0.00527981
0.0049706
0.00467529
0.00441503
0.00415859
0.00392798
0.00372544
0.00354938
0.00339518
0.00325605
0.00312627
0.00300402
0.00289185
0.00279428
0.00271416
0.00264912
0.00261501
0.00261863
0.00265259
0.00270374
0.00275157
0.00277603
0.00274269
0.00269739
0.00232044
0.00124016
0.00272146
0.00275831
0.0028032
0.00299914
0.00284435
0.00272012
0.00249519
0.00212934
0.00167936
0.00145541
0.001287
0.00119774
0.00115242
0.00110778
0.00105997
0.00101932
0.000987666
0.000962882
0.000944296
0.000927981
0.000914312
0.000903534
0.000895842
0.000891522
0.000891041
0.00089504
0.00090426
0.000919523
0.000941872
0.000972945
0.00101189
0.00105849
0.00111265
0.00117427
0.0012429
0.0013268
0.00136496
0.00133845
0.00124636
0.00115207
)
;

boundaryField
{
    floor
    {
        type            nutkWallFunction;
        Cmu             0.09;
        kappa           0.41;
        E               9.8;
        value           nonuniform List<scalar> 
36
(
0.000135068
6.32059e-05
7.51705e-05
8.50997e-05
8.71809e-05
8.50427e-05
7.94533e-05
7.33769e-05
6.7881e-05
6.30574e-05
5.88167e-05
5.50724e-05
5.17709e-05
4.88128e-05
4.60937e-05
4.34928e-05
4.08609e-05
3.94298e-05
3.58334e-05
3.58334e-05
4.98776e-05
5.99987e-05
6.90323e-05
9.25248e-05
9.6655e-05
0.00010428
0.000135068
0.000175155
0.000144817
0.000118319
6.32058e-05
0.000118319
6.36406e-05
0.000137216
0.000105145
0.000158084
)
;
    }
    ceiling
    {
        type            nutkWallFunction;
        Cmu             0.09;
        kappa           0.41;
        E               9.8;
        value           nonuniform List<scalar> 
43
(
0.000310373
0.00031425
0.000318968
0.000339538
0.000323388
0.000310359
0.000286572
0.000247368
0.000198115
0.000173078
0.000153967
0.000143726
0.000138493
0.000133316
0.000127745
0.000122985
0.000119263
0.000116339
0.000114141
0.000112208
0.000110584
0.000109303
0.000108387
0.000107872
0.000107814
0.000108291
0.000109389
0.000111203
0.000113854
0.000117527
0.000122112
0.000127571
0.000133882
0.000141021
0.000148922
0.000158515
0.000162856
0.000159842
0.00014932
0.000138456
0.000354662
0.000416736
0.000296346
)
;
    }
    sWall
    {
        type            nutkWallFunction;
        Cmu             0.09;
        kappa           0.41;
        E               9.8;
        value           uniform 0.000310452;
    }
    nWall
    {
        type            nutkWallFunction;
        Cmu             0.09;
        kappa           0.41;
        E               9.8;
        value           nonuniform List<scalar> 6(0.000104282 0.000108216 0.000128571 0.000146743 0.000148621 0.000138466);
    }
    sideWalls
    {
        type            empty;
    }
    glass1
    {
        type            nutkWallFunction;
        Cmu             0.09;
        kappa           0.41;
        E               9.8;
        value           nonuniform List<scalar> 9(0.000134667 0.000179247 0.000215581 0.00024983 0.000284273 0.000320763 0.000355243 0.000362568 0.000355156);
    }
    glass2
    {
        type            nutkWallFunction;
        Cmu             0.09;
        kappa           0.41;
        E               9.8;
        value           nonuniform List<scalar> 2(0.000195068 0.000180491);
    }
    sun
    {
        type            nutkWallFunction;
        Cmu             0.09;
        kappa           0.41;
        E               9.8;
        value           nonuniform List<scalar> 
14
(
0.000134537
0.00014623
0.000149632
0.000156833
0.00016347
0.000169721
0.000175889
0.000182358
0.000188415
0.000193382
0.000196387
0.000196292
0.000191743
0.000179786
)
;
    }
    Table_master
    {
        type            nutkWallFunction;
        Cmu             0.09;
        kappa           0.41;
        E               9.8;
        value           nonuniform List<scalar> 9(0.000107573 9.42609e-05 8.312e-05 7.40034e-05 6.65619e-05 6.0463e-05 5.54562e-05 5.13638e-05 4.81421e-05);
    }
    Table_slave
    {
        type            nutkWallFunction;
        Cmu             0.09;
        kappa           0.41;
        E               9.8;
        value           nonuniform List<scalar> 9(0.00011973 0.000109546 0.000102592 9.74203e-05 9.29814e-05 8.8595e-05 8.43883e-05 7.99231e-05 7.46759e-05);
    }
    inlet
    {
        type            calculated;
        value           uniform 0.00033541;
    }
    outlet
    {
        type            calculated;
        value           nonuniform List<scalar> 2(0.00272146 0.00275831);
    }
}


// ************************************************************************* //
