/*--------------------------------*- C++ -*----------------------------------*\
  =========                 |
  \\      /  F ield         | OpenFOAM: The Open Source CFD Toolbox
   \\    /   O peration     | Website:  https://openfoam.org
    \\  /    A nd           | Version:  6
     \\/     M anipulation  |
\*---------------------------------------------------------------------------*/
FoamFile
{
    version     2.0;
    format      ascii;
    class       surfaceScalarField;
    location    "2100";
    object      phi;
}
// * * * * * * * * * * * * * * * * * * * * * * * * * * * * * * * * * * * * * //

dimensions      [1 0 -1 0 0 0 0];

internalField   nonuniform List<scalar> 
850
(
-0.00234368
0.00239967
-0.00258568
0.000242061
-0.0026872
0.00010159
-0.00278067
9.3539e-05
-0.00283834
5.77369e-05
-0.00285755
1.92784e-05
-0.00284112
-1.63564e-05
-0.00278846
-5.26e-05
-0.00269422
-9.41711e-05
-0.00254933
-0.000144827
-0.00234206
-0.000207199
-0.00205768
-0.00028431
-0.00166386
-0.000393757
-0.0010556
-0.000608199
-0.00105467
-0.000524917
0.000528279
-0.000527671
2.81253e-06
-0.000401342
-0.000126269
-0.000338715
-6.25657e-05
-0.000315368
-2.32833e-05
-0.000124331
-0.000190971
0.000128072
-0.000252339
0.000247999
-0.000119876
0.000328853
-8.08019e-05
0.000406875
-7.79682e-05
0.000482333
-7.54029e-05
0.000538826
-5.64375e-05
0.000543479
-4.59578e-06
0.000526207
1.73297e-05
0.000525914
3.5051e-07
0.000576954
-5.09861e-05
0.000570216
6.7905e-06
0.000573198
-0.00167313
0.00421545
-0.00219647
0.000765473
-0.00240608
0.000311266
-0.00252831
0.000215841
-0.00259621
0.000125707
-0.00262696
5.0097e-05
-0.00262935
-1.38995e-05
-0.00260671
-7.51669e-05
-0.00255832
-0.000142498
-0.00248028
-0.0002228
-0.00236604
-0.000321379
-0.00220401
-0.000446269
-0.00198099
-0.000616719
-0.00174308
-0.000846042
-0.00178218
-0.0010155
-0.000839944
-0.000940592
0.00015351
-0.000991684
0.000159398
0.000719606
-0.000183979
0.000619839
0.000102642
0.000333335
0.000160299
0.000155991
0.000114843
-7.08466e-05
0.000203616
-0.000143582
-0.000118161
-5.30149e-05
-0.000342837
-7.07126e-06
-0.000165762
4.55028e-06
-9.23693e-05
-1.06214e-05
-6.27414e-05
-4.92302e-05
-3.67373e-05
-0.000113637
8.02838e-06
-0.000184985
6.68082e-05
-0.000228417
6.08145e-05
-0.000153062
-7.49545e-05
3.56964e-05
-0.000239693
9.59674e-05
-5.343e-05
0.000676602
-0.00119401
0.00561775
-0.00177391
0.00134545
-0.00200138
0.000538817
-0.00212028
0.000334812
-0.00217733
0.000182828
-0.00220483
7.7673e-05
-0.00221602
-2.64692e-06
-0.00221464
-7.64728e-05
-0.00220197
-0.000155114
-0.00217656
-0.000248146
-0.00213593
-0.000361943
-0.00207792
-0.000504215
-0.00201107
-0.000683504
-0.00197205
-0.000885005
-0.00194799
-0.0010395
-0.00176028
-0.00112823
-0.00150662
-0.00124528
-0.00134296
-0.000481475
0.000304805
-0.000535241
0.000156472
-0.00044887
7.39901e-05
-0.000312637
-2.13296e-05
4.82041e-05
-0.000157163
-6.97624e-05
-0.000412372
-0.000577911
-0.000670066
-0.000732597
-0.000769126
-0.000760892
-0.000693878
-0.000632858
-0.000488258
-0.0002195
-0.00073724
9.34726e-06
-0.000880884
9.02726e-05
-0.00019487
-0.000829014
0.00670714
-0.00136823
0.00188476
-0.00150044
0.000671114
-0.00153037
0.000364833
-0.00154506
0.000197601
-0.00156613
9.88149e-05
-0.00159536
2.66596e-05
-0.00162576
-4.60116e-05
-0.00165322
-0.000127586
-0.00167775
-0.00022355
-0.0017012
-0.000338439
-0.00172957
-0.00047578
-0.0017763
-0.000636716
-0.0018588
-0.000802448
-0.00196217
-0.000936068
-0.00206186
-0.00102847
-0.00223009
-0.00107699
-0.00268736
-0.00088563
-0.00223163
-0.000450753
-0.0018052
-0.000121554
-0.00164824
-4.18475e-07
-0.00155812
-1.60697e-05
-0.00150952
-6.98639e-05
-0.00154365
-0.000122958
-0.00142172
-0.000122016
-0.00128563
-0.000136168
-0.00113576
-0.000149953
-0.00097648
-0.000159359
-0.000809868
-0.000166695
-0.000634032
-0.000175919
-0.000441253
-0.000192863
-0.000219391
-0.000221947
4.08728e-05
-0.00026035
0.000157669
-0.000336233
0.000430876
-0.000263795
0.000615819
-9.46029e-05
0.00042758
-0.000542337
0.00755378
-0.00100753
0.00235004
-0.000891321
0.000555008
-0.000683984
0.000157598
-0.000598335
0.000112049
-0.000618232
0.000118802
-0.000693437
0.000101946
-0.000792006
5.26309e-05
-0.000890093
-2.94331e-05
-0.000978284
-0.000135298
-0.00106395
-0.000252711
-0.00115809
-0.000381588
-0.0012719
-0.000522847
-0.00141193
-0.000662368
-0.00156896
-0.000778973
-0.00173915
-0.000858227
-0.00194539
-0.000870684
-0.00209968
-0.000731272
-0.00206604
-0.000484331
-0.00191397
-0.000273549
-0.00175325
-0.000161073
-0.00163265
-0.000136599
-0.00154785
-0.000154602
-0.00148758
-0.000183157
-0.001406
-0.000203522
-0.00131779
-0.000224313
-0.00122534
-0.000242325
-0.00112836
-0.000256274
-0.00102678
-0.000268199
-0.000918456
-0.000284178
-0.000797365
-0.000313886
-0.000651373
-0.000367871
-0.000457996
-0.00045366
-0.000225372
-0.00056879
0.000183271
-0.000672371
0.000805813
-0.000717077
0.00189037
-0.000656905
0.00240468
-0.000510072
0.00199242
0.000416904
0.00202822
-0.000464633
0.00836162
-0.000671456
0.00255695
-2.55655e-05
-9.07782e-05
0.000517716
-0.00038558
0.000671222
-4.13533e-05
0.000625571
0.000164549
0.000504558
0.000223048
0.000336151
0.000221118
0.000137927
0.000168864
-6.0029e-05
6.2725e-05
-0.000235846
-7.68361e-05
-0.000398349
-0.00021903
-0.000567888
-0.000353254
-0.000751349
-0.000478855
-0.000944964
-0.000585303
-0.00114698
-0.000656158
-0.00134803
-0.000669571
-0.00148553
-0.000593707
-0.00151907
-0.000450737
-0.00147347
-0.000319083
-0.00139846
-0.000236018
-0.00133108
-0.00020391
-0.00128127
-0.000204343
-0.00124525
-0.000219104
-0.00121269
-0.000236013
-0.00118393
-0.00025301
-0.00116029
-0.000265889
-0.00114373
-0.000272768
-0.0011363
-0.000275564
-0.00113861
-0.000281793
-0.00114751
-0.000304921
-0.00115364
-0.000361674
-0.00114027
-0.000466953
-0.00108114
-0.000627853
-0.000912649
-0.000840797
-0.000522999
-0.00110666
0.00021477
-0.00139461
0.0010705
-0.00136573
0.00129927
0.0001882
0.00336356
-0.000633872
0.00937762
0.00011777
0.0018054
0.00152541
-0.00149833
0.00209417
-0.000954268
0.00208835
-3.54551e-05
0.00195727
0.000295702
0.00177043
0.000409973
0.00154101
0.000450607
0.0012952
0.000414738
0.00104177
0.000316223
0.000781996
0.000182999
0.000530691
3.23321e-05
0.00029508
-0.000117591
6.42629e-05
-0.000247987
-0.000166498
-0.000354491
-0.000391006
-0.000431598
-0.00059559
-0.000464932
-0.000748098
-0.000441142
-0.000827254
-0.000371522
-0.000849577
-0.000296699
-0.000842957
-0.000242575
-0.000831455
-0.000215349
-0.000826864
-0.000208869
-0.000831937
-0.000213965
-0.000845536
-0.000222347
-0.000869611
-0.000228866
-0.000908144
-0.000227287
-0.000968189
-0.000212653
-0.00105971
-0.00018397
-0.00119388
-0.000147558
-0.0013776
-0.000121129
-0.00160709
-0.000132118
-0.00186689
-0.000207079
-0.00212981
-0.000364865
-0.00235599
-0.000614553
-0.00249239
-0.00097019
-0.0024518
-0.00143513
-0.00202472
-0.00179274
-0.000733429
-0.00110302
0.00267323
0.0023356
0.00747525
0.00362296
0.000518116
0.00432879
-0.0022041
0.00401701
-0.000642443
0.00360111
0.0003805
0.00323768
0.000659185
0.00286765
0.000780061
0.00251929
0.000799022
0.00221317
0.000720912
0.00194476
0.000584693
0.00169951
0.0004283
0.00145558
0.000276314
0.00120186
0.000136177
0.00094678
7.14528e-06
0.000699011
-0.000106674
0.000462427
-0.000194965
0.000247042
-0.000249497
7.25305e-05
-0.000266578
-4.69006e-05
-0.000252036
-0.00011879
-0.000224754
-0.000161784
-0.000199522
-0.000193864
-0.00018321
-0.000226349
-0.000176322
-0.000264515
-0.000175736
-0.000310116
-0.000176681
-0.000365121
-0.000173796
-0.000432683
-0.000159658
-0.000519357
-0.000125911
-0.000636997
-6.62603e-05
-0.000807339
2.28528e-05
-0.00106777
0.000139369
-0.00146112
0.000261306
-0.0020068
0.000338663
-0.00268645
0.000314861
-0.00344777
0.000146834
-0.00427392
-0.000143974
-0.00527872
-0.000430255
-0.00636641
-0.000704988
-0.00584859
-0.00162078
-0.00299268
0.00794784
0.00845102
0.00740427
-0.00115733
0.00507473
0.00168712
0.00437016
0.0010851
0.00375731
0.00127206
0.00321941
0.001318
0.00282289
0.00119559
0.00253994
0.00100391
0.00232685
0.00079783
0.00215217
0.000603028
0.00199545
0.00043308
0.00183951
0.000292169
0.00166743
0.000179273
0.00147422
8.6578e-05
0.00127127
8.02818e-06
0.00107633
-5.4506e-05
0.000905446
-9.56446e-05
0.000769166
-0.000115706
0.000667013
-0.000122548
0.000589697
-0.000122153
0.000526213
-0.00011967
0.000467753
-0.000117805
0.000408864
-0.000116788
0.000347088
-0.000114845
0.000281913
-0.000108558
0.000214719
-9.24e-05
0.000148198
-5.93242e-05
8.73239e-05
-5.31955e-06
3.05746e-05
7.967e-05
-2.73878e-05
0.0001974
-8.82704e-05
0.000322258
-0.000151864
0.000402326
-0.000220854
0.000383921
-0.000325623
0.000251673
-0.00049995
3.0423e-05
-0.000761828
-0.00016831
-0.00110903
-0.000357717
-0.00126883
-0.00146091
-0.00406498
-0.00252459
0.00268105
-0.000823698
-1.37513e-05
0.000854071
-0.000592649
0.00157289
0.000553276
0.00181678
0.00107416
0.00194156
0.00107086
0.00201492
0.00093059
0.00205979
0.000753015
0.00208113
0.000581732
0.00207979
0.000434463
0.00205608
0.000315927
0.00201117
0.000224229
0.00194407
0.000153728
0.00185247
9.96738e-05
0.00174294
5.50653e-05
0.00162669
2.06531e-05
0.00151546
-4.43474e-06
0.00141531
-2.23477e-05
0.00132677
-3.35652e-05
0.00124779
-4.06385e-05
0.00117527
-4.52274e-05
0.00110643
-4.7889e-05
0.00103967
-4.80333e-05
0.000975169
-4.39992e-05
0.000915782
-3.29525e-05
0.000867206
-1.06871e-05
0.000833986
2.79639e-05
0.000826644
8.70773e-05
0.000855984
0.000168126
0.000926665
0.000251644
0.00103249
0.000296571
0.00116303
0.000253443
0.00131795
9.68231e-05
0.00148693
-0.00013848
0.00173308
-0.000414391
0.00206728
-0.000691851
0.00182236
-0.00121592
-0.00219767
-0.00106869
0.00374949
-0.000344831
-0.000737572
-0.000294295
-0.000643144
7.88382e-05
0.000180182
0.000581097
0.000571944
0.00102801
0.000623995
0.00138558
0.000573069
0.00166626
0.000472377
0.00187621
0.000371826
0.0020213
0.000289428
0.00211163
0.000225645
0.00215835
0.000177547
0.00217068
0.000141451
0.00215642
0.000113978
0.0021199
9.16296e-05
0.00206751
7.30895e-05
0.00200537
5.77494e-05
0.00193739
4.56812e-05
0.00186907
3.47995e-05
0.00180296
2.55193e-05
0.00173975
1.80309e-05
0.00167936
1.25546e-05
0.00162198
9.40191e-06
0.00156899
9.03951e-06
0.00152385
1.22499e-05
0.00149289
2.03208e-05
0.00148303
3.78879e-05
0.00150414
6.60311e-05
0.00157012
0.000102205
0.00168643
0.000135397
0.00184108
0.000141987
0.00200219
9.23998e-05
0.00212708
-2.80084e-05
0.00218871
-0.000200037
0.0022191
-0.000444717
0.00236338
-0.000836061
0.00242784
-0.00128032
0.000280941
-0.00300399
-0.00368599
6.32151e-05
-0.00068253
-0.00134328
-0.00118436
-0.000634628
-3.4217e-05
0.00051361
0.000959408
0.00130349
0.00156424
0.00176051
0.00190821
0.00201959
0.00210345
0.00216507
0.00220836
0.00223661
0.00225311
0.00225907
0.00225605
0.00224585
0.00223046
0.00221222
0.00219391
0.00217912
0.00217275
0.00218433
0.00222447
0.00230122
0.00241159
0.00252886
0.00259668
0.00254398
0.0023191
0.00184915
0.000986978
-0.000319336
)
;

boundaryField
{
    floor
    {
        type            calculated;
        value           nonuniform List<scalar> 
36
(
0
0
0
0
0
0
0
0
0
0
0
0
0
0
0
0
0
0
0
-2.93274e-06
-7.38898e-06
-9.35166e-06
-6.56495e-06
-4.1754e-06
-4.56506e-06
-4.97946e-06
-8.55214e-07
-1.57931e-06
-1.7023e-06
-2.2986e-06
-3.30408e-06
-3.52404e-06
-7.2872e-06
-4.18775e-06
-7.24169e-06
-4.90956e-06
)
;
    }
    ceiling
    {
        type            calculated;
        value           nonuniform List<scalar> 
43
(
1.31408e-06
5.84793e-07
3.33849e-07
8.20044e-06
1.76564e-05
2.13064e-05
2.22604e-05
2.36312e-05
2.52907e-05
2.66265e-05
2.77877e-05
2.8729e-05
2.94276e-05
2.98849e-05
3.01205e-05
3.01655e-05
3.00583e-05
2.98394e-05
2.95494e-05
2.92241e-05
2.88959e-05
2.858e-05
2.82794e-05
2.79887e-05
2.76987e-05
2.73997e-05
2.70837e-05
2.6743e-05
2.63639e-05
2.59464e-05
2.5508e-05
2.50914e-05
2.47689e-05
2.46384e-05
2.47552e-05
2.49065e-05
2.53022e-05
2.61725e-05
2.6065e-05
2.35266e-05
1.74573e-05
1.50071e-05
2.92182e-07
)
;
    }
    sWall
    {
        type            calculated;
        value           uniform -0.000141099;
    }
    nWall
    {
        type            calculated;
        value           nonuniform List<scalar> 6(-3.07564e-05 -3.59976e-05 -4.3027e-05 -4.48861e-05 -5.07033e-05 -6.18553e-05);
    }
    sideWalls
    {
        type            empty;
        value           nonuniform 0();
    }
    glass1
    {
        type            calculated;
        value           nonuniform List<scalar> 9(-5.5917e-05 -0.000142592 -0.000208228 -0.000260316 -0.000304242 -0.000343137 -0.000382063 -0.000433159 -0.000489975);
    }
    glass2
    {
        type            calculated;
        value           nonuniform List<scalar> 2(-0.000182621 -0.000196461);
    }
    sun
    {
        type            calculated;
        value           uniform 0;
    }
    Table_master
    {
        type            calculated;
        value           nonuniform List<scalar> 9(-1.53118e-07 -1.53104e-07 -1.53e-07 -1.52924e-07 -1.52862e-07 -1.52808e-07 -1.52763e-07 -1.52713e-07 -1.5264e-07);
    }
    Table_slave
    {
        type            calculated;
        value           nonuniform List<scalar> 9(1.51921e-07 1.51964e-07 1.52005e-07 1.5205e-07 1.52097e-07 1.52145e-07 1.52194e-07 1.52249e-07 1.5228e-07);
    }
    inlet
    {
        type            calculated;
        value           uniform -0.00131372;
    }
    outlet
    {
        type            calculated;
        value           nonuniform List<scalar> 2(0.00314382 0.000681453);
    }
}


// ************************************************************************* //
