/*--------------------------------*- C++ -*----------------------------------*=========                 |
  \      /  F ield         | OpenFOAM: The Open Source CFD Toolbox
   \    /   O peration     | Website:  https://openfoam.org
    \  /    A nd           | Version:  6
     \/     M anipulation  |
\*---------------------------------------------------------------------------*/
FoamFile
{
    version     2.0;
    format      ascii;
    class       volScalarField;
    location    "2100";
    object      PMV;
}
// * * * * * * * * * * * * * * * * * * * * * * * * * * * * * * * * * * * * * //

dimensions      [0 0 0 0 0 0 0];

internalField   nonuniform List<scalar> 
458
(
2.2697837725444914
2.117241484191131
2.1249795591680676
2.1233065735071457
2.1221782568642653
2.121625371456584
2.1220791579151244
2.123489456057253
2.1249104676811297
2.1275802628193325
2.131143729809633
2.13802304458854
2.1486957404556324
2.158779215720118
2.1468694716803975
1.7842793064962053
1.7852400189976905
1.7895631018266305
1.779955977599931
1.7732304036140027
1.7789952107054066
1.7852400189976905
1.7818774818294634
1.777073647451624
1.7746716383328889
1.7746716383328889
1.776112851130173
1.777073647451624
1.782357851714738
1.795326895763862
1.8126160673961513
1.814056679607828
1.8126160673961513
2.308907019821391
2.1500437597988102
2.1655286006998766
2.161117998121833
2.160947394353379
2.161585973412109
2.1616336438865376
2.161918171721205
2.1623342635841474
2.161994653697063
2.1611812402715445
2.160378581505025
2.158895352567543
2.153398363100495
2.141973911719911
2.1491723185989042
2.158937091298409
2.13505542138896
1.7852071535349983
1.8371032039298545
1.8409436814632185
1.8414237286829445
1.8308620522205417
1.8068533827823499
1.8102149945345307
1.8135764781685186
1.8116556461153652
1.8126160673961513
1.8174180157741615
1.8294217208771204
1.8558238406627403
1.8836566949807083
1.913877409556736
1.909081299693012
1.8721408523869376
1.7904816797363639
2.3889477237467407
2.1888424710141083
2.219139282766072
2.209099046962808
2.209221976182972
2.2100380954010292
2.2104441575701026
2.210757209618877
2.2103268049529525
2.208182332307505
2.2048526471143473
2.1997825200739367
2.190829012522049
2.176352928315316
2.1574976577505915
2.140652415563663
2.1193028950408928
2.087492386670817
1.9608618916876324
1.9474410546137082
1.9450441931810694
1.952234521270558
1.957506936893294
1.8673420806828425
1.8371032039298545
1.8606233096327174
1.8798182720391179
1.8970896447134862
1.9133978129166491
1.930181772618162
1.9507965172739843
1.9809879810302833
2.014038229939875
1.9632581830552582
1.9268252999860715
1.8309755850802192
2.480096980381115
2.250876675840171
2.295257714251235
2.282550704486698
2.279529334776415
2.278595388726056
2.276331051454651
2.273627484401622
2.27044964158671
2.2667270402999864
2.2608983858148117
2.25264750882572
2.23943868937653
2.220973799184053
2.196982887550902
2.1683529554503114
2.131542370841965
2.0873070696394698
2.0594530564393407
2.055438651526865
2.0680946106243114
2.0968758410386945
2.121584054612681
2.1377766677443084
2.153211287699433
2.162155794818084
2.17119616726073
2.181840686973765
2.184237718069958
2.187101005083327
2.189964098114198
2.191395571548249
2.187101005083327
2.1546393153264787
2.13314435395334
2.1063813797431736
2.101600733118217
2.574738782714581
2.333110094561413
2.393979564184438
2.388402648738094
2.379387752690987
2.37036998410558
2.3618242348803293
2.353276002217258
2.34662568832966
2.3413994199744983
2.331156655208667
2.318922194669973
2.302525734108932
2.282548808792202
2.2583602813594035
2.231097549401176
2.201680892338803
2.1746374834661966
2.15673834846001
2.148176844659581
2.151625179529274
2.1604193197609733
2.1678399471505645
2.173071820520328
2.1775447227349187
2.1823077422284958
2.187449242928601
2.193923732929073
2.20221386553537
2.208092445517903
2.212384824833366
2.2161998882986405
2.2181072833231426
2.2157230252710294
2.2152461565454447
2.212384824833366
2.1935902915171566
2.1670704466194737
2.145850131267323
2.170359822018895
2.668115808605938
2.429569545740418
2.503889584043196
2.502000964141678
2.4821604548570866
2.461356216616865
2.441953797538191
2.424432359832203
2.4087938773533097
2.394569051476665
2.38413279642707
2.3746419132617955
2.3641983051426467
2.3513760621889723
2.3296360796573152
2.3019480339982685
2.27418366083286
2.2493628256235936
2.230907085158317
2.2193891676796236
2.214003064422158
2.2123922514925436
2.211313606849123
2.209851730045076
2.2089809818801833
2.208444371852909
2.2086525782926327
2.209995009527153
2.2127888357436767
2.2163987040305897
2.221196751112238
2.225371454275068
2.2295994008624755
2.2330900688482624
2.2382182430537814
2.2447193320812873
2.245219122157496
2.2410600208489604
2.2015798078084052
2.156265326338173
2.7610136929598768
2.547230441131011
2.595073390634669
2.5666251265118842
2.5405134641015783
2.5141258097447
2.4897111749539316
2.4694339966341428
2.454801244594339
2.444705058698756
2.4394232301503314
2.4249061056581964
2.4111639459634264
2.397414615995543
2.3808113497282575
2.3627738860332403
2.3437751072228026
2.3242891078903645
2.3062182647847864
2.290517151264497
2.2776654181419467
2.267666371659002
2.259569862850757
2.2524243921110076
2.245754042034095
2.240035655385074
2.235746299986538
2.2328864627533425
2.2328864627533425
2.229909816600161
2.227279522787139
2.224864232786492
2.2217235382757394
2.218271175243598
2.214672843358659
2.210827280740342
2.207043100473255
2.2097213113001577
2.2365260133113862
2.1141794261770874
2.8856603567365404
2.7772047188294366
2.6462949914782787
2.5868514966321063
2.5579747844472767
2.5350963845261623
2.5134432940641007
2.4940602722369407
2.4771924869282222
2.4636419014401683
2.453048486058139
2.4449126588570196
2.438171385867453
2.4325557472434878
2.4239586052274027
2.407371734347536
2.389825787112115
2.371794031020901
2.3537509684240536
2.337122720956031
2.322387389197121
2.3100234845262135
2.298606517709061
2.288613492002442
2.2786175609714423
2.269094978702176
2.2605224870753884
2.2529007999287503
2.2481364467632536
2.246230535094039
2.2481364467632536
2.242870316266921
2.230141843339685
2.2160538956881104
2.2027036691927098
2.19092438369721
2.1820425297309445
2.1766656904630057
2.167357133310641
2.134604405959921
3.0
2.9726030797492244
2.5606513588232644
2.4653138927912326
2.4614640844497737
2.474225894675432
2.4800088509387797
2.4795770452657395
2.4754471510692087
2.4690577228773214
2.461704510413987
2.4540192256936266
2.4468373750191423
2.4400143321609775
2.4328670071777365
2.424999345377586
2.4175063033697417
2.409157644467633
2.3969403758741605
2.3812858661225462
2.3670469351621906
2.3537509684240536
2.3409242604679905
2.3290429076087404
2.3171570817941745
2.305266891436755
2.2933724416331454
2.2819498571816212
2.271952021614423
2.263856475431085
2.2586172137694893
2.2567118412257843
2.257664539878807
2.259569862850757
2.2614750863960227
2.263856475431085
2.267666371659002
2.273380457155733
2.2308864805018023
2.1528056494473615
0.9194166118391595
2.108943551894399
2.381043499903041
2.439552533552262
2.4605133455864174
2.469807460327981
2.47186558459584
2.469138867722244
2.4638647002418375
2.4575842874328546
2.450993731872182
2.44423218828781
2.437451380646562
2.430276211581156
2.4224212998963703
2.4141925049534905
2.405299255058868
2.395918765536141
2.3864176660344847
2.377260926243879
2.3680453453259003
2.358867145244658
2.350277224770034
2.341382891109614
2.3304689082965715
2.3171570817941745
2.304315490829969
2.2919448262945576
2.2805217691075574
2.272428173173117
2.264510410954719
2.2568523805811287
2.2511382974897765
2.2441420793329834
2.235969959243957
2.223400929441444
2.2003058003078273
2.1958338866511187
1.3310166749104342
1.9919167075231643
2.3183942506236104
2.430590367440774
2.4774338882697786
2.487881404239538
2.4831261996395186
2.475160969335982
2.4655381071370566
2.456364318719714
2.448063982724728
2.439931436935622
2.4322430202649046
2.4253347781287187
2.4176142514707206
2.4099671084915504
2.4022733746940816
2.3934570135152735
2.384337849933735
2.3747999359683507
2.364785339384276
2.3547823883191037
2.3443252174499025
2.333933675011165
2.3231379027752457
2.3119242754955938
2.299950575866965
2.287643790247151
2.2753203141551066
2.262761612045254
2.249578109621409
2.237034371734295
2.2261917481903644
2.2181724900981874
2.212495232438436
2.207801768168236
2.1880146344813682
2.2158249751741765
1.542506519339796
1.5686806600648853
1.4707712168739886
2.024621910294291
2.3238526065833427
2.3808807108796
2.410047775509035
2.4204962315429612
2.4224997001216537
2.418572876306587
2.412996855871348
2.4063841272748516
2.3991436121338223
2.3929830402348347
2.3863453271107935
2.3802428715362542
2.374084732642773
2.3678074187297367
2.3618598884640436
2.3551117931263277
2.347442531015585
2.3398220255867628
2.3316850139599095
2.322494618173262
2.3127892214104624
2.30259478586058
2.292474589204252
2.2809075533512595
2.2696144643922866
2.2576245549469016
2.2453822830891474
2.233118501586592
2.2214544263229947
2.2106428517340992
2.2017287776904815
2.196050376525036
2.193952340763201
2.1964839708632673
2.1783311493731534
2.100070492967449
)
;

boundaryField
{
    ".*"
    {
        type            zeroGradient;
    }
}


// ************************************************************************* //
