// -*- C++ -*-
// File generated by PyFoam - sorry for the ugliness

FoamFile
{
 version 2.0;
 format ascii;
 class volScalarField;
 location "2100";
 object T;
}

dimensions [ 0 0 0 1 0 0 0 ];

internalField nonuniform List<scalar> 458
(
  304.697
  304.422
  304.414
  304.417
  304.419
  304.42
  304.421
  304.422
  304.421
  304.42
  304.417
  304.414
  304.409
  304.404
  304.397
  303.572
  303.574
  303.583
  303.563
  303.549
  303.561
  303.574
  303.567
  303.557
  303.552
  303.552
  303.555
  303.557
  303.568
  303.595
  303.631
  303.634
  303.631
  304.904
  304.506
  304.475
  304.478
  304.483
  304.487
  304.488
  304.488
  304.487
  304.483
  304.476
  304.466
  304.452
  304.433
  304.407
  304.381
  304.354
  304.304
  303.671
  303.682
  303.69
  303.691
  303.669
  303.619
  303.626
  303.633
  303.629
  303.631
  303.641
  303.666
  303.721
  303.779
  303.842
  303.832
  303.755
  303.662
  305.096
  304.614
  304.554
  304.55
  304.556
  304.56
  304.562
  304.563
  304.562
  304.557
  304.549
  304.537
  304.518
  304.491
  304.455
  304.413
  304.369
  304.331
  303.94
  303.912
  303.907
  303.922
  303.933
  303.745
  303.682
  303.731
  303.771
  303.807
  303.841
  303.876
  303.919
  303.982
  304.051
  303.945
  303.869
  303.813
  305.277
  304.756
  304.679
  304.66
  304.658
  304.657
  304.654
  304.651
  304.647
  304.642
  304.633
  304.62
  304.599
  304.57
  304.53
  304.479
  304.416
  304.341
  304.273
  304.218
  304.234
  304.278
  304.325
  304.359
  304.388
  304.393
  304.397
  304.402
  304.407
  304.413
  304.419
  304.422
  304.413
  304.345
  304.3
  304.244
  304.234
  305.45
  304.925
  304.858
  304.836
  304.817
  304.798
  304.78
  304.762
  304.748
  304.737
  304.725
  304.711
  304.69
  304.663
  304.627
  304.584
  304.537
  304.49
  304.449
  304.42
  304.414
  304.42
  304.427
  304.432
  304.435
  304.437
  304.439
  304.443
  304.45
  304.457
  304.466
  304.474
  304.478
  304.473
  304.472
  304.466
  304.441
  304.466
  304.462
  304.468
  305.613
  305.113
  305.08
  305.076
  305.034
  304.99
  304.949
  304.912
  304.879
  304.849
  304.827
  304.807
  304.785
  304.758
  304.724
  304.684
  304.641
  304.598
  304.56
  304.531
  304.512
  304.501
  304.493
  304.486
  304.481
  304.477
  304.475
  304.476
  304.481
  304.489
  304.501
  304.513
  304.526
  304.537
  304.547
  304.555
  304.56
  304.561
  304.522
  304.492
  305.771
  305.328
  305.333
  305.29
  305.233
  305.174
  305.117
  305.065
  305.02
  304.98
  304.945
  304.913
  304.884
  304.855
  304.82
  304.782
  304.742
  304.701
  304.663
  304.63
  304.603
  304.582
  304.565
  304.55
  304.536
  304.524
  304.515
  304.509
  304.509
  304.514
  304.525
  304.54
  304.555
  304.569
  304.581
  304.59
  304.594
  304.591
  304.568
  304.502
  305.981
  305.671
  305.487
  305.385
  305.319
  305.26
  305.207
  305.159
  305.114
  305.074
  305.039
  305.008
  304.977
  304.945
  304.911
  304.876
  304.839
  304.801
  304.763
  304.728
  304.697
  304.671
  304.647
  304.626
  304.605
  304.585
  304.567
  304.551
  304.541
  304.537
  304.541
  304.551
  304.566
  304.58
  304.594
  304.606
  304.617
  304.628
  304.639
  304.652
  306.275
  306.12
  305.323
  305.189
  305.161
  305.16
  305.156
  305.144
  305.125
  305.102
  305.078
  305.054
  305.031
  305.008
  304.982
  304.952
  304.921
  304.887
  304.854
  304.821
  304.791
  304.763
  304.736
  304.711
  304.686
  304.661
  304.636
  304.612
  304.591
  304.574
  304.563
  304.559
  304.561
  304.565
  304.569
  304.574
  304.582
  304.594
  304.614
  304.672
  302.798
  304.392
  304.829
  305.001
  305.067
  305.092
  305.096
  305.089
  305.077
  305.063
  305.048
  305.032
  305.015
  304.996
  304.974
  304.95
  304.924
  304.897
  304.87
  304.844
  304.818
  304.792
  304.767
  304.741
  304.714
  304.686
  304.659
  304.633
  304.609
  304.592
  304.581
  304.575
  304.572
  304.571
  304.573
  304.574
  304.576
  304.587
  303.277
  304.238
  304.704
  304.925
  305.024
  305.057
  305.068
  305.068
  305.062
  305.054
  305.045
  305.034
  305.022
  305.01
  304.995
  304.979
  304.962
  304.942
  304.921
  304.899
  304.876
  304.853
  304.829
  304.805
  304.78
  304.754
  304.726
  304.697
  304.669
  304.644
  304.623
  304.608
  304.599
  304.593
  304.588
  304.583
  304.577
  304.584
  303.424
  303.369
  303.367
  304.275
  304.802
  304.951
  305.007
  305.03
  305.04
  305.038
  305.034
  305.028
  305.02
  305.013
  305.004
  304.995
  304.985
  304.974
  304.963
  304.95
  304.935
  304.92
  304.904
  304.886
  304.867
  304.847
  304.827
  304.804
  304.781
  304.756
  304.73
  304.704
  304.68
  304.659
  304.642
  304.626
  304.61
  304.593
  304.576
  304.592
)
;

boundaryField
{
  floor
  {
    type wallHeatTransfer;
    Tinf uniform 305.2;
    alphaWall uniform 0.24;
    value nonuniform List<scalar> 36
(
  304.512
  304.015
  303.995
  303.992
  304.023
  304.074
  304.109
  304.145
  304.147
  304.132
  304.102
  304.066
  304.037
  304.024
  304.011
  304.003
  304.002
  303.998
  304.024
  304.024
  303.993
  304.063
  304.36
  304.54
  304.543
  304.555
  304.512
  304.491
  304.472
  304.462
  304.015
  304.462
  303.997
  304.444
  304.135
  304.387
)
;
  }
  ceiling
  {
    type wallHeatTransfer;
    Tinf uniform 303.2;
    alphaWall uniform 0.24;
    value nonuniform List<scalar> 43
(
  303.413
  303.362
  303.362
  304.226
  304.699
  304.828
  304.878
  304.894
  304.894
  304.885
  304.874
  304.862
  304.851
  304.841
  304.831
  304.821
  304.812
  304.803
  304.792
  304.781
  304.769
  304.755
  304.741
  304.725
  304.708
  304.69
  304.67
  304.65
  304.629
  304.606
  304.583
  304.559
  304.537
  304.517
  304.499
  304.482
  304.464
  304.443
  304.426
  304.457
  306.138
  306.001
  303.276
)
;
  }
  sWall
  {
    type wallHeatTransfer;
    Tinf uniform 315.2;
    alphaWall uniform 0.36;
    value uniform 304.253;
  }
  nWall
  {
    type wallHeatTransfer;
    Tinf uniform 307.2;
    alphaWall uniform 0.36;
    value nonuniform List<scalar> 6
(
  304.93
  304.936
  304.951
  304.908
  304.911
  304.954
)
;
  }
  sideWalls
  {
    type empty;
  }
  glass1
  {
    type wallHeatTransfer;
    Tinf uniform 315.2;
    alphaWall uniform 4.3;
    value nonuniform List<scalar> 9
(
  312.653
  311.654
  311.008
  310.557
  310.252
  310.049
  309.958
  310.101
  310.372
)
;
  }
  glass2
  {
    type wallHeatTransfer;
    Tinf uniform 307.2;
    alphaWall uniform 4.3;
    value nonuniform List<scalar> 2
(
  306.329
  306.258
)
;
  }
  sun
  {
    type wallHeatTransfer;
    Tinf uniform 305.2;
    alphaWall uniform 0.24;
    value nonuniform List<scalar> 14
(
  304.77
  304.533
  304.539
  304.541
  304.541
  304.541
  304.54
  304.539
  304.538
  304.536
  304.533
  304.529
  304.524
  304.519
)
;
  }
  Table_master
  {
    type zeroGradient;
  }
  Table_slave
  {
    type zeroGradient;
  }
  inlet
  {
    type fixedValue;
    value uniform 296.15;
  }
  outlet
  {
    type zeroGradient;
  }
} 	// ************************************************************************* //

