// -*- C++ -*-
// File generated by PyFoam - sorry for the ugliness

FoamFile
{
 version 2.0;
 format ascii;
 class volVectorField;
 location "1500";
 object U;
}

dimensions [ 0 1 -1 0 0 0 0 ];

internalField nonuniform List<vector> 458
(
  (0.0817086 0.0704754 0)
  (-0.140279 0.00781831 0)
  (-0.136161 0.0101713 0)
  (-0.157525 0.00920735 0)
  (-0.176931 0.0069597 0)
  (-0.193672 0.00417305 0)
  (-0.206985 0.000933395 0)
  (-0.216172 -0.00283478 0)
  (-0.220459 -0.00726813 0)
  (-0.218761 -0.0125648 0)
  (-0.209234 -0.0192738 0)
  (-0.18876 -0.02802 0)
  (-0.155621 -0.0406555 0)
  (-0.120522 -0.0610278 0)
  (-0.120941 -0.0898632 0)
  (0.029921 0.00508762 0)
  (-0.0119944 -0.0129324 0)
  (0.00736055 -0.0171716 0)
  (0.0266593 -0.0173789 0)
  (0.0443609 -0.0146422 0)
  (0.0572903 -0.00811653 0)
  (0.0624897 -0.00438848 0)
  (0.0622917 -0.00275296 0)
  (0.060204 -0.00181999 0)
  (0.0577818 -0.00101888 0)
  (0.0549833 -0.000132325 0)
  (0.0513112 0.0011454 0)
  (0.0460209 0.00327964 0)
  (0.0379714 0.0064432 0)
  (0.0261638 0.00880983 0)
  (0.0115476 0.00360703 0)
  (0.0278295 -0.00719566 0)
  (-0.0433182 0.00686634 0)
  (0.27812 0.152306 0)
  (-0.158097 0.0312215 0)
  (-0.121196 0.0341915 0)
  (-0.147751 0.0323691 0)
  (-0.168337 0.0290446 0)
  (-0.185996 0.024868 0)
  (-0.200343 0.0197744 0)
  (-0.210892 0.0135316 0)
  (-0.216968 0.00585767 0)
  (-0.217596 -0.00354278 0)
  (-0.211958 -0.0145381 0)
  (-0.199274 -0.0271048 0)
  (-0.180818 -0.0425773 0)
  (-0.163721 -0.0630436 0)
  (-0.153133 -0.0804985 0)
  (-0.121361 -0.0624793 0)
  (-0.0685281 -0.0672334 0)
  (-0.0228215 0.0817755 0)
  (0.0971919 0.00396194 0)
  (0.0268484 -0.00399208 0)
  (0.016017 -0.0131915 0)
  (0.0251268 -0.0223402 0)
  (0.0363201 -0.0234696 0)
  (0.0479598 -0.00825189 0)
  (0.0497181 0.000578991 0)
  (0.0478836 0.00378436 0)
  (0.0464741 0.00497739 0)
  (0.045836 0.00561898 0)
  (0.0454677 0.00618414 0)
  (0.0452417 0.00712881 0)
  (0.0452836 0.00894922 0)
  (0.0451795 0.0119503 0)
  (0.0425047 0.0166133 0)
  (0.0344437 0.0147335 0)
  (0.044377 0.00271981 0)
  (-0.091151 0.0230816 0)
  (0.448517 0.232703 0)
  (-0.2007 0.0616071 0)
  (-0.0965956 0.0594219 0)
  (-0.128302 0.0524366 0)
  (-0.147011 0.0456287 0)
  (-0.163389 0.0378708 0)
  (-0.177018 0.0286673 0)
  (-0.187505 0.0176932 0)
  (-0.194199 0.0047728 0)
  (-0.196114 -0.0099807 0)
  (-0.192418 -0.0263753 0)
  (-0.18368 -0.0440131 0)
  (-0.171882 -0.0625463 0)
  (-0.160853 -0.0807642 0)
  (-0.149891 -0.0921868 0)
  (-0.131461 -0.0903172 0)
  (-0.116135 -0.100912 0)
  (-0.132993 -0.106626 0)
  (0.0726547 -0.00388096 0)
  (-0.0203123 -0.00685278 0)
  (-0.00664472 -0.0187422 0)
  (0.00777504 -0.0350249 0)
  (0.0159845 -0.0428469 0)
  (0.0362365 -0.0248081 0)
  (0.0292794 -0.0114744 0)
  (0.0234173 -0.00574009 0)
  (0.0244711 -0.00323516 0)
  (0.0279028 -0.00178779 0)
  (0.0315935 -0.00063514 0)
  (0.0358314 0.000743603 0)
  (0.0416696 0.00271484 0)
  (0.0501119 0.00651031 0)
  (0.0538183 0.0216581 0)
  (0.0443769 0.0266433 0)
  (0.0600781 0.0234891 0)
  (-0.128277 0.0401568 0)
  (0.590898 0.299787 0)
  (-0.250001 0.0950023 0)
  (-0.0654049 0.082393 0)
  (-0.103183 0.0707712 0)
  (-0.117795 0.0620316 0)
  (-0.131198 0.0524745 0)
  (-0.142892 0.0411066 0)
  (-0.152447 0.0273595 0)
  (-0.159143 0.0108341 0)
  (-0.161774 -0.00847166 0)
  (-0.159101 -0.0297692 0)
  (-0.152669 -0.0515232 0)
  (-0.144437 -0.0719325 0)
  (-0.136783 -0.0885829 0)
  (-0.129453 -0.0978512 0)
  (-0.121629 -0.0995224 0)
  (-0.120353 -0.0980105 0)
  (-0.130353 -0.077138 0)
  (-0.116271 -0.0181014 0)
  (-0.0706361 -0.0202335 0)
  (-0.0464594 -0.022646 0)
  (-0.024255 -0.0344852 0)
  (-0.0121479 -0.0450306 0)
  (-0.0109791 -0.0470114 0)
  (-0.00662402 -0.0275056 0)
  (0.0193742 -0.0193913 0)
  (0.0366507 -0.0161983 0)
  (0.0521059 -0.0143885 0)
  (0.0666046 -0.0129483 0)
  (0.0796755 -0.0111118 0)
  (0.0897867 -0.00814552 0)
  (0.0944469 -0.00348512 0)
  (0.0904353 0.00349094 0)
  (0.0778335 0.023366 0)
  (0.063454 0.0383658 0)
  (0.0743725 0.0482207 0)
  (-0.105656 0.0622775 0)
  (0.704945 0.354743 0)
  (-0.29523 0.128114 0)
  (-0.032193 0.0973908 0)
  (-0.0740189 0.0837132 0)
  (-0.0837434 0.0740253 0)
  (-0.0928591 0.0633851 0)
  (-0.101209 0.0505048 0)
  (-0.108392 0.0346109 0)
  (-0.113812 0.0150885 0)
  (-0.115903 -0.00812974 0)
  (-0.112912 -0.0335051 0)
  (-0.107422 -0.0580795 0)
  (-0.101295 -0.0791168 0)
  (-0.096152 -0.0945802 0)
  (-0.0921337 -0.103204 0)
  (-0.0893555 -0.106153 0)
  (-0.089542 -0.104432 0)
  (-0.0894212 -0.091621 0)
  (-0.0795839 -0.0622175 0)
  (-0.0603466 -0.0481635 0)
  (-0.0406684 -0.0451045 0)
  (-0.0247476 -0.0495066 0)
  (-0.0153803 -0.0526819 0)
  (-0.0105319 -0.0478707 0)
  (-0.00283477 -0.0341336 0)
  (0.0115963 -0.0266169 0)
  (0.0246782 -0.0234076 0)
  (0.0374532 -0.021912 0)
  (0.05007 -0.0204457 0)
  (0.0621994 -0.0175087 0)
  (0.0729575 -0.0114113 0)
  (0.081082 -0.000522085 0)
  (0.0844077 0.0144458 0)
  (0.0822867 0.0337563 0)
  (0.0750142 0.0513035 0)
  (0.088378 0.0678288 0)
  (0.0284639 0.0760524 0)
  (0.0893867 0.135135 0)
  (-0.0465416 0.0930151 0)
  (-0.283342 0.0169974 0)
  (0.778726 0.403282 0)
  (-0.330976 0.155914 0)
  (-0.00753277 0.0973177 0)
  (-0.0394981 0.0912499 0)
  (-0.0451788 0.0821717 0)
  (-0.0502856 0.0702796 0)
  (-0.0545336 0.0563306 0)
  (-0.0578789 0.0393592 0)
  (-0.0603288 0.0181279 0)
  (-0.0593932 -0.00821052 0)
  (-0.0544734 -0.0372938 0)
  (-0.0495249 -0.0635204 0)
  (-0.0457752 -0.083978 0)
  (-0.0439432 -0.0977019 0)
  (-0.043936 -0.104749 0)
  (-0.0455231 -0.106132 0)
  (-0.0485993 -0.101911 0)
  (-0.0500084 -0.0901264 0)
  (-0.0457831 -0.0733979 0)
  (-0.0366318 -0.0621714 0)
  (-0.0265685 -0.0579583 0)
  (-0.0184739 -0.0589213 0)
  (-0.0139038 -0.0583731 0)
  (-0.0110207 -0.051824 0)
  (-0.00680154 -0.0427489 0)
  (0.00067528 -0.0369485 0)
  (0.0093762 -0.0345468 0)
  (0.0185066 -0.0337513 0)
  (0.0282281 -0.0328091 0)
  (0.0384466 -0.0299866 0)
  (0.0489646 -0.0231506 0)
  (0.0594975 -0.00983236 0)
  (0.0698964 0.0103329 0)
  (0.0756657 0.0326312 0)
  (0.0777662 0.0526089 0)
  (0.0908925 0.07064 0)
  (0.0819883 0.0724192 0)
  (0.107438 0.0846234 0)
  (0.110047 0.064137 0)
  (-0.118086 -0.00481444 0)
  (0.800327 0.447022 0)
  (-0.344527 0.150037 0)
  (0.00970275 0.0544828 0)
  (0.013632 0.0887761 0)
  (0.00796495 0.094127 0)
  (0.00183233 0.0774967 0)
  (-4.02714e-05 0.0588773 0)
  (0.000498734 0.0401366 0)
  (0.00155278 0.0170267 0)
  (0.00961287 -0.0128771 0)
  (0.0166703 -0.0433005 0)
  (0.0196437 -0.0679107 0)
  (0.0192723 -0.0856135 0)
  (0.0160663 -0.0967214 0)
  (0.010656 -0.101938 0)
  (0.00380002 -0.10217 0)
  (-0.00387195 -0.0975826 0)
  (-0.00978039 -0.0881485 0)
  (-0.0121681 -0.0763844 0)
  (-0.0115571 -0.0668778 0)
  (-0.0102964 -0.0619776 0)
  (-0.00983653 -0.0613704 0)
  (-0.0113678 -0.0593944 0)
  (-0.0128338 -0.0526347 0)
  (-0.0132352 -0.0459569 0)
  (-0.0116616 -0.042219 0)
  (-0.00861061 -0.041067 0)
  (-0.00454922 -0.0412818 0)
  (0.000529478 -0.0414781 0)
  (0.00663834 -0.0399631 0)
  (0.0140409 -0.034725 0)
  (0.0233114 -0.0229333 0)
  (0.0377206 -0.00149648 0)
  (0.0525955 0.0235016 0)
  (0.0629245 0.0438979 0)
  (0.0784108 0.0598174 0)
  (0.0885014 0.0617388 0)
  (0.111771 0.0628161 0)
  (0.150634 0.062289 0)
  (-0.042744 0.102976 0)
  (0.89649 0.463136 0)
  (-0.121161 0.131594 0)
  (0.0844146 -0.0257324 0)
  (0.134706 0.0237987 0)
  (0.114074 0.0615286 0)
  (0.0931071 0.0578991 0)
  (0.0860646 0.0410663 0)
  (0.0858638 0.0222222 0)
  (0.0880531 -0.00134205 0)
  (0.0972039 -0.0265198 0)
  (0.100875 -0.0491443 0)
  (0.0979064 -0.067482 0)
  (0.0902438 -0.0807064 0)
  (0.0794518 -0.0888345 0)
  (0.0667729 -0.0923007 0)
  (0.0532998 -0.091714 0)
  (0.0400268 -0.0876419 0)
  (0.0281709 -0.0805234 0)
  (0.018754 -0.0716778 0)
  (0.0115752 -0.0634985 0)
  (0.00525481 -0.0581886 0)
  (-0.00115213 -0.0567648 0)
  (-0.00922014 -0.05451 0)
  (-0.0157415 -0.0482395 0)
  (-0.0212352 -0.0432406 0)
  (-0.0252051 -0.0411882 0)
  (-0.0279974 -0.0413599 0)
  (-0.0300362 -0.0425968 0)
  (-0.0315558 -0.0437523 0)
  (-0.032482 -0.043662 0)
  (-0.0323636 -0.0410866 0)
  (-0.0303423 -0.0346752 0)
  (-0.0241172 -0.0230921 0)
  (0.000733436 -0.00398812 0)
  (0.0176258 0.0154442 0)
  (0.0343361 0.0247018 0)
  (0.0481395 0.0192002 0)
  (0.0706058 0.00963026 0)
  (0.142406 0.055091 0)
  (-0.397722 0.20742 0)
  (1.02681 0.430685 0)
  (0.486681 0.283917 0)
  (0.49832 0.196759 0)
  (0.489484 0.177033 0)
  (0.405192 0.160237 0)
  (0.328323 0.128649 0)
  (0.282801 0.0923913 0)
  (0.256289 0.0578226 0)
  (0.239942 0.0257863 0)
  (0.222324 -0.00438941 0)
  (0.202119 -0.0300863 0)
  (0.180967 -0.0496593 0)
  (0.159354 -0.0630451 0)
  (0.137585 -0.0710487 0)
  (0.1161 -0.0746316 0)
  (0.0954228 -0.0746474 0)
  (0.0760814 -0.0717872 0)
  (0.0586018 -0.0666619 0)
  (0.0433324 -0.0601196 0)
  (0.0300084 -0.0534885 0)
  (0.0177422 -0.0485332 0)
  (0.00612379 -0.0467508 0)
  (-0.0082097 -0.0444887 0)
  (-0.0193325 -0.0389284 0)
  (-0.0294538 -0.0351709 0)
  (-0.0384864 -0.0342145 0)
  (-0.0469825 -0.0350298 0)
  (-0.0555253 -0.0364256 0)
  (-0.0646267 -0.0372938 0)
  (-0.0747321 -0.0364672 0)
  (-0.0863362 -0.0325803 0)
  (-0.100158 -0.0240119 0)
  (-0.116643 -0.00925276 0)
  (-0.13413 0.0119133 0)
  (-0.148964 0.0354233 0)
  (-0.17699 0.0597152 0)
  (-0.219927 0.0834504 0)
  (-0.267584 0.10527 0)
  (-0.338539 0.122299 0)
  (-0.623367 0.131723 0)
  (-0.542294 -0.0011661 0)
  (0.184878 0.137875 0)
  (0.25188 0.152684 0)
  (0.244392 0.134955 0)
  (0.245735 0.103851 0)
  (0.247892 0.0686059 0)
  (0.245878 0.0360225 0)
  (0.239072 0.00926345 0)
  (0.226338 -0.0120238 0)
  (0.208682 -0.0281128 0)
  (0.187684 -0.0396215 0)
  (0.164712 -0.0471618 0)
  (0.14102 -0.0513275 0)
  (0.117648 -0.0526931 0)
  (0.0953974 -0.051779 0)
  (0.0748498 -0.0490431 0)
  (0.0562814 -0.0449776 0)
  (0.0394682 -0.0403583 0)
  (0.0238507 -0.0366453 0)
  (0.00928233 -0.0352727 0)
  (-0.00823178 -0.0333305 0)
  (-0.0220888 -0.0285898 0)
  (-0.0350173 -0.0254186 0)
  (-0.0472109 -0.0245542 0)
  (-0.05927 -0.0248901 0)
  (-0.0716455 -0.0252217 0)
  (-0.0845556 -0.0245255 0)
  (-0.0979458 -0.0218903 0)
  (-0.111432 -0.0164917 0)
  (-0.124275 -0.00754347 0)
  (-0.135129 0.00578147 0)
  (-0.14231 0.02408 0)
  (-0.147131 0.0473626 0)
  (-0.151826 0.0712835 0)
  (-0.154084 0.0866703 0)
  (-0.142264 0.073526 0)
  (-0.124537 -0.0101977 0)
  (-0.279554 -0.194474 0)
  (-0.242583 0.180948 0)
  (0.118888 0.12174 0)
  (0.090706 0.10529 0)
  (0.117013 0.104106 0)
  (0.151867 0.0845506 0)
  (0.179154 0.0558252 0)
  (0.195845 0.0297033 0)
  (0.201945 0.00948807 0)
  (0.199399 -0.00523725 0)
  (0.189563 -0.015741 0)
  (0.174395 -0.0231408 0)
  (0.155661 -0.028068 0)
  (0.134849 -0.0309625 0)
  (0.113191 -0.0321961 0)
  (0.0917073 -0.0320705 0)
  (0.0712298 -0.0308067 0)
  (0.0523356 -0.0286292 0)
  (0.0351727 -0.0261161 0)
  (0.0197669 -0.0245449 0)
  (0.00569754 -0.0243162 0)
  (-0.0094058 -0.0253326 0)
  (-0.0217924 -0.0257737 0)
  (-0.0341458 -0.0257715 0)
  (-0.0459662 -0.0258418 0)
  (-0.0575166 -0.0259827 0)
  (-0.0690404 -0.0259755 0)
  (-0.0804936 -0.025393 0)
  (-0.0914397 -0.0236204 0)
  (-0.100934 -0.0198603 0)
  (-0.107432 -0.0129727 0)
  (-0.109103 -0.00109217 0)
  (-0.104847 0.0161878 0)
  (-0.0932405 0.0384977 0)
  (-0.0747757 0.0628855 0)
  (-0.0512872 0.0819636 0)
  (-0.0222934 0.0811389 0)
  (0.138974 0.00551597 0)
  (-0.212846 -0.111329 0)
  (0.0112633 -0.277982 0)
  (-0.351465 -0.0927394 0)
  (-0.287377 0.0940126 0)
  (-0.140864 0.0330833 0)
  (-0.100212 0.0437606 0)
  (-0.0237379 0.0624328 0)
  (0.0548295 0.0523558 0)
  (0.102318 0.0355023 0)
  (0.136117 0.0221569 0)
  (0.153993 0.0131485 0)
  (0.158183 0.00750936 0)
  (0.153215 0.00389503 0)
  (0.141727 0.00179224 0)
  (0.125958 0.00105 0)
  (0.107543 0.00168871 0)
  (0.0877284 0.00383997 0)
  (0.0675304 0.00780085 0)
  (0.0478264 0.0141526 0)
  (0.029468 0.02383 0)
  (0.0135495 0.037366 0)
  (0.00172836 0.0509718 0)
  (-0.00965431 0.0530459 0)
  (-0.0194528 0.0574699 0)
  (-0.0268351 0.0635924 0)
  (-0.0328889 0.0653459 0)
  (-0.0388464 0.0635182 0)
  (-0.0455398 0.0596448 0)
  (-0.0531529 0.0551482 0)
  (-0.0613605 0.0509789 0)
  (-0.0694637 0.0475617 0)
  (-0.0762588 0.044939 0)
  (-0.0796949 0.0429594 0)
  (-0.0770663 0.0415042 0)
  (-0.0647617 0.0436871 0)
  (-0.0412756 0.051424 0)
  (-0.00529817 0.0649477 0)
  (0.0438445 0.0742694 0)
  (0.0865401 0.063551 0)
  (0.161246 0.0349163 0)
  (-0.223107 -0.0235233 0)
)
;

boundaryField
{
  floor
  {
    type noSlip;
  }
  ceiling
  {
    type noSlip;
  }
  sWall
  {
    type noSlip;
  }
  nWall
  {
    type noSlip;
  }
  sideWalls
  {
    type empty;
  }
  glass1
  {
    type noSlip;
  }
  glass2
  {
    type noSlip;
  }
  sun
  {
    type noSlip;
  }
  Table_master
  {
    type noSlip;
  }
  Table_slave
  {
    type noSlip;
  }
  inlet
  {
    type fixedValue;
    value uniform (0.212132 -0.212132 0);
  }
  outlet
  {
    type zeroGradient;
  }
} 	// ************************************************************************* //

