/*--------------------------------*- C++ -*----------------------------------*\
  =========                 |
  \\      /  F ield         | OpenFOAM: The Open Source CFD Toolbox
   \\    /   O peration     | Website:  https://openfoam.org
    \\  /    A nd           | Version:  6
     \\/     M anipulation  |
\*---------------------------------------------------------------------------*/
FoamFile
{
    version     2.0;
    format      ascii;
    class       volVectorField;
    location    "500";
    object      U;
}
// * * * * * * * * * * * * * * * * * * * * * * * * * * * * * * * * * * * * * //

dimensions      [0 1 -1 0 0 0 0];

internalField   nonuniform List<vector> 
458
(
(0.0567958 0.0772686 0)
(-0.150948 0.0167561 0)
(-0.162063 0.014604 0)
(-0.18894 0.0119001 0)
(-0.211824 0.00841582 0)
(-0.23023 0.00460223 0)
(-0.243479 0.000395383 0)
(-0.2507 -0.00436647 0)
(-0.250612 -0.00986812 0)
(-0.241926 -0.0164371 0)
(-0.223386 -0.0241385 0)
(-0.193526 -0.0329251 0)
(-0.152436 -0.0437013 0)
(-0.109226 -0.0588876 0)
(-0.0954598 -0.0782613 0)
(0.0424568 0.0188016 0)
(0.0109431 -0.0225033 0)
(0.0364844 -0.0199043 0)
(0.0586699 -0.0149455 0)
(0.0739971 -0.0104241 0)
(0.0828853 -0.0061669 0)
(0.0868203 -0.00382279 0)
(0.0879394 -0.00292045 0)
(0.0880651 -0.00255364 0)
(0.0878918 -0.00228099 0)
(0.0874139 -0.00198047 0)
(0.0864542 -0.00156504 0)
(0.084681 -0.000831613 0)
(0.0813309 0.000665192 0)
(0.0748849 0.00357376 0)
(0.0635842 0.00723453 0)
(0.04852 0.0112766 0)
(0.00238841 0.0237829 0)
(0.241928 0.16178 0)
(-0.153514 0.0483345 0)
(-0.134881 0.0438104 0)
(-0.164344 0.0385969 0)
(-0.187277 0.0324094 0)
(-0.205829 0.0255559 0)
(-0.219602 0.0176766 0)
(-0.227864 0.00832416 0)
(-0.229363 -0.00290574 0)
(-0.222929 -0.0160042 0)
(-0.208287 -0.0299405 0)
(-0.18545 -0.0433253 0)
(-0.156807 -0.0555814 0)
(-0.129788 -0.0665583 0)
(-0.113828 -0.0677297 0)
(-0.090409 -0.030021 0)
(-0.0495892 -0.00856295 0)
(-0.060115 -4.69028e-05 0)
(0.0838893 -0.0339438 0)
(0.0441658 -0.0357523 0)
(0.051047 -0.03002 0)
(0.0650285 -0.0227416 0)
(0.0749763 -0.0157389 0)
(0.0802966 -0.00583044 0)
(0.0808944 -5.01684e-05 0)
(0.0802089 0.00217671 0)
(0.0799558 0.00304079 0)
(0.0800328 0.00355799 0)
(0.0800473 0.00399871 0)
(0.0798896 0.00459926 0)
(0.0795056 0.00582597 0)
(0.0782855 0.00875547 0)
(0.0734661 0.0163785 0)
(0.0617943 0.0239373 0)
(0.0487282 0.0308049 0)
(-0.0258731 0.0503908 0)
(0.408329 0.244179 0)
(-0.184388 0.082034 0)
(-0.102694 0.0724306 0)
(-0.1336 0.0610703 0)
(-0.153585 0.0502078 0)
(-0.170332 0.0386244 0)
(-0.183353 0.0253787 0)
(-0.191809 0.00982128 0)
(-0.194158 -0.00836604 0)
(-0.188667 -0.0289784 0)
(-0.175531 -0.050529 0)
(-0.155424 -0.070295 0)
(-0.131075 -0.0860173 0)
(-0.106853 -0.0954041 0)
(-0.084472 -0.0926819 0)
(-0.0584376 -0.0702393 0)
(-0.0296141 -0.0528129 0)
(-0.0312973 -0.0408557 0)
(0.0802848 -0.0667863 0)
(0.0457542 -0.052424 0)
(0.0498872 -0.0396004 0)
(0.0593745 -0.0311391 0)
(0.0661509 -0.0261028 0)
(0.071808 -0.0182267 0)
(0.0670411 -0.011891 0)
(0.0627608 -0.00866721 0)
(0.0615634 -0.00692935 0)
(0.0619114 -0.00573631 0)
(0.0627199 -0.00475543 0)
(0.0639235 -0.00376245 0)
(0.0662186 -0.00228022 0)
(0.0712695 0.00191479 0)
(0.071287 0.0221261 0)
(0.0592904 0.0376794 0)
(0.0523388 0.0512621 0)
(-0.049182 0.0806593 0)
(0.552449 0.311504 0)
(-0.228846 0.11497 0)
(-0.0662328 0.0965811 0)
(-0.099093 0.0801188 0)
(-0.113673 0.0667967 0)
(-0.126817 0.052775 0)
(-0.137993 0.036197 0)
(-0.146095 0.0159429 0)
(-0.149023 -0.00858886 0)
(-0.143955 -0.0367715 0)
(-0.131934 -0.0657479 0)
(-0.114335 -0.0912023 0)
(-0.093775 -0.109617 0)
(-0.0730706 -0.117993 0)
(-0.0526392 -0.113626 0)
(-0.0303451 -0.096652 0)
(-0.00549438 -0.0765251 0)
(0.0158423 -0.0573623 0)
(0.053475 -0.0221869 0)
(0.0659106 -0.0549291 0)
(0.0529811 -0.0515253 0)
(0.047562 -0.0405028 0)
(0.047162 -0.0325617 0)
(0.0456453 -0.0264093 0)
(0.0478627 -0.016423 0)
(0.0584938 -0.0120811 0)
(0.0686036 -0.00994874 0)
(0.0769671 -0.00861734 0)
(0.0839797 -0.00724969 0)
(0.0890981 -0.00538808 0)
(0.0909735 -0.00276617 0)
(0.0873673 0.00105897 0)
(0.0758158 0.00664171 0)
(0.063979 0.0303445 0)
(0.0547323 0.0512447 0)
(0.0595857 0.071598 0)
(-0.0586835 0.113067 0)
(0.670198 0.365305 0)
(-0.274056 0.144964 0)
(-0.0291374 0.109666 0)
(-0.0611456 0.091841 0)
(-0.0691591 0.0779749 0)
(-0.0772693 0.0630683 0)
(-0.0852312 0.0445372 0)
(-0.0917603 0.0207752 0)
(-0.0941024 -0.00923249 0)
(-0.0881511 -0.0443182 0)
(-0.0769092 -0.0796241 0)
(-0.0626208 -0.10905 0)
(-0.0472591 -0.128898 0)
(-0.0326593 -0.136721 0)
(-0.0186929 -0.132391 0)
(-0.0043805 -0.117456 0)
(0.0108863 -0.0961284 0)
(0.0241098 -0.0749108 0)
(0.0384538 -0.0558232 0)
(0.0442234 -0.0556799 0)
(0.0395452 -0.0478947 0)
(0.0335619 -0.0379254 0)
(0.0307101 -0.0305579 0)
(0.0300115 -0.0244114 0)
(0.0336352 -0.0160577 0)
(0.0413878 -0.0125521 0)
(0.0495973 -0.0116277 0)
(0.0573523 -0.0108191 0)
(0.0644757 -0.00887677 0)
(0.0703918 -0.00500779 0)
(0.0742929 0.00136062 0)
(0.0744478 0.00981294 0)
(0.070346 0.0205436 0)
(0.0645274 0.0385652 0)
(0.059239 0.0592599 0)
(0.0790505 0.0822257 0)
(0.0377818 0.113972 0)
(0.0919541 0.123572 0)
(0.119057 0.128595 0)
(-0.198564 0.152982 0)
(0.747471 0.411815 0)
(-0.31099 0.167461 0)
(-0.00262654 0.102568 0)
(-0.017909 0.0952542 0)
(-0.018929 0.085784 0)
(-0.0227255 0.0704585 0)
(-0.0273501 0.050447 0)
(-0.0313013 0.0246769 0)
(-0.0302975 -0.00962843 0)
(-0.0212915 -0.0515663 0)
(-0.0112777 -0.0913645 0)
(-0.00209004 -0.122066 0)
(0.00586854 -0.141273 0)
(0.0117724 -0.147301 0)
(0.0164219 -0.141962 0)
(0.0204069 -0.127097 0)
(0.0242551 -0.105747 0)
(0.0272719 -0.0822783 0)
(0.0292914 -0.0611435 0)
(0.0274962 -0.0496589 0)
(0.021184 -0.0410661 0)
(0.0148163 -0.033595 0)
(0.0115619 -0.0286398 0)
(0.0113066 -0.0251417 0)
(0.0144403 -0.0216806 0)
(0.0202184 -0.0204018 0)
(0.0268438 -0.0200614 0)
(0.0336333 -0.0191724 0)
(0.0403362 -0.0167155 0)
(0.0467438 -0.0116963 0)
(0.0524966 -0.00308566 0)
(0.0570342 0.00877878 0)
(0.058549 0.0224888 0)
(0.0596756 0.0392003 0)
(0.0613478 0.0576741 0)
(0.0792206 0.0777362 0)
(0.076171 0.0862907 0)
(0.0883855 0.0433646 0)
(0.122723 0.000368992 0)
(-0.217494 0.0780408 0)
(0.780916 0.453991 0)
(-0.324126 0.154654 0)
(0.0196319 0.0448336 0)
(0.0433736 0.0798621 0)
(0.0464397 0.0936633 0)
(0.0425205 0.0803423 0)
(0.0397162 0.0560343 0)
(0.0387496 0.0253598 0)
(0.0460918 -0.0157032 0)
(0.0562205 -0.0609588 0)
(0.0619375 -0.0993833 0)
(0.063226 -0.126974 0)
(0.0611979 -0.14296 0)
(0.0565803 -0.147101 0)
(0.0501446 -0.140698 0)
(0.0426974 -0.1254 0)
(0.0350135 -0.103545 0)
(0.0270976 -0.0789849 0)
(0.0188841 -0.0566539 0)
(0.0100173 -0.0418224 0)
(0.00113651 -0.0334026 0)
(-0.00547652 -0.0288672 0)
(-0.00874302 -0.0270949 0)
(-0.00951323 -0.0264252 0)
(-0.00803703 -0.0259802 0)
(-0.00489989 -0.0260863 0)
(-0.000938414 -0.0262501 0)
(0.0035311 -0.0256382 0)
(0.00829477 -0.0234503 0)
(0.0136211 -0.0186905 0)
(0.0197292 -0.00998356 0)
(0.0291437 0.00376897 0)
(0.0362069 0.0186749 0)
(0.0432281 0.0338244 0)
(0.0512303 0.0486544 0)
(0.0680022 0.0639985 0)
(0.0807599 0.0683303 0)
(0.0937292 0.0475263 0)
(0.149868 0.0499977 0)
(-0.142344 0.136178 0)
(0.878952 0.461668 0)
(-0.0883868 0.134677 0)
(0.10796 -0.050875 0)
(0.175622 -0.00802995 0)
(0.164366 0.0402304 0)
(0.144363 0.0472309 0)
(0.135785 0.0301185 0)
(0.134245 -0.000272005 0)
(0.141037 -0.0363545 0)
(0.14488 -0.0704895 0)
(0.140052 -0.0996291 0)
(0.12884 -0.121089 0)
(0.113932 -0.133302 0)
(0.0967712 -0.134923 0)
(0.0779039 -0.127131 0)
(0.0582762 -0.111432 0)
(0.0391458 -0.0896944 0)
(0.0210078 -0.0652346 0)
(0.00435024 -0.0434341 0)
(-0.00956203 -0.0300569 0)
(-0.0190534 -0.0252867 0)
(-0.0255303 -0.024242 0)
(-0.0296339 -0.0248999 0)
(-0.0321209 -0.0260562 0)
(-0.0333392 -0.0272055 0)
(-0.0336708 -0.0282629 0)
(-0.0335264 -0.0289602 0)
(-0.0330755 -0.0288812 0)
(-0.0322558 -0.0275644 0)
(-0.0307556 -0.0244632 0)
(-0.0279198 -0.0189173 0)
(-0.0218748 -0.0102064 0)
(-0.00675861 0.00233883 0)
(0.00468758 0.0151558 0)
(0.0175321 0.0233478 0)
(0.0356621 0.0292687 0)
(0.0533497 0.0240089 0)
(0.0678132 0.00266846 0)
(0.151622 0.0540647 0)
(-0.416174 0.224001 0)
(1.01437 0.423035 0)
(0.472668 0.279034 0)
(0.516262 0.220054 0)
(0.538509 0.195859 0)
(0.469382 0.171529 0)
(0.392761 0.137281 0)
(0.341762 0.096148 0)
(0.310416 0.0521839 0)
(0.283302 0.0071823 0)
(0.250402 -0.0349337 0)
(0.215929 -0.0690977 0)
(0.182477 -0.0935658 0)
(0.151006 -0.107455 0)
(0.120877 -0.109149 0)
(0.0901882 -0.101304 0)
(0.0593641 -0.0860997 0)
(0.0304793 -0.0653861 0)
(0.00463024 -0.042215 0)
(-0.0161805 -0.0241653 0)
(-0.0291011 -0.0172458 0)
(-0.0382067 -0.0160235 0)
(-0.0450964 -0.0171432 0)
(-0.0507517 -0.019085 0)
(-0.0557512 -0.0211133 0)
(-0.0603531 -0.022938 0)
(-0.0647735 -0.0244362 0)
(-0.0692395 -0.0254062 0)
(-0.0739395 -0.0255355 0)
(-0.0790538 -0.0243928 0)
(-0.0848247 -0.0213523 0)
(-0.0916037 -0.0155521 0)
(-0.0996542 -0.00611842 0)
(-0.10879 0.00722224 0)
(-0.117265 0.0228036 0)
(-0.134006 0.041051 0)
(-0.161865 0.0632661 0)
(-0.203804 0.0884811 0)
(-0.254674 0.114879 0)
(-0.32425 0.139264 0)
(-0.613576 0.158939 0)
(-0.361681 -0.327315 0)
(0.204833 0.0384119 0)
(0.272577 0.12057 0)
(0.26675 0.127419 0)
(0.259432 0.101651 0)
(0.251417 0.0619002 0)
(0.238315 0.021365 0)
(0.220899 -0.0134354 0)
(0.196135 -0.0411382 0)
(0.167993 -0.0630262 0)
(0.138696 -0.0772258 0)
(0.108462 -0.0783552 0)
(0.0739588 -0.0706282 0)
(0.0371447 -0.0563344 0)
(0.00327043 -0.0367131 0)
(-0.0231596 -0.0167521 0)
(-0.0379708 -0.00674419 0)
(-0.0474011 -0.00404576 0)
(-0.0546678 -0.00485064 0)
(-0.0614932 -0.00689215 0)
(-0.0685253 -0.00906875 0)
(-0.075947 -0.0109234 0)
(-0.0837599 -0.0122703 0)
(-0.0919246 -0.0129609 0)
(-0.100378 -0.0127677 0)
(-0.109009 -0.0113947 0)
(-0.117653 -0.00854129 0)
(-0.126097 -0.0039782 0)
(-0.134093 0.00240193 0)
(-0.141098 0.0105533 0)
(-0.145403 0.0212516 0)
(-0.148151 0.0362369 0)
(-0.150644 0.0551767 0)
(-0.153644 0.0760293 0)
(-0.154918 0.0913667 0)
(-0.14492 0.0814882 0)
(-0.130189 0.00603648 0)
(-0.268551 -0.188608 0)
(-0.0306651 0.196379 0)
(-0.0128798 0.0800475 0)
(0.0414983 0.104124 0)
(0.0759966 0.11186 0)
(0.106914 0.0924423 0)
(0.129273 0.0595709 0)
(0.139201 0.0260761 0)
(0.138616 -0.000141827 0)
(0.129001 -0.0209736 0)
(0.111412 -0.0397863 0)
(0.0865012 -0.0534623 0)
(0.0601461 -0.0521349 0)
(0.0284188 -0.0465592 0)
(-0.00780274 -0.0394143 0)
(-0.0311525 -0.0362638 0)
(-0.0445295 -0.0368826 0)
(-0.0521791 -0.0395401 0)
(-0.0574544 -0.0429559 0)
(-0.0625049 -0.0451489 0)
(-0.068258 -0.0469507 0)
(-0.0750755 -0.0485823 0)
(-0.0829787 -0.0500246 0)
(-0.0918023 -0.0511553 0)
(-0.101269 -0.0518106 0)
(-0.111001 -0.0517786 0)
(-0.120506 -0.0507473 0)
(-0.12916 -0.0482355 0)
(-0.136176 -0.0435229 0)
(-0.140579 -0.0355516 0)
(-0.141301 -0.0227466 0)
(-0.137645 -0.00631216 0)
(-0.128412 0.0131485 0)
(-0.112629 0.0360377 0)
(-0.090603 0.0609515 0)
(-0.0638317 0.0804143 0)
(-0.0361938 0.0805669 0)
(0.128277 -0.000509993 0)
(-0.211511 -0.101068 0)
(0.164481 -0.208701 0)
(-0.30854 -0.108812 0)
(-0.265459 0.0210668 0)
(-0.240597 0.0158053 0)
(-0.178595 0.0463559 0)
(-0.110744 0.0623423 0)
(-0.043152 0.0587505 0)
(0.0249669 0.033265 0)
(0.0536771 0.0131223 0)
(0.0672146 -0.00111407 0)
(0.0662729 -0.0114074 0)
(0.0494352 -0.0218006 0)
(0.00764884 -0.0144653 0)
(-0.0405283 0.0532183 0)
(-0.0541843 0.0801389 0)
(-0.0654047 0.0954245 0)
(-0.0702968 0.107865 0)
(-0.0712471 0.117976 0)
(-0.0709083 0.124904 0)
(-0.071044 0.129729 0)
(-0.0720671 0.13138 0)
(-0.0741031 0.132019 0)
(-0.0770471 0.132194 0)
(-0.0807898 0.131912 0)
(-0.0852481 0.130965 0)
(-0.0903412 0.129145 0)
(-0.095933 0.126361 0)
(-0.101769 0.122627 0)
(-0.107437 0.11797 0)
(-0.112312 0.112306 0)
(-0.115379 0.105368 0)
(-0.114922 0.0967993 0)
(-0.107913 0.0901439 0)
(-0.0913884 0.0878293 0)
(-0.0646142 0.090798 0)
(-0.0317287 0.0991748 0)
(0.0265296 0.108614 0)
(0.0676354 0.100242 0)
(0.153002 0.0830266 0)
(-0.235701 0.0312188 0)
)
;

boundaryField
{
    floor
    {
        type            noSlip;
    }
    ceiling
    {
        type            noSlip;
    }
    sWall
    {
        type            noSlip;
    }
    nWall
    {
        type            noSlip;
    }
    sideWalls
    {
        type            empty;
    }
    glass1
    {
        type            noSlip;
    }
    glass2
    {
        type            noSlip;
    }
    sun
    {
        type            noSlip;
    }
    Table_master
    {
        type            noSlip;
    }
    Table_slave
    {
        type            noSlip;
    }
    inlet
    {
        type            fixedValue;
        value           uniform (0.156072 -0.784628 0);
    }
    outlet
    {
        type            zeroGradient;
    }
}


// ************************************************************************* //
