/*--------------------------------*- C++ -*----------------------------------*\
  =========                 |
  \\      /  F ield         | OpenFOAM: The Open Source CFD Toolbox
   \\    /   O peration     | Website:  https://openfoam.org
    \\  /    A nd           | Version:  6
     \\/     M anipulation  |
\*---------------------------------------------------------------------------*/
FoamFile
{
    version     2.0;
    format      ascii;
    class       volScalarField;
    location    "2800";
    object      T;
}
// * * * * * * * * * * * * * * * * * * * * * * * * * * * * * * * * * * * * * //

dimensions      [0 0 0 1 0 0 0];

internalField   nonuniform List<scalar> 
458
(
303.531
303.276
303.26
303.254
303.249
303.243
303.236
303.227
303.217
303.207
303.2
303.199
303.206
303.23
303.265
303.499
303.466
303.45
303.458
303.468
303.479
303.489
303.5
303.51
303.521
303.532
303.542
303.553
303.564
303.576
303.589
303.606
303.637
303.696
303.316
303.287
303.285
303.283
303.278
303.269
303.252
303.228
303.204
303.186
303.18
303.185
303.202
303.222
303.233
303.248
303.276
303.505
303.428
303.42
303.432
303.448
303.459
303.469
303.479
303.489
303.498
303.508
303.518
303.529
303.54
303.553
303.568
303.589
303.628
303.87
303.366
303.323
303.328
303.335
303.337
303.327
303.297
303.253
303.21
303.178
303.166
303.171
303.186
303.203
303.217
303.233
303.26
303.414
303.388
303.397
303.424
303.452
303.459
303.468
303.477
303.487
303.498
303.509
303.52
303.531
303.541
303.554
303.568
303.587
303.625
304.049
303.431
303.366
303.379
303.402
303.418
303.407
303.355
303.283
303.216
303.169
303.152
303.158
303.177
303.198
303.216
303.232
303.251
303.264
303.293
303.336
303.387
303.439
303.484
303.522
303.549
303.573
303.593
303.611
303.626
303.64
303.652
303.662
303.64
303.618
303.608
303.628
304.225
303.514
303.419
303.433
303.473
303.509
303.486
303.402
303.3
303.212
303.156
303.137
303.147
303.174
303.204
303.23
303.249
303.269
303.296
303.336
303.389
303.446
303.503
303.554
303.598
303.631
303.659
303.681
303.698
303.71
303.717
303.719
303.715
303.696
303.666
303.639
303.635
303.645
303.662
303.719
304.386
303.622
303.507
303.509
303.558
303.585
303.525
303.413
303.289
303.188
303.129
303.115
303.137
303.181
303.228
303.268
303.299
303.329
303.369
303.419
303.476
303.535
303.591
303.64
303.68
303.712
303.736
303.755
303.769
303.776
303.777
303.772
303.761
303.74
303.71
303.678
303.661
303.663
303.674
303.725
304.541
303.792
303.684
303.678
303.705
303.645
303.516
303.359
303.216
303.118
303.076
303.087
303.138
303.21
303.281
303.341
303.389
303.43
303.477
303.529
303.585
303.64
303.689
303.73
303.762
303.787
303.805
303.817
303.825
303.827
303.823
303.813
303.798
303.777
303.75
303.72
303.698
303.693
303.696
303.728
304.758
304.205
304.088
304.006
303.837
303.609
303.373
303.175
303.043
302.99
303.005
303.071
303.169
303.283
303.381
303.457
303.512
303.555
303.602
303.65
303.699
303.743
303.781
303.81
303.832
303.847
303.856
303.861
303.862
303.859
303.852
303.841
303.826
303.806
303.785
303.762
303.747
303.745
303.747
303.844
305.073
304.807
304.545
304.02
303.479
303.071
302.826
302.724
302.739
302.837
302.977
303.128
303.284
303.441
303.538
303.597
303.64
303.68
303.721
303.762
303.798
303.828
303.853
303.87
303.881
303.886
303.888
303.886
303.881
303.874
303.866
303.859
303.852
303.848
303.848
303.856
303.873
303.895
303.915
303.967
294.401
296.408
298.81
300.334
301.35
302.06
302.583
302.981
303.25
303.413
303.529
303.615
303.675
303.719
303.755
303.789
303.821
303.85
303.874
303.891
303.902
303.908
303.91
303.909
303.906
303.902
303.898
303.893
303.889
303.885
303.883
303.883
303.887
303.897
303.913
303.936
303.964
304.009
296.258
299.224
300.883
301.852
302.47
302.881
303.162
303.373
303.523
303.625
303.696
303.748
303.788
303.819
303.846
303.87
303.891
303.908
303.919
303.926
303.929
303.929
303.928
303.925
303.922
303.919
303.916
303.913
303.91
303.907
303.905
303.905
303.907
303.913
303.923
303.939
303.957
303.992
300.702
300.614
300.608
302.346
302.912
303.175
303.354
303.496
303.605
303.691
303.755
303.801
303.835
303.861
303.881
303.896
303.908
303.918
303.924
303.928
303.93
303.93
303.93
303.928
303.927
303.925
303.924
303.922
303.921
303.92
303.918
303.917
303.916
303.916
303.916
303.918
303.927
303.935
303.941
303.984
)
;

boundaryField
{
    floor
    {
        type            wallHeatTransfer;
        Tinf            uniform 305.2;
        alphaWall       uniform 0.24;
        value           nonuniform List<scalar> 
36
(
303.481
303.799
303.736
303.693
303.69
303.701
303.721
303.743
303.766
303.788
303.81
303.831
303.851
303.871
303.89
303.911
303.933
303.959
304.007
304.007
303.967
303.945
303.927
303.907
303.913
303.957
303.481
303.409
303.448
303.511
303.799
303.511
303.807
303.456
303.639
303.437
)
;
    }
    ceiling
    {
        type            wallHeatTransfer;
        Tinf            uniform 303.2;
        alphaWall       uniform 0.24;
        value           nonuniform List<scalar> 
43
(
300.879
300.786
300.773
302.397
302.93
303.176
303.344
303.476
303.576
303.652
303.707
303.746
303.773
303.793
303.809
303.821
303.83
303.837
303.841
303.843
303.842
303.84
303.838
303.835
303.833
303.83
303.828
303.827
303.827
303.827
303.828
303.83
303.832
303.834
303.838
303.843
303.853
303.859
303.861
303.894
304.986
304.742
296.69
)
;
    }
    sWall
    {
        type            wallHeatTransfer;
        Tinf            uniform 315.2;
        alphaWall       uniform 0.36;
        value           uniform 302.197;
    }
    nWall
    {
        type            wallHeatTransfer;
        Tinf            uniform 307.2;
        alphaWall       uniform 0.36;
        value           nonuniform List<scalar> 6(304.497 304.364 304.278 304.481 304.458 304.51);
    }
    sideWalls
    {
        type            empty;
    }
    glass1
    {
        type            wallHeatTransfer;
        Tinf            uniform 315.2;
        alphaWall       uniform 4.3;
        value           nonuniform List<scalar> 9(311.343 310.744 310.371 310.089 309.852 309.637 309.492 309.577 309.811);
    }
    glass2
    {
        type            wallHeatTransfer;
        Tinf            uniform 307.2;
        alphaWall       uniform 4.3;
        value           nonuniform List<scalar> 2(305.979 306.039);
    }
    sun
    {
        type            wallHeatTransfer;
        Tinf            uniform 305.2;
        alphaWall       uniform 0.24;
        value           nonuniform List<scalar> 
14
(
303.698
303.454
303.436
303.424
303.413
303.402
303.391
303.379
303.367
303.358
303.355
303.359
303.374
303.419
)
;
    }
    Table_master
    {
        type            zeroGradient;
    }
    Table_slave
    {
        type            zeroGradient;
    }
    inlet
    {
        type            fixedValue;
        value           uniform 292.15;
    }
    outlet
    {
        type            zeroGradient;
    }
}


// ************************************************************************* //
