/*--------------------------------*- C++ -*----------------------------------*\
  =========                 |
  \\      /  F ield         | OpenFOAM: The Open Source CFD Toolbox
   \\    /   O peration     | Website:  https://openfoam.org
    \\  /    A nd           | Version:  6
     \\/     M anipulation  |
\*---------------------------------------------------------------------------*/
FoamFile
{
    version     2.0;
    format      ascii;
    class       volScalarField;
    location    "400";
    object      epsilon;
}
// * * * * * * * * * * * * * * * * * * * * * * * * * * * * * * * * * * * * * //

dimensions      [0 2 -3 0 0 0 0];

internalField   nonuniform List<scalar> 
458
(
0.000302093
0.000375992
0.000398766
0.000453081
0.000504485
0.000553603
0.000601919
0.00065147
0.000705331
0.000760056
0.000810018
0.000847519
0.000862101
0.000845076
0.000794039
4.92815e-05
8.54438e-05
0.000108714
0.0001006
8.84423e-05
7.38574e-05
6.09367e-05
5.07141e-05
4.2737e-05
3.6446e-05
3.14121e-05
2.72766e-05
2.3695e-05
2.03429e-05
1.68525e-05
1.2828e-05
1.16429e-05
1.26594e-05
0.000777923
0.00134247
0.000351788
0.000338598
0.000338788
0.000343753
0.000355727
0.000379302
0.000419469
0.000474088
0.000536853
0.000595686
0.00063371
0.000641458
0.000663604
0.000948695
0.000563341
0.000309846
6.06225e-05
0.000129533
0.00012726
0.000110734
9.25034e-05
8.13742e-05
6.3889e-05
4.97611e-05
3.90965e-05
3.10231e-05
2.48951e-05
2.02421e-05
1.67346e-05
1.44479e-05
1.36567e-05
1.31896e-05
5.79905e-05
3.83751e-05
0.00146999
0.0035877
0.000414344
0.000305882
0.000294817
0.000297187
0.000309388
0.000334962
0.000376677
0.000433387
0.000496614
0.000550054
0.000579015
0.000583629
0.000599791
0.000659097
0.000534711
0.000460933
0.000370837
0.000260192
0.000187129
0.000137976
0.000108847
0.000174732
0.000123717
8.93477e-05
6.61813e-05
5.0244e-05
3.90721e-05
3.12054e-05
2.57405e-05
2.21257e-05
1.80523e-05
1.60573e-05
8.39188e-05
5.6512e-05
0.00249718
0.00794437
0.000660028
0.000293209
0.00027008
0.000273256
0.000285232
0.000311334
0.000357828
0.000426137
0.000498354
0.000547383
0.000559231
0.000543909
0.00055566
0.000637921
0.000623885
0.000626047
0.000828224
0.000520852
0.00031248
0.000203472
0.000142786
0.000111311
0.000211001
0.000167208
0.000151451
0.000148521
0.000149204
0.000146779
0.000136456
0.000123501
0.000107361
6.27745e-05
3.77456e-05
0.000104799
7.4096e-05
0.00400529
0.0150299
0.0014139
0.000320528
0.000254457
0.00025303
0.000263784
0.000295086
0.000360359
0.000466697
0.000566904
0.000618697
0.000610979
0.000559842
0.00053897
0.000574092
0.000481647
0.000426934
0.000375456
0.000284413
0.000211189
0.000157948
0.000120467
9.64435e-05
9.33546e-05
9.83822e-05
0.000107536
0.000116286
0.000121837
0.000121392
0.000113299
0.00010131
9.07851e-05
7.35136e-05
5.41975e-05
7.42655e-05
0.000114152
0.000131207
0.000150544
0.000150318
0.00623263
0.0232297
0.00382477
0.000615826
0.000320592
0.000265921
0.000251988
0.000274883
0.000375289
0.000565797
0.000702251
0.000753085
0.000719075
0.000620958
0.000559422
0.00055133
0.000389841
0.000254573
0.000205757
0.000184569
0.00015778
0.000127467
0.000105032
9.52526e-05
0.000100813
0.000116203
0.000133272
0.000149022
0.00016126
0.000166221
0.000159805
0.000138025
0.000114824
9.27445e-05
7.41055e-05
7.10051e-05
8.56945e-05
0.000135337
0.000504769
0.00031965
0.00930628
0.0281147
0.00989847
0.00313665
0.00134104
0.000686775
0.000445006
0.000375228
0.000536442
0.000801487
0.000931062
0.00095114
0.00087089
0.000712306
0.000606346
0.000579726
0.000370471
0.000196603
0.000145894
0.000134442
0.000119725
0.000107006
0.000103457
0.000109161
0.000123097
0.000142816
0.00016533
0.000189487
0.000213361
0.000232616
0.000242467
0.000233332
0.000197383
0.000165357
0.000147196
0.000152072
0.000188815
0.000290888
0.00110323
0.000663479
0.0102295
0.0324235
0.0184029
0.0123849
0.00737197
0.00400586
0.00226025
0.00150398
0.00135435
0.00135022
0.0013183
0.00123318
0.0010605
0.000809556
0.000654864
0.000634926
0.000369247
0.000174332
0.000126734
0.000115847
0.000111135
0.000112872
0.000121333
0.000134522
0.000151842
0.000173787
0.000200545
0.000232124
0.000268723
0.000310665
0.0003579
0.000407233
0.000437973
0.000457312
0.000546538
0.0008068
0.00138915
0.0021601
0.00699645
0.00148578
0.00979846
0.017474
0.0147833
0.0117326
0.0090551
0.00662387
0.00472671
0.00350245
0.00271936
0.00219592
0.00185187
0.00157726
0.0012481
0.000864756
0.000668838
0.000684841
0.000355652
0.000182229
0.000144535
0.000139781
0.000141988
0.000150116
0.000161564
0.000173854
0.000188639
0.000208559
0.000234546
0.000267114
0.000308503
0.000363296
0.000437969
0.000540049
0.000676822
0.000857343
0.00112786
0.00150794
0.00194214
0.00232733
0.00266941
0.0013115
0.00484153
0.00553147
0.00578616
0.00535663
0.00453611
0.00372075
0.00306376
0.00256035
0.00216354
0.00177034
0.00128402
0.00079103
0.000596735
0.00070906
0.000407079
0.000265045
0.000240358
0.000243637
0.00024993
0.000258186
0.000260598
0.000260198
0.000264569
0.000276008
0.000292408
0.000312607
0.000338431
0.000373689
0.000424279
0.000499451
0.000611108
0.000765465
0.000964485
0.0011874
0.00136138
0.00138459
0.00122733
0.000677069
0.00456956
0.0143122
0.00967577
0.00774637
0.00603528
0.00465472
0.00355246
0.00267766
0.00197819
0.00144817
0.0010043
0.000559746
0.0003301
0.000355088
0.000405728
0.00047159
0.000509086
0.000495007
0.000493718
0.000483966
0.000455581
0.000420116
0.000391853
0.000373972
0.000364815
0.000365482
0.000379266
0.000409702
0.000460466
0.000536617
0.000645725
0.000792733
0.000976151
0.00117587
0.00135228
0.0014874
0.000852483
0.000700323
0.00600568
0.00615664
0.00638715
0.00807959
0.00699943
0.00602264
0.00458709
0.00340246
0.0025863
0.00193219
0.00149089
0.00115166
0.000847831
0.000375627
0.000316096
0.000378553
0.000379716
0.000330696
0.000290969
0.000287998
0.000294935
0.000295583
0.00028694
0.000278851
0.0002787
0.00028635
0.000300344
0.00032094
0.000349455
0.00038787
0.000439778
0.000509823
0.000596537
0.00070228
0.000826352
0.000965232
0.00109735
0.00103301
0.000800548
0.0006209
)
;

boundaryField
{
    floor
    {
        Cmu             0.09;
        kappa           0.41;
        E               9.8;
        type            epsilonWallFunction;
        value           nonuniform List<scalar> 
36
(
0.000794039
4.92815e-05
8.54438e-05
0.000108714
0.0001006
8.84423e-05
7.38574e-05
6.09367e-05
5.07141e-05
4.2737e-05
3.6446e-05
3.14121e-05
2.72766e-05
2.3695e-05
2.03429e-05
1.68525e-05
1.2828e-05
1.16429e-05
1.26594e-05
1.26594e-05
3.83751e-05
5.6512e-05
7.4096e-05
0.000131207
0.000150544
0.000150318
0.000794039
0.000948695
0.000563341
0.000309846
4.92815e-05
0.000309846
6.06225e-05
0.000460933
0.000370837
0.000828224
)
;
    }
    ceiling
    {
        Cmu             0.09;
        kappa           0.41;
        E               9.8;
        type            epsilonWallFunction;
        value           nonuniform List<scalar> 
43
(
0.00600568
0.00615664
0.00638715
0.00807959
0.00699943
0.00602264
0.00458709
0.00340246
0.0025863
0.00193219
0.00149089
0.00115166
0.000847831
0.000375627
0.000316096
0.000378553
0.000379716
0.000330696
0.000290969
0.000287998
0.000294935
0.000295583
0.00028694
0.000278851
0.0002787
0.00028635
0.000300344
0.00032094
0.000349455
0.00038787
0.000439778
0.000509823
0.000596537
0.00070228
0.000826352
0.000965232
0.00109735
0.00103301
0.000800548
0.0006209
0.00979846
0.017474
0.00456956
)
;
    }
    sWall
    {
        Cmu             0.09;
        kappa           0.41;
        E               9.8;
        type            epsilonWallFunction;
        value           uniform 0.00600568;
    }
    nWall
    {
        Cmu             0.09;
        kappa           0.41;
        E               9.8;
        type            epsilonWallFunction;
        value           nonuniform List<scalar> 6(0.000150318 0.00031965 0.000663479 0.000677069 0.000700323 0.0006209);
    }
    sideWalls
    {
        type            empty;
    }
    glass1
    {
        Cmu             0.09;
        kappa           0.41;
        E               9.8;
        type            epsilonWallFunction;
        value           nonuniform List<scalar> 9(0.000302093 0.000777923 0.00146999 0.00249718 0.00400529 0.00623263 0.00930628 0.0102295 0.00979846);
    }
    glass2
    {
        Cmu             0.09;
        kappa           0.41;
        E               9.8;
        type            epsilonWallFunction;
        value           nonuniform List<scalar> 2(0.00148578 0.0013115);
    }
    sun
    {
        Cmu             0.09;
        kappa           0.41;
        E               9.8;
        type            epsilonWallFunction;
        value           nonuniform List<scalar> 
14
(
0.000302093
0.000375992
0.000398766
0.000453081
0.000504485
0.000553603
0.000601919
0.00065147
0.000705331
0.000760056
0.000810018
0.000847519
0.000862101
0.000845076
)
;
    }
    Table_master
    {
        Cmu             0.09;
        kappa           0.41;
        E               9.8;
        type            epsilonWallFunction;
        value           nonuniform List<scalar> 9(0.000174732 0.000123717 8.93477e-05 6.61813e-05 5.0244e-05 3.90721e-05 3.12054e-05 2.57405e-05 2.21257e-05);
    }
    Table_slave
    {
        Cmu             0.09;
        kappa           0.41;
        E               9.8;
        type            epsilonWallFunction;
        value           nonuniform List<scalar> 9(0.000211001 0.000167208 0.000151451 0.000148521 0.000149204 0.000146779 0.000136456 0.000123501 0.000107361);
    }
    inlet
    {
        type            turbulentMixingLengthDissipationRateInlet;
        mixingLength    0.01;
        phi             phi;
        k               k;
        value           uniform 0.00377337;
    }
    outlet
    {
        type            zeroGradient;
    }
}


// ************************************************************************* //
