/*--------------------------------*- C++ -*----------------------------------*\
  =========                 |
  \\      /  F ield         | OpenFOAM: The Open Source CFD Toolbox
   \\    /   O peration     | Website:  https://openfoam.org
    \\  /    A nd           | Version:  6
     \\/     M anipulation  |
\*---------------------------------------------------------------------------*/
FoamFile
{
    version     2.0;
    format      ascii;
    class       volScalarField;
    location    "1500";
    object      alphat;
}
// * * * * * * * * * * * * * * * * * * * * * * * * * * * * * * * * * * * * * //

dimensions      [1 -1 -1 0 0 0 0];

internalField   nonuniform List<scalar> 
458
(
0.000921228
0.000977178
0.000971587
0.00100835
0.00104081
0.00106925
0.00109482
0.0011187
0.00114225
0.00116359
0.00117811
0.0011839
0.001181
0.00117369
0.00116614
0.000561221
0.000593376
0.000591626
0.000583574
0.00057205
0.00055405
0.000534373
0.000515609
0.000498195
0.000482254
0.000467508
0.000453668
0.000440385
0.00042716
0.00041326
0.000397265
0.000379975
0.000345545
0.00135784
0.0025358
0.002248
0.00261737
0.00286987
0.00313108
0.00338779
0.00361918
0.00379251
0.00390731
0.0039652
0.00391833
0.00369365
0.00318248
0.0022575
0.00120522
0.00107888
0.000975705
0.000771824
0.00107647
0.00133296
0.0015133
0.00157658
0.00133356
0.00121467
0.00113323
0.00107012
0.00101264
0.000957467
0.000902291
0.000842914
0.000776195
0.00071621
0.000669958
0.000736863
0.000410718
0.00174436
0.00363044
0.00256063
0.00363675
0.00398263
0.00422519
0.00441012
0.00455302
0.0046655
0.00476099
0.00485383
0.00492125
0.00494019
0.00490447
0.00480015
0.00445827
0.00344043
0.00121129
0.000913761
0.00145649
0.00180999
0.00204252
0.00203263
0.000696588
0.000633618
0.000580553
0.000536768
0.000500927
0.000471618
0.000447682
0.000428559
0.00041465
0.000466441
0.000554455
0.0008142
0.000456164
0.00213753
0.00519141
0.00249979
0.00395561
0.00443933
0.00459223
0.00464408
0.00465675
0.00467587
0.00472312
0.00480305
0.00488956
0.00496271
0.0050289
0.00509617
0.00508781
0.0048296
0.00410657
0.00109868
0.001687
0.0021902
0.00246462
0.0025887
0.00243195
0.000720958
0.000686777
0.000671671
0.000663909
0.00065601
0.000642839
0.000624941
0.000604776
0.000578709
0.00055085
0.000561872
0.000866109
0.000501557
0.00254435
0.00729353
0.00301519
0.00368356
0.00453445
0.00468843
0.00465652
0.00456949
0.00451853
0.0045429
0.00463637
0.00473722
0.00480996
0.00485586
0.00489489
0.00491039
0.00483073
0.00459779
0.0039101
0.00353878
0.00329651
0.00310573
0.00297939
0.00287853
0.00264243
0.00263364
0.00267969
0.00271621
0.00271492
0.00265617
0.00248201
0.00218288
0.00179333
0.00136029
0.00102298
0.000949212
0.000728839
0.000580687
0.000616302
0.000643981
0.0029706
0.009607
0.00505341
0.00343172
0.00405325
0.00445059
0.00456549
0.00451294
0.00439944
0.00442135
0.00455498
0.00467149
0.00473337
0.0047451
0.00474124
0.00473893
0.00470123
0.00455839
0.00421834
0.00383888
0.00348303
0.00317573
0.00299883
0.00294935
0.00299514
0.00310882
0.00322234
0.00330349
0.00334038
0.00332494
0.00323476
0.00300105
0.0026258
0.00212481
0.00163044
0.0012559
0.000967303
0.000955019
0.00138482
0.000860163
0.00338546
0.0114648
0.00857098
0.00528428
0.0040977
0.00383091
0.00401209
0.00429854
0.00436535
0.00447665
0.00460382
0.00469331
0.00472097
0.00469727
0.00466781
0.00466903
0.00466834
0.00455776
0.00425214
0.00383159
0.00339864
0.00306044
0.00292718
0.00292853
0.00301007
0.00313226
0.00325166
0.00334298
0.00340375
0.00343464
0.00343516
0.00334239
0.00306634
0.00263471
0.00216482
0.00174116
0.00139348
0.00126583
0.00156247
0.00103581
0.00347944
0.0109734
0.00956088
0.0083852
0.00681521
0.00557855
0.00497022
0.00485227
0.00481199
0.00477241
0.00477364
0.00478056
0.00474183
0.00466652
0.00461863
0.00464298
0.00468818
0.00459939
0.00426331
0.00372525
0.00323452
0.00296427
0.00287409
0.00287634
0.00292591
0.00299646
0.0030677
0.00312999
0.00318658
0.00324655
0.00332084
0.00340057
0.00334756
0.00301288
0.00267967
0.0024413
0.00236446
0.00239614
0.00307797
0.00144951
0.0033996
0.00407994
0.0048315
0.00518881
0.0053481
0.00523046
0.00503328
0.00489777
0.00481769
0.00482085
0.00484934
0.00483241
0.00471735
0.00457695
0.00452626
0.0046037
0.00470449
0.00459686
0.0041376
0.00352758
0.00310524
0.00289742
0.0028041
0.00276406
0.00275077
0.00274732
0.00274085
0.00272457
0.00269646
0.00265446
0.00259308
0.0025033
0.00238359
0.00226302
0.00218163
0.00215822
0.00215391
0.00211507
0.00203978
0.00143588
0.00301203
0.00617553
0.00586842
0.0057107
0.00558231
0.00549719
0.00543764
0.0053368
0.00517811
0.00492791
0.0045695
0.00433197
0.00433322
0.00452399
0.00468166
0.00442838
0.00387194
0.00339599
0.00310883
0.00293144
0.00279759
0.00268362
0.00258315
0.00249221
0.00240611
0.0023215
0.00223912
0.00216448
0.00210591
0.00207175
0.00206215
0.0020574
0.00206047
0.00206016
0.00202053
0.00190613
0.00173427
0.00123562
0.00285675
0.00669445
0.00640614
0.00611465
0.00589572
0.00570972
0.00550169
0.00522541
0.00479379
0.00426878
0.00368236
0.00363853
0.00400352
0.00452481
0.00485133
0.00463332
0.00424355
0.00391923
0.00369403
0.00351539
0.00334305
0.00316318
0.00297732
0.00279327
0.00262014
0.00246605
0.00233706
0.00223642
0.00216352
0.00211224
0.00210193
0.00212402
0.00216295
0.00219289
0.00219674
0.00218447
0.00227993
0.00126077
0.00224039
0.00244269
0.00260822
0.00277859
0.00264061
0.00251392
0.00230546
0.00208189
0.00186066
0.00164462
0.00147603
0.00131482
0.00113471
0.00100955
0.00106306
0.00109676
0.00108046
0.00102976
0.000985047
0.000953828
0.000930462
0.000909728
0.000890357
0.000873698
0.000861908
0.000856766
0.000859176
0.000869242
0.000886651
0.000911154
0.00094305
0.000983775
0.00102904
0.0010794
0.00113552
0.00119543
0.00125982
0.00124818
0.00116038
0.00108497
)
;

boundaryField
{
    floor
    {
        type            compressible::alphatWallFunction;
        Prt             0.85;
        value           nonuniform List<scalar> 
36
(
0.000165521
7.85938e-05
8.34191e-05
8.3156e-05
8.19475e-05
8.02146e-05
7.74987e-05
7.45171e-05
7.1661e-05
6.89987e-05
6.65513e-05
6.42783e-05
6.21366e-05
6.00734e-05
5.80111e-05
5.58348e-05
5.33188e-05
5.05843e-05
4.50902e-05
4.50896e-05
5.54343e-05
6.25215e-05
6.95116e-05
8.15135e-05
8.68475e-05
9.0969e-05
0.000165519
0.000170916
0.000153397
0.000138915
7.85929e-05
0.000138913
0.000109728
0.000171756
0.000130123
0.000156149
)
;
    }
    ceiling
    {
        type            compressible::alphatWallFunction;
        Prt             0.85;
        value           nonuniform List<scalar> 
43
(
0.000308189
0.000334097
0.000355131
0.000376757
0.000359389
0.000343346
0.000316737
0.000287904
0.000259038
0.000230482
0.000207911
0.000186057
0.000161281
0.000143774
0.000151281
0.000155993
0.000153728
0.000146634
0.000140342
0.000135928
0.000132614
0.000129665
0.000126903
0.000124522
0.000122834
0.000122098
0.000122444
0.000123887
0.000126378
0.000129873
0.000134406
0.000140168
0.00014654
0.00015359
0.000161402
0.000169693
0.000178551
0.000176954
0.000164849
0.000154371
0.000454263
0.000537259
0.000386294
)
;
    }
    sWall
    {
        type            compressible::alphatWallFunction;
        Prt             0.85;
        value           uniform 0.000306988;
    }
    nWall
    {
        type            compressible::alphatWallFunction;
        Prt             0.85;
        value           nonuniform List<scalar> 6(9.07909e-05 0.000122283 0.000147171 0.000174913 0.000178364 0.000154059);
    }
    sideWalls
    {
        type            empty;
    }
    glass1
    {
        type            compressible::alphatWallFunction;
        Prt             0.85;
        value           nonuniform List<scalar> 9(0.000127842 0.000187581 0.000238788 0.00028971 0.000341427 0.00039474 0.000445913 0.000457536 0.000447964);
    }
    glass2
    {
        type            compressible::alphatWallFunction;
        Prt             0.85;
        value           nonuniform List<scalar> 2(0.000202934 0.000201144);
    }
    sun
    {
        type            compressible::alphatWallFunction;
        Prt             0.85;
        value           nonuniform List<scalar> 
14
(
0.000131208
0.00013912
0.00013833
0.000143513
0.000148071
0.000152052
0.000155619
0.000158942
0.000162211
0.000165168
0.000167176
0.000167975
0.000167575
0.000166565
)
;
    }
    Table_master
    {
        type            compressible::alphatWallFunction;
        Prt             0.85;
        value           nonuniform List<scalar> 9(9.88118e-05 8.95004e-05 8.15656e-05 7.49508e-05 6.94861e-05 6.49808e-05 6.12751e-05 5.82965e-05 5.61193e-05);
    }
    Table_slave
    {
        type            compressible::alphatWallFunction;
        Prt             0.85;
        value           nonuniform List<scalar> 9(0.000102388 9.73693e-05 9.5142e-05 9.39954e-05 9.28266e-05 9.08736e-05 8.82116e-05 8.52012e-05 8.12911e-05);
    }
    inlet
    {
        type            fixedValue;
        value           uniform 1.94e-05;
    }
    outlet
    {
        type            zeroGradient;
    }
}


// ************************************************************************* //
