/*--------------------------------*- C++ -*----------------------------------*\
  =========                 |
  \\      /  F ield         | OpenFOAM: The Open Source CFD Toolbox
   \\    /   O peration     | Website:  https://openfoam.org
    \\  /    A nd           | Version:  6
     \\/     M anipulation  |
\*---------------------------------------------------------------------------*/
FoamFile
{
    version     2.0;
    format      ascii;
    class       volScalarField;
    location    "2900";
    object      T;
}
// * * * * * * * * * * * * * * * * * * * * * * * * * * * * * * * * * * * * * //

dimensions      [0 0 0 1 0 0 0];

internalField   nonuniform List<scalar> 
458
(
304.065
303.817
303.802
303.796
303.79
303.784
303.778
303.771
303.763
303.752
303.741
303.731
303.724
303.721
303.723
303.842
303.819
303.81
303.814
303.818
303.824
303.829
303.834
303.839
303.843
303.848
303.852
303.857
303.861
303.865
303.869
303.874
303.889
304.23
303.857
303.83
303.829
303.828
303.825
303.819
303.811
303.795
303.774
303.75
303.728
303.711
303.702
303.702
303.712
303.742
303.792
303.84
303.797
303.792
303.797
303.803
303.808
303.812
303.816
303.819
303.823
303.826
303.829
303.832
303.836
303.84
303.846
303.855
303.877
304.402
303.907
303.863
303.867
303.874
303.879
303.878
303.87
303.847
303.811
303.77
303.732
303.704
303.688
303.685
303.693
303.71
303.734
303.767
303.768
303.778
303.791
303.803
303.807
303.811
303.814
303.818
303.821
303.824
303.826
303.829
303.832
303.835
303.84
303.847
303.871
304.575
303.968
303.899
303.906
303.925
303.943
303.953
303.946
303.912
303.855
303.792
303.736
303.695
303.672
303.668
303.677
303.691
303.707
303.718
303.734
303.757
303.78
303.802
303.82
303.834
303.845
303.854
303.863
303.869
303.875
303.879
303.883
303.885
303.871
303.858
303.853
303.869
304.744
304.048
303.945
303.946
303.974
304.006
304.032
304.022
303.971
303.887
303.802
303.73
303.68
303.654
303.651
303.663
303.682
303.702
303.724
303.75
303.778
303.806
303.832
303.853
303.871
303.884
303.894
303.902
303.908
303.911
303.912
303.91
303.906
303.894
303.877
303.863
303.867
303.919
303.98
303.983
304.896
304.152
304.028
304.012
304.039
304.076
304.1
304.067
303.99
303.889
303.788
303.705
303.651
303.628
303.631
303.652
303.682
303.714
303.746
303.781
303.814
303.846
303.873
303.894
303.91
303.922
303.931
303.937
303.94
303.94
303.938
303.932
303.924
303.912
303.894
303.877
303.872
303.895
303.916
303.948
305.039
304.314
304.199
304.175
304.178
304.194
304.157
304.071
303.954
303.829
303.719
303.64
303.598
303.591
303.613
303.651
303.698
303.744
303.787
303.828
303.864
303.894
303.918
303.936
303.948
303.957
303.962
303.966
303.966
303.964
303.959
303.951
303.941
303.927
303.911
303.894
303.884
303.89
303.9
303.924
305.245
304.706
304.583
304.51
304.426
304.298
304.136
303.96
303.794
303.659
303.567
303.523
303.522
303.555
303.609
303.675
303.741
303.799
303.847
303.888
303.919
303.943
303.961
303.973
303.981
303.985
303.988
303.988
303.987
303.983
303.978
303.969
303.959
303.947
303.934
303.922
303.915
303.92
303.933
304.044
305.54
305.284
305.008
304.674
304.3
303.948
303.664
303.462
303.344
303.302
303.32
303.38
303.466
303.56
303.655
303.745
303.822
303.876
303.915
303.944
303.967
303.983
303.994
304.001
304.005
304.007
304.007
304.006
304.004
304.002
304
304
304.001
304.005
304.015
304.032
304.057
304.084
304.105
304.155
294.604
296.657
298.826
300.216
301.188
301.916
302.468
302.879
303.18
303.404
303.582
303.702
303.79
303.858
303.909
303.945
303.97
303.989
304.002
304.011
304.017
304.02
304.023
304.024
304.025
304.026
304.026
304.027
304.029
304.03
304.034
304.04
304.049
304.064
304.082
304.102
304.12
304.139
295.936
298.682
300.496
301.524
302.186
302.653
303.003
303.272
303.476
303.631
303.747
303.83
303.89
303.934
303.965
303.987
304.003
304.013
304.02
304.025
304.029
304.032
304.035
304.037
304.039
304.041
304.043
304.044
304.046
304.047
304.05
304.055
304.061
304.071
304.083
304.097
304.097
304.122
300.289
300.192
300.188
302.057
302.667
302.976
303.207
303.396
303.549
303.671
303.767
303.84
303.894
303.933
303.96
303.978
303.991
303.999
304.005
304.009
304.012
304.015
304.018
304.02
304.023
304.026
304.029
304.032
304.035
304.038
304.042
304.045
304.049
304.053
304.057
304.064
304.073
304.078
304.078
304.117
)
;

boundaryField
{
    floor
    {
        type            wallHeatTransfer;
        Tinf            uniform 305.2;
        alphaWall       uniform 0.24;
        value           nonuniform List<scalar> 
36
(
303.86
304.103
304.048
304.022
304.026
304.036
304.051
304.067
304.083
304.099
304.114
304.128
304.142
304.155
304.168
304.18
304.195
304.209
304.241
304.241
304.187
304.159
304.139
304.137
304.17
304.161
303.86
303.843
303.902
303.995
304.103
303.995
304.087
303.88
303.924
303.843
)
;
    }
    ceiling
    {
        type            wallHeatTransfer;
        Tinf            uniform 303.2;
        alphaWall       uniform 0.24;
        value           nonuniform List<scalar> 
43
(
300.5
300.396
300.384
302.126
302.699
302.989
303.207
303.383
303.526
303.638
303.725
303.788
303.833
303.863
303.882
303.895
303.903
303.908
303.911
303.913
303.915
303.916
303.917
303.918
303.919
303.92
303.922
303.923
303.926
303.929
303.934
303.939
303.945
303.951
303.959
303.969
303.979
303.981
303.978
304.009
305.431
305.199
296.415
)
;
    }
    sWall
    {
        type            wallHeatTransfer;
        Tinf            uniform 315.2;
        alphaWall       uniform 0.36;
        value           uniform 301.86;
    }
    nWall
    {
        type            wallHeatTransfer;
        Tinf            uniform 307.2;
        alphaWall       uniform 0.36;
        value           nonuniform List<scalar> 6(304.64 304.6 304.523 304.591 304.566 304.634);
    }
    sideWalls
    {
        type            empty;
    }
    glass1
    {
        type            wallHeatTransfer;
        Tinf            uniform 315.2;
        alphaWall       uniform 4.3;
        value           nonuniform List<scalar> 9(311.683 311.078 310.696 310.405 310.161 309.94 309.786 309.862 310.083);
    }
    glass2
    {
        type            wallHeatTransfer;
        Tinf            uniform 307.2;
        alphaWall       uniform 4.3;
        value           nonuniform List<scalar> 2(306.082 306.139);
    }
    sun
    {
        type            wallHeatTransfer;
        Tinf            uniform 305.2;
        alphaWall       uniform 0.24;
        value           nonuniform List<scalar> 
14
(
304.185
303.953
303.938
303.927
303.918
303.909
303.9
303.89
303.88
303.869
303.859
303.852
303.849
303.851
)
;
    }
    Table_master
    {
        type            zeroGradient;
    }
    Table_slave
    {
        type            zeroGradient;
    }
    inlet
    {
        type            fixedValue;
        value           uniform 292.15;
    }
    outlet
    {
        type            zeroGradient;
    }
}


// ************************************************************************* //
