/*--------------------------------*- C++ -*----------------------------------*\
  =========                 |
  \\      /  F ield         | OpenFOAM: The Open Source CFD Toolbox
   \\    /   O peration     | Website:  https://openfoam.org
    \\  /    A nd           | Version:  6
     \\/     M anipulation  |
\*---------------------------------------------------------------------------*/
FoamFile
{
    version     2.0;
    format      ascii;
    class       volScalarField;
    location    "500";
    object      nut;
}
// * * * * * * * * * * * * * * * * * * * * * * * * * * * * * * * * * * * * * //

dimensions      [0 2 -1 0 0 0 0];

internalField   nonuniform List<scalar> 
458
(
0.000865217
0.00090342
0.000671085
0.000560138
0.000534668
0.000525405
0.000519846
0.00051617
0.000514404
0.000514888
0.00051768
0.000522663
0.000530498
0.000542794
0.000555468
0.00033091
0.000359929
0.000379975
0.000354171
0.000325136
0.000246708
0.000232661
0.000240622
0.000260648
0.000286114
0.000312654
0.000335327
0.000341621
0.000341257
0.000341039
0.000351874
0.000345865
0.000315597
0.00153201
0.0036778
0.00194724
0.00204275
0.00254534
0.00276382
0.00280854
0.00276673
0.00267986
0.00257036
0.0024439
0.00228982
0.00207789
0.00174937
0.00124715
0.000681147
0.000639771
0.000524538
0.000500924
0.000825539
0.000958533
0.000973552
0.000814846
0.000389818
0.000372568
0.000500734
0.000691863
0.000895245
0.00107638
0.00121282
0.00123684
0.00120287
0.00119893
0.000967777
0.000846438
0.00036093
0.00210019
0.00659415
0.00345933
0.00262641
0.00306812
0.00360735
0.00391769
0.00400695
0.00394429
0.00379977
0.00361473
0.00339892
0.00313723
0.00279841
0.00236377
0.00186294
0.00133109
0.000759979
0.000734821
0.00198554
0.00177181
0.00141909
0.000914611
0.000308633
0.000313182
0.00034208
0.000371359
0.000400339
0.000428938
0.000458075
0.000490699
0.000529908
0.0011368
0.000948015
0.000763591
0.000558656
0.00258531
0.00968872
0.0060324
0.00400932
0.0034997
0.00379861
0.00434929
0.0047711
0.00493637
0.00491551
0.00479807
0.0046249
0.00439153
0.00406186
0.00358934
0.00294674
0.00216068
0.00140052
0.000960736
0.00260347
0.00232865
0.0018315
0.00133665
0.000952293
0.000697436
0.000702414
0.000704401
0.00070416
0.000703534
0.000704385
0.000709025
0.000720758
0.000744983
0.00173031
0.00157606
0.00126909
0.000779003
0.00297754
0.0123776
0.00915045
0.00647553
0.0047631
0.00404705
0.00432001
0.0050397
0.00559158
0.00584861
0.00593757
0.00595945
0.00595361
0.0059203
0.00584247
0.00569883
0.00547129
0.00517641
0.00492696
0.0050196
0.00476615
0.00447841
0.00428058
0.00415931
0.0040637
0.00397602
0.00386581
0.00372783
0.0035615
0.00336926
0.00315692
0.00293395
0.00271179
0.00249854
0.00219167
0.00185689
0.00141959
0.000924731
0.000892153
0.000735
0.003313
0.0137438
0.0111989
0.00862448
0.00665834
0.0048893
0.00424296
0.00480489
0.00570223
0.00628537
0.00660017
0.00680102
0.00696552
0.00711043
0.00722826
0.00730575
0.00732329
0.00726422
0.00713365
0.006966
0.00676096
0.00656412
0.00639582
0.00625443
0.00611102
0.00595535
0.0057768
0.00556676
0.00531865
0.00502702
0.00468839
0.00430439
0.00388637
0.00345786
0.00304729
0.00266954
0.00230706
0.00196863
0.00163489
0.000974851
0.00351895
0.0125124
0.010232
0.00938084
0.00780027
0.00603064
0.00457581
0.00438911
0.00530915
0.00614219
0.00663957
0.00698605
0.00729304
0.00758568
0.00785357
0.00807618
0.00823159
0.00830481
0.00828878
0.0082019
0.00807006
0.00791757
0.00775997
0.00760291
0.00744335
0.0072759
0.00709348
0.00688889
0.00665581
0.00638788
0.00607776
0.00571732
0.00530034
0.00482877
0.00431852
0.00378898
0.00324998
0.00275372
0.0023265
0.00126756
0.00333744
0.00593675
0.00943799
0.00988215
0.0084994
0.00667104
0.00506843
0.00424377
0.00471011
0.00558445
0.00615828
0.00660699
0.00702574
0.00743425
0.00782929
0.00819581
0.00850442
0.00872035
0.00883682
0.00886539
0.00882466
0.00873577
0.0086168
0.00848149
0.00833681
0.00818321
0.00801721
0.00783429
0.00763055
0.00740243
0.00714594
0.00685598
0.00652639
0.0061518
0.00573023
0.0052537
0.00467621
0.0039882
0.00350815
0.00140754
0.00318092
0.00466636
0.0209255
0.0155736
0.0101323
0.0073666
0.00576737
0.00502743
0.00498832
0.00531345
0.00573988
0.00619167
0.00664953
0.00709125
0.0075143
0.00791508
0.00827981
0.00858732
0.00881668
0.00895493
0.00901171
0.00900448
0.0089487
0.00886086
0.00875249
0.0086279
0.00848695
0.00832768
0.00814752
0.00794351
0.00771193
0.007448
0.0071464
0.006804
0.00642534
0.00602257
0.00559502
0.00510682
0.00452176
0.00150559
0.0306246
0.0227164
0.0111519
0.00802008
0.00672709
0.00603237
0.00580982
0.00590636
0.00622227
0.00664945
0.00708557
0.00746083
0.00777746
0.00804942
0.0082886
0.00849839
0.00867479
0.00881159
0.00890472
0.0089488
0.0089459
0.00890621
0.00883585
0.00873936
0.00862033
0.0084808
0.00832099
0.00813923
0.00793188
0.00769336
0.00741672
0.00709571
0.00672889
0.0063224
0.00588226
0.00538865
0.00460297
0.0015889
0.00937311
0.0170114
0.0115826
0.00852697
0.00680714
0.00596118
0.00568264
0.00580972
0.00623264
0.00681929
0.00736702
0.00779556
0.00809368
0.00828748
0.00841217
0.00849596
0.00855542
0.00859752
0.0086243
0.00863628
0.00863362
0.00861489
0.00856667
0.00849195
0.0083961
0.00828312
0.00815476
0.00801026
0.00784653
0.00765851
0.00744009
0.00718538
0.00688992
0.00654938
0.00615409
0.00567106
0.00505899
0.00167058
0.00135204
0.00193443
0.00571754
0.00528147
0.00454162
0.00388567
0.00337053
0.00296742
0.00265374
0.0024158
0.0022451
0.00213429
0.00207756
0.00205548
0.00204907
0.00204606
0.0020409
0.00203217
0.00202031
0.00200614
0.00199034
0.00197341
0.00195562
0.001937
0.00191894
0.00190076
0.00188196
0.0018623
0.00184167
0.00181994
0.00179686
0.001772
0.0017448
0.00171459
0.00168063
0.00164199
0.00159703
0.00154289
0.00148711
0.00127121
)
;

boundaryField
{
    floor
    {
        type            nutkWallFunction;
        Cmu             0.09;
        kappa           0.41;
        E               9.8;
        value           nonuniform List<scalar> 
36
(
6.67549e-05
3.75781e-05
4.14663e-05
4.41272e-05
4.06975e-05
3.6798e-05
2.60263e-05
2.40494e-05
2.51697e-05
2.79681e-05
3.14863e-05
3.51092e-05
3.81717e-05
3.90172e-05
3.89695e-05
3.89414e-05
4.03923e-05
3.9589e-05
3.55115e-05
3.55114e-05
4.16012e-05
6.71674e-05
9.43782e-05
0.000111864
0.000107962
8.90163e-05
6.67549e-05
8.24132e-05
7.72985e-05
6.28344e-05
3.7578e-05
6.28344e-05
5.98372e-05
9.20542e-05
8.89927e-05
0.00011611
)
;
    }
    ceiling
    {
        type            nutkWallFunction;
        Cmu             0.09;
        kappa           0.41;
        E               9.8;
        value           nonuniform List<scalar> 
43
(
0.000161601
0.000226666
0.000615719
0.000572617
0.000498747
0.000432278
0.000379301
0.000337278
0.000304176
0.000278796
0.000260426
0.000248419
0.000242239
0.000239821
0.000239109
0.000238769
0.000238195
0.000237234
0.000235932
0.000234377
0.000232643
0.000230786
0.000228832
0.000226787
0.000224802
0.000222801
0.000220731
0.000218565
0.00021629
0.000213891
0.00021134
0.00020859
0.000205576
0.000202223
0.000198447
0.000194141
0.000189118
0.000183049
0.000176777
0.000152244
0.000359134
0.000510208
0.000966444
)
;
    }
    sWall
    {
        type            nutkWallFunction;
        Cmu             0.09;
        kappa           0.41;
        E               9.8;
        value           uniform 0.000161631;
    }
    nWall
    {
        type            nutkWallFunction;
        Cmu             0.09;
        kappa           0.41;
        E               9.8;
        value           nonuniform List<scalar> 6(8.90154e-05 0.000117722 0.000151856 0.000188226 0.000197322 0.000152252);
    }
    sideWalls
    {
        type            empty;
    }
    glass1
    {
        type            nutkWallFunction;
        Cmu             0.09;
        kappa           0.41;
        E               9.8;
        value           nonuniform List<scalar> 9(0.00010476 0.000181979 0.000244718 0.000296827 0.000338205 0.000373142 0.000394496 0.000375764 0.000359513);
    }
    glass2
    {
        type            nutkWallFunction;
        Cmu             0.09;
        kappa           0.41;
        E               9.8;
        value           nonuniform List<scalar> 2(0.000167834 0.000178905);
    }
    sun
    {
        type            nutkWallFunction;
        Cmu             0.09;
        kappa           0.41;
        E               9.8;
        value           nonuniform List<scalar> 
14
(
0.000104734
0.000109292
8.11569e-05
6.73293e-05
6.41104e-05
6.29354e-05
6.22294e-05
6.17628e-05
6.15396e-05
6.16031e-05
6.19608e-05
6.25966e-05
6.35936e-05
6.5153e-05
)
;
    }
    Table_master
    {
        type            nutkWallFunction;
        Cmu             0.09;
        kappa           0.41;
        E               9.8;
        value           nonuniform List<scalar> 9(3.45701e-05 3.51888e-05 3.90837e-05 4.29873e-05 4.68129e-05 5.05542e-05 5.43343e-05 5.8532e-05 6.35324e-05);
    }
    Table_slave
    {
        type            nutkWallFunction;
        Cmu             0.09;
        kappa           0.41;
        E               9.8;
        value           nonuniform List<scalar> 9(8.44117e-05 8.50237e-05 8.52684e-05 8.52404e-05 8.51657e-05 8.52728e-05 8.58452e-05 8.72861e-05 9.02485e-05);
    }
    inlet
    {
        type            calculated;
        value           uniform 0.0306246;
    }
    outlet
    {
        type            calculated;
        value           nonuniform List<scalar> 2(0.00135204 0.00193443);
    }
}


// ************************************************************************* //
