/*--------------------------------*- C++ -*----------------------------------*\
  =========                 |
  \\      /  F ield         | OpenFOAM: The Open Source CFD Toolbox
   \\    /   O peration     | Website:  https://openfoam.org
    \\  /    A nd           | Version:  6
     \\/     M anipulation  |
\*---------------------------------------------------------------------------*/
FoamFile
{
    version     2.0;
    format      ascii;
    class       volScalarField;
    location    "500";
    object      T;
}
// * * * * * * * * * * * * * * * * * * * * * * * * * * * * * * * * * * * * * //

dimensions      [0 0 0 1 0 0 0];

internalField   nonuniform List<scalar> 
458
(
304.308
304.023
304.018
304.017
304.024
304.032
304.041
304.051
304.064
304.08
304.1
304.124
304.152
304.185
304.218
302.572
302.6
302.637
302.612
302.592
302.587
302.567
302.549
302.536
302.53
302.529
302.534
302.535
302.539
302.55
302.575
302.562
302.55
304.578
304.262
304.231
304.227
304.236
304.249
304.26
304.272
304.284
304.3
304.318
304.339
304.36
304.377
304.384
304.378
304.329
304.164
302.907
302.9
302.877
302.828
302.75
302.755
302.748
302.739
302.739
302.748
302.763
302.785
302.839
302.893
302.941
302.877
302.751
302.63
304.824
304.495
304.453
304.434
304.435
304.448
304.462
304.476
304.49
304.506
304.524
304.543
304.56
304.569
304.561
304.533
304.484
304.415
303.512
303.429
303.353
303.319
303.271
302.944
302.994
303.059
303.124
303.192
303.268
303.352
303.448
303.581
303.756
303.817
303.863
304.03
305.063
304.761
304.746
304.698
304.665
304.661
304.674
304.69
304.706
304.723
304.744
304.766
304.785
304.796
304.791
304.761
304.701
304.608
304.511
304.424
304.445
304.567
304.724
304.864
304.962
304.988
305.007
305.021
305.031
305.038
305.04
305.037
305.024
305
305.085
305.301
305.533
305.307
305.077
305.157
305.111
304.996
304.914
304.907
304.919
304.936
304.956
304.98
305.007
305.037
305.062
305.079
305.083
305.07
305.044
305.016
305
305.022
305.071
305.132
305.186
305.227
305.257
305.285
305.312
305.342
305.374
305.41
305.452
305.501
305.561
305.651
305.752
305.831
305.855
305.806
305.631
305.559
305.456
305.764
305.701
305.532
305.322
305.197
305.182
305.197
305.219
305.246
305.278
305.312
305.343
305.37
305.386
305.39
305.381
305.369
305.362
305.369
305.387
305.41
305.436
305.46
305.483
305.506
305.531
305.559
305.591
305.63
305.677
305.732
305.796
305.866
305.934
305.989
306.018
306.01
305.929
305.83
305.908
306.59
306.505
306.228
305.912
305.657
305.526
305.523
305.552
305.585
305.62
305.657
305.691
305.718
305.737
305.747
305.745
305.736
305.725
305.718
305.717
305.72
305.726
305.734
305.742
305.752
305.763
305.776
305.794
305.817
305.848
305.889
305.939
305.999
306.065
306.135
306.204
306.269
306.328
306.1
306.483
307.447
307.509
307.062
306.551
306.194
306.034
306.003
306.032
306.068
306.1
306.131
306.16
306.186
306.203
306.206
306.199
306.185
306.166
306.146
306.127
306.111
306.097
306.085
306.074
306.064
306.054
306.047
306.042
306.041
306.048
306.062
306.087
306.122
306.167
306.218
306.276
306.342
306.41
306.563
307.204
310.341
309.215
307.834
307.026
306.683
306.629
306.687
306.757
306.81
306.842
306.856
306.86
306.858
306.85
306.835
306.808
306.772
306.732
306.691
306.65
306.611
306.573
306.537
306.502
306.467
306.433
306.4
306.37
306.344
306.323
306.309
306.305
306.312
306.328
306.351
306.377
306.409
306.445
317.694
310.898
308.753
307.866
307.622
307.681
307.786
307.883
307.938
307.946
307.914
307.865
307.805
307.74
307.672
307.6
307.527
307.45
307.372
307.297
307.224
307.155
307.087
307.022
306.958
306.896
306.836
306.779
306.725
306.676
306.633
306.599
306.573
306.556
306.544
306.534
306.521
306.492
315.649
312.071
310.707
309.963
309.744
309.699
309.668
309.597
309.491
309.36
309.224
309.078
308.928
308.781
308.638
308.502
308.372
308.248
308.128
308.011
307.898
307.79
307.686
307.586
307.491
307.399
307.31
307.225
307.143
307.066
306.994
306.927
306.867
306.812
306.76
306.706
306.642
306.554
311.395
311.583
313.871
313.49
313.032
312.667
312.376
312.119
311.88
311.644
311.406
311.163
310.904
310.641
310.385
310.141
309.91
309.694
309.491
309.3
309.12
308.948
308.786
308.63
308.481
308.337
308.198
308.065
307.936
307.811
307.69
307.573
307.459
307.347
307.238
307.13
307.02
306.903
306.766
306.6
)
;

boundaryField
{
    floor
    {
        type            wallHeatTransfer;
        Tinf            uniform 305.2;
        alphaWall       uniform 0.24;
        value           nonuniform List<scalar> 
36
(
304.385
303.196
303.187
303.196
303.201
303.218
303.322
303.332
303.305
303.263
303.221
303.185
303.162
303.156
303.159
303.168
303.175
303.171
303.197
303.197
303.209
304.229
305.487
305.777
305.731
305.57
304.385
304.5
304.464
304.348
303.196
304.348
303.325
304.523
303.749
304.59
)
;
    }
    ceiling
    {
        type            wallHeatTransfer;
        Tinf            uniform 303.2;
        alphaWall       uniform 0.24;
        value           nonuniform List<scalar> 
43
(
310.653
311.011
313.574
313.183
312.7
312.301
311.977
311.689
311.42
311.162
310.909
310.66
310.407
310.158
309.917
309.689
309.473
309.27
309.078
308.897
308.726
308.564
308.41
308.262
308.12
307.984
307.852
307.725
307.602
307.483
307.368
307.255
307.146
307.038
306.932
306.827
306.719
306.603
306.47
306.281
306.411
307.073
315.422
)
;
    }
    sWall
    {
        type            wallHeatTransfer;
        Tinf            uniform 315.2;
        alphaWall       uniform 0.36;
        value           uniform 311.89;
    }
    nWall
    {
        type            wallHeatTransfer;
        Tinf            uniform 307.2;
        alphaWall       uniform 0.36;
        value           nonuniform List<scalar> 6(305.94 306.135 306.445 306.572 306.624 306.681);
    }
    sideWalls
    {
        type            empty;
    }
    glass1
    {
        type            wallHeatTransfer;
        Tinf            uniform 315.2;
        alphaWall       uniform 4.3;
        value           nonuniform List<scalar> 9(312.183 311.121 310.528 310.178 309.993 309.902 309.928 310.186 310.533);
    }
    glass2
    {
        type            wallHeatTransfer;
        Tinf            uniform 307.2;
        alphaWall       uniform 4.3;
        value           nonuniform List<scalar> 2(306.908 306.91);
    }
    sun
    {
        type            wallHeatTransfer;
        Tinf            uniform 305.2;
        alphaWall       uniform 0.24;
        value           nonuniform List<scalar> 
14
(
304.419
304.165
304.195
304.218
304.23
304.239
304.247
304.257
304.268
304.281
304.297
304.316
304.337
304.361
)
;
    }
    Table_master
    {
        type            zeroGradient;
    }
    Table_slave
    {
        type            zeroGradient;
    }
    inlet
    {
        type            fixedValue;
        value           uniform 290.15;
    }
    outlet
    {
        type            zeroGradient;
    }
}


// ************************************************************************* //
