/*--------------------------------*- C++ -*----------------------------------*\
  =========                 |
  \\      /  F ield         | OpenFOAM: The Open Source CFD Toolbox
   \\    /   O peration     | Website:  https://openfoam.org
    \\  /    A nd           | Version:  6
     \\/     M anipulation  |
\*---------------------------------------------------------------------------*/
FoamFile
{
    version     2.0;
    format      ascii;
    class       volScalarField;
    location    "1100";
    object      alphat;
}
// * * * * * * * * * * * * * * * * * * * * * * * * * * * * * * * * * * * * * //

dimensions      [1 -1 -1 0 0 0 0];

internalField   nonuniform List<scalar> 
458
(
0.00190972
0.00264632
0.00256069
0.00246271
0.00237779
0.0023048
0.00224021
0.00218134
0.00212612
0.00207188
0.00201607
0.0019556
0.00188578
0.00179698
0.001683
0.000188697
0.000190483
0.000191588
0.00018426
0.000175543
0.000167588
0.00016373
0.000163154
0.000153126
0.000146269
0.000148914
0.000155946
0.000165948
0.000194477
0.000217005
0.000244503
0.000235007
0.000215307
0.00282665
0.00352566
0.00366921
0.00358862
0.00349419
0.00343932
0.00341001
0.00338696
0.00333709
0.00325628
0.00314135
0.00298753
0.00278242
0.00249688
0.0020957
0.00163283
0.00150067
0.00125995
0.00032066
0.000531604
0.000710392
0.000793671
0.000732032
0.000607725
0.00057158
0.000512562
0.000424802
0.000331989
0.000250546
0.000210851
0.000212454
0.000305496
0.000683967
0.000778069
0.000647963
0.000314346
0.00316215
0.00427543
0.00403567
0.00366375
0.00350034
0.00350082
0.00358468
0.0036842
0.00374999
0.00375919
0.00369532
0.00354806
0.00331064
0.00297474
0.00256616
0.00221514
0.00199005
0.00134057
0.000478502
0.00140163
0.00156133
0.00143586
0.00102174
0.000373969
0.000321888
0.000288436
0.000261859
0.000239149
0.000219985
0.000203368
0.000194711
0.000278994
0.000984246
0.00125259
0.00140091
0.000479855
0.00330158
0.00490733
0.00390391
0.00318161
0.00314529
0.00344916
0.00387704
0.00424129
0.00440464
0.00439499
0.00425522
0.00402158
0.00371254
0.00333092
0.00290964
0.00255249
0.00226036
0.00169917
0.0011435
0.00137425
0.00165493
0.00181713
0.00150174
0.000957695
0.000500665
0.000518182
0.000541391
0.000567885
0.000600062
0.000642464
0.000685109
0.000724259
0.00075468
0.00132353
0.00167247
0.00182721
0.000719166
0.00339888
0.0051215
0.00317364
0.0026782
0.00364857
0.0048102
0.00566443
0.00608042
0.00587957
0.00540019
0.0048917
0.00442323
0.00398142
0.00353413
0.00309207
0.00272247
0.00240493
0.00193109
0.00152487
0.00151092
0.00197618
0.00245933
0.00252534
0.00254094
0.00260091
0.00274703
0.00289946
0.0030409
0.00316155
0.00326152
0.00334122
0.0033951
0.0034223
0.00345561
0.0033714
0.00308908
0.00223033
0.000996175
0.000941379
0.000836478
0.00348753
0.0048675
0.00234373
0.00325369
0.00543948
0.00632778
0.00672802
0.00683485
0.00649347
0.0057613
0.00508081
0.00451825
0.0040278
0.00356417
0.00313409
0.00277295
0.00245273
0.00203881
0.00174734
0.00189654
0.00249328
0.00293905
0.00305075
0.00316937
0.00334039
0.00354442
0.00375686
0.00394021
0.00405774
0.00410996
0.00412394
0.00411392
0.00409117
0.00407293
0.00406955
0.00405201
0.00388484
0.00354265
0.00298846
0.00103821
0.00359453
0.00422971
0.00210357
0.00304036
0.00535475
0.00598486
0.00610318
0.00604863
0.00580457
0.00533256
0.00481818
0.00433824
0.00389736
0.00348085
0.0030975
0.00275205
0.00243673
0.00209318
0.00192954
0.00230129
0.00293708
0.00327305
0.00336431
0.00350081
0.00368577
0.00390454
0.00415944
0.00440597
0.00455386
0.00456656
0.00449103
0.00436674
0.00422648
0.00411037
0.0040413
0.00398555
0.00384486
0.00355935
0.00322473
0.00110818
0.0037425
0.0039313
0.00247996
0.00224591
0.00422162
0.00489604
0.00497007
0.00494407
0.00483729
0.0046252
0.00432915
0.00400184
0.00366889
0.00333825
0.00301751
0.00270355
0.00241565
0.00215975
0.00212658
0.00270312
0.003325
0.00356399
0.00370308
0.00388231
0.00405753
0.00423853
0.00448004
0.00479178
0.0050589
0.00512747
0.00500393
0.00471275
0.00427461
0.0037423
0.00318697
0.00267182
0.0022511
0.00196919
0.00175573
0.00130139
0.00400263
0.00450301
0.00394641
0.00239636
0.0031037
0.00396695
0.0041231
0.00414826
0.00409842
0.00401024
0.00386102
0.00367006
0.00345244
0.00321645
0.00296584
0.00270351
0.00246575
0.00229993
0.00240733
0.0031938
0.00370691
0.00401535
0.00427809
0.00450023
0.00463817
0.00473486
0.00486572
0.00510257
0.00545366
0.00576478
0.00597297
0.00603013
0.00595908
0.00581956
0.00561923
0.00525445
0.00457501
0.00373415
0.00320538
0.00160544
0.00588851
0.00322686
0.00324193
0.00363305
0.003777
0.00385579
0.00387229
0.0038306
0.0037439
0.00363139
0.00349488
0.00333376
0.00314731
0.00294337
0.00276505
0.0026938
0.00300058
0.00397177
0.00447666
0.00498657
0.00530399
0.00547902
0.00554813
0.00557729
0.00562325
0.00572415
0.0058865
0.00603014
0.00622888
0.00646712
0.00667403
0.00681722
0.00690029
0.00685907
0.00648794
0.00578622
0.00482502
0.00169751
0.00273325
0.00337807
0.00385889
0.00366569
0.00357548
0.00350134
0.00342652
0.0033342
0.00324071
0.00316712
0.00309815
0.00302312
0.00293558
0.00283942
0.00276472
0.0027979
0.00331027
0.00431513
0.00519983
0.00599687
0.00645119
0.0065982
0.00660308
0.00658678
0.00659781
0.00663728
0.0066733
0.0065795
0.00645805
0.00639701
0.00642406
0.00652019
0.00664378
0.00667138
0.00624589
0.00547457
0.00470347
0.00182381
0.00175897
0.00161125
0.0015096
0.00125977
0.00125346
0.00124249
0.00124245
0.00124368
0.00124548
0.00124829
0.00124961
0.00124821
0.00124463
0.00123863
0.00122979
0.00121819
0.00120561
0.00119682
0.00122385
0.00129622
0.00137739
0.00145392
0.00152425
0.00156935
0.00158806
0.00159192
0.001591
0.00158952
0.00158648
0.00158627
0.00157837
0.00156588
0.00155257
0.00153864
0.00151929
0.00148683
0.00145296
0.00139461
0.00136572
0.00144722
)
;

boundaryField
{
    floor
    {
        type            compressible::alphatWallFunction;
        Prt             0.85;
        value           nonuniform List<scalar> 
36
(
0.000235604
1.89951e-05
1.93074e-05
1.95009e-05
1.82203e-05
1.6689e-05
1.52816e-05
1.45947e-05
1.44909e-05
1.26969e-05
1.14642e-05
1.19447e-05
1.32097e-05
1.4995e-05
2.00001e-05
2.3878e-05
2.85406e-05
2.69414e-05
2.35899e-05
2.35894e-05
4.0089e-05
6.62398e-05
0.000102128
0.000141886
0.00013414
0.000119158
0.000235601
0.00022893
0.000211242
0.000178559
1.89948e-05
0.000178557
4.11219e-05
0.000189575
6.60388e-05
0.000162494
)
;
    }
    ceiling
    {
        type            compressible::alphatWallFunction;
        Prt             0.85;
        value           nonuniform List<scalar> 
43
(
0.000245912
0.000226249
0.000212551
0.000178643
0.000177778
0.000176271
0.000176266
0.000176435
0.000176683
0.000177068
0.000177249
0.000177058
0.000176566
0.000175742
0.000174526
0.00017293
0.000171196
0.000169984
0.000173706
0.000183631
0.000194689
0.000205048
0.000214515
0.000220558
0.000223058
0.000223572
0.000223448
0.00022325
0.000222842
0.000222813
0.000221757
0.000220084
0.000218302
0.000216435
0.00021384
0.000209475
0.00020491
0.000197017
0.000193095
0.000204138
0.00052789
0.000588128
0.000371242
)
;
    }
    sWall
    {
        type            compressible::alphatWallFunction;
        Prt             0.85;
        value           uniform 0.000244979;
    }
    nWall
    {
        type            compressible::alphatWallFunction;
        Prt             0.85;
        value           nonuniform List<scalar> 6(0.000119002 0.000147635 0.000157409 0.000237334 0.000254019 0.000203851);
    }
    sideWalls
    {
        type            empty;
    }
    glass1
    {
        type            compressible::alphatWallFunction;
        Prt             0.85;
        value           nonuniform List<scalar> 9(0.000261217 0.000377511 0.000418997 0.000436088 0.000447954 0.000458722 0.000471681 0.000489559 0.000520883);
    }
    glass2
    {
        type            compressible::alphatWallFunction;
        Prt             0.85;
        value           nonuniform List<scalar> 2(0.000183505 0.000224477);
    }
    sun
    {
        type            compressible::alphatWallFunction;
        Prt             0.85;
        value           nonuniform List<scalar> 
14
(
0.000265535
0.000360194
0.000349343
0.000336883
0.000326042
0.000316691
0.00030839
0.000300802
0.000293664
0.000286635
0.000279379
0.000271494
0.000262357
0.000250682
)
;
    }
    Table_master
    {
        type            compressible::alphatWallFunction;
        Prt             0.85;
        value           nonuniform List<scalar> 9(4.96956e-05 4.13358e-05 3.58719e-05 3.14703e-05 2.76613e-05 2.44091e-05 2.15569e-05 2.00615e-05 3.43331e-05);
    }
    Table_slave
    {
        type            compressible::alphatWallFunction;
        Prt             0.85;
        value           nonuniform List<scalar> 9(6.94414e-05 7.2117e-05 7.5646e-05 7.96521e-05 8.44875e-05 9.08101e-05 9.7119e-05 0.000102868 0.00010731);
    }
    inlet
    {
        type            fixedValue;
        value           uniform 1.94e-05;
    }
    outlet
    {
        type            zeroGradient;
    }
}


// ************************************************************************* //
