/*--------------------------------*- C++ -*----------------------------------*\
  =========                 |
  \\      /  F ield         | OpenFOAM: The Open Source CFD Toolbox
   \\    /   O peration     | Website:  https://openfoam.org
    \\  /    A nd           | Version:  6
     \\/     M anipulation  |
\*---------------------------------------------------------------------------*/
FoamFile
{
    version     2.0;
    format      ascii;
    class       volScalarField;
    location    "1100";
    object      epsilon;
}
// * * * * * * * * * * * * * * * * * * * * * * * * * * * * * * * * * * * * * //

dimensions      [0 2 -3 0 0 0 0];

internalField   nonuniform List<scalar> 
458
(
0.00162292
0.0042968
0.00389074
0.00346008
0.0031139
0.00283556
0.00260362
0.00240362
0.0022256
0.00205953
0.00189746
0.00173175
0.00155277
0.00134354
0.00110372
1.5399e-06
1.58427e-06
1.61223e-06
1.4338e-06
1.23957e-06
1.07832e-06
1.00533e-06
9.94595e-07
8.22138e-07
7.16906e-07
7.56856e-07
8.69341e-07
1.04772e-06
1.68533e-06
2.34026e-06
3.34715e-06
2.9726e-06
2.28595e-06
0.00524861
0.00518262
0.00428266
0.00335623
0.00268107
0.00222766
0.00190907
0.00167279
0.0014974
0.00136438
0.00126221
0.00118206
0.00111312
0.00103803
0.000926117
0.00100768
0.000782238
0.000462924
7.56939e-06
6.00226e-06
4.59408e-06
3.79793e-06
3.46991e-06
3.51888e-06
3.41141e-06
3.01268e-06
2.44216e-06
1.73138e-06
1.26257e-06
1.10105e-06
1.2307e-06
2.47407e-06
5.91253e-06
8.69009e-06
1.02827e-05
7.1191e-06
0.00733672
0.00739174
0.00512772
0.00342796
0.002494
0.00198394
0.0016847
0.00149439
0.0013402
0.00120877
0.00109497
0.000998044
0.000917627
0.000846094
0.000781798
0.000795301
0.000698917
0.000557587
2.52117e-05
1.45322e-05
1.10298e-05
1.07511e-05
1.13221e-05
1.20254e-05
7.66426e-06
5.51256e-06
4.12373e-06
3.1405e-06
2.44405e-06
1.93054e-06
1.69437e-06
4.9907e-06
2.18105e-05
2.1276e-05
2.80805e-05
2.53823e-05
0.0083433
0.00949218
0.0051106
0.00261
0.00160854
0.00118747
0.00100851
0.000937178
0.000914248
0.000892292
0.000857913
0.00081214
0.0007618
0.000710541
0.000672812
0.000677601
0.000614594
0.000503666
0.000345662
8.70934e-05
2.15949e-05
1.42988e-05
1.52258e-05
1.9115e-05
2.89473e-05
3.20931e-05
3.66018e-05
4.2244e-05
4.98433e-05
6.11767e-05
7.4192e-05
8.76554e-05
9.91699e-05
6.95755e-05
5.58835e-05
5.41485e-05
8.56605e-05
0.00909522
0.0112394
0.00431176
0.00153476
0.000811985
0.000620653
0.000590959
0.000602412
0.000634064
0.00065713
0.000662995
0.000651628
0.000627622
0.000596148
0.00057502
0.000577065
0.000531836
0.000455292
0.000353414
0.000132531
3.05005e-05
1.93972e-05
1.99894e-05
2.25781e-05
2.56492e-05
2.86845e-05
3.23868e-05
3.75805e-05
4.52881e-05
5.65943e-05
7.23861e-05
9.11771e-05
0.000110765
0.000125945
0.000135678
0.000127919
0.000122412
0.000227883
0.000192316
0.000134941
0.00981614
0.0123834
0.00366267
0.000761732
0.000512636
0.000440517
0.000443723
0.000461915
0.000489401
0.000512838
0.000527858
0.000529242
0.000518559
0.000500148
0.00049152
0.000493508
0.000456218
0.000403782
0.000338257
0.000144729
4.51048e-05
2.9494e-05
3.12253e-05
3.59e-05
3.99523e-05
4.32666e-05
4.71229e-05
5.34058e-05
6.42196e-05
8.14083e-05
0.000106038
0.000138181
0.000177817
0.000225304
0.000285172
0.000356817
0.000392309
0.000363603
0.00032672
0.000258078
0.0107349
0.0125433
0.00503781
0.000795609
0.000470913
0.000369709
0.000360154
0.000374007
0.000395283
0.000413735
0.000427998
0.000434041
0.000432041
0.000425495
0.000424835
0.000421951
0.00038925
0.000353888
0.000306692
0.000143328
5.69678e-05
4.56202e-05
5.31217e-05
6.32256e-05
6.92155e-05
7.18509e-05
7.41058e-05
7.96964e-05
9.26524e-05
0.000116312
0.000152074
0.000200041
0.000261517
0.000339999
0.000438649
0.000548998
0.000632127
0.000627782
0.000394186
0.00031392
0.0120998
0.0143303
0.0110415
0.00137044
0.000440395
0.000298414
0.000284577
0.000298434
0.000318712
0.000337902
0.000352747
0.000362568
0.000367732
0.000369957
0.000371554
0.000363015
0.000335755
0.000310329
0.000268509
0.000136454
7.28616e-05
7.70528e-05
0.000102731
0.000124404
0.000132978
0.000132765
0.000129499
0.000128978
0.000137977
0.000162436
0.000201787
0.00024722
0.000289289
0.000322278
0.000347255
0.000370497
0.000402114
0.000454781
0.000522465
0.000508906
0.0147803
0.0209789
0.0321226
0.00443861
0.000514009
0.000274656
0.000246988
0.000252121
0.000264548
0.000282083
0.000298605
0.000312711
0.000323885
0.000331558
0.000333586
0.000323248
0.000300705
0.000277802
0.000236773
0.000141337
0.00011981
0.000163681
0.000233853
0.000272907
0.000281848
0.000275049
0.000261638
0.000246801
0.00023738
0.000247426
0.00027273
0.000318536
0.000386196
0.000474531
0.000578108
0.000679962
0.000755739
0.000840017
0.00105785
0.000955945
0.0711424
0.00925801
0.000891066
0.000368616
0.000294298
0.000282858
0.000292054
0.000306382
0.000320578
0.000334874
0.000347551
0.00035594
0.000355969
0.000343005
0.00031971
0.000294788
0.00026915
0.000245458
0.00032736
0.000474198
0.000609648
0.000663344
0.000665682
0.000647945
0.000624792
0.000598564
0.000566785
0.000529346
0.000493617
0.00047856
0.000492922
0.000537546
0.000609103
0.000693305
0.000736566
0.000703323
0.000768498
0.00112948
0.00470246
0.00191511
0.00123142
0.000647909
0.000467255
0.000371325
0.000316875
0.000290298
0.000282184
0.000283191
0.000288222
0.000293486
0.000295106
0.000289792
0.000278374
0.000270104
0.000303351
0.000520849
0.000907879
0.00134908
0.00163452
0.00173015
0.00172037
0.00168393
0.00165002
0.00161486
0.00156253
0.00141875
0.00123708
0.00107537
0.000965878
0.000917672
0.000928513
0.000979333
0.000983985
0.000926268
0.00114309
0.00140076
0.00128679
0.000981164
0.000795786
0.000462526
0.000455629
0.000443773
0.000443736
0.000445063
0.000447007
0.000450037
0.000451469
0.000449964
0.000446103
0.000439685
0.000430327
0.00041825
0.000405388
0.000396527
0.00042383
0.000503442
0.000603976
0.000710262
0.000818309
0.000893001
0.000925189
0.000931826
0.000930091
0.000927383
0.000921952
0.000921495
0.000907743
0.00088632
0.000863907
0.000840861
0.000809553
0.000758749
0.000708072
0.000626143
0.000588052
0.000699958
)
;

boundaryField
{
    floor
    {
        Cmu             0.09;
        kappa           0.41;
        E               9.8;
        type            epsilonWallFunction;
        value           nonuniform List<scalar> 
36
(
0.00110372
1.5399e-06
1.58427e-06
1.61223e-06
1.4338e-06
1.23957e-06
1.07832e-06
1.00533e-06
9.94595e-07
8.22138e-07
7.16906e-07
7.56856e-07
8.69341e-07
1.04772e-06
1.68533e-06
2.34026e-06
3.34715e-06
2.9726e-06
2.28595e-06
2.28595e-06
7.1191e-06
2.53823e-05
8.56605e-05
0.000227883
0.000192316
0.000134941
0.00110372
0.00100768
0.000782238
0.000462924
1.5399e-06
0.000462924
7.56939e-06
0.000557587
2.52117e-05
0.000345662
)
;
    }
    ceiling
    {
        Cmu             0.09;
        kappa           0.41;
        E               9.8;
        type            epsilonWallFunction;
        value           nonuniform List<scalar> 
43
(
0.00128679
0.000981164
0.000795786
0.000462526
0.000455629
0.000443773
0.000443736
0.000445063
0.000447007
0.000450037
0.000451469
0.000449964
0.000446103
0.000439685
0.000430327
0.00041825
0.000405388
0.000396527
0.00042383
0.000503442
0.000603976
0.000710262
0.000818309
0.000893001
0.000925189
0.000931826
0.000930091
0.000927383
0.000921952
0.000921495
0.000907743
0.00088632
0.000863907
0.000840861
0.000809553
0.000758749
0.000708072
0.000626143
0.000588052
0.000699958
0.0147803
0.0209789
0.00470246
)
;
    }
    sWall
    {
        Cmu             0.09;
        kappa           0.41;
        E               9.8;
        type            epsilonWallFunction;
        value           uniform 0.00128679;
    }
    nWall
    {
        Cmu             0.09;
        kappa           0.41;
        E               9.8;
        type            epsilonWallFunction;
        value           nonuniform List<scalar> 6(0.000134941 0.000258078 0.00031392 0.00112948 0.00140076 0.000699958);
    }
    sideWalls
    {
        type            empty;
    }
    glass1
    {
        Cmu             0.09;
        kappa           0.41;
        E               9.8;
        type            epsilonWallFunction;
        value           nonuniform List<scalar> 9(0.00162292 0.00524861 0.00733672 0.0083433 0.00909522 0.00981614 0.0107349 0.0120998 0.0147803);
    }
    glass2
    {
        Cmu             0.09;
        kappa           0.41;
        E               9.8;
        type            epsilonWallFunction;
        value           nonuniform List<scalar> 2(0.000508906 0.000955945);
    }
    sun
    {
        Cmu             0.09;
        kappa           0.41;
        E               9.8;
        type            epsilonWallFunction;
        value           nonuniform List<scalar> 
14
(
0.00162292
0.0042968
0.00389074
0.00346008
0.0031139
0.00283556
0.00260362
0.00240362
0.0022256
0.00205953
0.00189746
0.00173175
0.00155277
0.00134354
)
;
    }
    Table_master
    {
        Cmu             0.09;
        kappa           0.41;
        E               9.8;
        type            epsilonWallFunction;
        value           nonuniform List<scalar> 9(1.20254e-05 7.66426e-06 5.51256e-06 4.12373e-06 3.1405e-06 2.44405e-06 1.93054e-06 1.69437e-06 4.9907e-06);
    }
    Table_slave
    {
        Cmu             0.09;
        kappa           0.41;
        E               9.8;
        type            epsilonWallFunction;
        value           nonuniform List<scalar> 9(2.89473e-05 3.20931e-05 3.66018e-05 4.2244e-05 4.98433e-05 6.11767e-05 7.4192e-05 8.76554e-05 9.91699e-05);
    }
    inlet
    {
        type            turbulentMixingLengthDissipationRateInlet;
        mixingLength    0.01;
        phi             phi;
        k               k;
        value           uniform 0.000101881;
    }
    outlet
    {
        type            zeroGradient;
    }
}


// ************************************************************************* //
