/*--------------------------------*- C++ -*----------------------------------*\
  =========                 |
  \\      /  F ield         | OpenFOAM: The Open Source CFD Toolbox
   \\    /   O peration     | Website:  https://openfoam.org
    \\  /    A nd           | Version:  6
     \\/     M anipulation  |
\*---------------------------------------------------------------------------*/
FoamFile
{
    version     2.0;
    format      ascii;
    class       volVectorField;
    location    "1100";
    object      U;
}
// * * * * * * * * * * * * * * * * * * * * * * * * * * * * * * * * * * * * * //

dimensions      [0 1 -1 0 0 0 0];

internalField   nonuniform List<vector> 
458
(
(0.0255862 0.186888 0)
(0.1566 -0.222554 0)
(0.277053 -0.155973 0)
(0.3925 -0.101022 0)
(0.463647 -0.0684862 0)
(0.498159 -0.0488439 0)
(0.513044 -0.0350762 0)
(0.516597 -0.0244214 0)
(0.50988 -0.0150105 0)
(0.493046 -0.00596713 0)
(0.465344 0.003604 0)
(0.425024 0.0150161 0)
(0.368201 0.0312631 0)
(0.282414 0.0629707 0)
(0.213872 0.152667 0)
(0.0293295 0.00552237 0)
(-0.0144919 0.00117752 0)
(-0.00797095 0.000762978 0)
(-0.00914499 0.00184645 0)
(-0.0124901 0.00154808 0)
(-0.0156013 -0.000531078 0)
(-0.0167705 -0.00196559 0)
(-0.0156276 -0.00270266 0)
(-0.0145044 -0.00310749 0)
(-0.0136579 -0.00348119 0)
(-0.012616 -0.00401277 0)
(-0.00943844 -0.00571961 0)
(-0.00379579 -0.00902125 0)
(0.0042803 -0.00769516 0)
(0.0104091 -0.00377879 0)
(0.0123936 -0.00377995 0)
(0.01767 -0.00292986 0)
(-0.0162647 0.00709983 0)
(0.53211 -0.153172 0)
(0.278008 -0.243472 0)
(0.334121 -0.170201 0)
(0.402359 -0.0932341 0)
(0.435274 -0.0484005 0)
(0.44974 -0.0220938 0)
(0.456774 -0.00273155 0)
(0.458152 0.0138729 0)
(0.451244 0.0283497 0)
(0.435951 0.0422019 0)
(0.411824 0.0569042 0)
(0.378594 0.0742204 0)
(0.337645 0.0969686 0)
(0.294054 0.130826 0)
(0.271266 0.194941 0)
(0.264759 0.16356 0)
(0.149203 0.121623 0)
(0.0380381 0.0769363 0)
(0.0424548 -0.000482645 0)
(0.0180377 0.00183969 0)
(0.011278 0.00280143 0)
(0.0107299 0.00369781 0)
(0.0105178 0.00568499 0)
(0.00934363 0.00605025 0)
(0.00719759 0.00400165 0)
(0.00342438 0.000777175 0)
(0.000780389 -0.000193379 0)
(-0.000371066 0.000469643 0)
(0.00113955 -0.000137113 0)
(0.00389835 -0.0046271 0)
(0.00461785 -0.01118 0)
(0.00248316 -0.00853915 0)
(0.00120665 0.00337255 0)
(-0.0071031 0.00367223 0)
(-0.0215981 0.00438415 0)
(-0.057079 0.00479504 0)
(0.6398 -0.407023 0)
(0.143163 -0.345241 0)
(0.24676 -0.211466 0)
(0.301452 -0.123223 0)
(0.310563 -0.0764857 0)
(0.315424 -0.0471637 0)
(0.321497 -0.0241769 0)
(0.326811 -0.00274383 0)
(0.327153 0.0196835 0)
(0.321848 0.0434131 0)
(0.310472 0.0689025 0)
(0.293116 0.0967696 0)
(0.27125 0.127755 0)
(0.247161 0.16202 0)
(0.229723 0.198099 0)
(0.206956 0.16263 0)
(0.138858 0.134672 0)
(0.0740662 0.12236 0)
(-0.00971462 -0.000959084 0)
(-0.0133414 -0.00275387 0)
(-0.00807138 -0.00111229 0)
(-0.000472223 -0.00152565 0)
(0.00675359 -0.00300453 0)
(0.0210756 -0.00044797 0)
(0.0253727 -0.00126231 0)
(0.0268832 -0.00300684 0)
(0.0268916 -0.00477248 0)
(0.026077 -0.00615807 0)
(0.0253018 -0.00688711 0)
(0.0234361 -0.00826634 0)
(0.015866 -0.0122779 0)
(-0.00129716 -0.0074201 0)
(0.0111102 0.00483042 0)
(0.0133934 0.00936635 0)
(0.0156234 0.00983727 0)
(-0.0314178 -0.00332379 0)
(0.682497 -0.547427 0)
(-0.0635078 -0.370008 0)
(0.149705 -0.206708 0)
(0.184772 -0.123012 0)
(0.173029 -0.079622 0)
(0.174723 -0.0486373 0)
(0.182125 -0.0236549 0)
(0.189294 0.000152172 0)
(0.197041 0.0250923 0)
(0.200648 0.0519504 0)
(0.199926 0.0810871 0)
(0.194774 0.112378 0)
(0.185627 0.145204 0)
(0.172507 0.177958 0)
(0.16123 0.207618 0)
(0.146163 0.197457 0)
(0.112025 0.182776 0)
(0.0827016 0.17157 0)
(0.0395505 0.10627 0)
(-0.051017 0.00275741 0)
(-0.0304651 -0.00736269 0)
(-0.0252236 -0.00703211 0)
(-0.0236989 -0.00672527 0)
(-0.0251741 -0.00750756 0)
(-0.0258779 -0.00558035 0)
(-0.0210779 -0.00628216 0)
(-0.0159218 -0.00715761 0)
(-0.00996777 -0.00811093 0)
(-0.00303547 -0.00917335 0)
(0.00570662 -0.0101422 0)
(0.0144973 -0.0106754 0)
(0.0240735 -0.0107369 0)
(0.0342831 -0.0101415 0)
(0.04052 -0.00592468 0)
(0.0438692 0.00354379 0)
(0.0436505 0.0138679 0)
(0.0408863 0.0337935 0)
(0.695963 -0.616246 0)
(-0.215545 -0.385614 0)
(0.103312 -0.221281 0)
(0.0914999 -0.124216 0)
(0.0572079 -0.0836458 0)
(0.0629774 -0.0551863 0)
(0.072062 -0.0322427 0)
(0.0792498 -0.00908786 0)
(0.0888338 0.0175849 0)
(0.0949767 0.0478187 0)
(0.0985957 0.0809225 0)
(0.0995643 0.115812 0)
(0.0979992 0.151287 0)
(0.0935178 0.185812 0)
(0.0909167 0.21717 0)
(0.0851364 0.221484 0)
(0.0683013 0.213353 0)
(0.0533991 0.196871 0)
(0.027622 0.124864 0)
(-0.0151119 0.0326079 0)
(-0.0225029 -0.00318264 0)
(-0.0271636 -0.00592611 0)
(-0.0291634 -0.00571217 0)
(-0.0293342 -0.00555788 0)
(-0.0274305 -0.005237 0)
(-0.0238494 -0.00648204 0)
(-0.0198149 -0.00791967 0)
(-0.0154367 -0.00942595 0)
(-0.0106937 -0.0110555 0)
(-0.00543666 -0.0126703 0)
(0.000674097 -0.0141406 0)
(0.00761025 -0.0150458 0)
(0.0155407 -0.0145557 0)
(0.0246421 -0.0119201 0)
(0.0366381 -0.00462545 0)
(0.0536471 0.00858805 0)
(0.072245 0.0299122 0)
(0.0913561 0.0224671 0)
(0.093838 0.0225438 0)
(-0.0684729 0.0402486 0)
(0.659183 -0.626411 0)
(-0.268197 -0.391938 0)
(0.052485 -0.225847 0)
(0.00642372 -0.0936479 0)
(-0.0362262 -0.080111 0)
(-0.0242593 -0.0609368 0)
(-0.0173468 -0.0410138 0)
(-0.0115574 -0.0181516 0)
(-0.0041179 0.00943184 0)
(0.000498291 0.0421744 0)
(0.00526447 0.077492 0)
(0.00957999 0.114155 0)
(0.0134902 0.151228 0)
(0.0163037 0.187182 0)
(0.0223027 0.219575 0)
(0.0250759 0.229057 0)
(0.0198602 0.224676 0)
(0.0171118 0.207919 0)
(0.00673407 0.139699 0)
(-0.0125032 0.0473217 0)
(-0.016766 0.00861522 0)
(-0.025116 -0.00131462 0)
(-0.0284169 -0.00459351 0)
(-0.0286047 -0.00660241 0)
(-0.0269962 -0.00818331 0)
(-0.0246074 -0.00987026 0)
(-0.0222251 -0.0113683 0)
(-0.0201393 -0.0127723 0)
(-0.0184582 -0.0143255 0)
(-0.017121 -0.0161705 0)
(-0.0159123 -0.0182132 0)
(-0.0145464 -0.0201114 0)
(-0.0124744 -0.0213011 0)
(-0.00878212 -0.02121 0)
(-0.00149069 -0.0190569 0)
(0.0123582 -0.014617 0)
(0.0349948 -0.00585536 0)
(0.0558615 0.00163305 0)
(0.0785774 0.0280688 0)
(-0.0881303 0.0782228 0)
(0.549663 -0.572566 0)
(-0.244448 -0.35908 0)
(-0.0643749 -0.199594 0)
(-0.0686501 -0.0680085 0)
(-0.120396 -0.0790089 0)
(-0.108728 -0.0665733 0)
(-0.103465 -0.0471377 0)
(-0.0985159 -0.0226956 0)
(-0.0932081 0.00609831 0)
(-0.0887809 0.0381903 0)
(-0.0828853 0.072516 0)
(-0.0755133 0.108435 0)
(-0.0666247 0.144902 0)
(-0.056477 0.180152 0)
(-0.0424774 0.210822 0)
(-0.0305472 0.223513 0)
(-0.0239776 0.222842 0)
(-0.0148972 0.207123 0)
(-0.0126776 0.142743 0)
(-0.0168538 0.0557053 0)
(-0.0174352 0.0173474 0)
(-0.0228153 0.00333644 0)
(-0.0249995 -0.00345178 0)
(-0.0247908 -0.00749856 0)
(-0.0236721 -0.0100478 0)
(-0.0225801 -0.0116616 0)
(-0.02218 -0.0125772 0)
(-0.022907 -0.0131282 0)
(-0.0251164 -0.0137377 0)
(-0.0290373 -0.0147906 0)
(-0.0346585 -0.0164239 0)
(-0.0417342 -0.0185034 0)
(-0.0495162 -0.0207021 0)
(-0.0569145 -0.022863 0)
(-0.0624978 -0.0253032 0)
(-0.0645828 -0.028886 0)
(-0.0617793 -0.0333049 0)
(-0.0518017 -0.0320389 0)
(0.0564125 0.0236488 0)
(-0.12368 0.140735 0)
(0.376859 -0.447673 0)
(-0.312854 -0.284938 0)
(-0.269409 -0.19249 0)
(-0.159107 -0.0581473 0)
(-0.220821 -0.0896835 0)
(-0.196294 -0.0770829 0)
(-0.187828 -0.0545829 0)
(-0.182451 -0.0276833 0)
(-0.177509 0.00211172 0)
(-0.17156 0.033285 0)
(-0.163837 0.0655576 0)
(-0.153069 0.0989799 0)
(-0.13897 0.132773 0)
(-0.121397 0.165214 0)
(-0.0995232 0.192877 0)
(-0.0777919 0.207463 0)
(-0.0589392 0.209628 0)
(-0.0389848 0.194509 0)
(-0.02586 0.135069 0)
(-0.0196334 0.0573867 0)
(-0.0166422 0.0214444 0)
(-0.0178808 0.00583305 0)
(-0.0173448 -0.00270145 0)
(-0.0161302 -0.00751611 0)
(-0.0153256 -0.00987866 0)
(-0.0153738 -0.0106337 0)
(-0.0166445 -0.0102035 0)
(-0.0196033 -0.00887574 0)
(-0.024978 -0.0069908 0)
(-0.0337097 -0.00492646 0)
(-0.0465156 -0.00278255 0)
(-0.0644989 -0.00118436 0)
(-0.0876644 -0.000604702 0)
(-0.115053 -0.00123786 0)
(-0.145017 -0.00289532 0)
(-0.175094 -0.00486994 0)
(-0.200892 -0.00528426 0)
(-0.219111 0.000121644 0)
(-0.251481 0.0160565 0)
(-0.387361 0.04227 0)
(0.133716 -0.328421 0)
(-0.567938 -0.295545 0)
(-0.718851 -0.298916 0)
(-0.206456 -0.158926 0)
(-0.305193 -0.122322 0)
(-0.264376 -0.090984 0)
(-0.255312 -0.0616461 0)
(-0.252464 -0.0342006 0)
(-0.250016 -0.00656891 0)
(-0.243757 0.023028 0)
(-0.234181 0.0530968 0)
(-0.219784 0.0833362 0)
(-0.200237 0.113351 0)
(-0.175374 0.141868 0)
(-0.145448 0.166177 0)
(-0.11365 0.181119 0)
(-0.0827719 0.184966 0)
(-0.0525572 0.171308 0)
(-0.0296742 0.118998 0)
(-0.0148132 0.0530313 0)
(-0.00796777 0.0220874 0)
(-0.00552098 0.00760391 0)
(-0.00243565 -0.000881932 0)
(-0.00102938 -0.00527547 0)
(-0.00104361 -0.00691533 0)
(-0.00210106 -0.00682368 0)
(-0.00390075 -0.00536083 0)
(-0.00628736 -0.00259718 0)
(-0.00927846 0.00131911 0)
(-0.0126348 0.00613511 0)
(-0.0174042 0.011334 0)
(-0.0234744 0.0164031 0)
(-0.0307348 0.0203416 0)
(-0.038767 0.0220219 0)
(-0.0471719 0.0203672 0)
(-0.0553348 0.0144497 0)
(-0.0605187 0.0019886 0)
(-0.063334 -0.025743 0)
(-0.0910938 -0.0787231 0)
(-0.322518 -0.155542 0)
(-1.47512 -0.313138 0)
(-0.114526 -0.245555 0)
(-0.299251 -0.145683 0)
(-0.293854 -0.0894437 0)
(-0.299361 -0.04705 0)
(-0.303648 -0.0128768 0)
(-0.304077 0.0147126 0)
(-0.299031 0.0360435 0)
(-0.288493 0.0559836 0)
(-0.271347 0.0765378 0)
(-0.247105 0.0974208 0)
(-0.21575 0.117643 0)
(-0.178036 0.135244 0)
(-0.136445 0.146962 0)
(-0.0940441 0.150273 0)
(-0.0534185 0.138956 0)
(-0.0198639 0.0961873 0)
(0.00516444 0.0405641 0)
(0.0143931 0.0172493 0)
(0.0186913 0.00512083 0)
(0.0203201 -0.00426468 0)
(0.0190891 -0.0084345 0)
(0.0166666 -0.00977276 0)
(0.0138985 -0.00944081 0)
(0.011252 -0.0076534 0)
(0.0091326 -0.00433587 0)
(0.00802054 0.000352582 0)
(0.00789473 0.00536959 0)
(0.00840381 0.010996 0)
(0.00964772 0.0164164 0)
(0.0116449 0.0204978 0)
(0.0145368 0.022169 0)
(0.0187705 0.020879 0)
(0.0255038 0.0174747 0)
(0.0359103 0.0144872 0)
(0.0542704 0.00619292 0)
(0.0762225 -0.032136 0)
(-0.0418927 -0.121449 0)
(-0.16232 0.0392393 0)
(-0.0824222 -0.21364 0)
(-0.237303 -0.153952 0)
(-0.29029 -0.129864 0)
(-0.323509 -0.113946 0)
(-0.342308 -0.0983454 0)
(-0.349541 -0.0796325 0)
(-0.346464 -0.0553906 0)
(-0.33474 -0.0304883 0)
(-0.314492 -0.00809316 0)
(-0.285397 0.0127109 0)
(-0.247567 0.0320434 0)
(-0.201848 0.0492034 0)
(-0.150373 0.0625907 0)
(-0.0964213 0.0697569 0)
(-0.0440834 0.0636209 0)
(0.00749425 0.0180301 0)
(0.0367484 -0.0347439 0)
(0.0462233 -0.0643198 0)
(0.0468996 -0.0790089 0)
(0.0429003 -0.0798448 0)
(0.0375735 -0.0757627 0)
(0.032848 -0.0718752 0)
(0.02907 -0.0693179 0)
(0.0261067 -0.0677937 0)
(0.0240691 -0.0667991 0)
(0.023489 -0.0656718 0)
(0.0245354 -0.0599763 0)
(0.0274541 -0.0524996 0)
(0.032562 -0.0454062 0)
(0.0396127 -0.0408014 0)
(0.0480116 -0.040594 0)
(0.0569804 -0.0461452 0)
(0.0661572 -0.0567697 0)
(0.0758888 -0.0645911 0)
(0.0832955 -0.0691314 0)
(0.110312 -0.0801524 0)
(-0.00712254 -0.127573 0)
(0.69423 0.199424 0)
(0.0938944 -0.299508 0)
(-0.245239 0.192781 0)
(-0.13278 0.124786 0)
(-0.234819 0.146592 0)
(-0.288764 0.164295 0)
(-0.327232 0.174369 0)
(-0.352106 0.17889 0)
(-0.364991 0.178599 0)
(-0.365992 0.174021 0)
(-0.355111 0.170103 0)
(-0.332872 0.169942 0)
(-0.29961 0.172871 0)
(-0.255707 0.178565 0)
(-0.202253 0.186856 0)
(-0.142058 0.197584 0)
(-0.080178 0.210435 0)
(-0.0194083 0.224721 0)
(0.0383097 0.237509 0)
(0.0617577 0.248391 0)
(0.0710711 0.255452 0)
(0.0724143 0.257343 0)
(0.0694462 0.249548 0)
(0.0650543 0.240235 0)
(0.0601916 0.234453 0)
(0.0552512 0.232498 0)
(0.0507057 0.233014 0)
(0.0470711 0.234754 0)
(0.0447665 0.237057 0)
(0.0441276 0.233286 0)
(0.0461249 0.227037 0)
(0.0507441 0.220139 0)
(0.0573027 0.214066 0)
(0.0643786 0.21034 0)
(0.069905 0.210738 0)
(0.0711563 0.216073 0)
(0.0650744 0.21416 0)
(0.0483016 0.205014 0)
(0.117707 0.193367 0)
(-0.362812 0.322944 0)
)
;

boundaryField
{
    floor
    {
        type            noSlip;
    }
    ceiling
    {
        type            noSlip;
    }
    sWall
    {
        type            noSlip;
    }
    nWall
    {
        type            noSlip;
    }
    sideWalls
    {
        type            empty;
    }
    glass1
    {
        type            noSlip;
    }
    glass2
    {
        type            noSlip;
    }
    sun
    {
        type            noSlip;
    }
    Table_master
    {
        type            noSlip;
    }
    Table_slave
    {
        type            noSlip;
    }
    inlet
    {
        type            fixedValue;
        value           uniform (0.114805 -0.277164 0);
    }
    outlet
    {
        type            zeroGradient;
    }
}


// ************************************************************************* //
