/*--------------------------------*- C++ -*----------------------------------*\
  =========                 |
  \\      /  F ield         | OpenFOAM: The Open Source CFD Toolbox
   \\    /   O peration     | Website:  https://openfoam.org
    \\  /    A nd           | Version:  6
     \\/     M anipulation  |
\*---------------------------------------------------------------------------*/
FoamFile
{
    version     2.0;
    format      ascii;
    class       volScalarField;
    location    "100";
    object      epsilon;
}
// * * * * * * * * * * * * * * * * * * * * * * * * * * * * * * * * * * * * * //

dimensions      [0 2 -3 0 0 0 0];

internalField   nonuniform List<scalar> 
458
(
0.00115912
0.00161181
0.00186567
0.00223594
0.0026716
0.00317892
0.00365325
0.00399685
0.00405489
0.00350918
0.00292773
0.00233951
0.00179133
0.00136058
0.000973473
0.000146695
0.000237802
0.000391834
0.000519363
0.000527243
0.000430277
0.000336571
0.000266198
0.000214661
0.000176369
0.000147454
0.00012517
0.000107521
9.32306e-05
8.09713e-05
6.95486e-05
5.8091e-05
4.35466e-05
0.00224882
0.00275558
0.0014614
0.00152042
0.00174586
0.00211315
0.00249485
0.00275678
0.00278315
0.00243779
0.00199864
0.00160098
0.00129232
0.00109026
0.000902622
0.00139364
0.000992665
0.000601442
0.000130104
0.000197052
0.000314752
0.000376803
0.000406562
0.000446001
0.000351281
0.000265127
0.000201439
0.000155592
0.000122657
9.86833e-05
8.07429e-05
6.69693e-05
5.79877e-05
5.36162e-05
6.08838e-05
5.34839e-05
0.00353307
0.00525501
0.00155235
0.00144228
0.00171863
0.0021497
0.00250547
0.00271965
0.0027591
0.0024956
0.00206481
0.00163768
0.00129824
0.00104944
0.000863007
0.000842037
0.000768088
0.000826318
0.000178401
0.00030176
0.000376577
0.000417409
0.000458801
0.00100392
0.000644386
0.000420291
0.000282748
0.000196868
0.00014183
0.000105602
8.16376e-05
6.81456e-05
5.23348e-05
4.55689e-05
6.50959e-05
5.86631e-05
0.00514066
0.00984699
0.00211074
0.00156518
0.00192003
0.00243897
0.00271178
0.00288219
0.00293553
0.00268597
0.00220058
0.00169383
0.00129503
0.00101369
0.00081963
0.000712612
0.000645933
0.000671465
0.00100785
0.000711698
0.000591573
0.000555834
0.000545907
0.000573743
0.00155859
0.00118161
0.000928225
0.000749572
0.000608684
0.000489842
0.000386027
0.000293821
0.000209898
0.000105502
5.87457e-05
7.72006e-05
6.49349e-05
0.00722774
0.0169897
0.00371658
0.00206796
0.00262088
0.00309729
0.00319586
0.00332424
0.00335869
0.0030408
0.00241303
0.00175879
0.00126564
0.000948296
0.000760202
0.000656079
0.000607153
0.000648483
0.000792404
0.000768688
0.00074792
0.000734897
0.000701711
0.000648017
0.000641747
0.000595103
0.000548315
0.000500034
0.000441962
0.000375138
0.000303595
0.000232254
0.000165128
0.000100047
6.05824e-05
6.57981e-05
7.95602e-05
8.63549e-05
8.80746e-05
0.000133654
0.00999652
0.025368
0.00785413
0.00379913
0.00429487
0.0041602
0.00399765
0.00405256
0.00403193
0.0035627
0.00269116
0.00181349
0.00119966
0.000855541
0.000701683
0.000648375
0.000662881
0.00075822
0.000885397
0.000954278
0.000971878
0.000934123
0.000845265
0.000726403
0.000619471
0.000541583
0.000483925
0.00042903
0.000368787
0.000304135
0.000239149
0.000179104
0.000128016
8.6113e-05
6.22011e-05
5.99871e-05
7.47074e-05
9.01281e-05
0.000150783
0.000151356
0.012644
0.0305325
0.0151209
0.00921717
0.00701395
0.00568778
0.00513277
0.0050933
0.00497009
0.00423236
0.00297445
0.00179047
0.00107428
0.000767915
0.000690739
0.000707651
0.000785706
0.000921155
0.00105927
0.00113031
0.00110541
0.00100764
0.000864317
0.000706559
0.000566696
0.000470802
0.000406515
0.000349562
0.000293103
0.000238575
0.000189367
0.000148599
0.000116702
9.30709e-05
8.43459e-05
8.72191e-05
0.00010489
0.000142691
0.000279875
0.000260879
0.0131232
0.0291039
0.0183731
0.0127454
0.00911857
0.00714613
0.00648845
0.00648506
0.00617642
0.00493937
0.00306592
0.00151168
0.000936469
0.000769036
0.000755731
0.000811415
0.000911095
0.00103821
0.00113373
0.00113757
0.00104683
0.000896536
0.000727199
0.000572621
0.000455623
0.000376507
0.000319526
0.00027209
0.000231383
0.000199098
0.000177583
0.000168252
0.000171188
0.000187021
0.000222522
0.000300957
0.000458572
0.000793794
0.00335851
0.000745136
0.0120567
0.0193188
0.0144486
0.0107375
0.00840763
0.00767028
0.00798929
0.00832451
0.00745571
0.00511176
0.00234951
0.00123557
0.0009003
0.000820074
0.000834116
0.000888447
0.000957766
0.00101575
0.00102211
0.000955178
0.000832406
0.000687261
0.000549989
0.000437762
0.00035495
0.000295277
0.000249808
0.000213967
0.000188321
0.000176137
0.000181635
0.000209152
0.000263236
0.000349657
0.000476054
0.000649291
0.000872692
0.00112123
0.00134275
0.0006724
0.00188144
0.00396706
0.00710845
0.00990254
0.0112212
0.0100546
0.00554054
0.00274103
0.00148483
0.00103977
0.000898359
0.000868215
0.000879271
0.000900856
0.000913262
0.000898484
0.000842665
0.000749848
0.000640224
0.000535108
0.000447194
0.000379258
0.000327837
0.000287233
0.000253304
0.000225049
0.000204001
0.00019297
0.000195099
0.000213704
0.000253161
0.000319828
0.000420697
0.000556544
0.000709293
0.000826948
0.000808357
0.000476998
0.0131746
0.0300448
0.0211317
0.0131217
0.00789615
0.00462766
0.00262434
0.00159291
0.00114995
0.000985198
0.000928886
0.000912898
0.000909089
0.000903219
0.000886128
0.000851905
0.000799436
0.000734715
0.000667979
0.000607773
0.000558169
0.000519188
0.000488724
0.000464147
0.000443237
0.000424583
0.00040752
0.000391907
0.000378271
0.00036856
0.000367119
0.000380516
0.000414496
0.000467888
0.000528096
0.00058038
0.000601545
0.000542795
0.0076667
0.00899772
0.0103592
0.0118113
0.00753372
0.00487296
0.00356419
0.00271082
0.00210793
0.00172239
0.00151728
0.00141748
0.00136979
0.00134342
0.00131844
0.00128085
0.00122172
0.00113822
0.00103521
0.000924261
0.000817919
0.000724484
0.000646487
0.000582416
0.000529205
0.000484076
0.000445339
0.000412295
0.000384776
0.000362856
0.00034684
0.000337473
0.00033617
0.000344905
0.000364955
0.00039328
0.000408408
0.000366334
0.000314623
0.0003284
)
;

boundaryField
{
    floor
    {
        Cmu             0.09;
        kappa           0.41;
        E               9.8;
        type            epsilonWallFunction;
        value           nonuniform List<scalar> 
36
(
0.000973473
0.000146695
0.000237802
0.000391834
0.000519363
0.000527243
0.000430277
0.000336571
0.000266198
0.000214661
0.000176369
0.000147454
0.00012517
0.000107521
9.32306e-05
8.09713e-05
6.95486e-05
5.8091e-05
4.35466e-05
4.35466e-05
5.34839e-05
5.86631e-05
6.49349e-05
8.63549e-05
8.80746e-05
0.000133654
0.000973473
0.00139364
0.000992665
0.000601442
0.000146695
0.000601442
0.000130104
0.000826318
0.000178401
0.00100785
)
;
    }
    ceiling
    {
        Cmu             0.09;
        kappa           0.41;
        E               9.8;
        type            epsilonWallFunction;
        value           nonuniform List<scalar> 
43
(
0.0076667
0.00899772
0.0103592
0.0118113
0.00753372
0.00487296
0.00356419
0.00271082
0.00210793
0.00172239
0.00151728
0.00141748
0.00136979
0.00134342
0.00131844
0.00128085
0.00122172
0.00113822
0.00103521
0.000924261
0.000817919
0.000724484
0.000646487
0.000582416
0.000529205
0.000484076
0.000445339
0.000412295
0.000384776
0.000362856
0.00034684
0.000337473
0.00033617
0.000344905
0.000364955
0.00039328
0.000408408
0.000366334
0.000314623
0.0003284
0.0120567
0.0193188
0.0131746
)
;
    }
    sWall
    {
        Cmu             0.09;
        kappa           0.41;
        E               9.8;
        type            epsilonWallFunction;
        value           uniform 0.0076667;
    }
    nWall
    {
        Cmu             0.09;
        kappa           0.41;
        E               9.8;
        type            epsilonWallFunction;
        value           nonuniform List<scalar> 6(0.000133654 0.000151356 0.000260879 0.000476998 0.000542795 0.0003284);
    }
    sideWalls
    {
        type            empty;
    }
    glass1
    {
        Cmu             0.09;
        kappa           0.41;
        E               9.8;
        type            epsilonWallFunction;
        value           nonuniform List<scalar> 9(0.00115912 0.00224882 0.00353307 0.00514066 0.00722774 0.00999652 0.012644 0.0131232 0.0120567);
    }
    glass2
    {
        Cmu             0.09;
        kappa           0.41;
        E               9.8;
        type            epsilonWallFunction;
        value           nonuniform List<scalar> 2(0.000745136 0.0006724);
    }
    sun
    {
        Cmu             0.09;
        kappa           0.41;
        E               9.8;
        type            epsilonWallFunction;
        value           nonuniform List<scalar> 
14
(
0.00115912
0.00161181
0.00186567
0.00223594
0.0026716
0.00317892
0.00365325
0.00399685
0.00405489
0.00350918
0.00292773
0.00233951
0.00179133
0.00136058
)
;
    }
    Table_master
    {
        Cmu             0.09;
        kappa           0.41;
        E               9.8;
        type            epsilonWallFunction;
        value           nonuniform List<scalar> 9(0.00100392 0.000644386 0.000420291 0.000282748 0.000196868 0.00014183 0.000105602 8.16376e-05 6.81456e-05);
    }
    Table_slave
    {
        Cmu             0.09;
        kappa           0.41;
        E               9.8;
        type            epsilonWallFunction;
        value           nonuniform List<scalar> 9(0.00155859 0.00118161 0.000928225 0.000749572 0.000608684 0.000489842 0.000386027 0.000293821 0.000209898);
    }
    inlet
    {
        type            turbulentMixingLengthDissipationRateInlet;
        mixingLength    0.01;
        phi             phi;
        k               k;
        value           uniform 0.000471672;
    }
    outlet
    {
        type            zeroGradient;
    }
}


// ************************************************************************* //
