/*--------------------------------*- C++ -*----------------------------------*\
  =========                 |
  \\      /  F ield         | OpenFOAM: The Open Source CFD Toolbox
   \\    /   O peration     | Website:  https://openfoam.org
    \\  /    A nd           | Version:  6
     \\/     M anipulation  |
\*---------------------------------------------------------------------------*/
FoamFile
{
    version     2.0;
    format      ascii;
    class       volScalarField;
    location    "100";
    object      k;
}
// * * * * * * * * * * * * * * * * * * * * * * * * * * * * * * * * * * * * * //

dimensions      [0 2 -2 0 0 0 0];

internalField   nonuniform List<scalar> 
458
(
0.00437316
0.00544815
0.00600611
0.00677655
0.00763039
0.0085681
0.00940051
0.00998112
0.0100778
0.00915206
0.00811091
0.00698443
0.00584556
0.00486617
0.0038927
0.00110232
0.00152117
0.00212211
0.00256063
0.00258645
0.00225873
0.00191758
0.00163999
0.00142083
0.00124639
0.00110614
0.000991682
0.000896124
0.000814849
0.000741749
0.000670234
0.000594436
0.000490528
0.00680275
0.0122009
0.00896644
0.00987623
0.0112574
0.0129096
0.014534
0.0157674
0.0162901
0.0153441
0.0136162
0.0117342
0.00984027
0.00794348
0.00584919
0.00494481
0.0039438
0.00282386
0.00101755
0.00215579
0.0034147
0.00421614
0.00444985
0.00378329
0.00303494
0.00244241
0.00200092
0.0016705
0.00142069
0.00122938
0.00107875
0.00094497
0.000840561
0.000770338
0.000800649
0.000562581
0.00919361
0.0197896
0.0103769
0.0105318
0.011794
0.0134146
0.0147375
0.0158338
0.0166855
0.0163494
0.0149463
0.0131308
0.0113332
0.00948538
0.00759838
0.00620738
0.00514936
0.0034899
0.00125605
0.00264692
0.00391626
0.0048569
0.00516514
0.00397343
0.00295664
0.00222367
0.00170728
0.00134119
0.00107784
0.00088544
0.000745828
0.000661204
0.000631119
0.000646432
0.000864209
0.000598347
0.011805
0.0300732
0.0125429
0.0112278
0.0124235
0.0139253
0.0146967
0.0156792
0.0167805
0.0167762
0.0154825
0.0135667
0.0116721
0.00994085
0.00831736
0.00691827
0.00575494
0.00440871
0.00398396
0.00378533
0.00451956
0.00556689
0.00637009
0.00655005
0.00532739
0.00442936
0.00377101
0.00327011
0.0028463
0.00246256
0.00210101
0.00175147
0.00139965
0.00093051
0.000706262
0.000969324
0.000640272
0.0148157
0.0437481
0.0176962
0.0133716
0.0147639
0.0155461
0.0155657
0.0165
0.0176966
0.0177507
0.0162249
0.0138971
0.0116713
0.00989444
0.00851811
0.0074223
0.00657743
0.00609341
0.00667319
0.00722915
0.00793459
0.00857239
0.00881744
0.00851608
0.00774402
0.00698265
0.00635938
0.00570493
0.00498346
0.00420967
0.00340964
0.00261452
0.00185965
0.00118959
0.000813067
0.000894023
0.000826633
0.000774308
0.000784711
0.00103615
0.0183917
0.0586167
0.0291967
0.0193976
0.0195028
0.0180511
0.0173148
0.0181816
0.0194898
0.0194095
0.0173453
0.0143186
0.011614
0.00977878
0.00875335
0.00822116
0.00810572
0.00855842
0.00962181
0.0106584
0.0112892
0.0113873
0.0109196
0.00998519
0.00886069
0.00788391
0.00702114
0.00616833
0.00527958
0.00436894
0.00346918
0.00262432
0.00188053
0.00128517
0.000957277
0.000903963
0.000909742
0.000956557
0.00135779
0.00112574
0.0215106
0.0673743
0.0453014
0.032179
0.0253121
0.0209306
0.0195448
0.0206144
0.0221113
0.0216729
0.0186767
0.0146707
0.0115645
0.00996271
0.00948924
0.0095922
0.0101416
0.0111671
0.0124125
0.0132704
0.0133342
0.0127358
0.0116298
0.0102234
0.00877619
0.00757428
0.00660106
0.00569215
0.00480422
0.00395722
0.00318577
0.00252188
0.00196964
0.00154607
0.00134483
0.0012918
0.00132716
0.00149959
0.00201502
0.00161826
0.0220508
0.0591106
0.0455217
0.0345918
0.0264086
0.0221128
0.0217442
0.0238716
0.0255957
0.0242316
0.0195736
0.0142487
0.0115867
0.0106616
0.0106379
0.0110931
0.0118851
0.0129082
0.0137691
0.013965
0.0133617
0.0121577
0.0106296
0.00905016
0.00766228
0.00655193
0.00563172
0.00481182
0.00407994
0.00346198
0.00298638
0.00266537
0.0024879
0.00244111
0.00253278
0.00289661
0.00356914
0.00465185
0.010637
0.00325813
0.0208394
0.0285357
0.0250546
0.0214576
0.0194414
0.0206303
0.0244968
0.0287152
0.0297247
0.0254886
0.0178431
0.0134122
0.0117202
0.0112864
0.0114503
0.0119106
0.01249
0.0129896
0.0130994
0.0126018
0.0115556
0.0101821
0.00873178
0.00739218
0.00625945
0.00532241
0.00451946
0.00381513
0.00321814
0.00276111
0.00248163
0.00240408
0.00252404
0.00281369
0.00324049
0.00376979
0.00434591
0.00485625
0.00517949
0.00304228
0.0039442
0.00966148
0.018984
0.0285517
0.0349348
0.0355684
0.0271262
0.0190058
0.014215
0.0121075
0.0113308
0.0111796
0.0113128
0.0115283
0.0116685
0.0115769
0.0111163
0.0102761
0.00918802
0.00803274
0.00695239
0.00601293
0.00521439
0.00451983
0.00389667
0.00334064
0.00287331
0.00252733
0.00232915
0.00228763
0.00239798
0.00265277
0.00303773
0.0035041
0.00393859
0.00416077
0.00389401
0.00241946
0.0221064
0.060082
0.0531132
0.0412839
0.0310938
0.0229692
0.0168663
0.0129904
0.0109517
0.0100572
0.00972712
0.00965962
0.00968859
0.00970424
0.00962152
0.00937409
0.00893066
0.0083219
0.00762829
0.00693556
0.00630167
0.00574788
0.00526925
0.00485066
0.00447987
0.00415243
0.0038684
0.00362674
0.00342414
0.00326088
0.00314997
0.00311706
0.00317982
0.00331465
0.00344965
0.00352865
0.00362742
0.00263704
0.0154098
0.0171452
0.0188337
0.0205554
0.0152312
0.0113915
0.00924743
0.00770507
0.0065154
0.00569438
0.00523273
0.0050006
0.00488774
0.00482478
0.00476475
0.0046737
0.0045287
0.00431989
0.00405512
0.0037599
0.00346563
0.00319636
0.0029626
0.00276345
0.00259245
0.00244289
0.00231077
0.00219502
0.00209626
0.0020159
0.00195617
0.00192084
0.00191594
0.00194905
0.00202393
0.00212742
0.00218166
0.00202908
0.00183325
0.0018864
)
;

boundaryField
{
    floor
    {
        type            kqRWallFunction;
        value           nonuniform List<scalar> 
36
(
0.0038927
0.00110232
0.00152117
0.00212211
0.00256063
0.00258645
0.00225873
0.00191758
0.00163999
0.00142083
0.00124639
0.00110614
0.000991682
0.000896124
0.000814849
0.000741749
0.000670234
0.000594436
0.000490528
0.000490528
0.000562581
0.000598347
0.000640272
0.000774308
0.000784711
0.00103615
0.0038927
0.00494481
0.0039438
0.00282386
0.00110232
0.00282386
0.00101755
0.0034899
0.00125605
0.00398396
)
;
    }
    ceiling
    {
        type            kqRWallFunction;
        value           nonuniform List<scalar> 
43
(
0.0154098
0.0171452
0.0188337
0.0205554
0.0152312
0.0113915
0.00924743
0.00770507
0.0065154
0.00569438
0.00523273
0.0050006
0.00488774
0.00482478
0.00476475
0.0046737
0.0045287
0.00431989
0.00405512
0.0037599
0.00346563
0.00319636
0.0029626
0.00276345
0.00259245
0.00244289
0.00231077
0.00219502
0.00209626
0.0020159
0.00195617
0.00192084
0.00191594
0.00194905
0.00202393
0.00212742
0.00218166
0.00202908
0.00183325
0.0018864
0.0208394
0.0285357
0.0221064
)
;
    }
    sWall
    {
        type            kqRWallFunction;
        value           uniform 0.0154098;
    }
    nWall
    {
        type            kqRWallFunction;
        value           nonuniform List<scalar> 6(0.00103615 0.00112574 0.00161826 0.00241946 0.00263704 0.0018864);
    }
    sideWalls
    {
        type            empty;
    }
    glass1
    {
        type            kqRWallFunction;
        value           nonuniform List<scalar> 9(0.00437316 0.00680275 0.00919361 0.011805 0.0148157 0.0183917 0.0215106 0.0220508 0.0208394);
    }
    glass2
    {
        type            kqRWallFunction;
        value           nonuniform List<scalar> 2(0.00325813 0.00304228);
    }
    sun
    {
        type            kqRWallFunction;
        value           nonuniform List<scalar> 
14
(
0.00437316
0.00544815
0.00600611
0.00677655
0.00763039
0.0085681
0.00940051
0.00998112
0.0100778
0.00915206
0.00811091
0.00698443
0.00584556
0.00486617
)
;
    }
    Table_master
    {
        type            kqRWallFunction;
        value           nonuniform List<scalar> 9(0.00397343 0.00295664 0.00222367 0.00170728 0.00134119 0.00107784 0.00088544 0.000745828 0.000661204);
    }
    Table_slave
    {
        type            kqRWallFunction;
        value           nonuniform List<scalar> 9(0.00532739 0.00442936 0.00377101 0.00327011 0.0028463 0.00246256 0.00210101 0.00175147 0.00139965);
    }
    inlet
    {
        type            turbulentIntensityKineticEnergyInlet;
        intensity       0.05;
        value           uniform 0.000937501;
    }
    outlet
    {
        type            zeroGradient;
    }
}


// ************************************************************************* //
