// -*- C++ -*-
// File generated by PyFoam - sorry for the ugliness

FoamFile
{
 version 2.0;
 format ascii;
 class volVectorField;
 location "2700";
 object U;
}

dimensions [ 0 1 -1 0 0 0 0 ];

internalField nonuniform List<vector> 458
(
  (0.0257006 0.0859612 0)
  (-0.167541 0.0271867 0)
  (-0.194753 0.0177423 0)
  (-0.225004 0.0112377 0)
  (-0.245496 0.00434682 0)
  (-0.255339 -0.00275614 0)
  (-0.253101 -0.0100745 0)
  (-0.238746 -0.0175211 0)
  (-0.213494 -0.024212 0)
  (-0.1798 -0.0291369 0)
  (-0.141152 -0.0317171 0)
  (-0.101238 -0.0317203 0)
  (-0.0636093 -0.0290907 0)
  (-0.0322736 -0.0239072 0)
  (-0.0168149 -0.0159341 0)
  (-0.0131346 0.00823068 0)
  (-0.0248115 -0.016328 0)
  (-0.00131291 -0.0280028 0)
  (0.0238475 -0.0235072 0)
  (0.0441045 -0.0170165 0)
  (0.0588395 -0.00955437 0)
  (0.0673988 -0.00550989 0)
  (0.0712221 -0.00400571 0)
  (0.072808 -0.00340386 0)
  (0.0736464 -0.00300019 0)
  (0.0740632 -0.00264974 0)
  (0.0739646 -0.00224646 0)
  (0.0731036 -0.00158679 0)
  (0.0708495 -0.000245991 0)
  (0.0658596 0.00238474 0)
  (0.0565474 0.00573902 0)
  (0.0436387 0.00969584 0)
  (0.00286407 0.021399 0)
  (0.191802 0.175043 0)
  (-0.152407 0.0706698 0)
  (-0.154316 0.052704 0)
  (-0.18467 0.039085 0)
  (-0.20449 0.0240689 0)
  (-0.214236 0.00770564 0)
  (-0.212352 -0.00998905 0)
  (-0.198976 -0.0277188 0)
  (-0.175884 -0.0429376 0)
  (-0.145896 -0.0534757 0)
  (-0.112367 -0.0585111 0)
  (-0.0784701 -0.0580642 0)
  (-0.0469547 -0.0524968 0)
  (-0.0199829 -0.0424691 0)
  (0.000148639 -0.0289481 0)
  (0.0198408 -0.00809869 0)
  (0.0337087 0.0201137 0)
  (-0.0172067 0.0514756 0)
  (0.0343985 0.0338891 0)
  (0.0258581 -0.0239694 0)
  (0.0368328 -0.0366345 0)
  (0.0506077 -0.0339303 0)
  (0.0630203 -0.0259537 0)
  (0.0695861 -0.0115877 0)
  (0.0711865 -0.00284955 0)
  (0.0711354 0.00046141 0)
  (0.0712535 0.00170659 0)
  (0.0715796 0.00243732 0)
  (0.0718205 0.00303035 0)
  (0.0718702 0.00366981 0)
  (0.0716955 0.0047654 0)
  (0.070764 0.00729217 0)
  (0.0666429 0.0139032 0)
  (0.0564329 0.0207026 0)
  (0.0444561 0.0275747 0)
  (-0.0216978 0.0459385 0)
  (0.344367 0.260908 0)
  (-0.164044 0.11058 0)
  (-0.114511 0.0838971 0)
  (-0.142649 0.0604178 0)
  (-0.159548 0.0359029 0)
  (-0.167581 0.00949584 0)
  (-0.164048 -0.0188531 0)
  (-0.149756 -0.046554 0)
  (-0.127448 -0.0692732 0)
  (-0.100637 -0.0838162 0)
  (-0.0722862 -0.0896813 0)
  (-0.0447932 -0.0874738 0)
  (-0.0200276 -0.0781525 0)
  (0.00118316 -0.0627912 0)
  (0.0169652 -0.043538 0)
  (0.0286263 -0.0214927 0)
  (0.0334429 0.00505963 0)
  (-0.0044865 0.0465367 0)
  (0.0920317 -0.0271782 0)
  (0.0702426 -0.0429866 0)
  (0.069535 -0.046381 0)
  (0.0740244 -0.0426926 0)
  (0.0792446 -0.0375755 0)
  (0.0809053 -0.0277715 0)
  (0.0718527 -0.0179186 0)
  (0.064766 -0.0126196 0)
  (0.0619391 -0.00965323 0)
  (0.0610537 -0.00772836 0)
  (0.0607126 -0.00638198 0)
  (0.0608355 -0.0052451 0)
  (0.0619979 -0.00379671 0)
  (0.0655133 0.000249151 0)
  (0.0652638 0.0184903 0)
  (0.0547456 0.0327579 0)
  (0.0477672 0.046269 0)
  (-0.0418155 0.0741443 0)
  (0.482286 0.329427 0)
  (-0.193517 0.144944 0)
  (-0.0740715 0.109619 0)
  (-0.0987798 0.077783 0)
  (-0.109722 0.0457367 0)
  (-0.112694 0.0103482 0)
  (-0.103128 -0.0286473 0)
  (-0.0860736 -0.0655304 0)
  (-0.0645986 -0.0939613 0)
  (-0.0425496 -0.110418 0)
  (-0.0213382 -0.115757 0)
  (-0.00210216 -0.111168 0)
  (0.0143552 -0.0980551 0)
  (0.0276534 -0.0791358 0)
  (0.0383778 -0.0559734 0)
  (0.0479789 -0.0293845 0)
  (0.0608509 3.56995e-05 0)
  (0.0720786 0.032068 0)
  (0.110528 0.0233062 0)
  (0.11234 -0.0208844 0)
  (0.0977452 -0.037946 0)
  (0.0878624 -0.0415403 0)
  (0.0810376 -0.0392537 0)
  (0.0738968 -0.0331829 0)
  (0.0726898 -0.0196055 0)
  (0.081925 -0.0126818 0)
  (0.0893627 -0.00902856 0)
  (0.0932585 -0.00685831 0)
  (0.095208 -0.00515171 0)
  (0.095685 -0.00339611 0)
  (0.0937195 -0.00116276 0)
  (0.0879965 0.00200226 0)
  (0.0763356 0.00671295 0)
  (0.0635976 0.0264633 0)
  (0.0539108 0.0454121 0)
  (0.0557833 0.0652663 0)
  (-0.0472573 0.105403 0)
  (0.60097 0.382008 0)
  (-0.231207 0.172255 0)
  (-0.0357608 0.123363 0)
  (-0.0535937 0.0867581 0)
  (-0.0555149 0.049642 0)
  (-0.047831 0.0063121 0)
  (-0.0261761 -0.0430363 0)
  (-0.00651021 -0.0849817 0)
  (0.0117717 -0.114813 0)
  (0.0256541 -0.129047 0)
  (0.0366984 -0.131516 0)
  (0.0448011 -0.12413 0)
  (0.0505439 -0.108927 0)
  (0.0547878 -0.0882097 0)
  (0.0584229 -0.064032 0)
  (0.0630224 -0.0381482 0)
  (0.0718901 -0.0135702 0)
  (0.0860792 0.000645711 0)
  (0.0980448 -0.0121402 0)
  (0.0971952 -0.0271268 0)
  (0.088741 -0.0332597 0)
  (0.0788381 -0.0338742 0)
  (0.0700533 -0.0312489 0)
  (0.0628267 -0.0251007 0)
  (0.0604054 -0.0135418 0)
  (0.0629283 -0.00684514 0)
  (0.0660229 -0.00410622 0)
  (0.0684111 -0.00271168 0)
  (0.0704181 -0.00111191 0)
  (0.0720882 0.00153523 0)
  (0.0725836 0.00560803 0)
  (0.0711433 0.0115223 0)
  (0.0673309 0.0200953 0)
  (0.0626174 0.0353415 0)
  (0.0587019 0.053561 0)
  (0.0755045 0.0750714 0)
  (0.0425011 0.106178 0)
  (0.0902451 0.111535 0)
  (0.116884 0.113814 0)
  (-0.200472 0.136189 0)
  (0.687014 0.425219 0)
  (-0.268181 0.18949 0)
  (-0.00678856 0.116355 0)
  (-0.005404 0.0827902 0)
  (0.00834022 0.0409495 0)
  (0.0403883 -0.0127998 0)
  (0.0663714 -0.0633289 0)
  (0.084176 -0.101234 0)
  (0.0941246 -0.125246 0)
  (0.097393 -0.13588 0)
  (0.0959059 -0.135117 0)
  (0.0910382 -0.125149 0)
  (0.084275 -0.108384 0)
  (0.0771607 -0.0872696 0)
  (0.0710401 -0.063937 0)
  (0.0673079 -0.0405739 0)
  (0.0676713 -0.0203105 0)
  (0.0721781 -0.00883357 0)
  (0.0750657 -0.0111425 0)
  (0.0717451 -0.0180338 0)
  (0.0638351 -0.0229225 0)
  (0.0546667 -0.0244381 0)
  (0.0463716 -0.0231748 0)
  (0.0399008 -0.019271 0)
  (0.0367516 -0.0130843 0)
  (0.0370659 -0.00909088 0)
  (0.038978 -0.00738604 0)
  (0.0414566 -0.00639386 0)
  (0.0443073 -0.00487212 0)
  (0.0473976 -0.00185356 0)
  (0.0507821 0.00342247 0)
  (0.0532411 0.0110445 0)
  (0.0549519 0.0211954 0)
  (0.0571928 0.0350192 0)
  (0.0604566 0.0513414 0)
  (0.0765279 0.0698883 0)
  (0.0766906 0.0791874 0)
  (0.0871496 0.0416056 0)
  (0.12012 0.011704 0)
  (-0.205152 0.0748422 0)
  (0.744902 0.464483 0)
  (-0.284616 0.172899 0)
  (0.026205 0.0577232 0)
  (0.0651398 0.0418076 0)
  (0.105283 0.00510954 0)
  (0.145752 -0.0441917 0)
  (0.170096 -0.0844707 0)
  (0.180193 -0.111782 0)
  (0.177998 -0.126612 0)
  (0.166464 -0.130275 0)
  (0.148896 -0.124699 0)
  (0.128175 -0.112026 0)
  (0.106769 -0.0945752 0)
  (0.0867714 -0.074511 0)
  (0.0696779 -0.0535321 0)
  (0.056645 -0.0336582 0)
  (0.0484911 -0.0175448 0)
  (0.0447196 -0.00833616 0)
  (0.0419051 -0.00779714 0)
  (0.0369759 -0.011455 0)
  (0.0299691 -0.0149823 0)
  (0.0223599 -0.0166646 0)
  (0.015465 -0.0165035 0)
  (0.0101849 -0.0147396 0)
  (0.00747955 -0.0119753 0)
  (0.00740963 -0.0101862 0)
  (0.00889976 -0.00956728 0)
  (0.0111843 -0.0092456 0)
  (0.0140872 -0.00833053 0)
  (0.017695 -0.00592443 0)
  (0.0225623 -0.000939688 0)
  (0.0288679 0.00701425 0)
  (0.0349985 0.0169123 0)
  (0.0423391 0.0287491 0)
  (0.0510797 0.04178 0)
  (0.0664877 0.0560414 0)
  (0.0794977 0.0615336 0)
  (0.0911246 0.0450984 0)
  (0.143812 0.0514877 0)
  (-0.13133 0.132389 0)
  (0.850504 0.461402 0)
  (-0.0476144 0.147663 0)
  (0.121473 -0.0422525 0)
  (0.227156 -0.0790778 0)
  (0.271091 -0.0889933 0)
  (0.288962 -0.0996498 0)
  (0.290861 -0.108989 0)
  (0.277872 -0.11379 0)
  (0.252229 -0.113158 0)
  (0.218037 -0.107225 0)
  (0.179762 -0.0967009 0)
  (0.141112 -0.082632 0)
  (0.104902 -0.0664812 0)
  (0.0731275 -0.0496531 0)
  (0.0467974 -0.0330539 0)
  (0.0269863 -0.0183695 0)
  (0.0139591 -0.00776705 0)
  (0.00666642 -0.00259423 0)
  (0.00214933 -0.00273572 0)
  (-0.00255578 -0.00562367 0)
  (-0.0080598 -0.00857616 0)
  (-0.0138156 -0.0105302 0)
  (-0.0190084 -0.0114567 0)
  (-0.0229487 -0.0115748 0)
  (-0.0251315 -0.0113085 0)
  (-0.0257049 -0.0113452 0)
  (-0.0253498 -0.0117255 0)
  (-0.0245561 -0.0121003 0)
  (-0.02342 -0.0120626 0)
  (-0.0217185 -0.0111436 0)
  (-0.0188121 -0.00869138 0)
  (-0.0127048 -0.00384957 0)
  (-0.00330336 0.00334391 0)
  (0.00686537 0.0114301 0)
  (0.0184409 0.0179223 0)
  (0.0341633 0.0234453 0)
  (0.0501613 0.0200324 0)
  (0.0634726 0.00327832 0)
  (0.142828 0.0552066 0)
  (-0.397649 0.216446 0)
  (0.999392 0.414199 0)
  (0.468432 0.271854 0)
  (0.495118 0.166642 0)
  (0.529121 0.083736 0)
  (0.507789 0.0272532 0)
  (0.458688 -0.0128689 0)
  (0.402499 -0.0388393 0)
  (0.342187 -0.0526189 0)
  (0.278767 -0.0568349 0)
  (0.21573 -0.0542351 0)
  (0.156858 -0.0471786 0)
  (0.104646 -0.0373679 0)
  (0.0606035 -0.02651 0)
  (0.0249097 -0.0158791 0)
  (-0.003622 -0.00614764 0)
  (-0.0217792 0.000134018 0)
  (-0.0316808 0.00292692 0)
  (-0.0367549 0.00315741 0)
  (-0.0397118 0.00146287 0)
  (-0.0426266 -0.0011116 0)
  (-0.0464146 -0.00362296 0)
  (-0.0506131 -0.00575833 0)
  (-0.0546607 -0.00747352 0)
  (-0.0580881 -0.00879804 0)
  (-0.0607055 -0.00984902 0)
  (-0.0627357 -0.0108021 0)
  (-0.0646703 -0.0116478 0)
  (-0.0669819 -0.0122156 0)
  (-0.0700643 -0.012169 0)
  (-0.0742866 -0.0109221 0)
  (-0.0800607 -0.00762551 0)
  (-0.0879917 -0.00131919 0)
  (-0.096978 0.0079705 0)
  (-0.10788 0.0203079 0)
  (-0.125657 0.0366345 0)
  (-0.153295 0.0578645 0)
  (-0.193245 0.0830137 0)
  (-0.241377 0.110068 0)
  (-0.309115 0.135571 0)
  (-0.591262 0.156448 0)
  (-0.213691 -0.106559 0)
  (0.092728 -0.0927439 0)
  (0.16135 -0.0757881 0)
  (0.149165 -0.0536176 0)
  (0.130099 -0.0336952 0)
  (0.106034 -0.0185436 0)
  (0.0744083 -0.00744582 0)
  (0.0406614 -0.000159644 0)
  (0.00835671 0.00437388 0)
  (-0.0205504 0.00756872 0)
  (-0.0416183 0.00977487 0)
  (-0.0569197 0.011502 0)
  (-0.0663756 0.0122774 0)
  (-0.0717446 0.0121478 0)
  (-0.0747556 0.0116595 0)
  (-0.076619 0.0110294 0)
  (-0.0783174 0.010301 0)
  (-0.080468 0.00965666 0)
  (-0.083025 0.00911609 0)
  (-0.0861123 0.00857209 0)
  (-0.0895747 0.00796444 0)
  (-0.0931822 0.00758686 0)
  (-0.0968613 0.00753293 0)
  (-0.100666 0.00781216 0)
  (-0.104737 0.00842368 0)
  (-0.109217 0.00935118 0)
  (-0.114224 0.0105787 0)
  (-0.119814 0.0121173 0)
  (-0.125819 0.0139879 0)
  (-0.131002 0.0177384 0)
  (-0.135291 0.0247131 0)
  (-0.138875 0.0360072 0)
  (-0.14226 0.0518768 0)
  (-0.145659 0.0708815 0)
  (-0.146598 0.0865322 0)
  (-0.136215 0.0803148 0)
  (-0.120799 0.0121143 0)
  (-0.255816 -0.180083 0)
  (0.0967653 0.126472 0)
  (0.0155263 0.0256137 0)
  (-0.0243237 -0.0129116 0)
  (-0.05502 -0.00724459 0)
  (-0.0755378 0.000754405 0)
  (-0.0890925 0.0050352 0)
  (-0.0966367 0.00680444 0)
  (-0.102295 0.00653553 0)
  (-0.106151 0.004181 0)
  (-0.108555 0.000120875 0)
  (-0.109473 -0.00488926 0)
  (-0.109227 -0.00992395 0)
  (-0.108011 -0.015 0)
  (-0.10643 -0.0202823 0)
  (-0.104979 -0.0256954 0)
  (-0.103937 -0.0311878 0)
  (-0.103509 -0.0367907 0)
  (-0.103802 -0.0423892 0)
  (-0.104826 -0.0477303 0)
  (-0.106611 -0.0525386 0)
  (-0.109261 -0.0567315 0)
  (-0.112855 -0.0604021 0)
  (-0.117244 -0.0633372 0)
  (-0.122161 -0.0652131 0)
  (-0.127215 -0.0655989 0)
  (-0.131905 -0.0640082 0)
  (-0.135698 -0.0599783 0)
  (-0.138128 -0.0530995 0)
  (-0.138863 -0.0429342 0)
  (-0.137592 -0.0302126 0)
  (-0.133149 -0.0147539 0)
  (-0.124073 0.00381625 0)
  (-0.109182 0.0258032 0)
  (-0.088127 0.0498178 0)
  (-0.0618662 0.06915 0)
  (-0.0336114 0.0704472 0)
  (0.123288 -0.00912478 0)
  (-0.20335 -0.0944544 0)
  (0.112468 -0.240412 0)
  (-0.341378 -0.121854 0)
  (-0.265925 0.016924 0)
  (-0.26089 -0.00426726 0)
  (-0.244041 0.00475735 0)
  (-0.24116 0.0164417 0)
  (-0.235924 0.0260577 0)
  (-0.22763 0.0345829 0)
  (-0.216463 0.0430911 0)
  (-0.203419 0.0518446 0)
  (-0.189593 0.060789 0)
  (-0.176225 0.0699108 0)
  (-0.164173 0.0791613 0)
  (-0.153706 0.0883915 0)
  (-0.144786 0.0973961 0)
  (-0.13733 0.10614 0)
  (-0.131189 0.114643 0)
  (-0.12621 0.122894 0)
  (-0.122295 0.13084 0)
  (-0.119378 0.138343 0)
  (-0.11738 0.14523 0)
  (-0.116163 0.151363 0)
  (-0.115549 0.156766 0)
  (-0.115399 0.16151 0)
  (-0.115609 0.165312 0)
  (-0.116085 0.167676 0)
  (-0.116741 0.16799 0)
  (-0.117463 0.16571 0)
  (-0.118057 0.160585 0)
  (-0.118121 0.152816 0)
  (-0.116825 0.143116 0)
  (-0.112755 0.133292 0)
  (-0.103788 0.124767 0)
  (-0.0873537 0.119071 0)
  (-0.0623878 0.117754 0)
  (-0.0316115 0.121675 0)
  (0.01934 0.127179 0)
  (0.0575248 0.122381 0)
  (0.148383 0.115199 0)
  (-0.25538 0.0745249 0)
)
;

boundaryField
{
  floor
  {
    type noSlip;
  }
  ceiling
  {
    type noSlip;
  }
  sWall
  {
    type noSlip;
  }
  nWall
  {
    type noSlip;
  }
  sideWalls
  {
    type empty;
  }
  glass1
  {
    type noSlip;
  }
  glass2
  {
    type noSlip;
  }
  sun
  {
    type noSlip;
  }
  Table_master
  {
    type noSlip;
  }
  Table_slave
  {
    type noSlip;
  }
  inlet
  {
    type fixedValue;
    value uniform (0.212132 -0.212132 0);
  }
  outlet
  {
    type zeroGradient;
  }
} 	// ************************************************************************* //

