/*--------------------------------*- C++ -*----------------------------------*\
  =========                 |
  \\      /  F ield         | OpenFOAM: The Open Source CFD Toolbox
   \\    /   O peration     | Website:  https://openfoam.org
    \\  /    A nd           | Version:  6
     \\/     M anipulation  |
\*---------------------------------------------------------------------------*/
FoamFile
{
    version     2.0;
    format      ascii;
    class       volScalarField;
    location    "300";
    object      epsilon;
}
// * * * * * * * * * * * * * * * * * * * * * * * * * * * * * * * * * * * * * //

dimensions      [0 2 -3 0 0 0 0];

internalField   nonuniform List<scalar> 
458
(
0.000118406
0.000130276
0.000112512
0.000126193
0.000140337
0.000153935
0.000166993
0.000179777
0.00019274
0.000206634
0.000219772
0.000230715
0.00023926
0.000246397
0.000251939
1.90778e-05
3.21138e-05
3.32398e-05
1.82931e-05
8.93306e-06
5.34805e-06
4.44302e-06
4.43224e-06
4.34348e-06
3.46935e-06
2.60096e-06
2.15149e-06
2.47467e-06
3.08479e-06
5.63354e-06
1.61718e-05
2.18418e-05
1.51842e-05
0.000524097
0.00119877
0.000127176
9.9614e-05
0.000101597
0.000105478
0.000110271
0.000116765
0.000125869
0.000138503
0.000153872
0.000170948
0.000188666
0.000206538
0.000233192
0.000307123
0.000273181
0.000102577
4.20503e-05
7.1686e-05
5.27601e-05
4.90344e-05
3.49784e-05
2.22962e-05
1.4382e-05
1.07344e-05
8.57714e-06
6.39633e-06
4.1669e-06
3.02069e-06
4.09722e-06
6.41952e-06
2.44153e-05
5.82993e-05
8.16057e-05
4.19549e-05
0.00127487
0.00389268
0.000256017
0.000107783
0.000101791
0.000105451
0.000111333
0.000119514
0.000130303
0.000143784
0.000159252
0.000174488
0.000187802
0.000198875
0.000211124
0.000231965
0.000264238
0.00033745
0.000200173
0.000162523
0.000111
0.000101102
0.000103644
4.72245e-05
2.60923e-05
1.78183e-05
1.30204e-05
9.65712e-06
7.02123e-06
5.01779e-06
8.47163e-06
4.06163e-05
0.00012459
0.000142305
0.000168249
5.95023e-05
0.00249062
0.00871757
0.000576827
0.000129858
0.000109159
0.000114611
0.000123535
0.000134797
0.000148497
0.00016476
0.000183333
0.0002001
0.000212876
0.000221843
0.000229068
0.000238564
0.000258896
0.000304894
0.000385135
0.000165698
0.000103425
8.61181e-05
9.09272e-05
0.00011428
0.000166235
0.000175127
0.0001935
0.000220438
0.000256945
0.000313576
0.000361046
0.000392427
0.000396467
0.000274384
0.000225454
0.000258458
0.000292772
0.00422177
0.0154902
0.00127207
0.000172931
0.000117443
0.000124233
0.000138332
0.000156184
0.000177655
0.000202741
0.00023058
0.0002529
0.000266757
0.000273714
0.000275822
0.000274365
0.000269823
0.000256496
0.000214267
0.00013696
9.40577e-05
7.77014e-05
7.71069e-05
8.51085e-05
9.66762e-05
0.000109033
0.000127955
0.000154686
0.000190199
0.000236553
0.000287328
0.000325319
0.000342199
0.000324074
0.000277648
0.000253157
0.000268538
0.000465812
0.000394977
0.000295881
0.00650923
0.0221766
0.00269496
0.000296572
0.000140998
0.000139912
0.000157954
0.000183914
0.000216984
0.000258443
0.000302932
0.0003302
0.000340223
0.000340047
0.000335199
0.00032804
0.000315629
0.00028647
0.000232071
0.000166717
0.0001174
9.18021e-05
8.34998e-05
8.5079e-05
9.28395e-05
0.00010757
0.000132403
0.00016909
0.000218276
0.000278639
0.000345332
0.000409983
0.000461543
0.000491552
0.000502381
0.000448871
0.000420553
0.000429012
0.000510189
0.000517232
0.00944847
0.0255209
0.0059079
0.00103679
0.000355458
0.000245674
0.000241018
0.000266321
0.000307179
0.000372583
0.000427525
0.00044283
0.000432712
0.000412011
0.000389245
0.000368305
0.000346767
0.000313481
0.000260824
0.00019861
0.000145792
0.000112135
9.55226e-05
9.08208e-05
9.55951e-05
0.000112053
0.000144006
0.000193861
0.000261755
0.000344035
0.000433268
0.000521628
0.000605725
0.000691529
0.000798871
0.000943658
0.000967715
0.000795797
0.000818044
0.000763903
0.0104263
0.0343388
0.0148566
0.00674278
0.00286138
0.00132963
0.000851939
0.000710308
0.000674691
0.000684591
0.00065388
0.000601193
0.000542625
0.000486552
0.000436487
0.000393463
0.000355881
0.000317136
0.000269994
0.000216817
0.00016834
0.000132082
0.000109391
9.92258e-05
0.000100657
0.000117674
0.000157097
0.000222847
0.000314476
0.000425007
0.000541505
0.000652941
0.000758637
0.000872746
0.00101789
0.00120021
0.00135372
0.00140954
0.00154842
0.000806761
0.0097562
0.0175066
0.0133552
0.00948112
0.00635504
0.00412559
0.0027224
0.00190032
0.00143281
0.00112701
0.000909779
0.000750688
0.00063022
0.000536132
0.000460693
0.000398773
0.000346455
0.000299853
0.000255598
0.000213106
0.000174867
0.000143742
0.000121298
0.000108094
0.000105243
0.000117443
0.000158131
0.000234897
0.000351008
0.000499495
0.00065495
0.000786156
0.00086978
0.000899727
0.000893718
0.000882319
0.000894343
0.000962282
0.00107856
0.00101542
0.00493593
0.00572205
0.00481226
0.00361032
0.00263765
0.00195081
0.0014831
0.00115821
0.000924662
0.00075268
0.00062318
0.00052324
0.000443858
0.000378776
0.000323782
0.000276201
0.000234577
0.000198507
0.000168312
0.000144452
0.000127217
0.000116879
0.000114235
0.000121418
0.000143357
0.000187964
0.00026808
0.00040697
0.000611724
0.000893699
0.00127257
0.0017335
0.00217458
0.00241212
0.00233897
0.00212059
0.00167002
0.001209
0.00325045
0.00503789
0.00420172
0.00319817
0.00240929
0.00183149
0.00141792
0.00112109
0.000905824
0.000747443
0.000628092
0.000535303
0.000460528
0.000398168
0.000344887
0.000299076
0.000260381
0.000229209
0.000206189
0.000191752
0.000185987
0.00018869
0.000199344
0.000216304
0.000235754
0.000257799
0.000288924
0.000341721
0.000427604
0.000557068
0.000743941
0.000996668
0.001288
0.00150766
0.00149704
0.00125711
0.00151596
0.00104851
0.0022859
0.00262343
0.00295271
0.00358891
0.00305085
0.00239474
0.00195537
0.00161484
0.00134395
0.00112346
0.000946134
0.000803515
0.000683765
0.000580505
0.000490216
0.00041102
0.00034202
0.000282868
0.000233436
0.000193535
0.000162729
0.000140313
0.000125455
0.000117423
0.000115826
0.000121205
0.000135763
0.000159632
0.000193745
0.000239588
0.000298021
0.000372485
0.000472236
0.00061105
0.000788121
0.000942354
0.00094664
0.000823927
0.000736852
0.000539519
)
;

boundaryField
{
    floor
    {
        Cmu             0.09;
        kappa           0.41;
        E               9.8;
        type            epsilonWallFunction;
        value           nonuniform List<scalar> 
36
(
0.000251939
1.90778e-05
3.21138e-05
3.32398e-05
1.82931e-05
8.93306e-06
5.34805e-06
4.44302e-06
4.43224e-06
4.34348e-06
3.46935e-06
2.60096e-06
2.15149e-06
2.47467e-06
3.08479e-06
5.63354e-06
1.61718e-05
2.18418e-05
1.51842e-05
1.51842e-05
4.19549e-05
5.95023e-05
0.000292772
0.000465812
0.000394977
0.000295881
0.000251939
0.000307123
0.000273181
0.000102577
1.90778e-05
0.000102577
4.20503e-05
0.00033745
0.000200173
0.000385135
)
;
    }
    ceiling
    {
        Cmu             0.09;
        kappa           0.41;
        E               9.8;
        type            epsilonWallFunction;
        value           nonuniform List<scalar> 
43
(
0.0022859
0.00262343
0.00295271
0.00358891
0.00305085
0.00239474
0.00195537
0.00161484
0.00134395
0.00112346
0.000946134
0.000803515
0.000683765
0.000580505
0.000490216
0.00041102
0.00034202
0.000282868
0.000233436
0.000193535
0.000162729
0.000140313
0.000125455
0.000117423
0.000115826
0.000121205
0.000135763
0.000159632
0.000193745
0.000239588
0.000298021
0.000372485
0.000472236
0.00061105
0.000788121
0.000942354
0.00094664
0.000823927
0.000736852
0.000539519
0.0097562
0.0175066
0.00325045
)
;
    }
    sWall
    {
        Cmu             0.09;
        kappa           0.41;
        E               9.8;
        type            epsilonWallFunction;
        value           uniform 0.0022859;
    }
    nWall
    {
        Cmu             0.09;
        kappa           0.41;
        E               9.8;
        type            epsilonWallFunction;
        value           nonuniform List<scalar> 6(0.000295881 0.000517232 0.000763903 0.001209 0.00104851 0.000539519);
    }
    sideWalls
    {
        type            empty;
    }
    glass1
    {
        Cmu             0.09;
        kappa           0.41;
        E               9.8;
        type            epsilonWallFunction;
        value           nonuniform List<scalar> 9(0.000118406 0.000524097 0.00127487 0.00249062 0.00422177 0.00650923 0.00944847 0.0104263 0.0097562);
    }
    glass2
    {
        Cmu             0.09;
        kappa           0.41;
        E               9.8;
        type            epsilonWallFunction;
        value           nonuniform List<scalar> 2(0.000806761 0.00101542);
    }
    sun
    {
        Cmu             0.09;
        kappa           0.41;
        E               9.8;
        type            epsilonWallFunction;
        value           nonuniform List<scalar> 
14
(
0.000118406
0.000130276
0.000112512
0.000126193
0.000140337
0.000153935
0.000166993
0.000179777
0.00019274
0.000206634
0.000219772
0.000230715
0.00023926
0.000246397
)
;
    }
    Table_master
    {
        Cmu             0.09;
        kappa           0.41;
        E               9.8;
        type            epsilonWallFunction;
        value           nonuniform List<scalar> 9(4.72245e-05 2.60923e-05 1.78183e-05 1.30204e-05 9.65712e-06 7.02123e-06 5.01779e-06 8.47163e-06 4.06163e-05);
    }
    Table_slave
    {
        Cmu             0.09;
        kappa           0.41;
        E               9.8;
        type            epsilonWallFunction;
        value           nonuniform List<scalar> 9(0.000166235 0.000175127 0.0001935 0.000220438 0.000256945 0.000313576 0.000361046 0.000392427 0.000396467);
    }
    inlet
    {
        type            turbulentMixingLengthDissipationRateInlet;
        mixingLength    0.01;
        phi             phi;
        k               k;
        value           uniform 0.000101881;
    }
    outlet
    {
        type            zeroGradient;
    }
}


// ************************************************************************* //
