// -*- C++ -*-
// File generated by PyFoam - sorry for the ugliness

FoamFile
{
 version 2.0;
 format ascii;
 class volScalarField;
 location "300";
 object T;
}

dimensions [ 0 0 0 1 0 0 0 ];

internalField nonuniform List<scalar> 458
(
  303.908
  303.603
  303.596
  303.598
  303.6
  303.602
  303.604
  303.605
  303.606
  303.606
  303.606
  303.604
  303.6
  303.595
  303.589
  303.199
  303.189
  303.172
  303.058
  302.879
  302.792
  302.772
  302.771
  302.773
  302.772
  302.776
  302.786
  302.796
  302.793
  302.806
  302.841
  302.844
  302.846
  304.121
  303.64
  303.614
  303.62
  303.627
  303.632
  303.637
  303.641
  303.644
  303.645
  303.644
  303.639
  303.628
  303.611
  303.588
  303.567
  303.546
  303.534
  303.233
  303.243
  303.259
  303.261
  303.158
  303.03
  302.941
  302.884
  302.844
  302.827
  302.824
  302.826
  302.841
  302.841
  302.949
  302.985
  302.927
  302.871
  304.323
  303.689
  303.64
  303.65
  303.663
  303.676
  303.687
  303.697
  303.704
  303.707
  303.707
  303.7
  303.684
  303.659
  303.625
  303.587
  303.549
  303.521
  303.354
  303.356
  303.376
  303.386
  303.376
  303.133
  303.051
  303.009
  302.978
  302.948
  302.917
  302.884
  302.902
  303.058
  303.225
  303.088
  302.966
  302.903
  304.511
  303.75
  303.667
  303.679
  303.7
  303.72
  303.74
  303.757
  303.771
  303.78
  303.783
  303.776
  303.758
  303.728
  303.687
  303.638
  303.58
  303.519
  303.47
  303.435
  303.45
  303.458
  303.458
  303.455
  303.452
  303.449
  303.449
  303.45
  303.451
  303.454
  303.455
  303.455
  303.452
  303.431
  303.367
  303.273
  303.24
  304.686
  303.823
  303.696
  303.703
  303.729
  303.757
  303.785
  303.812
  303.834
  303.851
  303.859
  303.856
  303.84
  303.811
  303.772
  303.725
  303.673
  303.622
  303.579
  303.547
  303.529
  303.516
  303.504
  303.492
  303.483
  303.476
  303.472
  303.47
  303.47
  303.472
  303.473
  303.473
  303.469
  303.457
  303.428
  303.375
  303.322
  303.323
  303.323
  303.343
  304.837
  303.909
  303.739
  303.723
  303.749
  303.781
  303.814
  303.846
  303.878
  303.904
  303.92
  303.923
  303.911
  303.884
  303.847
  303.803
  303.755
  303.707
  303.664
  303.627
  303.597
  303.572
  303.55
  303.53
  303.513
  303.5
  303.491
  303.486
  303.484
  303.485
  303.486
  303.486
  303.483
  303.473
  303.454
  303.42
  303.386
  303.371
  303.357
  303.356
  304.952
  304.048
  303.854
  303.775
  303.775
  303.8
  303.83
  303.863
  303.897
  303.932
  303.96
  303.97
  303.961
  303.937
  303.903
  303.863
  303.821
  303.778
  303.737
  303.699
  303.664
  303.632
  303.601
  303.573
  303.549
  303.528
  303.511
  303.501
  303.496
  303.496
  303.498
  303.499
  303.496
  303.488
  303.473
  303.448
  303.421
  303.402
  303.383
  303.373
  305.156
  304.448
  304.231
  304.04
  303.929
  303.889
  303.889
  303.907
  303.932
  303.969
  303.993
  303.998
  303.986
  303.962
  303.931
  303.896
  303.859
  303.822
  303.787
  303.753
  303.721
  303.688
  303.654
  303.622
  303.59
  303.561
  303.535
  303.517
  303.508
  303.506
  303.509
  303.512
  303.512
  303.508
  303.498
  303.483
  303.466
  303.457
  303.458
  303.506
  305.435
  305.137
  304.917
  304.67
  304.458
  304.303
  304.201
  304.139
  304.106
  304.082
  304.054
  304.023
  303.991
  303.958
  303.925
  303.892
  303.861
  303.832
  303.804
  303.777
  303.752
  303.726
  303.698
  303.669
  303.637
  303.603
  303.567
  303.54
  303.522
  303.516
  303.518
  303.525
  303.534
  303.544
  303.553
  303.563
  303.572
  303.581
  303.592
  303.626
  301.893
  303.111
  303.676
  303.884
  303.957
  303.98
  303.983
  303.976
  303.963
  303.944
  303.921
  303.897
  303.872
  303.848
  303.825
  303.804
  303.785
  303.767
  303.749
  303.732
  303.713
  303.693
  303.669
  303.641
  303.609
  303.576
  303.549
  303.529
  303.519
  303.517
  303.519
  303.524
  303.531
  303.538
  303.543
  303.544
  303.526
  303.544
  301.971
  303.044
  303.438
  303.635
  303.732
  303.779
  303.798
  303.803
  303.802
  303.798
  303.792
  303.784
  303.775
  303.765
  303.755
  303.745
  303.736
  303.726
  303.717
  303.708
  303.698
  303.686
  303.672
  303.655
  303.633
  303.607
  303.581
  303.557
  303.538
  303.526
  303.519
  303.516
  303.517
  303.52
  303.521
  303.517
  303.512
  303.533
  302.567
  302.525
  302.524
  303.139
  303.419
  303.556
  303.613
  303.642
  303.658
  303.665
  303.668
  303.671
  303.673
  303.674
  303.675
  303.676
  303.675
  303.674
  303.671
  303.668
  303.664
  303.658
  303.652
  303.645
  303.638
  303.629
  303.619
  303.608
  303.593
  303.578
  303.562
  303.547
  303.534
  303.524
  303.517
  303.512
  303.509
  303.505
  303.502
  303.527
)
;

boundaryField
{
  floor
  {
    type wallHeatTransfer;
    Tinf uniform 305.2;
    alphaWall uniform 0.24;
    value nonuniform List<scalar> 36
(
  303.785
  303.638
  303.583
  303.567
  303.532
  303.471
  303.469
  303.478
  303.478
  303.482
  303.51
  303.551
  303.583
  303.571
  303.54
  303.473
  303.375
  303.346
  303.387
  303.387
  303.302
  303.296
  303.47
  303.519
  303.528
  303.56
  303.785
  303.756
  303.744
  303.786
  303.638
  303.786
  303.597
  303.711
  303.592
  303.659
)
;
  }
  ceiling
  {
    type wallHeatTransfer;
    Tinf uniform 303.2;
    alphaWall uniform 0.24;
    value nonuniform List<scalar> 43
(
  302.611
  302.57
  302.567
  303.143
  303.405
  303.532
  303.583
  303.609
  303.622
  303.626
  303.627
  303.628
  303.628
  303.627
  303.626
  303.624
  303.621
  303.618
  303.613
  303.607
  303.601
  303.594
  303.587
  303.58
  303.574
  303.567
  303.56
  303.552
  303.542
  303.531
  303.519
  303.509
  303.499
  303.492
  303.488
  303.485
  303.482
  303.477
  303.474
  303.494
  305.33
  305.06
  302.048
)
;
  }
  sWall
  {
    type wallHeatTransfer;
    Tinf uniform 315.2;
    alphaWall uniform 0.36;
    value uniform 303.832;
  }
  nWall
  {
    type wallHeatTransfer;
    Tinf uniform 307.2;
    alphaWall uniform 0.36;
    value nonuniform List<scalar> 6
(
  303.983
  303.915
  303.878
  303.975
  303.981
  304.055
)
;
  }
  sideWalls
  {
    type empty;
  }
  glass1
  {
    type wallHeatTransfer;
    Tinf uniform 315.2;
    alphaWall uniform 4.3;
    value nonuniform List<scalar> 9
(
  312.47
  311.586
  311.021
  310.596
  310.273
  310.018
  309.797
  309.833
  310.03
)
;
  }
  glass2
  {
    type wallHeatTransfer;
    Tinf uniform 307.2;
    alphaWall uniform 4.3;
    value nonuniform List<scalar> 2
(
  305.881
  305.869
)
;
  }
  sun
  {
    type wallHeatTransfer;
    Tinf uniform 305.2;
    alphaWall uniform 0.24;
    value nonuniform List<scalar> 14
(
  304.097
  303.831
  303.833
  303.829
  303.825
  303.822
  303.819
  303.816
  303.813
  303.81
  303.807
  303.803
  303.798
  303.792
)
;
  }
  Table_master
  {
    type zeroGradient;
  }
  Table_slave
  {
    type zeroGradient;
  }
  inlet
  {
    type fixedValue;
    value uniform 292.15;
  }
  outlet
  {
    type zeroGradient;
  }
} 	// ************************************************************************* //

