/*--------------------------------*- C++ -*----------------------------------*\
  =========                 |
  \\      /  F ield         | OpenFOAM: The Open Source CFD Toolbox
   \\    /   O peration     | Website:  https://openfoam.org
    \\  /    A nd           | Version:  6
     \\/     M anipulation  |
\*---------------------------------------------------------------------------*/
FoamFile
{
    version     2.0;
    format      ascii;
    class       volScalarField;
    location    "2300";
    object      k;
}
// * * * * * * * * * * * * * * * * * * * * * * * * * * * * * * * * * * * * * //

dimensions      [0 2 -2 0 0 0 0];

internalField   nonuniform List<scalar> 
458
(
0.0013029
0.00148243
0.00133242
0.00124627
0.0011705
0.00114209
0.00111668
0.00108784
0.00106475
0.0010535
0.0010548
0.00106702
0.00108949
0.00112452
0.00116815
0.000278743
0.000307529
0.000270258
0.000232424
0.000214059
0.000209222
0.000214005
0.000221818
0.000229002
0.000232799
0.000228915
0.000220997
0.0002173
0.000221822
0.000244351
0.000280481
0.000392244
0.000285826
0.00302887
0.00614012
0.00458844
0.00408786
0.00313535
0.00249651
0.00220316
0.00201846
0.00190722
0.00184696
0.00182043
0.00181376
0.00181024
0.00177478
0.00162933
0.00141848
0.00128166
0.000717296
0.000523569
0.00097807
0.000691124
0.000566403
0.000535182
0.000535825
0.000591091
0.000651718
0.000697454
0.000723528
0.000731382
0.000734162
0.000748326
0.000804912
0.00093924
0.00111819
0.00181157
0.000739295
0.00367745
0.0127322
0.011581
0.0114961
0.00845495
0.00565737
0.00378423
0.00293611
0.00259128
0.00246384
0.0024256
0.00242764
0.00244312
0.00243501
0.00234686
0.00215249
0.00181608
0.00140465
0.000852382
0.00111959
0.000705055
0.000509337
0.000405459
0.000310654
0.000342769
0.00038384
0.000433154
0.000496153
0.000582258
0.000706274
0.000897394
0.00121259
0.00175401
0.0022561
0.00343516
0.00134959
0.00833855
0.00918144
0.00921633
0.0100627
0.0106025
0.0102287
0.00714487
0.00417828
0.00322397
0.00298132
0.00295821
0.00301005
0.0030878
0.00314717
0.00311534
0.002923
0.00253415
0.00195224
0.00143358
0.00127007
0.00123499
0.00106421
0.000994454
0.000969948
0.000997177
0.00101344
0.0010333
0.00106078
0.00110318
0.00116896
0.00126961
0.00142308
0.00166141
0.0020401
0.00228868
0.00249004
0.00230449
0.0197233
0.0150829
0.0114903
0.00988271
0.009729
0.00979436
0.00856178
0.00573543
0.00383745
0.00338414
0.00340504
0.00356196
0.00376264
0.00396731
0.00411864
0.00415093
0.00401515
0.00367189
0.00314267
0.00261189
0.00231716
0.00221564
0.00219749
0.00220497
0.00220028
0.00218696
0.0021733
0.00216367
0.00216466
0.00218434
0.00223247
0.00232161
0.00246765
0.00268505
0.00298436
0.00336567
0.0037508
0.0036927
0.0036652
0.00311077
0.0262207
0.0211452
0.014149
0.010424
0.0093432
0.00919932
0.00829538
0.00623517
0.00427186
0.003633
0.00369326
0.00397143
0.00430195
0.00464386
0.00495562
0.00517512
0.00523622
0.00507583
0.00468445
0.00422009
0.00386941
0.00365826
0.00354777
0.00348293
0.00343152
0.00338233
0.00333502
0.00329138
0.00325594
0.00323566
0.00323995
0.00328233
0.00338522
0.00358787
0.00395354
0.00457931
0.00559551
0.00695939
0.00829655
0.00471891
0.0335575
0.0314953
0.0181956
0.0110567
0.00898563
0.00866359
0.00784184
0.00611573
0.00451772
0.00383728
0.00393401
0.00434362
0.00480037
0.00525748
0.0057018
0.00609157
0.00635553
0.00640975
0.00622256
0.00589652
0.0055756
0.00532581
0.00514714
0.00501946
0.00491821
0.00482641
0.00473644
0.00464598
0.00455676
0.00447386
0.00440551
0.00436427
0.00437042
0.00445726
0.00467984
0.00514525
0.00611292
0.00828653
0.0133777
0.006541
0.0436602
0.0518974
0.0334508
0.0115794
0.00877524
0.00849214
0.0076404
0.00609767
0.00485499
0.00438096
0.00456958
0.00509999
0.00567391
0.00620219
0.00669248
0.00715308
0.00754967
0.00780115
0.00783403
0.0076943
0.00748261
0.00727152
0.00708969
0.00694045
0.00681227
0.00669163
0.00656969
0.00644239
0.00630966
0.00617497
0.00604528
0.00593197
0.0058531
0.00583641
0.005925
0.00619729
0.00688915
0.00897732
0.0162919
0.00856363
0.0609299
0.0956803
0.136954
0.0282315
0.0100571
0.00944011
0.00839638
0.00696076
0.00616654
0.0061069
0.00661554
0.00735562
0.0080411
0.00857839
0.00899177
0.00933965
0.00965158
0.00990063
0.0100364
0.0100493
0.00997494
0.00985875
0.00973093
0.00960578
0.00948242
0.00935417
0.00921666
0.00906845
0.00891062
0.00874659
0.00858249
0.00842815
0.0082987
0.0082158
0.008209
0.00832839
0.00873259
0.0101218
0.0153483
0.00820979
0.298984
0.14152
0.0236657
0.0147263
0.0128818
0.0114887
0.0110892
0.0114329
0.0122957
0.0132363
0.0140258
0.0145281
0.0147518
0.0147969
0.0147762
0.0147367
0.0146906
0.0146314
0.0145551
0.0144701
0.0143764
0.0142763
0.0141609
0.0140224
0.0138618
0.0136835
0.0134927
0.0132944
0.0130941
0.0128984
0.0127168
0.0125625
0.012452
0.0124035
0.012454
0.0127159
0.0123299
0.00514757
0.1184
0.0860252
0.0414441
0.0234118
0.0173675
0.0157942
0.0164758
0.0183818
0.0207101
0.0228105
0.0242608
0.0249267
0.0249502
0.0246049
0.0241171
0.0236349
0.0232187
0.0228798
0.0226127
0.0224012
0.0222367
0.0221083
0.02198
0.0218256
0.0216454
0.0214477
0.021242
0.0210365
0.0208378
0.0206526
0.0204879
0.0203517
0.0202471
0.020169
0.0201241
0.0201797
0.0173457
0.00717387
0.00127817
0.00379956
0.0386796
0.0316998
0.0241189
0.0184904
0.0146977
0.0121872
0.0105591
0.00959503
0.00913086
0.00901086
0.00907679
0.00920671
0.00931382
0.00935478
0.00933069
0.0092586
0.00915869
0.00904625
0.00893048
0.00881702
0.0087071
0.00860101
0.00850446
0.0084154
0.00832654
0.00823432
0.00813755
0.00803623
0.00793079
0.00782172
0.00770945
0.00759418
0.00747512
0.00734929
0.00721034
0.0070297
0.00635765
0.00485599
)
;

boundaryField
{
    floor
    {
        type            kqRWallFunction;
        value           nonuniform List<scalar> 
36
(
0.00116815
0.000278743
0.000307529
0.000270258
0.000232424
0.000214059
0.000209222
0.000214005
0.000221818
0.000229002
0.000232799
0.000228915
0.000220997
0.0002173
0.000221822
0.000244351
0.000280481
0.000392244
0.000285826
0.000285826
0.000739295
0.00134959
0.00230449
0.0036927
0.0036652
0.00311077
0.00116815
0.00141848
0.00128166
0.000717296
0.000278743
0.000717296
0.000523569
0.00140465
0.000852382
0.00143358
)
;
    }
    ceiling
    {
        type            kqRWallFunction;
        value           nonuniform List<scalar> 
43
(
0.00127817
0.00379956
0.0386796
0.0316998
0.0241189
0.0184904
0.0146977
0.0121872
0.0105591
0.00959503
0.00913086
0.00901086
0.00907679
0.00920671
0.00931382
0.00935478
0.00933069
0.0092586
0.00915869
0.00904625
0.00893048
0.00881702
0.0087071
0.00860101
0.00850446
0.0084154
0.00832654
0.00823432
0.00813755
0.00803623
0.00793079
0.00782172
0.00770945
0.00759418
0.00747512
0.00734929
0.00721034
0.0070297
0.00635765
0.00485599
0.0609299
0.0956803
0.1184
)
;
    }
    sWall
    {
        type            kqRWallFunction;
        value           uniform 0.00127817;
    }
    nWall
    {
        type            kqRWallFunction;
        value           nonuniform List<scalar> 6(0.00311077 0.00471891 0.006541 0.00514757 0.00717387 0.00485599);
    }
    sideWalls
    {
        type            empty;
    }
    glass1
    {
        type            kqRWallFunction;
        value           nonuniform List<scalar> 9(0.0013029 0.00302887 0.00367745 0.00833855 0.0197233 0.0262207 0.0335575 0.0436602 0.0609299);
    }
    glass2
    {
        type            kqRWallFunction;
        value           nonuniform List<scalar> 2(0.00856363 0.00820979);
    }
    sun
    {
        type            kqRWallFunction;
        value           nonuniform List<scalar> 
14
(
0.0013029
0.00148243
0.00133242
0.00124627
0.0011705
0.00114209
0.00111668
0.00108784
0.00106475
0.0010535
0.0010548
0.00106702
0.00108949
0.00112452
)
;
    }
    Table_master
    {
        type            kqRWallFunction;
        value           nonuniform List<scalar> 9(0.000310654 0.000342769 0.00038384 0.000433154 0.000496153 0.000582258 0.000706274 0.000897394 0.00121259);
    }
    Table_slave
    {
        type            kqRWallFunction;
        value           nonuniform List<scalar> 9(0.000997177 0.00101344 0.0010333 0.00106078 0.00110318 0.00116896 0.00126961 0.00142308 0.00166141);
    }
    inlet
    {
        type            turbulentIntensityKineticEnergyInlet;
        intensity       0.05;
        value           uniform 0.298984;
    }
    outlet
    {
        type            zeroGradient;
    }
}


// ************************************************************************* //
