/*--------------------------------*- C++ -*----------------------------------*\
  =========                 |
  \\      /  F ield         | OpenFOAM: The Open Source CFD Toolbox
   \\    /   O peration     | Website:  https://openfoam.org
    \\  /    A nd           | Version:  6
     \\/     M anipulation  |
\*---------------------------------------------------------------------------*/
FoamFile
{
    version     2.0;
    format      ascii;
    class       volScalarField;
    location    "2300";
    object      nut;
}
// * * * * * * * * * * * * * * * * * * * * * * * * * * * * * * * * * * * * * //

dimensions      [0 2 -1 0 0 0 0];

internalField   nonuniform List<scalar> 
458
(
0.000810549
0.000864588
0.000819686
0.000792747
0.000768266
0.000758887
0.000750396
0.000740641
0.000732736
0.000728855
0.000729303
0.000733516
0.000741198
0.000753024
0.000767495
0.000374971
0.000393853
0.000369208
0.000342381
0.000328573
0.000324839
0.000328532
0.000334479
0.000339854
0.00034266
0.000339792
0.000333859
0.000331049
0.000334469
0.000351035
0.000376087
0.000444746
0.000379674
0.00123582
0.00336729
0.00339976
0.00343912
0.00336111
0.00336928
0.00348908
0.00362346
0.00359806
0.00345352
0.00325753
0.00301923
0.0027052
0.0022438
0.00154738
0.000845753
0.000803936
0.000601446
0.000513904
0.00150184
0.00135099
0.00116466
0.0010663
0.00103262
0.00109346
0.00116423
0.00121158
0.00122674
0.00120257
0.00116027
0.00113054
0.00116773
0.00137381
0.0013956
0.00166349
0.000610607
0.00136166
0.00447335
0.00507524
0.00555185
0.00513174
0.0045573
0.0043388
0.00475899
0.00514416
0.00518398
0.00503538
0.00481706
0.0045418
0.00415705
0.00358034
0.0027992
0.0018183
0.000841635
0.000655692
0.00151734
0.00111479
0.000768695
0.000553629
0.0003958
0.000415757
0.000439961
0.00046737
0.000500204
0.000541871
0.000596794
0.000672713
0.000781982
0.00183653
0.00201191
0.00236186
0.000825024
0.00205078
0.002713
0.00313274
0.00390447
0.00461985
0.00502118
0.00489337
0.00495956
0.00563432
0.0060525
0.00610498
0.00601742
0.00586819
0.00561935
0.00516277
0.00438138
0.00322285
0.00184154
0.000850289
0.00180913
0.00196624
0.00152567
0.00116993
0.000901271
0.000709161
0.000714918
0.000721891
0.000731426
0.000745899
0.000767816
0.000800191
0.000847176
0.000915373
0.00211216
0.0020333
0.00171528
0.00107811
0.00315375
0.00305631
0.00289151
0.00312468
0.00378734
0.00453942
0.00488463
0.00487653
0.00553453
0.00631423
0.00664881
0.00677615
0.0068624
0.00692258
0.00690851
0.00676561
0.00646411
0.00599818
0.00544167
0.00508426
0.00473226
0.00449227
0.00435159
0.00424454
0.00411337
0.00401709
0.00391128
0.00379212
0.00366171
0.00352433
0.00338607
0.0032548
0.0031382
0.00303484
0.00277737
0.00246267
0.00203704
0.00136479
0.00135972
0.0012527
0.00363629
0.00369554
0.00320444
0.00303904
0.00347973
0.00423337
0.00472385
0.00478522
0.0052213
0.00610102
0.00664427
0.00694631
0.00722158
0.00750339
0.00774928
0.00790663
0.00793441
0.0078006
0.00750306
0.00713626
0.00680643
0.00655845
0.00638546
0.0062436
0.00610686
0.00596987
0.00582764
0.00567873
0.00552338
0.00536256
0.0051974
0.00502934
0.00486169
0.00470107
0.0045558
0.0044625
0.00444716
0.00445315
0.00417081
0.00154291
0.0041137
0.00434648
0.00367768
0.00309256
0.00341397
0.00417257
0.00468909
0.00476751
0.00489699
0.00552368
0.00619212
0.00658151
0.00697511
0.00741777
0.00785762
0.00823037
0.00848104
0.0085654
0.00846962
0.00825202
0.00800311
0.00777598
0.00757984
0.00740556
0.00724084
0.00707696
0.00690907
0.00673461
0.00655292
0.00636491
0.00617278
0.00598047
0.00579546
0.00563067
0.0055032
0.00542769
0.00541021
0.00554815
0.00610954
0.00181654
0.00469226
0.00528672
0.00528322
0.00320201
0.0036252
0.00441137
0.00491518
0.00495417
0.00498373
0.00527632
0.00567177
0.00601975
0.00643655
0.00692805
0.00745533
0.00796224
0.00838352
0.00866031
0.00875797
0.00870965
0.00857999
0.00841931
0.00825265
0.0080886
0.00792643
0.00776172
0.00758965
0.00740643
0.00720994
0.00699981
0.00677747
0.0065467
0.00631524
0.00609682
0.00591663
0.00581396
0.00582514
0.00599055
0.00684658
0.00207854
0.00554314
0.00694629
0.011529
0.00412943
0.00363162
0.00489937
0.005447
0.00539823
0.00534962
0.00548295
0.00571641
0.00602
0.00639804
0.00681353
0.00724558
0.00767673
0.00807358
0.00839351
0.00860071
0.00869272
0.00869535
0.00863855
0.00854782
0.00843855
0.00831769
0.00818614
0.00804171
0.00788185
0.00770465
0.00750917
0.00729566
0.00706609
0.0068251
0.00658149
0.00635042
0.00615879
0.00606054
0.00615467
0.00664326
0.00203517
0.0204847
0.0115651
0.00408877
0.00533406
0.006193
0.00617002
0.00626242
0.0065068
0.00679211
0.00712121
0.00746488
0.00777798
0.00804222
0.00826312
0.0084475
0.00860457
0.00873232
0.00882368
0.00887527
0.00888613
0.00886583
0.00882164
0.0087567
0.00867183
0.00856764
0.00844473
0.00830336
0.00814339
0.00796446
0.00776632
0.00754954
0.00731637
0.00707171
0.00682289
0.00657646
0.00631157
0.00566173
0.00161128
0.00772736
0.0099431
0.0069878
0.00549847
0.00523561
0.00550234
0.00608067
0.00679979
0.00753241
0.00816349
0.00863047
0.00891581
0.0090521
0.0090981
0.00910299
0.00909834
0.00909662
0.00909928
0.00910417
0.00910853
0.00911058
0.00910757
0.00908825
0.00904664
0.00898525
0.00890724
0.00881509
0.00871012
0.00859253
0.00846177
0.00831675
0.00815585
0.00797604
0.00777106
0.00752401
0.00716861
0.00613715
0.00190208
0.000802829
0.00138441
0.00441671
0.00399847
0.00348783
0.00305391
0.00272277
0.00247936
0.00230781
0.00219994
0.00214607
0.00213191
0.00213969
0.00215493
0.00216742
0.00217216
0.00216935
0.00216095
0.00214925
0.00213601
0.00212229
0.00210877
0.00209558
0.00208277
0.00207105
0.00206018
0.00204927
0.00203789
0.00202588
0.00201323
0.00199997
0.00198617
0.00197186
0.00195707
0.00194167
0.00192525
0.00190697
0.00188294
0.00179067
0.00156499
)
;

boundaryField
{
    floor
    {
        type            nutkWallFunction;
        Cmu             0.09;
        kappa           0.41;
        E               9.8;
        value           nonuniform List<scalar> 
36
(
9.29607e-05
4.33958e-05
4.58938e-05
4.26335e-05
3.90526e-05
3.71952e-05
3.66911e-05
3.71895e-05
3.79905e-05
3.87129e-05
3.90894e-05
3.8704e-05
3.79066e-05
3.75286e-05
3.799e-05
4.02135e-05
4.35502e-05
5.25552e-05
4.402e-05
4.40199e-05
7.36412e-05
9.99142e-05
0.000129928
0.000162969
0.000162389
0.000150146
9.29607e-05
0.000102417
9.7376e-05
7.24938e-05
4.33958e-05
7.24938e-05
6.14405e-05
0.00010192
7.92411e-05
0.000102956
)
;
    }
    ceiling
    {
        type            nutkWallFunction;
        Cmu             0.09;
        kappa           0.41;
        E               9.8;
        value           nonuniform List<scalar> 
43
(
9.72445e-05
0.00016538
0.000486404
0.000443978
0.000391585
0.000346459
0.00031159
0.000285683
0.000267266
0.000255608
0.000249759
0.000248212
0.000249046
0.000250691
0.000252036
0.000252543
0.000252231
0.000251314
0.000250039
0.000248597
0.000247103
0.000245628
0.000244189
0.000242792
0.000241511
0.000240323
0.00023913
0.000237886
0.000236572
0.000235188
0.000233737
0.000232225
0.000230658
0.000229035
0.000227345
0.000225542
0.000223532
0.000220887
0.000210714
0.00018559
0.00059815
0.000734824
0.000810076
)
;
    }
    sWall
    {
        type            nutkWallFunction;
        Cmu             0.09;
        kappa           0.41;
        E               9.8;
        value           uniform 9.72439e-05;
    }
    nWall
    {
        type            nutkWallFunction;
        Cmu             0.09;
        kappa           0.41;
        E               9.8;
        value           nonuniform List<scalar> 6(0.000150149 0.000183097 0.000213541 0.000190781 0.000222993 0.000185599);
    }
    sideWalls
    {
        type            empty;
    }
    glass1
    {
        type            nutkWallFunction;
        Cmu             0.09;
        kappa           0.41;
        E               9.8;
        value           nonuniform List<scalar> 9(9.81809e-05 0.000148323 0.000162755 0.00023944 0.000356908 0.000406842 0.00045558 0.000513894 0.000598398);
    }
    glass2
    {
        type            nutkWallFunction;
        Cmu             0.09;
        kappa           0.41;
        E               9.8;
        value           nonuniform List<scalar> 2(0.000242188 0.000237468);
    }
    sun
    {
        type            nutkWallFunction;
        Cmu             0.09;
        kappa           0.41;
        E               9.8;
        value           nonuniform List<scalar> 
14
(
9.81775e-05
0.000104679
9.92795e-05
9.60238e-05
9.30546e-05
9.19138e-05
9.088e-05
8.96904e-05
8.87251e-05
8.82508e-05
8.83058e-05
8.88207e-05
8.97588e-05
9.12004e-05
)
;
    }
    Table_master
    {
        type            nutkWallFunction;
        Cmu             0.09;
        kappa           0.41;
        E               9.8;
        value           nonuniform List<scalar> 9(4.61379e-05 4.87588e-05 5.19165e-05 5.54665e-05 5.96857e-05 6.49915e-05 7.19103e-05 8.13494e-05 9.47168e-05);
    }
    Table_slave
    {
        type            nutkWallFunction;
        Cmu             0.09;
        kappa           0.41;
        E               9.8;
        value           nonuniform List<scalar> 9(8.58285e-05 8.65348e-05 8.73891e-05 8.8556e-05 9.03235e-05 9.29925e-05 9.69185e-05 0.000102583 0.000110741);
    }
    inlet
    {
        type            calculated;
        value           uniform 0.0204847;
    }
    outlet
    {
        type            calculated;
        value           nonuniform List<scalar> 2(0.000802829 0.00138441);
    }
}


// ************************************************************************* //
