/*--------------------------------*- C++ -*----------------------------------*\
  =========                 |
  \\      /  F ield         | OpenFOAM: The Open Source CFD Toolbox
   \\    /   O peration     | Website:  https://openfoam.org
    \\  /    A nd           | Version:  6
     \\/     M anipulation  |
\*---------------------------------------------------------------------------*/
FoamFile
{
    version     2.0;
    format      ascii;
    class       surfaceScalarField;
    location    "2300";
    object      phi;
}
// * * * * * * * * * * * * * * * * * * * * * * * * * * * * * * * * * * * * * //

dimensions      [1 0 -1 0 0 0 0];

internalField   nonuniform List<scalar> 
850
(
-0.00244014
0.00247806
-0.00312531
0.000685373
-0.00333806
0.000212943
-0.00345327
0.000115415
-0.00346546
1.23905e-05
-0.00337423
-9.10227e-05
-0.00320531
-0.000168711
-0.00300158
-0.000203528
-0.00279024
-0.000211132
-0.00257255
-0.000217485
-0.00233378
-0.000238552
-0.00205
-0.00028357
-0.00168033
-0.000369458
-0.00110988
-0.000570231
-0.00111222
0.000190935
-0.00019244
0.000234225
-4.31283e-05
0.000299639
-6.52532e-05
0.00036014
-6.03429e-05
0.000421289
-6.09948e-05
0.000485918
-6.44776e-05
0.000541979
-5.59124e-05
0.000586788
-4.46662e-05
0.000622784
-3.58561e-05
0.00065075
-2.78314e-05
0.000664014
-1.31314e-05
0.000659477
4.66435e-06
0.000635776
2.38247e-05
0.000589316
4.65791e-05
0.000489425
0.000100007
0.000305633
0.000183906
-3.99467e-05
0.000345693
-4.1818e-05
-0.00173964
0.00431709
-0.0023199
0.00126583
-0.00247583
0.000369088
-0.00275306
0.000392863
-0.00297595
0.000235484
-0.0030287
-3.80577e-05
-0.00292132
-0.00027588
-0.00276335
-0.000361283
-0.00260762
-0.000366651
-0.00246108
-0.000363802
-0.00231701
-0.000382401
-0.00216127
-0.000439094
-0.00197285
-0.000557653
-0.00177857
-0.000764279
-0.00189576
-0.000994802
-0.000985272
-0.000915103
4.24044e-05
-0.00103238
2.9437e-05
-0.000108718
-8.85943e-05
-0.000138048
-1.3609e-05
-0.000198895
-4.22389e-06
-0.000228798
-3.02643e-05
-0.00024617
-4.34597e-05
-0.000238135
-7.23561e-05
-0.000236893
-5.7006e-05
-0.000243153
-3.8263e-05
-0.0002561
-2.27712e-05
-0.000277577
-6.22116e-06
-0.000303659
1.30768e-05
-0.000327804
2.8934e-05
-0.000344101
4.02415e-05
-0.000347334
4.99282e-05
-0.000297478
5.02658e-05
-0.000187696
7.42352e-05
4.661e-06
0.000153449
-4.32095e-05
0.000609355
0.00386319
0.000481032
0.00139438
9.26273e-05
0.000757727
-0.000715382
0.00120111
-0.0015959
0.00111622
-0.00219295
0.000559204
-0.00232868
-0.000139929
-0.00228413
-0.000405626
-0.00221359
-0.000436967
-0.00213726
-0.000439913
-0.00206327
-0.000456166
-0.00199171
-0.000510425
-0.00192227
-0.000626864
-0.00187493
-0.000811386
-0.00185671
-0.00101278
-0.00160909
-0.00116248
-0.00138698
-0.00125425
-0.00136913
-0.000849863
0.000751657
-0.00105444
0.000191174
-0.00112434
6.58691e-05
-0.00115972
5.30772e-06
-0.00115109
-5.19197e-05
-0.00122316
-0.00127988
-0.00131787
-0.00134036
-0.0013463
-0.00133294
-0.00130373
-0.0012632
-0.00121298
-0.00105346
-0.000109097
-0.000728569
-0.0002505
4.33602e-05
-0.000618312
-1.14747e-05
0.00596261
-0.00194478
0.0068904
0.000467001
0.00559847
0.00205001
0.00385825
0.00294164
0.00202451
0.00295024
0.00027702
0.00230693
-0.00101518
0.00115246
-0.00155176
0.000131169
-0.00167904
-0.000309468
-0.00170748
-0.000411242
-0.00171916
-0.000444264
-0.00174917
-0.000480178
-0.00182028
-0.000555522
-0.00195515
-0.000676281
-0.00215807
-0.000809622
-0.00240385
-0.000916457
-0.00268923
-0.000968611
-0.00319114
-0.00086697
-0.00295007
-0.000254626
-0.00229448
9.63191e-05
-0.00220928
0.000106232
-0.0022429
9.97609e-05
-0.00228896
5.16294e-05
-0.00234091
3.00163e-07
-0.00232743
-1.33561e-05
-0.00229832
-2.89867e-05
-0.0022544
-4.37991e-05
-0.00220116
-5.31128e-05
-0.00214042
-6.06091e-05
-0.00207124
-6.90582e-05
-0.00198933
-8.1784e-05
-0.00188396
-0.000105237
-0.00173068
-0.000153154
-0.00154734
-0.000292163
-0.00129355
-0.000504016
-0.00117414
-0.000737422
-0.00120277
0.00407756
-0.00591699
0.0058774
-0.00133254
0.00558071
0.00234698
0.00441938
0.00410323
0.00298435
0.00438549
0.00158806
0.00370342
0.000275854
0.00246485
-0.000650062
0.00105727
-0.0010413
8.19834e-05
-0.00117451
-0.000277791
-0.00123831
-0.000380233
-0.00130893
-0.000409318
-0.00142107
-0.000443145
-0.00158794
-0.000509172
-0.00180232
-0.000594993
-0.00204631
-0.000672211
-0.00231562
-0.000699052
-0.00259373
-0.000588592
-0.00253831
-0.000309776
-0.00236151
-8.02131e-05
-0.00225483
-1.64596e-07
-0.0021797
2.49102e-05
-0.00213621
8.42478e-06
-0.00211477
-2.08596e-05
-0.00208372
-4.41239e-05
-0.00204881
-6.36083e-05
-0.00201247
-7.98474e-05
-0.00197355
-9.17335e-05
-0.00193317
-0.000100697
-0.00189308
-0.00010885
-0.00185525
-0.000119318
-0.0018217
-0.000138487
-0.00179411
-0.000180431
-0.00181858
-0.000267384
-0.00191645
-0.000405828
-0.00205236
-0.000601183
-0.00238825
-0.000866549
-0.00174935
-0.000656098
-0.00122089
-0.000545777
-0.00125188
0.00226505
-0.00806486
0.00376331
-0.0028305
0.00387026
0.00224029
0.00319052
0.00478321
0.00231613
0.0052601
0.00147357
0.00454617
0.000724839
0.00321375
6.01926e-05
0.00172209
-0.000386838
0.000529225
-0.000593845
-7.05441e-05
-0.000683994
-0.000289833
-0.000762448
-0.000330611
-0.000872683
-0.000332658
-0.0010297
-0.000351903
-0.00122902
-0.000395424
-0.00145603
-0.000444941
-0.00169104
-0.000463769
-0.00187762
-0.000401744
-0.00192367
-0.00026345
-0.00187207
-0.000131532
-0.00180951
-6.24385e-05
-0.00174935
-3.4956e-05
-0.00170265
-3.79881e-05
-0.00166808
-5.51306e-05
-0.00163637
-7.55315e-05
-0.00160367
-9.60083e-05
-0.00156828
-0.000114931
-0.00152802
-0.000131694
-0.00148143
-0.000146977
-0.00142761
-0.000162366
-0.00136588
-0.000180729
-0.00129631
-0.000207743
-0.00122297
-0.000253462
-0.00116123
-0.0003288
-0.00112731
-0.000439419
-0.00114138
-0.000586789
-0.00126001
-0.000747585
-0.00106929
-0.000846478
-0.000706409
-0.000908311
-0.00197166
0.000664913
-0.00859909
0.00181987
-0.00398515
0.00219652
0.00186392
0.00149749
0.00548248
0.00107281
0.00568498
0.000820025
0.00479912
0.000671381
0.00336255
0.00048499
0.00190865
0.000235637
0.000778786
4.49321e-05
0.000120402
-6.75025e-05
-0.000177124
-0.000144223
-0.000253609
-0.000229907
-0.000246695
-0.00034934
-0.000232194
-0.000507871
-0.00023662
-0.000695721
-0.000256815
-0.000888468
-0.000270742
-0.00104158
-0.000248343
-0.00111824
-0.000186498
-0.00112774
-0.000121739
-0.00110861
-8.12705e-05
-0.0010793
-6.39645e-05
-0.00105124
-6.57365e-05
-0.00102713
-7.89262e-05
-0.0010051
-9.72565e-05
-0.000983029
-0.00011776
-0.000958817
-0.000138826
-0.000930197
-0.000159995
-0.000895069
-0.000181785
-0.000851554
-0.00020556
-0.000798124
-0.000233835
-0.00073443
-0.000271113
-0.000663087
-0.000324478
-0.00058944
-0.000402118
-0.00051941
-0.000509117
-0.000464085
-0.000641779
-0.000425924
-0.000785408
-0.000320226
-0.000951834
-3.04848e-05
-0.00119771
-0.00201667
-0.00148471
-0.00697278
-0.000622924
-0.00484663
0.000193551
0.00104773
-0.000567178
0.00624345
-0.000324924
0.00544292
0.000106598
0.00436777
0.000530506
0.0029388
0.000763172
0.00167617
0.000786398
0.000755785
0.000708892
0.000198177
0.000620115
-8.80366e-05
0.00055364
-0.000186804
0.000496736
-0.000189459
0.00042531
-0.000160446
0.000324126
-0.00013512
0.000192829
-0.000125208
4.79854e-05
-0.000125588
-7.8879e-05
-0.000121166
-0.000161408
-0.000103652
-0.000200059
-8.27673e-05
-0.000211795
-6.92113e-05
-0.000209498
-6.59343e-05
-0.000202377
-7.25276e-05
-0.000194729
-8.62432e-05
-0.000187722
-0.000103931
-0.000181324
-0.000123823
-0.000174503
-0.000145312
-0.000165651
-0.000168512
-0.000152951
-0.000194149
-0.000134547
-0.000223626
-0.000108755
-0.00025929
-7.45957e-05
-0.000304935
-3.24394e-05
-0.000366296
1.66372e-05
-0.000450855
7.41513e-05
-0.00056629
0.000152444
-0.000719728
0.000291325
-0.000923943
0.000541718
-0.00120188
0.000847818
-0.00150346
-0.00126343
-0.00685502
-0.0117252
-0.00688512
-0.003792
-0.00337209
0.00273065
-0.00160856
0.00367957
-0.000380872
0.00314026
0.000559929
0.00199819
0.0011118
0.00112452
0.00134503
0.00052283
0.00139795
0.000145598
0.00138717
-7.68767e-05
0.00136442
-0.00016364
0.00133961
-0.000164233
0.00130421
-0.000124642
0.00124903
-7.95483e-05
0.00117215
-4.79567e-05
0.00108216
-3.52315e-05
0.000994389
-3.30247e-05
0.000924277
-3.31749e-05
0.000876084
-3.42109e-05
0.000845093
-3.78571e-05
0.000825767
-4.62456e-05
0.000812471
-5.88693e-05
0.000801515
-7.49243e-05
0.000790372
-9.24263e-05
0.000777606
-0.000110697
0.000763179
-0.000130525
0.000747802
-0.000152777
0.000732487
-0.000178478
0.00071832
-0.000209104
0.000706228
-0.000246844
0.000696613
-0.000294966
0.000688872
-0.000358202
0.000681303
-0.000442933
0.000672352
-0.000556987
0.000663409
-0.000710431
0.000666442
-0.000926622
0.000734617
-0.0012697
0.000974241
-0.00174274
-0.000399895
-0.00710148
0.00227888
-0.00523157
0.000861008
-0.00229205
0.000740271
-0.000111552
0.000959973
0.00114197
0.000744932
0.00180472
0.000462096
0.00214572
0.000182225
0.00229955
-7.75456e-06
0.00235109
-0.00012791
0.00234713
-0.00015916
0.0023185
-0.00013509
0.0022813
-8.69346e-05
0.00224075
-3.85144e-05
0.00219784
-4.57057e-06
0.00215171
1.13528e-05
0.00210344
1.56923e-05
0.00205707
1.36349e-05
0.00201556
7.7198e-06
0.00197951
-1.387e-06
0.00194758
-1.39014e-05
0.00191736
-2.82416e-05
0.00188713
-4.42905e-05
0.00185483
-5.97219e-05
0.00181915
-7.46229e-05
0.00177991
-9.08969e-05
0.00173716
-0.000109639
0.00169095
-0.000131891
0.00164121
-0.00015898
0.00158745
-0.000192706
0.00152839
-0.00023554
0.00146132
-0.000290761
0.00138109
-0.000362333
0.0012787
-0.000454239
0.00113786
-0.000569225
0.000920206
-0.000708608
0.000521025
-0.000870168
-0.000261131
-0.000960238
-0.000685666
-0.000324179
0.00257245
0.00108206
-0.000544842
0.00171414
0.000108553
0.0024299
0.000244615
0.00306398
0.000111339
0.00348073
4.5895e-05
0.00366169
1.86794e-06
0.00368014
-2.55598e-05
0.00357826
-2.53733e-05
0.00343772
-1.79728e-05
0.00330863
-5.3697e-06
0.00321391
8.39778e-06
0.00315633
1.96552e-05
0.00312546
2.68681e-05
0.00310563
3.17355e-05
0.0030887
3.31517e-05
0.00307076
3.20851e-05
0.0030499
2.90736e-05
0.00302474
2.4254e-05
0.00299266
1.86542e-05
0.00295332
1.15596e-05
0.00290609
3.38882e-06
0.00285194
-5.13098e-06
0.00279211
-1.43634e-05
0.00272655
-2.49137e-05
0.00265447
-3.71382e-05
0.00257459
-5.15988e-05
0.00248506
-6.90541e-05
0.00238328
-9.05216e-05
0.00226546
-0.000117335
0.00212628
-0.000151192
0.00195852
-0.000194189
0.00175339
-0.000248731
0.00150212
-0.000317585
0.00120147
-0.000407595
0.000868815
-0.000537153
0.000467262
-0.000558336
-0.000243199
0.00334413
0.00344421
0.00595069
0.00533602
0.00536844
0.00553086
0.00555432
0.00550768
0.00541372
0.00529084
0.00516848
0.00505526
0.00495707
0.00487521
0.00480691
0.00474773
0.00469494
0.00464481
0.00459467
0.00454245
0.00448625
0.00442524
0.00435788
0.00428307
0.00420045
0.00410929
0.00400826
0.00389563
0.00376913
0.0036257
0.00346131
0.00327057
0.00304641
0.00277967
0.00245879
0.00206946
0.00159055
0.000982548
0.000352123
)
;

boundaryField
{
    floor
    {
        type            calculated;
        value           nonuniform List<scalar> 
36
(
0
0
0
0
0
0
0
0
0
0
0
0
0
0
0
0
0
0
0
1.99472e-06
6.17572e-06
1.17853e-05
1.74583e-05
1.7538e-05
1.76588e-05
1.89591e-05
2.56264e-06
4.85337e-06
4.94191e-06
5.29363e-06
1.67132e-06
7.8654e-06
5.05757e-06
1.18303e-05
9.8232e-06
1.3818e-05
)
;
    }
    ceiling
    {
        type            calculated;
        value           nonuniform List<scalar> 
43
(
0.000309812
0.000200182
6.69992e-05
7.07842e-05
7.70263e-05
8.30729e-05
8.87895e-05
9.34831e-05
9.67818e-05
9.82437e-05
9.78661e-05
9.60872e-05
9.36189e-05
9.10271e-05
8.86853e-05
8.67515e-05
8.51908e-05
8.39176e-05
8.28408e-05
8.18919e-05
8.10272e-05
8.02167e-05
7.94495e-05
7.87188e-05
7.79933e-05
7.72754e-05
7.65907e-05
7.59504e-05
7.53567e-05
7.48073e-05
7.42981e-05
7.38241e-05
7.33793e-05
7.29556e-05
7.2543e-05
7.21286e-05
7.16865e-05
7.12201e-05
7.24441e-05
7.79653e-05
2.95277e-05
2.38243e-05
3.11152e-05
)
;
    }
    sWall
    {
        type            calculated;
        value           uniform 5.27276e-05;
    }
    nWall
    {
        type            calculated;
        value           nonuniform List<scalar> 6(1.23882e-05 1.3716e-05 1.48849e-05 2.49732e-05 2.5129e-05 3.13021e-05);
    }
    sideWalls
    {
        type            empty;
        value           nonuniform 0();
    }
    glass1
    {
        type            calculated;
        value           nonuniform List<scalar> 9(-3.77335e-05 -9.92005e-05 -0.000155259 -0.000154164 -0.000105058 -0.00011689 -0.000130392 -0.000141296 -0.000146977);
    }
    glass2
    {
        type            calculated;
        value           nonuniform List<scalar> 2(9.49295e-05 0.000111067);
    }
    sun
    {
        type            calculated;
        value           uniform 0;
    }
    Table_master
    {
        type            calculated;
        value           nonuniform List<scalar> 9(-1.49607e-07 -1.49529e-07 -1.4945e-07 -1.49373e-07 -1.49298e-07 -1.49221e-07 -1.49137e-07 -1.49043e-07 -1.48915e-07);
    }
    Table_slave
    {
        type            calculated;
        value           nonuniform List<scalar> 9(1.47995e-07 1.47987e-07 1.47981e-07 1.47979e-07 1.4798e-07 1.47982e-07 1.47986e-07 1.47993e-07 1.47986e-07);
    }
    inlet
    {
        type            calculated;
        value           uniform 0.00103106;
    }
    outlet
    {
        type            calculated;
        value           nonuniform List<scalar> 2(-0.00370513 -0.000298856);
    }
}


// ************************************************************************* //
