/*--------------------------------*- C++ -*----------------------------------*\
  =========                 |
  \\      /  F ield         | OpenFOAM: The Open Source CFD Toolbox
   \\    /   O peration     | Website:  https://openfoam.org
    \\  /    A nd           | Version:  6
     \\/     M anipulation  |
\*---------------------------------------------------------------------------*/
FoamFile
{
    version     2.0;
    format      ascii;
    class       surfaceScalarField;
    location    "1600";
    object      phi;
}
// * * * * * * * * * * * * * * * * * * * * * * * * * * * * * * * * * * * * * //

dimensions      [1 0 -1 0 0 0 0];

internalField   nonuniform List<scalar> 
850
(
-0.00234907
0.00240799
-0.00252091
0.000171877
-0.00278785
0.000266981
-0.0030966
0.000308788
-0.00338586
0.000289294
-0.00362876
0.000242943
-0.00380743
0.000178712
-0.00390538
9.79839e-05
-0.00390528
-4.84987e-08
-0.00378638
-0.000118854
-0.0035272
-0.000259126
-0.00310971
-0.00041744
-0.00249959
-0.000610063
-0.00156589
-0.000933645
-0.00156457
-0.000357987
0.000360515
-0.000250105
-0.000107863
-0.00014278
-0.000107316
-0.000195503
5.27258e-05
-0.000376818
0.00018129
-0.000572192
0.00019532
-0.000707627
0.000135372
-0.000793523
8.58435e-05
-0.000840871
4.73143e-05
-0.000862074
2.11909e-05
-0.000864777
2.71705e-06
-0.000858481
-6.24754e-06
-0.000874921
1.65281e-05
-0.000863158
-1.16401e-05
-0.000480359
-0.000382654
7.54511e-05
-0.000555667
0.000498117
-0.000422572
0.000500902
-0.0017196
0.00428055
-0.00225343
0.00070575
-0.0026838
0.000697388
-0.00304344
0.000668473
-0.00335896
0.000604862
-0.00362425
0.000508277
-0.00382847
0.000382976
-0.00395916
0.000228735
-0.00400326
4.41037e-05
-0.00395047
-0.000171586
-0.00379141
-0.000418125
-0.00351279
-0.000695986
-0.00310473
-0.00101805
-0.00264629
-0.00139202
-0.00255742
-0.00165335
-0.00103638
-0.00151857
0.000423606
-0.00145727
0.00043196
0.000276887
9.0318e-05
-0.000105235
0.000274271
-0.000372783
0.000160226
-0.000434715
0.000114648
-0.000462586
0.000209144
-0.000495534
0.000228237
-0.00049477
0.000134571
-0.000496493
8.75307e-05
-0.000498791
4.95818e-05
-0.000497607
1.9988e-05
-0.000492033
-2.85492e-06
-0.000478931
-1.93101e-05
-0.000463088
7.79652e-07
-0.000468185
-6.40261e-06
-0.000169452
-0.000681242
3.06055e-05
-0.000755579
-2.05062e-05
-0.000371352
0.000488454
-0.00128422
0.00579203
-0.00196033
0.00138191
-0.00243781
0.00117491
-0.00280322
0.00103392
-0.00311907
0.000920765
-0.00338865
0.000777907
-0.00360608
0.000600453
-0.00376273
0.000385448
-0.00384909
0.00013052
-0.00385838
-0.000162221
-0.00378981
-0.000486623
-0.00364985
-0.000835868
-0.00346501
-0.00120281
-0.00330005
-0.00155689
-0.00315134
-0.00180198
-0.00276614
-0.00190367
-0.00228151
-0.0019418
-0.00184271
-0.00110945
0.00120855
-0.00121378
0.000378613
-0.00117714
0.000123592
-0.00103645
-2.60392e-05
-0.00069495
-0.000132349
-0.000466569
-0.000331856
-0.000244185
-0.000194461
-0.000174329
-0.000177036
-0.000196184
-0.000195187
-0.00020127
0.00041487
-0.00129727
6.859e-05
-0.000409171
-0.000553503
0.000250833
-5.39837e-05
-0.000969716
0.00704951
-0.00168441
0.00209666
-0.0021082
0.00159875
-0.0024372
0.00136297
-0.00272012
0.00120373
-0.00296191
0.00101975
-0.00316236
0.00080096
-0.00331766
0.000540813
-0.00342075
0.000233672
-0.0034648
-0.000118104
-0.00345656
-0.000494785
-0.00342387
-0.000868479
-0.00340948
-0.0012171
-0.00345694
-0.00150933
-0.0035588
-0.00170002
-0.0036838
-0.00177856
-0.00390287
-0.00172262
-0.00447885
-0.00126662
-0.00399609
-0.000474309
-0.00305228
0.000264816
-0.00296981
0.000296237
-0.00298211
0.00013601
-0.00299346
-1.45596e-05
-0.00301475
-0.000110908
-0.0028743
-0.000140453
-0.00268628
-0.000188019
-0.00242487
-0.000261416
-0.00206874
-0.000356148
-0.0015954
-0.000473366
-0.000985005
-0.000610436
-0.000232508
-0.000752542
0.000613178
-0.000845728
0.00152278
-0.000909643
0.0013246
-0.00109899
0.00147107
-0.000555541
0.00144149
0.000280494
0.00139757
-0.00072708
0.00811547
-0.00143897
0.0028086
-0.00173149
0.00189133
-0.00199253
0.00162406
-0.00221184
0.0014231
-0.00238775
0.00119571
-0.00252696
0.000940232
-0.00263264
0.000646553
-0.00270138
0.000302477
-0.00272442
-9.49903e-05
-0.00271152
-0.000507617
-0.00270239
-0.000877527
-0.00273827
-0.00118113
-0.00284271
-0.0014048
-0.00300707
-0.00153556
-0.00322009
-0.00156543
-0.00349304
-0.00144954
-0.00368276
-0.00107678
-0.00360903
-0.000547899
-0.00322124
-0.000122845
-0.00292527
4.01236e-07
-0.00275815
-3.09672e-05
-0.00267106
-0.000101491
-0.00261261
-0.000169204
-0.00252048
-0.000232435
-0.00239145
-0.0003169
-0.00221523
-0.000437512
-0.00197253
-0.000598737
-0.00165003
-0.000795771
-0.00125205
-0.00100832
-0.000800898
-0.0012036
-0.000301627
-0.0013449
0.000201829
-0.00141298
0.000496677
-0.00139372
0.000998508
-0.00105725
0.0016884
-0.000409276
0.00293651
0.000149566
0.00282611
0.000120288
0.00213419
0.000702516
0.00218669
-0.000660161
0.00915909
-0.00132561
0.00347411
-0.00133549
0.00190127
-0.00148193
0.00177055
-0.0016289
0.00157013
-0.00171402
0.00128089
-0.00175366
0.00097994
-0.0017651
0.000658056
-0.00175138
0.000288829
-0.00170516
-0.000141137
-0.00164646
-0.000566237
-0.00161973
-0.000904178
-0.00165629
-0.00114448
-0.001765
-0.00129601
-0.00193456
-0.00136592
-0.00214818
-0.00135171
-0.00237301
-0.00122461
-0.00249824
-0.000951443
-0.0024527
-0.000593314
-0.00227464
-0.000300787
-0.00211376
-0.000160341
-0.00201615
-0.000128436
-0.00196986
-0.000147648
-0.00194991
-0.000189005
-0.00193282
-0.000249394
-0.00190757
-0.000342028
-0.00186512
-0.000479849
-0.00179412
-0.000669651
-0.00168762
-0.000902204
-0.00155177
-0.00114409
-0.00140434
-0.00135093
-0.00125301
-0.00149611
-0.00109761
-0.00156825
-0.000935174
-0.001556
-0.000566598
-0.00142564
0.000254869
-0.0012305
0.00134044
-0.000935733
0.00164873
-0.000187771
0.00120481
0.00114658
0.00343622
-0.000919317
0.0105018
-0.0011363
0.00369115
-0.000676699
0.00144174
-0.00071073
0.00180465
-0.000860887
0.00172036
-0.000874973
0.00129504
-0.000795534
0.000900573
-0.000681138
0.000543736
-0.000538467
0.000146239
-0.000395669
-0.000283852
-0.000295709
-0.000666114
-0.00026698
-0.000932823
-0.00031776
-0.00109362
-0.000441814
-0.00117187
-0.000623161
-0.00118449
-0.000837912
-0.00113687
-0.00104382
-0.00101861
-0.00117507
-0.000820098
-0.00119327
-0.000575017
-0.0011325
-0.000361451
-0.00106311
-0.000229624
-0.00102271
-0.000168728
-0.00101814
-0.000152102
-0.00104452
-0.000162501
-0.00109733
-0.00019647
-0.00117743
-0.00026183
-0.00128601
-0.000371181
-0.00142083
-0.000534772
-0.00157771
-0.000745255
-0.00175786
-0.000963854
-0.00197038
-0.0011383
-0.00220888
-0.00125746
-0.00244984
-0.00132709
-0.00265532
-0.00135028
-0.00274671
-0.00133395
-0.00263679
-0.00134003
-0.00209061
-0.00148145
-0.000629226
-0.00164871
0.000637846
-0.000120211
0.00412498
0.0015972
0.00937667
0.00200027
0.00328814
0.00170017
0.0017419
0.00124222
0.00226267
0.000858353
0.0021043
0.000743545
0.00140993
0.000816917
0.000827282
0.000976009
0.000384728
0.00117809
-5.57558e-05
0.00133651
-0.000442182
0.00138169
-0.000711209
0.00133161
-0.000882654
0.00121174
-0.000973666
0.0010396
-0.000999637
0.0008285
-0.000973302
0.000595712
-0.000903994
0.000372881
-0.000795692
0.000203755
-0.000650885
0.000115596
-0.000486771
9.21727e-05
-0.00033794
9.27657e-05
-0.000230128
8.79737e-05
-0.000163845
6.45448e-05
-0.000128581
1.6361e-05
-0.000114224
-6.44621e-05
-0.000115556
-0.000193199
-0.000133008
-0.000391209
-0.0001731
-0.000678947
-0.000246971
-0.00106416
-0.00035997
-0.00154261
-0.000485288
-0.00212157
-0.000559178
-0.00279647
-0.000582349
-0.00355052
-0.000572788
-0.00435305
-0.000547418
-0.00515602
-0.000530539
-0.00594516
-0.000550312
-0.0068051
-0.000620827
-0.00766589
-0.000787177
-0.00643891
-0.00134646
-0.00206952
0.00989059
0.0131677
0.0102241
0.00468559
0.00779393
0.00469291
0.00629903
0.00359926
0.00536642
0.00234261
0.00477527
0.0014185
0.00439366
0.000766418
0.00406525
0.00027274
0.00373328
-0.000110137
0.00341766
-0.000395502
0.00311843
-0.000583339
0.00283152
-0.000686671
0.00255341
-0.000721439
0.0022821
-0.000701904
0.00201961
-0.000641418
0.00177671
-0.000552698
0.00157353
-0.000447618
0.00142652
-0.000339674
0.00133233
-0.000243654
0.00126973
-0.000167447
0.00121933
-0.000113361
0.00116853
-7.77006e-05
0.00110953
-5.51423e-05
0.00103416
-4.01056e-05
0.000928842
-2.76123e-05
0.00077086
-1.5049e-05
0.000525424
-1.46632e-06
0.000152398
1.31544e-05
-0.000349012
1.63265e-05
-0.000928571
2.06358e-05
-0.00153283
2.22165e-05
-0.00210974
4.44639e-06
-0.00260665
-5.01419e-05
-0.00298197
-0.000154839
-0.00323911
-0.000292757
-0.00345923
-0.000400262
-0.00362963
-0.000616305
-0.0029892
-0.00198638
-0.0048126
0.00182192
0.00376601
0.0031406
0.00337427
0.00437241
0.00236751
0.00487303
0.00184206
0.00501689
0.00127472
0.00502708
0.000756302
0.0049508
0.000349086
0.0047951
4.56423e-05
0.00457491
-0.000175231
0.00431251
-0.000320867
0.00402909
-0.000403161
0.00374037
-0.000432642
0.00345842
-0.000419864
0.00319299
-0.000375899
0.0029529
-0.000312508
0.002747
-0.000241625
0.00258184
-0.000174421
0.00245626
-0.000117975
0.00235847
-6.95629e-05
0.00227894
-3.37414e-05
0.00221067
-9.33765e-06
0.00214869
6.92266e-06
0.00208874
1.99329e-05
0.00202635
3.486e-05
0.00195568
5.56959e-05
0.00186854
8.57563e-05
0.00175669
0.00012508
0.00160754
0.00016559
0.00142903
0.000199297
0.00123697
0.000214503
0.00105116
0.000190578
0.000908969
9.2464e-05
0.000857111
-0.000102522
0.00093642
-0.000371559
0.0012463
-0.0007096
0.00180338
-0.00117281
0.00184261
-0.00202503
-0.00291456
-0.000194495
0.00395165
0.00199286
0.00118696
0.00323444
0.00112599
0.00407736
0.000999201
0.00463024
0.0007219
0.00494555
0.000441054
0.0050816
0.000213112
0.00508545
4.1868e-05
0.00497767
-6.73726e-05
0.0047923
-0.000135422
0.00456076
-0.000171538
0.00430892
-0.000180715
0.00405769
-0.00016855
0.00382269
-0.000140813
0.00361392
-0.000103635
0.00343576
-6.33682e-05
0.00328724
-2.57985e-05
0.00316382
5.54439e-06
0.00306507
2.92989e-05
0.0029881
4.33245e-05
0.00292836
5.05149e-05
0.00288086
5.45155e-05
0.00284257
5.83251e-05
0.00281308
6.44495e-05
0.00279295
7.59173e-05
0.00278371
9.50743e-05
0.00278668
0.000122203
0.00279987
0.000152488
0.00282095
0.000178328
0.00284737
0.000188218
0.00287369
0.000164457
0.00288403
8.2385e-05
0.00285063
-6.87805e-05
0.002774
-0.00029452
0.00270973
-0.000644873
0.00280721
-0.0012698
0.00309325
-0.00231055
0.000243256
-0.00290984
-0.00390958
3.08155e-05
0.00120456
0.00231535
0.00329787
0.00400182
0.00442371
0.0046165
0.00463689
0.00454696
0.00438797
0.00419192
0.00398582
0.00379111
0.0036235
0.00349259
0.00340167
0.00334825
0.00332633
0.00332855
0.00334529
0.00336975
0.00339873
0.00343202
0.00347192
0.00352377
0.00359532
0.00369461
0.00382495
0.00398205
0.0041501
0.00429546
0.00435966
0.0042734
0.00396199
0.00330057
0.00201428
-0.00031167
)
;

boundaryField
{
    floor
    {
        type            calculated;
        value           nonuniform List<scalar> 
36
(
0
0
0
0
0
0
0
0
0
0
0
0
0
0
0
0
0
0
0
-2.71871e-06
-8.00164e-06
-1.10134e-05
-9.98382e-06
-9.78889e-06
-1.04986e-05
-1.14746e-05
-1.25937e-06
-2.40767e-06
-2.63821e-06
-3.29238e-06
-2.49753e-06
-5.0149e-06
-6.66338e-06
-6.76629e-06
-8.77213e-06
-8.37169e-06
)
;
    }
    ceiling
    {
        type            calculated;
        value           nonuniform List<scalar> 
43
(
1.56646e-05
1.29964e-05
1.1278e-05
1.32507e-05
1.52561e-05
1.67346e-05
1.80178e-05
1.9225e-05
2.03965e-05
2.155e-05
2.26361e-05
2.36496e-05
2.45973e-05
2.54699e-05
2.62454e-05
2.6892e-05
2.73738e-05
2.76584e-05
2.77274e-05
2.75743e-05
2.71921e-05
2.66964e-05
2.61688e-05
2.565e-05
2.51514e-05
2.46663e-05
2.41732e-05
2.3638e-05
2.30153e-05
2.22565e-05
2.13339e-05
2.02808e-05
1.92181e-05
1.83371e-05
1.76769e-05
1.71302e-05
1.68472e-05
1.68735e-05
1.58586e-05
1.11882e-05
1.4592e-05
1.10246e-05
8.88505e-06
)
;
    }
    sWall
    {
        type            calculated;
        value           uniform -0.000173502;
    }
    nWall
    {
        type            calculated;
        value           nonuniform List<scalar> 6(-4.09407e-05 -4.46211e-05 -5.07805e-05 -5.48278e-05 -6.39959e-05 -7.91776e-05);
    }
    sideWalls
    {
        type            empty;
        value           nonuniform 0();
    }
    glass1
    {
        type            calculated;
        value           nonuniform List<scalar> 9(-5.8883e-05 -0.00015292 -0.000227227 -0.000287721 -0.00033885 -0.000383423 -0.000423377 -0.00047201 -0.000528476);
    }
    glass2
    {
        type            calculated;
        value           nonuniform List<scalar> 2(-0.000243787 -0.000245549);
    }
    sun
    {
        type            calculated;
        value           uniform 0;
    }
    Table_master
    {
        type            calculated;
        value           nonuniform List<scalar> 9(-1.53277e-07 -1.53384e-07 -1.5345e-07 -1.53498e-07 -1.53533e-07 -1.53555e-07 -1.53558e-07 -1.53536e-07 -1.53412e-07);
    }
    Table_slave
    {
        type            calculated;
        value           nonuniform List<scalar> 9(1.52176e-07 1.52218e-07 1.52271e-07 1.5235e-07 1.52461e-07 1.52613e-07 1.52815e-07 1.52868e-07 1.52639e-07);
    }
    inlet
    {
        type            calculated;
        value           uniform -0.000902323;
    }
    outlet
    {
        type            calculated;
        value           nonuniform List<scalar> 2(0.00306772 0.000986784);
    }
}


// ************************************************************************* //
