/*--------------------------------*- C++ -*----------------------------------*\
  =========                 |
  \\      /  F ield         | OpenFOAM: The Open Source CFD Toolbox
   \\    /   O peration     | Website:  https://openfoam.org
    \\  /    A nd           | Version:  6
     \\/     M anipulation  |
\*---------------------------------------------------------------------------*/
FoamFile
{
    version     2.0;
    format      ascii;
    class       volScalarField;
    location    "1600";
    object      T;
}
// * * * * * * * * * * * * * * * * * * * * * * * * * * * * * * * * * * * * * //

dimensions      [0 0 0 1 0 0 0];

internalField   nonuniform List<scalar> 
458
(
304.186
303.884
303.873
303.873
303.872
303.871
303.87
303.868
303.866
303.864
303.86
303.852
303.842
303.829
303.814
303.51
303.5
303.5
303.499
303.485
303.454
303.417
303.383
303.356
303.337
303.326
303.324
303.333
303.355
303.386
303.385
303.339
303.33
304.405
303.946
303.917
303.922
303.929
303.934
303.938
303.94
303.941
303.938
303.931
303.917
303.894
303.86
303.816
303.775
303.734
303.724
303.506
303.493
303.482
303.47
303.453
303.426
303.397
303.368
303.343
303.322
303.307
303.305
303.326
303.381
303.463
303.44
303.364
303.328
304.611
304.018
303.967
303.98
303.997
304.013
304.027
304.038
304.045
304.047
304.041
304.023
303.99
303.941
303.877
303.806
303.739
303.693
303.508
303.497
303.487
303.475
303.456
303.405
303.383
303.364
303.346
303.328
303.313
303.301
303.31
303.383
303.545
303.503
303.404
303.367
304.8
304.1
304.018
304.037
304.066
304.095
304.123
304.148
304.167
304.178
304.179
304.163
304.128
304.071
303.992
303.897
303.792
303.689
303.615
303.58
303.599
303.615
303.627
303.635
303.642
303.645
303.647
303.647
303.645
303.64
303.633
303.62
303.61
303.598
303.573
303.529
303.514
304.973
304.19
304.071
304.086
304.125
304.167
304.209
304.249
304.285
304.311
304.324
304.32
304.294
304.245
304.174
304.085
303.985
303.887
303.806
303.753
303.741
303.745
303.748
303.747
303.743
303.739
303.732
303.721
303.706
303.687
303.667
303.648
303.631
303.616
303.597
303.568
303.539
303.534
303.527
303.538
305.123
304.289
304.137
304.129
304.17
304.219
304.269
304.32
304.37
304.413
304.442
304.455
304.447
304.415
304.361
304.286
304.198
304.107
304.027
303.967
303.929
303.906
303.889
303.875
303.861
303.846
303.826
303.801
303.767
303.731
303.697
303.67
303.651
303.636
303.621
303.604
303.584
303.563
303.54
303.542
305.241
304.436
304.274
304.208
304.219
304.26
304.308
304.36
304.413
304.47
304.515
304.544
304.556
304.547
304.517
304.466
304.397
304.319
304.243
304.176
304.125
304.086
304.055
304.03
304.006
303.979
303.946
303.901
303.846
303.786
303.736
303.702
303.682
303.67
303.662
303.658
303.655
303.647
303.563
303.554
305.44
304.809
304.643
304.493
304.4
304.375
304.392
304.426
304.471
304.526
304.57
304.6
304.62
304.627
304.621
304.598
304.558
304.503
304.439
304.376
304.321
304.274
304.235
304.201
304.168
304.135
304.093
304.036
303.959
303.872
303.8
303.755
303.734
303.728
303.731
303.742
303.758
303.775
303.789
303.789
305.71
305.447
305.287
305.101
304.925
304.804
304.731
304.692
304.676
304.668
304.67
304.676
304.682
304.685
304.684
304.675
304.657
304.627
304.587
304.542
304.495
304.45
304.409
304.37
304.334
304.298
304.257
304.206
304.132
304.024
303.927
303.863
303.831
303.824
303.835
303.857
303.888
303.925
303.968
304.037
304.43
304.88
304.894
304.855
304.819
304.794
304.778
304.769
304.76
304.754
304.748
304.742
304.735
304.726
304.714
304.698
304.676
304.649
304.618
304.584
304.549
304.515
304.481
304.446
304.411
304.37
304.319
304.252
304.176
304.099
304.03
303.974
303.941
303.931
303.936
303.951
303.963
303.963
304.489
304.825
304.853
304.847
304.834
304.821
304.811
304.803
304.796
304.788
304.78
304.772
304.763
304.753
304.743
304.73
304.716
304.699
304.679
304.657
304.632
304.606
304.579
304.55
304.52
304.488
304.45
304.404
304.35
304.29
304.229
304.173
304.128
304.096
304.08
304.074
304.046
304.002
304.579
304.505
304.503
304.767
304.804
304.812
304.811
304.806
304.801
304.795
304.788
304.781
304.774
304.766
304.757
304.747
304.737
304.725
304.713
304.7
304.686
304.67
304.654
304.637
304.619
304.6
304.579
304.558
304.534
304.508
304.477
304.443
304.406
304.369
304.333
304.295
304.254
304.204
304.089
303.875
)
;

boundaryField
{
    floor
    {
        type            wallHeatTransfer;
        Tinf            uniform 305.2;
        alphaWall       uniform 0.24;
        value           nonuniform List<scalar> 
36
(
303.983
303.844
303.796
303.831
303.876
303.903
303.916
303.917
303.914
303.905
303.886
303.853
303.804
303.751
303.711
303.687
303.667
303.635
303.694
303.694
303.685
303.662
303.705
303.702
303.707
303.734
303.983
303.94
303.914
303.948
303.844
303.948
303.804
303.875
303.743
303.807
)
;
    }
    ceiling
    {
        type            wallHeatTransfer;
        Tinf            uniform 303.2;
        alphaWall       uniform 0.24;
        value           nonuniform List<scalar> 
43
(
304.487
304.428
304.436
304.689
304.714
304.714
304.705
304.694
304.682
304.669
304.657
304.644
304.631
304.618
304.605
304.592
304.579
304.566
304.553
304.541
304.529
304.516
304.503
304.489
304.473
304.457
304.439
304.421
304.401
304.379
304.353
304.325
304.294
304.262
304.23
304.195
304.155
304.105
303.996
303.809
305.595
305.358
304.431
)
;
    }
    sWall
    {
        type            wallHeatTransfer;
        Tinf            uniform 315.2;
        alphaWall       uniform 0.36;
        value           uniform 305.607;
    }
    nWall
    {
        type            wallHeatTransfer;
        Tinf            uniform 307.2;
        alphaWall       uniform 0.36;
        value           nonuniform List<scalar> 6(304.151 304.09 304.082 304.355 304.414 304.337);
    }
    sideWalls
    {
        type            empty;
    }
    glass1
    {
        type            wallHeatTransfer;
        Tinf            uniform 315.2;
        alphaWall       uniform 4.3;
        value           nonuniform List<scalar> 9(312.558 311.644 311.064 310.639 310.326 310.085 309.886 309.935 310.141);
    }
    glass2
    {
        type            wallHeatTransfer;
        Tinf            uniform 307.2;
        alphaWall       uniform 4.3;
        value           nonuniform List<scalar> 2(306.026 306.019);
    }
    sun
    {
        type            wallHeatTransfer;
        Tinf            uniform 305.2;
        alphaWall       uniform 0.24;
        value           nonuniform List<scalar> 
14
(
304.335
304.074
304.074
304.068
304.062
304.057
304.052
304.046
304.041
304.035
304.028
304.02
304.009
303.997
)
;
    }
    Table_master
    {
        type            zeroGradient;
    }
    Table_slave
    {
        type            zeroGradient;
    }
    inlet
    {
        type            fixedValue;
        value           uniform 299.15;
    }
    outlet
    {
        type            zeroGradient;
    }
}


// ************************************************************************* //
