/*--------------------------------*- C++ -*----------------------------------*\
  =========                 |
  \\      /  F ield         | OpenFOAM: The Open Source CFD Toolbox
   \\    /   O peration     | Website:  https://openfoam.org
    \\  /    A nd           | Version:  6
     \\/     M anipulation  |
\*---------------------------------------------------------------------------*/
FoamFile
{
    version     2.0;
    format      ascii;
    class       surfaceScalarField;
    location    "2100";
    object      phi;
}
// * * * * * * * * * * * * * * * * * * * * * * * * * * * * * * * * * * * * * //

dimensions      [1 0 -1 0 0 0 0];

internalField   nonuniform List<scalar> 
850
(
-0.00349308
0.00356569
-0.00484662
0.00135353
-0.00582372
0.000977093
-0.00647759
0.000653858
-0.0067432
0.000265608
-0.00654692
-0.000196299
-0.00580106
-0.000745866
-0.00446529
-0.00133578
-0.00262177
-0.00184353
-0.000520476
-0.0021013
0.00127196
-0.00179245
0.00220134
-0.000929393
0.00243902
-0.000237688
0.00189378
0.000545229
0.00189814
-0.0011524
0.00115878
-0.000702358
-0.000450066
0.000227268
-0.000929647
0.00101474
-0.000787497
0.00156527
-0.000550547
0.00185852
-0.000293275
0.00198241
-0.00012391
0.00204333
-6.09418e-05
0.00207745
-3.4152e-05
0.00209316
-1.57306e-05
0.0020948
-1.66896e-06
0.00208247
1.23112e-05
0.00204661
3.58286e-05
0.00196013
8.64535e-05
0.00177727
0.000182842
0.00148305
0.000294187
0.00109985
0.000383169
0.00110817
-0.00253496
0.00629696
-0.00386354
0.0026821
-0.00490858
0.00202212
-0.00561216
0.00135743
-0.00593865
0.00059209
-0.00582488
-0.000310077
-0.00520455
-0.0013662
-0.00406962
-0.00247072
-0.00258035
-0.00333282
-0.00103632
-0.00364533
0.000342498
-0.00317129
0.00129895
-0.00188586
0.00183749
-0.000776245
0.00215982
0.000222887
0.00305459
0.00100335
0.00228708
0.000775383
0.00150232
0.000793437
0.00152673
0.000179353
0.000998717
0.000691092
-0.000961825
0.00113943
-0.001378
0.00154301
-0.0011911
0.00184826
-0.000855821
0.00191494
-0.000359972
0.00192478
-0.000133768
0.00193613
-7.23189e-05
0.00194556
-4.36106e-05
0.00195097
-2.11634e-05
0.00195302
-3.73995e-06
0.00195121
1.40933e-05
0.0019413
4.57162e-05
0.00188832
0.000139404
0.00166812
0.000403013
0.00130136
0.000660918
0.000861418
0.000823086
0.00199092
-0.0018014
0.00839979
-0.00296533
0.00384602
-0.00396214
0.00301892
-0.00464758
0.00204285
-0.00501601
0.00096052
-0.00499373
-0.000332372
-0.00449204
-0.0018679
-0.00352554
-0.00343723
-0.00229954
-0.00455882
-0.00108415
-0.00486073
-4.11457e-05
-0.00421431
0.000779574
-0.00270659
0.00133202
-0.0013287
0.00174421
-0.00018932
0.00206218
0.000685364
0.00178423
0.00105331
0.00115186
0.00142579
0.00270173
0.00176075
-0.00073713
0.00199039
-0.00119149
0.0019408
-0.00132843
0.00200664
-0.00125697
0.00223812
-0.00108732
0.00187828
0.00174465
0.00167246
0.00162899
0.00160795
0.00160435
0.00161857
0.00166442
0.00180395
0.00145844
0.000748492
0.00106836
0.00105097
0.000632109
0.00125931
0.00265505
-0.0012503
0.0100421
-0.002175
0.00477071
-0.00294451
0.00378842
-0.00350872
0.00260706
-0.00386518
0.00131697
-0.00390804
-0.000289524
-0.0034955
-0.00228045
-0.00268543
-0.00424731
-0.00172474
-0.00551952
-0.000823092
-0.00576238
-9.08615e-05
-0.00494656
0.000521869
-0.00331934
0.000938366
-0.00174522
0.00123574
-0.000486708
0.00147665
0.000444438
0.00153732
0.000992621
0.00154658
0.00141651
0.00268278
0.00156552
0.00236943
0.000339165
0.00218587
-0.000553589
0.00214073
-0.00114636
0.00206429
-0.001252
0.00196184
-0.00115454
0.00176543
-0.000890934
0.00216462
-0.00039937
0.00236574
-0.000201295
0.00249419
-0.000128641
0.00256955
-7.55366e-05
0.00257684
-7.47664e-06
0.00249571
8.09476e-05
0.00230346
0.000192062
0.0019652
0.000338081
0.00141228
0.000552731
0.00119386
0.000966886
0.000808203
0.0014366
0.000267112
0.00180037
0.00296348
-0.000828033
0.0113403
-0.00149811
0.00544078
-0.00183939
0.00412968
-0.00215543
0.00292309
-0.00240748
0.00156901
-0.00243958
-0.000257431
-0.0020611
-0.00265893
-0.00143975
-0.00486866
-0.00081208
-0.0061472
-0.000284491
-0.00628998
0.000114889
-0.00534596
0.000454642
-0.00365911
0.000670118
-0.00196071
0.000833636
-0.000650245
0.00104729
0.000230762
0.00129491
0.000744987
0.00167785
0.00103356
0.00225457
0.000988786
0.00234146
0.000252261
0.00228861
-0.000500756
0.00205612
-0.000913898
0.00182187
-0.00101777
0.00161003
-0.000942728
0.00146422
-0.000745142
0.00153582
-0.000470998
0.00163005
-0.000295557
0.00171233
-0.000210952
0.00178174
-0.000144975
0.00182455
-5.03185e-05
0.00181695
8.85138e-05
0.00173923
0.000269752
0.00158286
0.00049442
0.00136242
0.000773133
0.00117131
0.00115797
0.000982078
0.0016258
0.000529881
0.00225254
0.000854294
0.00263904
-0.0016876
0.00257856
-0.00237466
0.000721989
-0.00226621
-0.000650108
0.0125271
-0.00103573
0.00582639
-0.000711062
0.003805
-0.000643853
0.00285587
-0.000697361
0.00162251
-0.00055825
-0.000396553
-0.00016927
-0.00304792
0.000186413
-0.00522435
0.000405092
-0.00636588
0.000492134
-0.00637703
0.000494058
-0.0053479
0.000474382
-0.00363946
0.000409914
-0.00189627
0.000397846
-0.000638198
0.000532122
9.64652e-05
0.000777568
0.000499522
0.00113599
0.000675127
0.00156398
0.000560778
0.00173114
8.50792e-05
0.00161749
-0.000387129
0.00137224
-0.000668674
0.0011137
-0.000759255
0.00089059
-0.000719644
0.000745939
-0.00060052
0.000728852
-0.000453942
0.000789715
-0.000356453
0.000883283
-0.000304553
0.000991859
-0.000253584
0.0011049
-0.000163393
0.00119559
-2.213e-06
0.00124284
0.000222468
0.00125825
0.000478971
0.00125554
0.000775812
0.00128838
0.0011251
0.00143274
0.0014814
0.00171206
0.00197319
0.00220616
0.00214491
0.0026744
0.00211028
0.00212122
0.00127513
-5.47176e-05
-0.000721196
0.0138437
-0.000474705
0.00557989
0.000722231
0.00260806
0.00108315
0.00249494
0.00132218
0.00138346
0.00176699
-0.000841378
0.00209982
-0.00338075
0.00211715
-0.00524168
0.00185955
-0.00610828
0.00142426
-0.00594176
0.000922588
-0.00484625
0.000443707
-0.00316061
3.84367e-05
-0.00149103
-0.000139151
-0.000460634
-9.46868e-05
5.19786e-05
9.96564e-05
0.000305157
0.000386726
0.000388036
0.000665473
0.000282009
0.000746328
4.20054e-06
0.000630746
-0.000271572
0.000415378
-0.000453333
0.000181191
-0.000525098
-1.74905e-05
-0.000520993
-0.000139282
-0.000478762
-0.000161015
-0.000432244
-0.000109681
-0.000407822
-1.65831e-05
-0.000397687
0.000105292
-0.000375495
0.00025563
-0.000313767
0.00043717
-0.00018379
0.000622044
3.75567e-05
0.000799591
0.000301389
0.000991711
0.000583657
0.00123246
0.000884312
0.0015647
0.00114913
0.00206626
0.00147159
0.00276131
0.00144983
0.00384838
0.00102318
0.00421718
0.000906307
0.00425501
0.0034058
0.0111017
0.00423323
0.00475245
0.00400628
0.002835
0.00390073
0.00260047
0.00425306
0.00103112
0.00474006
-0.00132838
0.00475825
-0.00339894
0.00426168
-0.0047451
0.00336289
-0.0052095
0.00225828
-0.00483716
0.00113285
-0.00372084
0.000129816
-0.0021576
-0.000527077
-0.000834164
-0.000785384
-0.000202354
-0.000804819
7.13882e-05
-0.000689397
0.000189709
-0.000515806
0.00021442
-0.000376851
0.000143028
-0.000365191
-7.48608e-06
-0.000471637
-0.000165156
-0.000644188
-0.000280814
-0.000824066
-0.000345253
-0.000969682
-0.000375412
-0.00105866
-0.000389819
-0.00108892
-0.000402026
-0.00107806
-0.00041871
-0.00104232
-0.000433465
-0.000984621
-0.000433236
-0.000893689
-0.000404737
-0.000743474
-0.000334042
-0.000504632
-0.000201323
-0.00022202
1.87396e-05
8.08635e-05
0.000280736
0.000416238
0.000548902
0.000746965
0.000818366
0.00112607
0.00109246
0.00149751
0.00107835
0.00178207
0.000738592
0.000774842
0.0019135
0.00544667
0.0118511
0.0166137
0.0136065
0.00584225
0.0119069
0.0043
0.0107261
0.00221196
0.00944369
-4.6e-05
0.00789609
-0.00185132
0.00616527
-0.00301428
0.00427715
-0.00332138
0.00238669
-0.00294672
0.000626741
-0.00196092
-0.000678675
-0.000852221
-0.00132386
-0.000189007
-0.00156557
3.93254e-05
-0.00160983
0.000115611
-0.00156215
0.00014201
-0.0014871
0.00013934
-0.00143981
9.57052e-05
-0.00145902
1.16848e-05
-0.00153847
-8.57366e-05
-0.00165129
-0.00016803
-0.00176684
-0.000229738
-0.00186797
-0.000274322
-0.00195188
-0.000305952
-0.0020262
-0.00032774
-0.0021043
-0.000340646
-0.00219781
-0.000339998
-0.00231572
-0.000315359
-0.00246765
-0.000252853
-0.00266598
-0.000135745
-0.00292132
5.39834e-05
-0.00322455
0.000321931
-0.00363767
0.000693823
-0.0042858
0.001197
-0.00528435
0.00181688
-0.0066749
0.00248298
-0.00856232
0.00296573
-0.010694
0.00287023
-0.00987764
0.00109712
-0.00397042
0.0125255
0.00987011
0.00984176
0.00698381
0.00860087
0.00345289
0.00757515
0.000979742
0.00623074
-0.000506893
0.00459795
-0.00138149
0.00262438
-0.00134783
0.000584974
-0.000907344
-0.00105404
-0.000321954
-0.0019498
4.3502e-05
-0.00229474
0.000155895
-0.00240611
0.000150663
-0.00242225
0.00013172
-0.00240055
0.000120273
-0.00236937
0.000108127
-0.00235255
7.88429e-05
-0.00236316
2.2264e-05
-0.00239268
-5.62591e-05
-0.0024336
-0.000127144
-0.00248287
-0.000180513
-0.00254069
-0.000216542
-0.00261182
-0.000234857
-0.00270436
-0.000235243
-0.00282688
-0.000218161
-0.00298333
-0.000183582
-0.00316839
-0.000130337
-0.00336365
-5.76344e-05
-0.00353046
3.1035e-05
-0.00365179
0.000175272
-0.00374511
0.000415218
-0.00383143
0.00078011
-0.00393551
0.00130104
-0.0040792
0.00196053
-0.00419617
0.00259992
-0.00411918
0.0028887
-0.00357626
0.00232727
-0.00198007
-0.000499097
-0.0058388
-0.000998288
0.010956
0.000847687
0.00513785
0.00146476
0.00283583
0.00141118
0.00103331
0.000862256
4.20089e-05
-0.000182815
-0.000336471
-0.00144266
-8.80273e-05
-0.00244429
9.42473e-05
-0.00296472
0.000198426
-0.00312561
0.00020436
-0.00311969
0.00014993
-0.00308023
0.00011117
-0.00303548
8.69384e-05
-0.00298837
7.31216e-05
-0.00293886
5.85801e-05
-0.00289327
3.32146e-05
-0.00286759
-3.4592e-06
-0.00286308
-6.08063e-05
-0.00287608
-0.000114184
-0.00290643
-0.000150202
-0.00294929
-0.000173722
-0.00299897
-0.000185216
-0.0030508
-0.000183453
-0.00310167
-0.000167335
-0.00314939
-0.000135899
-0.00319158
-8.81861e-05
-0.0032267
-2.25534e-05
-0.00324252
4.68249e-05
-0.00320313
0.000135844
-0.00307337
0.000285417
-0.00280831
0.000515013
-0.00237154
0.000864237
-0.00178573
0.00137468
-0.00105697
0.00187112
0.000131374
0.00170033
0.00155625
0.000902357
0.00175494
-0.000697821
-0.00396173
-0.0188804
-0.0240496
-0.0130236
-0.00783407
-0.00495118
-0.00387439
-0.00379098
-0.00408716
-0.00413575
-0.00400277
-0.00376595
-0.00352312
-0.00333449
-0.00318451
-0.0030587
-0.00294664
-0.00284889
-0.00277608
-0.00273939
-0.00275954
-0.0028326
-0.00294127
-0.0030731
-0.0032161
-0.00335702
-0.00348151
-0.0035743
-0.00361921
-0.00359851
-0.00350877
-0.00333062
-0.00300376
-0.00244839
-0.00154508
-0.000132758
0.0017739
0.00350884
0.00444601
0.00378475
)
;

boundaryField
{
    floor
    {
        type            calculated;
        value           nonuniform List<scalar> 
36
(
0
0
0
0
0
0
0
0
0
0
0
0
0
0
0
0
0
0
0
-8.33966e-06
-2.1368e-05
-3.20503e-05
-4.13488e-05
-3.66915e-05
-3.49676e-05
-3.319e-05
-4.37203e-06
-7.88984e-06
-8.68371e-06
-9.74019e-06
-6.40165e-06
-1.46883e-05
-1.93107e-05
-2.31573e-05
-2.49261e-05
-2.58333e-05
)
;
    }
    ceiling
    {
        type            calculated;
        value           nonuniform List<scalar> 
43
(
-7.19158e-05
-7.08531e-05
-7.00425e-05
-5.16729e-05
-4.71061e-05
-4.35421e-05
-4.14536e-05
-4.03341e-05
-3.94786e-05
-3.87716e-05
-3.84379e-05
-3.85177e-05
-3.87378e-05
-3.8854e-05
-3.89028e-05
-3.89853e-05
-3.92098e-05
-3.96345e-05
-4.01954e-05
-4.06962e-05
-4.11651e-05
-4.15712e-05
-4.19279e-05
-4.22578e-05
-4.25763e-05
-4.28814e-05
-4.31456e-05
-4.33115e-05
-4.329e-05
-4.29547e-05
-4.23457e-05
-4.14796e-05
-4.03935e-05
-3.91125e-05
-3.76692e-05
-3.55767e-05
-3.46397e-05
-3.4847e-05
-3.66012e-05
-3.81114e-05
-9.54519e-06
-1.01826e-05
-8.76198e-05
)
;
    }
    sWall
    {
        type            calculated;
        value           uniform -0.000249635;
    }
    nWall
    {
        type            calculated;
        value           nonuniform List<scalar> 6(-7.52925e-05 -9.03031e-05 -9.25888e-05 -0.000111723 -0.000122172 -0.000138899);
    }
    sideWalls
    {
        type            empty;
        value           nonuniform 0();
    }
    glass1
    {
        type            calculated;
        value           nonuniform List<scalar> 9(-7.26202e-05 -0.000196314 -0.000301434 -0.000392065 -0.000470168 -0.000536703 -0.000595358 -0.000663833 -0.000739838);
    }
    glass2
    {
        type            calculated;
        value           nonuniform List<scalar> 2(-0.000416847 -0.000460583);
    }
    sun
    {
        type            calculated;
        value           uniform 0;
    }
    Table_master
    {
        type            calculated;
        value           nonuniform List<scalar> 9(-1.56223e-07 -1.56408e-07 -1.56465e-07 -1.56498e-07 -1.56518e-07 -1.56529e-07 -1.56527e-07 -1.56513e-07 -1.56465e-07);
    }
    Table_slave
    {
        type            calculated;
        value           nonuniform List<scalar> 9(1.55991e-07 1.55964e-07 1.559e-07 1.55858e-07 1.55844e-07 1.55839e-07 1.55865e-07 1.55932e-07 1.56055e-07);
    }
    inlet
    {
        type            calculated;
        value           uniform -0.0165534;
    }
    outlet
    {
        type            calculated;
        value           nonuniform List<scalar> 2(0.019202 0.00524003);
    }
}


// ************************************************************************* //
