/*--------------------------------*- C++ -*----------------------------------*=========                 |
  \      /  F ield         | OpenFOAM: The Open Source CFD Toolbox
   \    /   O peration     | Website:  https://openfoam.org
    \  /    A nd           | Version:  6
     \/     M anipulation  |
\*---------------------------------------------------------------------------*/
FoamFile
{
    version     2.0;
    format      ascii;
    class       volScalarField;
    location    "2100";
    object      PMV;
}
// * * * * * * * * * * * * * * * * * * * * * * * * * * * * * * * * * * * * * //

dimensions      [0 0 0 0 0 0 0];

internalField   nonuniform List<scalar> 
458
(
0.5516137172827414
0.22991471399993904
0.1810599165158754
0.14147463306152386
0.12012618697925505
0.11752751732469773
0.13602970365592235
0.18192736775731735
0.2617314235540818
0.37264446971473003
0.4817750228263814
0.49077450212375234
0.46154720007581723
0.47724358059161204
0.5142137160241549
0.7897906387645969
0.7684301770146037
0.7646327850940544
0.7788730433232589
0.7888412807052839
0.7925981528351471
0.7768032114826537
0.7737542401634029
0.776325886293942
0.780511061645658
0.7855010404741108
0.7910673319355748
0.7986735700353537
0.8093052360950285
0.8262371199580307
0.8543474586601276
0.8624170724671655
0.8847271117453985
0.41448750792723743
0.2355201621548088
0.21414736987347616
0.17205450741812367
0.14906853303032394
0.1434395076185107
0.15471882225785066
0.18000920395078682
0.21987772301735042
0.28389528230624317
0.3956301252037352
0.5315975750510789
0.5539007939860237
0.5145063688494483
0.4541234049149409
0.43086758935434677
0.46386280393570023
0.5122501217042119
0.722000848108484
0.7465952905813639
0.7503926406193384
0.7673467852863934
0.7676192577919531
0.7678365401499158
0.7696717566099405
0.7738580568031582
0.7764549605894444
0.778882613228302
0.7810470715651968
0.7841530156495736
0.7877285582816659
0.79379956795534
0.8074419354048931
0.8310879595241946
0.8420056845268697
0.8184057030645017
0.4162287656022319
0.21107662923166207
0.24894175326181575
0.2228651494541137
0.20850758863026933
0.20072316686620614
0.1979614344442689
0.18285760788374844
0.16497704591825835
0.19200897466531902
0.3024263697691631
0.4932333101626126
0.5871201098219917
0.5923404669465785
0.5487734001001064
0.5382707821253012
0.5502674491651869
0.5355203983841502
0.5760039379063187
0.666687261547708
0.6908446643807902
0.718135712444678
0.7444684329062089
0.7509284318234242
0.7813712800233065
0.8040619234184967
0.8092525454848356
0.8106765916236007
0.8125753205189443
0.8149487327081059
0.8168474632532525
0.8148978772674369
0.8176341446307078
0.8301385924029678
0.8179183266121574
0.7190709663228289
0.48075360136391965
0.19028052188135597
0.2735465581419007
0.2849756290643216
0.30008698058017386
0.3007354692756065
0.2800018644618826
0.20360727455522196
0.11976825494420963
0.11955612201682939
0.24142478696057235
0.44936869482003566
0.6236635494325657
0.6360033607522874
0.6250873623676336
0.6055747565895696
0.5473650985736728
0.5206476399250597
0.4490689079718779
0.5697658727200997
0.636574969478462
0.6916607157783731
0.7505661244048147
0.8090194730868043
0.8490339442273549
0.848087011925155
0.8478425152176924
0.8529119479504796
0.860301850694872
0.8711686501638688
0.8873437875350441
0.9119728987051877
0.9534341905161176
0.9174798125380734
0.8785562631881512
0.7978133637446236
0.6537894634508054
0.5765508002400507
0.18854348448028693
0.2912041537241157
0.34758672380112077
0.42345887744276134
0.46070637670403447
0.4035032025644322
0.23880366174777612
0.08921570734144096
0.06585716309806094
0.20204077276407562
0.42885057981309316
0.6354747651658426
0.6844153709355624
0.6730240479600262
0.6554627299498168
0.6136932831922239
0.5815758875422122
0.5921040024302142
0.627411620227721
0.6909843496442052
0.7689496454038802
0.845338044190315
0.9143697298929035
0.9568770953484149
0.9796604327877657
0.9905329348007409
0.9938911295316998
0.9951762943386788
0.9938274765574316
0.9937908973908421
0.9944597121692869
0.9945627931256948
0.9599818053320874
0.9038573185609651
0.782421251521517
0.7721751377280455
0.7958342161252677
0.9002364434700286
0.7555221213989683
0.6824265363093195
0.2147917104024167
0.32569763670102
0.39319979214832157
0.5377632584053802
0.6027813189355108
0.5062394456636664
0.25624940728232454
0.06541196223002328
0.031956980983214596
0.18104338723854568
0.43041813775
0.6717634413916804
0.7413739505635142
0.7323553194534732
0.7128942876417919
0.699604024149629
0.7029265739134547
0.7366272949395766
0.784389030955928
0.850992227874259
0.91368242598522
0.9635222904184022
1.0019685452724019
1.0290221624050653
1.0465826734449455
1.0579729903392256
1.0636680594276957
1.0650918170937913
1.0608205325130584
1.0527524574523608
1.0413620349499302
1.0261744646425925
0.9852331724897913
0.9223480563221259
0.8065260122041523
0.8016917775723839
0.8008581396317259
0.8369876883726567
0.8457882217180054
0.7892043128000407
0.3145007421177115
0.47212352760710496
0.45996778699903684
0.5755726220935488
0.6554627299498168
0.46660973326547905
0.2310041304387978
0.039452790856530494
0.011111100002489403
0.1838801067619891
0.4708825846669345
0.7512578212434593
0.8087778635442914
0.8064044546700593
0.791689355904354
0.7874172442721218
0.8054550915217904
0.8496006235541863
0.9051382764371132
0.9597250413266235
1.008613390860639
1.0470572746037514
1.0745834339206597
1.090718761568077
1.0992607675135595
1.1035317091181955
1.1035317091181955
1.100209869233114
1.0930915571599351
1.0807528880576391
1.0665155708622562
1.0489556752842357
1.0242759924407598
0.9649626054294506
0.8665599822362096
0.826825670729208
0.8001714926465198
0.7613026154029524
0.9168819719020668
0.9507420233888024
0.7869503896957771
0.7118138856861416
0.5748003948232656
0.569319289160779
0.5377713092982606
0.3777678472672174
0.1337077464441421
-0.03406455308460463
-0.007182183751360128
0.23143722655925664
0.5781127854318538
0.8367841634102497
0.886151151928953
0.8927966628876775
0.8908979472086381
0.8994421558050834
0.9269732394785442
0.9715913963706097
1.0171566727847112
1.0579729903392256
1.090244200977866
1.112073465705817
1.1253602943430308
1.1310545146450803
1.1324780567277097
1.130579999454557
1.1267838571549762
1.1206150482421826
1.112548002693133
1.1016335179818273
1.0873968272220387
1.0717359675514766
1.05085406958863
1.0261744646425925
0.9991207360861581
0.9872547523721845
0.9753321411906487
0.8639448516551892
0.7365040306710072
1.1970439061085503
1.052152085120621
0.8573358541890248
0.6897113227290697
0.5901421503437999
0.4943305833225437
0.17589595489497495
-0.10597814869818052
-0.1714522750967706
0.0048018064705680295
0.3801597770562308
0.7859932086445143
0.9307705932875857
0.9749139494597209
0.9891533215569828
0.9991207360861581
1.0166820487813322
1.0446842648850285
1.0779054573594533
1.1068535236279742
1.1258652992667986
1.129235679822397
1.127127886301167
1.1216990464064216
1.1146027371015683
1.1056495704665075
1.0952878783681796
1.0824867488297762
1.0682304270229008
1.0513823444312944
1.0327863979538539
1.0134108251107328
0.9944431621673808
0.9706054079410253
0.9439584466903405
0.9219089239076869
0.9114608832751575
0.9107410675874529
0.9021938029490436
0.8712882015319007
3.0
-2.1565637030840894
-1.5188060173008084
-1.308022949052025
-1.0734477285543824
-0.7224332560923439
-0.2674609319979445
0.2404473247269625
0.7204887979352017
0.9398403667883558
0.9837361517153173
1.001837626214648
1.0143541244090977
1.0293819636678339
1.0487118018235018
1.0698115232389254
1.0877911270623934
1.099489790340995
1.1048956925421944
1.1046366416298783
1.1012042758296179
1.0948876181704612
1.086233507168706
1.0757378751434337
1.0636713583411361
1.0508219480759389
1.0381770673798059
1.0277394337137857
1.0198789522186744
1.0147554263447396
1.010964600276027
1.007815617233436
1.0043945720292846
1.0056538523584015
1.021070865384905
1.0711706522507305
1.181682060728088
0.9696761624585917
3.0
-1.8915957594474104
-1.1503052975913
-0.6727514757332728
-0.33358674978059777
0.11947132007722809
0.5771541049135126
0.7845476933733933
0.889489883240295
0.9557472118064166
0.9911175799765681
1.0119614359663092
1.0272915809415013
1.0402626124974228
1.0524487476105027
1.0629906988028521
1.0716250464882924
1.0779882938547944
1.0800607347285227
1.0786023327145131
1.07434178215355
1.0685126285718194
1.0613947955983996
1.0538370532707289
1.0463259134361917
1.040005890738673
1.0357837580051408
1.0351384948923943
1.037900903119033
1.0438304603658828
1.0544595715292866
1.0701305563382542
1.0848912795844503
1.0961753406838175
1.1114578021772175
1.1564990485406832
1.115653372465683
1.028658625897843
-2.5191412114649308
-2.4704777114936736
-2.3139121915473404
-1.3606121105500655
-0.556512113464046
0.0629715144649677
0.5092500092438417
0.7167719627871542
0.8332297607939625
0.9019771684321612
0.9496672745286476
0.9792171365456055
0.9943875084615356
1.0034039236842585
1.0099506082002583
1.0136059852847377
1.0156322220299974
1.0137324910255883
1.0099633958613237
1.005423403089711
0.9999318977323962
0.993524060240378
0.9871457690513471
0.9802554312146423
0.9735459811330242
0.9679568568670023
0.9631213309942166
0.961063845103616
0.9624956256288495
0.9689536503917144
0.9797215667485093
0.9977562641229303
1.0266644334642272
1.0734314628837667
1.148807056903955
1.2102895312688684
1.1361250447872298
1.062881611182933
1.0043869695224268
1.0347295750053584
)
;

boundaryField
{
    ".*"
    {
        type            zeroGradient;
    }
}


// ************************************************************************* //
