/*--------------------------------*- C++ -*----------------------------------*\
  =========                 |
  \\      /  F ield         | OpenFOAM: The Open Source CFD Toolbox
   \\    /   O peration     | Website:  https://openfoam.org
    \\  /    A nd           | Version:  6
     \\/     M anipulation  |
\*---------------------------------------------------------------------------*/
FoamFile
{
    version     2.0;
    format      ascii;
    class       volScalarField;
    location    "2500";
    object      epsilon;
}
// * * * * * * * * * * * * * * * * * * * * * * * * * * * * * * * * * * * * * //

dimensions      [0 2 -3 0 0 0 0];

internalField   nonuniform List<scalar> 
458
(
0.000321136
0.00040422
0.000409426
0.000465609
0.000521763
0.000576911
0.000632431
0.000690856
0.000748321
0.000789518
0.000804571
0.000785419
0.000731792
0.00065581
0.000574833
2.58953e-05
4.86262e-05
6.19532e-05
5.7741e-05
5.14361e-05
4.3378e-05
3.5993e-05
2.99945e-05
2.52229e-05
2.14159e-05
1.83773e-05
1.59056e-05
1.38529e-05
1.20991e-05
1.05319e-05
9.03526e-06
8.17261e-06
6.28166e-06
0.000908066
0.00142942
0.000381227
0.000355268
0.000366135
0.0003837
0.000408144
0.000443045
0.000487333
0.000528961
0.000554876
0.000553187
0.000520908
0.00047441
0.000468948
0.000612145
0.000332541
0.000191663
5.88698e-05
8.06642e-05
7.40879e-05
6.35513e-05
5.35512e-05
4.82421e-05
3.89537e-05
3.09855e-05
2.47577e-05
1.99576e-05
1.62931e-05
1.34652e-05
1.12761e-05
9.67307e-06
8.76202e-06
8.45997e-06
2.19421e-05
1.49063e-05
0.00177028
0.00384471
0.000528426
0.00034793
0.000351214
0.000378772
0.000419286
0.00047462
0.000542721
0.000607783
0.000649938
0.000655474
0.00062286
0.000566051
0.000513995
0.000465764
0.000355105
0.000485651
0.000280246
0.00016845
0.000114998
8.39349e-05
6.73768e-05
0.000115731
8.13926e-05
5.90786e-05
4.4349e-05
3.43573e-05
2.73858e-05
2.2393e-05
1.87571e-05
1.61275e-05
1.26e-05
1.08037e-05
3.97447e-05
2.36226e-05
0.00302098
0.00825324
0.000945654
0.000371478
0.000349168
0.00038598
0.00044368
0.000525512
0.000628818
0.000720036
0.000771246
0.000773491
0.000730691
0.00065481
0.000568452
0.000473553
0.000374196
0.000367482
0.000639937
0.000337335
0.000188418
0.000120556
8.55244e-05
6.98117e-05
0.000150588
0.000117465
9.93642e-05
8.82142e-05
7.97909e-05
7.15723e-05
6.35387e-05
5.5654e-05
4.7055e-05
2.93709e-05
1.93175e-05
5.90287e-05
3.3749e-05
0.00479215
0.0147774
0.00203113
0.000490108
0.000373718
0.000403913
0.000478096
0.000611139
0.000778535
0.000895394
0.000941523
0.000925651
0.000859685
0.000752173
0.000625497
0.000490994
0.000366253
0.000277747
0.0002298
0.000173417
0.000127426
9.4726e-05
7.32319e-05
6.04215e-05
5.8527e-05
5.6606e-05
5.55729e-05
5.4539e-05
5.26229e-05
4.91698e-05
4.4628e-05
4.02693e-05
3.63557e-05
3.03712e-05
2.39153e-05
4.19572e-05
6.04489e-05
7.73192e-05
0.000104893
0.000137039
0.00727179
0.0217494
0.00474881
0.00108752
0.00062089
0.000561617
0.000613879
0.000854475
0.00108399
0.00118321
0.00118801
0.00112941
0.00102322
0.000878817
0.000709783
0.00053491
0.00037889
0.000262037
0.000186714
0.000139077
0.000105787
8.20569e-05
6.67738e-05
5.85162e-05
5.67271e-05
5.88344e-05
6.2115e-05
6.4812e-05
6.57173e-05
6.35555e-05
5.71219e-05
4.88821e-05
4.1151e-05
3.42822e-05
2.92901e-05
3.41412e-05
4.98744e-05
6.41903e-05
0.000152137
0.000149003
0.0101842
0.0258064
0.0100249
0.00387196
0.00225138
0.00161937
0.00144033
0.00162527
0.0016936
0.0016511
0.00154737
0.00140659
0.00123426
0.0010324
0.000810863
0.000590981
0.000400368
0.000259536
0.000171294
0.000121286
9.22676e-05
7.45731e-05
6.51214e-05
6.2149e-05
6.44825e-05
7.02936e-05
7.74009e-05
8.45334e-05
9.06751e-05
9.41986e-05
9.2611e-05
8.16088e-05
6.98124e-05
5.99673e-05
5.48655e-05
5.81964e-05
7.5588e-05
0.000110466
0.000216429
0.000228387
0.0108146
0.0283566
0.0160135
0.0113666
0.00790565
0.00550743
0.00420625
0.00335226
0.00276427
0.00234853
0.0020289
0.00174986
0.00147616
0.00119232
0.000902742
0.000629856
0.000402925
0.000241976
0.000149659
0.000103324
8.2699e-05
7.26876e-05
6.93305e-05
7.08304e-05
7.61085e-05
8.42791e-05
9.46379e-05
0.000107013
0.000121517
0.000138135
0.000156217
0.000172451
0.000177595
0.000191711
0.000226577
0.000321293
0.000535109
0.000887575
0.00275948
0.000905566
0.00995151
0.0165285
0.0143658
0.0109254
0.00835723
0.0064439
0.00507778
0.00410072
0.00341822
0.00290402
0.00247245
0.00207415
0.00168417
0.0012971
0.000924406
0.000595912
0.000345739
0.000188529
0.000123264
9.51893e-05
8.31796e-05
7.86112e-05
7.84504e-05
8.1374e-05
8.69014e-05
9.50146e-05
0.000106046
0.000120759
0.000140342
0.000166417
0.000201034
0.000246657
0.000307462
0.000393099
0.000521794
0.000699158
0.000908704
0.00110847
0.0012774
0.000799553
0.00503503
0.0111691
0.00838913
0.00681416
0.00576201
0.00493484
0.0041471
0.00341147
0.00275655
0.00217387
0.00164163
0.00115649
0.000722942
0.00038172
0.000217557
0.000144092
0.000116395
0.000106141
0.000101996
0.000100104
9.93309e-05
9.92466e-05
0.000100002
0.000102117
0.000106387
0.000113898
0.000126074
0.000144812
0.000172702
0.00021311
0.000269894
0.000347505
0.000450193
0.000571401
0.000682885
0.000742117
0.000738422
0.000489129
0.00365802
0.00799278
0.00667054
0.00548094
0.00478797
0.00413294
0.00348177
0.00283503
0.00226682
0.00174387
0.00122956
0.000818858
0.000521579
0.00033913
0.000255789
0.000225026
0.000217031
0.000215368
0.000213194
0.000209151
0.000203577
0.000196426
0.000188271
0.000180188
0.00017351
0.000169683
0.000170242
0.000176957
0.000192053
0.000219119
0.000261904
0.000323881
0.000405974
0.00050094
0.00058286
0.000674969
0.000696207
0.000523713
0.00197864
0.00250983
0.00295897
0.00357474
0.00325943
0.00292481
0.002429
0.00182934
0.0013459
0.00110143
0.000917399
0.000744704
0.000582458
0.000443302
0.000324
0.000239375
0.000188438
0.000159979
0.000143642
0.000133415
0.000126905
0.000122483
0.000118965
0.000116554
0.000115699
0.000116937
0.000120821
0.000127922
0.000138939
0.000154914
0.000177695
0.000207466
0.000244852
0.000291792
0.000350073
0.000423732
0.000466857
0.000440537
0.000364502
0.000301538
)
;

boundaryField
{
    floor
    {
        Cmu             0.09;
        kappa           0.41;
        E               9.8;
        type            epsilonWallFunction;
        value           nonuniform List<scalar> 
36
(
0.000574833
2.58953e-05
4.86262e-05
6.19532e-05
5.7741e-05
5.14361e-05
4.3378e-05
3.5993e-05
2.99945e-05
2.52229e-05
2.14159e-05
1.83773e-05
1.59056e-05
1.38529e-05
1.20991e-05
1.05319e-05
9.03526e-06
8.17261e-06
6.28166e-06
6.28166e-06
1.49063e-05
2.36226e-05
3.3749e-05
7.73192e-05
0.000104893
0.000137039
0.000574833
0.000612145
0.000332541
0.000191663
2.58953e-05
0.000191663
5.88698e-05
0.000485651
0.000280246
0.000639937
)
;
    }
    ceiling
    {
        Cmu             0.09;
        kappa           0.41;
        E               9.8;
        type            epsilonWallFunction;
        value           nonuniform List<scalar> 
43
(
0.00197864
0.00250983
0.00295897
0.00357474
0.00325943
0.00292481
0.002429
0.00182934
0.0013459
0.00110143
0.000917399
0.000744704
0.000582458
0.000443302
0.000324
0.000239375
0.000188438
0.000159979
0.000143642
0.000133415
0.000126905
0.000122483
0.000118965
0.000116554
0.000115699
0.000116937
0.000120821
0.000127922
0.000138939
0.000154914
0.000177695
0.000207466
0.000244852
0.000291792
0.000350073
0.000423732
0.000466857
0.000440537
0.000364502
0.000301538
0.00995151
0.0165285
0.00365802
)
;
    }
    sWall
    {
        Cmu             0.09;
        kappa           0.41;
        E               9.8;
        type            epsilonWallFunction;
        value           uniform 0.00197864;
    }
    nWall
    {
        Cmu             0.09;
        kappa           0.41;
        E               9.8;
        type            epsilonWallFunction;
        value           nonuniform List<scalar> 6(0.000137039 0.000149003 0.000228387 0.000489129 0.000523713 0.000301538);
    }
    sideWalls
    {
        type            empty;
    }
    glass1
    {
        Cmu             0.09;
        kappa           0.41;
        E               9.8;
        type            epsilonWallFunction;
        value           nonuniform List<scalar> 9(0.000321136 0.000908066 0.00177028 0.00302098 0.00479215 0.00727179 0.0101842 0.0108146 0.00995151);
    }
    glass2
    {
        Cmu             0.09;
        kappa           0.41;
        E               9.8;
        type            epsilonWallFunction;
        value           nonuniform List<scalar> 2(0.000905566 0.000799553);
    }
    sun
    {
        Cmu             0.09;
        kappa           0.41;
        E               9.8;
        type            epsilonWallFunction;
        value           nonuniform List<scalar> 
14
(
0.000321136
0.00040422
0.000409426
0.000465609
0.000521763
0.000576911
0.000632431
0.000690856
0.000748321
0.000789518
0.000804571
0.000785419
0.000731792
0.00065581
)
;
    }
    Table_master
    {
        Cmu             0.09;
        kappa           0.41;
        E               9.8;
        type            epsilonWallFunction;
        value           nonuniform List<scalar> 9(0.000115731 8.13926e-05 5.90786e-05 4.4349e-05 3.43573e-05 2.73858e-05 2.2393e-05 1.87571e-05 1.61275e-05);
    }
    Table_slave
    {
        Cmu             0.09;
        kappa           0.41;
        E               9.8;
        type            epsilonWallFunction;
        value           nonuniform List<scalar> 9(0.000150588 0.000117465 9.93642e-05 8.82142e-05 7.97909e-05 7.15723e-05 6.35387e-05 5.5654e-05 4.7055e-05);
    }
    inlet
    {
        type            turbulentMixingLengthDissipationRateInlet;
        mixingLength    0.01;
        phi             phi;
        k               k;
        value           uniform 0.000101881;
    }
    outlet
    {
        type            zeroGradient;
    }
}


// ************************************************************************* //
