/*--------------------------------*- C++ -*----------------------------------*\
  =========                 |
  \\      /  F ield         | OpenFOAM: The Open Source CFD Toolbox
   \\    /   O peration     | Website:  https://openfoam.org
    \\  /    A nd           | Version:  6
     \\/     M anipulation  |
\*---------------------------------------------------------------------------*/
FoamFile
{
    version     2.0;
    format      ascii;
    class       volScalarField;
    location    "700";
    object      alphat;
}
// * * * * * * * * * * * * * * * * * * * * * * * * * * * * * * * * * * * * * //

dimensions      [1 -1 -1 0 0 0 0];

internalField   nonuniform List<scalar> 
458
(
0.00102946
0.00104965
0.000998923
0.000968818
0.000940837
0.000920517
0.000895639
0.000857311
0.00081002
0.000763735
0.000725413
0.000703701
0.000696688
0.000700256
0.000710102
0.00035447
0.000384236
0.000399247
0.000352075
0.000297257
0.000265863
0.000228982
0.000216048
0.000222996
0.000240144
0.000266115
0.000299182
0.000338378
0.000377633
0.000414551
0.000437878
0.000441901
0.000398561
0.00146107
0.00346405
0.00316715
0.00319995
0.00304354
0.00285917
0.00277245
0.00281579
0.0030534
0.00341002
0.0031657
0.00268071
0.00226495
0.00183956
0.00130755
0.00081184
0.000785157
0.000613555
0.000521803
0.000945702
0.00108185
0.00112749
0.00102477
0.000626803
0.000315815
0.000283944
0.000337317
0.000455104
0.000630667
0.000850347
0.0011109
0.00139315
0.00177518
0.0017065
0.00161183
0.000534389
0.00175729
0.0051798
0.00483004
0.00524015
0.00521761
0.00471958
0.00402254
0.00354574
0.00335432
0.00414663
0.00456474
0.00404347
0.00349762
0.00302641
0.00252813
0.00201477
0.00148662
0.000929232
0.000859296
0.00240859
0.00221735
0.00191995
0.00135587
0.000475948
0.000345263
0.000290793
0.00033379
0.000381014
0.00043304
0.000493925
0.0005693
0.000669143
0.00172466
0.00160943
0.00126827
0.000640642
0.00189686
0.00650454
0.00632854
0.00708233
0.00734214
0.00723567
0.00652498
0.00524666
0.00413919
0.00428505
0.00548478
0.00533582
0.0048208
0.00436818
0.00385087
0.00318278
0.00237728
0.00158976
0.00110898
0.00309698
0.00298076
0.00255931
0.0018582
0.00118054
0.000700674
0.000700605
0.000704275
0.000710241
0.000720053
0.000735972
0.000760654
0.000798327
0.00086703
0.00246787
0.00304051
0.00302189
0.00103958
0.00197726
0.003587
0.00390448
0.00453648
0.00520333
0.00568567
0.00598393
0.00624239
0.00583092
0.00453797
0.00575186
0.00625834
0.00596996
0.0057774
0.00565859
0.00553339
0.00536563
0.00515182
0.00495983
0.00513262
0.00495446
0.00462145
0.00428748
0.00400158
0.00377845
0.00365399
0.00353803
0.00343276
0.00335604
0.003328
0.00335908
0.00344846
0.00359919
0.00385222
0.00397717
0.00391519
0.00327252
0.00145112
0.001323
0.00118275
0.00391461
0.004172
0.00401014
0.00389316
0.00399723
0.00430813
0.00479358
0.00544025
0.00564354
0.00462294
0.00531618
0.00650828
0.00639158
0.00630747
0.00633066
0.00639513
0.00645699
0.00646685
0.00639214
0.00625527
0.00604883
0.00583031
0.00563284
0.00545108
0.00526609
0.00505934
0.00481844
0.00455581
0.0043112
0.00413432
0.00405168
0.00405432
0.00411221
0.00418529
0.00424432
0.00426211
0.00402942
0.00367654
0.0028025
0.00125777
0.00466693
0.00548278
0.00527873
0.00465354
0.00438459
0.00441061
0.00475755
0.0053422
0.00539042
0.00441523
0.00475383
0.00631198
0.00631637
0.00629801
0.00636135
0.00645856
0.00655406
0.00660439
0.00658055
0.00649393
0.00637805
0.00626772
0.00617961
0.00610658
0.0060262
0.0059062
0.00570989
0.00541541
0.0050527
0.00470482
0.00444012
0.00426302
0.00414061
0.00402742
0.00388337
0.00366783
0.00333089
0.00290976
0.00240836
0.00122813
0.00519285
0.00666736
0.00917088
0.00540769
0.00467237
0.00451988
0.00481372
0.00529479
0.00508473
0.00421437
0.00462029
0.00583179
0.00603961
0.00609432
0.00616502
0.0062382
0.0063023
0.00633412
0.00631768
0.00626335
0.00619883
0.00615205
0.00614184
0.00617469
0.00624596
0.00633452
0.00638835
0.00632074
0.00606893
0.00568051
0.00526511
0.00483212
0.00437201
0.00389371
0.00343397
0.00303856
0.00264924
0.00231429
0.00199686
0.00138839
0.00592424
0.00728837
0.0125826
0.00660416
0.00465214
0.00464306
0.00489855
0.00524918
0.00484298
0.00423752
0.00463134
0.00538917
0.00571829
0.00584404
0.00590523
0.00593144
0.0059346
0.00591427
0.00586767
0.00580319
0.00574021
0.00570022
0.00570167
0.00575975
0.00588963
0.00610649
0.00641141
0.00674467
0.00698633
0.00698263
0.00675888
0.00645329
0.00616836
0.00591595
0.00557717
0.00494437
0.00428569
0.00383167
0.00361486
0.00171254
0.0185798
0.00967967
0.00434993
0.00503761
0.00519706
0.0053907
0.00495385
0.00456708
0.00471137
0.00509124
0.00535541
0.00547681
0.00552794
0.00553763
0.00551753
0.00547372
0.00541169
0.00534055
0.00527366
0.0052254
0.00520883
0.00523621
0.00532242
0.00548868
0.00576119
0.00615177
0.00661646
0.00697832
0.00712259
0.00705349
0.00686134
0.00664296
0.00644816
0.00632878
0.00612359
0.00539996
0.00491976
0.00173406
0.00582801
0.00435033
0.00484774
0.00516003
0.00522811
0.00513076
0.00464739
0.00428938
0.00422419
0.00437357
0.00459019
0.00479713
0.00497052
0.0050921
0.00515532
0.00516537
0.00513542
0.00508253
0.00502392
0.00497399
0.00494308
0.00493854
0.00496717
0.00503747
0.00515973
0.00534216
0.00557895
0.00580378
0.00593876
0.00598541
0.00594659
0.00584181
0.00569738
0.00552335
0.00507092
0.00431699
0.00418647
0.001585
0.00211178
0.00279488
0.00397573
0.00212543
0.00180816
0.00196367
0.0019522
0.0018277
0.00169072
0.0015801
0.0014978
0.00143521
0.0013887
0.001358
0.00133876
0.00132663
0.00131755
0.00130829
0.00129687
0.00128255
0.00126564
0.00124708
0.00122811
0.00121007
0.00119426
0.00118192
0.00117404
0.00117108
0.00117273
0.00118388
0.00120461
0.00122533
0.00124177
0.00124996
0.00124322
0.00121322
0.00118104
0.00114126
0.00117426
0.00113196
)
;

boundaryField
{
    floor
    {
        type            compressible::alphatWallFunction;
        Prt             0.85;
        value           nonuniform List<scalar> 
36
(
0.000100666
4.64617e-05
5.11987e-05
5.3574e-05
4.60828e-05
3.72057e-05
3.20235e-05
2.58311e-05
2.36305e-05
2.48162e-05
2.77209e-05
3.20673e-05
3.75195e-05
4.38789e-05
5.01491e-05
5.59698e-05
5.96117e-05
6.02425e-05
5.34608e-05
5.34601e-05
7.44571e-05
9.04025e-05
0.000147865
0.000204451
0.000187069
0.000167823
0.000100665
0.000115476
0.000111617
8.64217e-05
4.6461e-05
8.64207e-05
7.25617e-05
0.000132285
0.000122304
0.000157576
)
;
    }
    ceiling
    {
        type            compressible::alphatWallFunction;
        Prt             0.85;
        value           nonuniform List<scalar> 
43
(
0.00029203
0.0003795
0.000525552
0.000294193
0.000252308
0.000272726
0.000271078
0.000254666
0.000236558
0.000221853
0.000210844
0.000202425
0.000196144
0.000191984
0.000189369
0.000187713
0.000186467
0.000185194
0.000183624
0.000181657
0.000179333
0.000176783
0.000174176
0.000171694
0.000169518
0.000167819
0.000166736
0.000166332
0.000166565
0.000168113
0.000170974
0.000173825
0.000176084
0.000177209
0.000176282
0.000172155
0.000167715
0.000162208
0.000166778
0.000160917
0.000755708
0.00091293
0.000745545
)
;
    }
    sWall
    {
        type            compressible::alphatWallFunction;
        Prt             0.85;
        value           uniform 0.000291028;
    }
    nWall
    {
        type            compressible::alphatWallFunction;
        Prt             0.85;
        value           nonuniform List<scalar> 6(0.000167618 0.000177941 0.000173869 0.000242054 0.000222235 0.000160605);
    }
    sideWalls
    {
        type            empty;
    }
    glass1
    {
        type            compressible::alphatWallFunction;
        Prt             0.85;
        value           nonuniform List<scalar> 9(0.000143025 0.000201508 0.000240583 0.000258506 0.000269291 0.000511318 0.000600973 0.000662955 0.000748262);
    }
    glass2
    {
        type            compressible::alphatWallFunction;
        Prt             0.85;
        value           nonuniform List<scalar> 2(0.000194756 0.000238079);
    }
    sun
    {
        type            compressible::alphatWallFunction;
        Prt             0.85;
        value           nonuniform List<scalar> 
14
(
0.000146639
0.000149437
0.000142306
0.00013802
0.00013402
0.000131112
0.000127518
0.000121991
0.000115151
0.000108432
0.000102855
9.96938e-05
9.86797e-05
9.92146e-05
)
;
    }
    Table_master
    {
        type            compressible::alphatWallFunction;
        Prt             0.85;
        value           nonuniform List<scalar> 9(6.56518e-05 4.51097e-05 3.62632e-05 4.32634e-05 5.0816e-05 5.89971e-05 6.84132e-05 7.98707e-05 9.47643e-05);
    }
    Table_slave
    {
        type            compressible::alphatWallFunction;
        Prt             0.85;
        value           nonuniform List<scalar> 9(9.94096e-05 9.94012e-05 9.9942e-05 0.000100819 0.000102258 0.000104587 0.000108185 0.000113647 0.000123536);
    }
    inlet
    {
        type            fixedValue;
        value           uniform 1.94e-05;
    }
    outlet
    {
        type            zeroGradient;
    }
}


// ************************************************************************* //
