/*--------------------------------*- C++ -*----------------------------------*\
  =========                 |
  \\      /  F ield         | OpenFOAM: The Open Source CFD Toolbox
   \\    /   O peration     | Website:  https://openfoam.org
    \\  /    A nd           | Version:  6
     \\/     M anipulation  |
\*---------------------------------------------------------------------------*/
FoamFile
{
    version     2.0;
    format      ascii;
    class       volScalarField;
    location    "700";
    object      nut;
}
// * * * * * * * * * * * * * * * * * * * * * * * * * * * * * * * * * * * * * //

dimensions      [0 2 -1 0 0 0 0];

internalField   nonuniform List<scalar> 
458
(
0.000889129
0.000905582
0.000861602
0.000835523
0.000811322
0.000793757
0.000772266
0.000739173
0.000698361
0.000658433
0.000625384
0.000606661
0.000600615
0.000603695
0.000612191
0.000304457
0.000330029
0.000342939
0.000302391
0.000255286
0.000228324
0.000196658
0.000185541
0.000191498
0.000206215
0.000228511
0.000256903
0.000290565
0.000324289
0.00035602
0.000376075
0.000379525
0.000342301
0.00126338
0.00299258
0.00273561
0.00276327
0.00262747
0.00246767
0.00239232
0.00242912
0.00263351
0.00294067
0.00272983
0.00231154
0.00195299
0.00158615
0.00112738
0.000699944
0.000676898
0.000528873
0.000448429
0.00081278
0.00092981
0.000969012
0.000880634
0.00053846
0.00027131
0.000243919
0.000289767
0.000390947
0.000541764
0.000730499
0.000954394
0.00119712
0.00152585
0.00146674
0.00138494
0.000459033
0.00152137
0.00448187
0.00418047
0.00453531
0.00451421
0.00408106
0.00347612
0.00306198
0.00289489
0.00357707
0.00393723
0.00348749
0.0030166
0.00261009
0.0021802
0.00173735
0.00128179
0.000801127
0.000739579
0.00207255
0.0019078
0.00165202
0.00116672
0.000409252
0.000296721
0.000249874
0.000286875
0.000327513
0.000372286
0.000424686
0.000489565
0.000575524
0.00148367
0.00138394
0.00109025
0.000550604
0.00164422
0.005636
0.00548742
0.00614246
0.00636813
0.00627584
0.00565427
0.00453925
0.00357692
0.00369811
0.00473195
0.00460323
0.00415886
0.00376827
0.0033218
0.00274523
0.00205015
0.00137071
0.000955979
0.00266913
0.00256896
0.00220614
0.00160213
0.00101806
0.000604343
0.000604298
0.000607474
0.00061263
0.000621104
0.000634846
0.000656146
0.000688639
0.000747791
0.0021274
0.00261987
0.0026029
0.000895471
0.00171621
0.00311312
0.00338966
0.00393916
0.00451885
0.00493834
0.00519732
0.00541978
0.00505321
0.00391907
0.00496354
0.00540024
0.00515149
0.00498535
0.00488273
0.00477444
0.00462933
0.00444443
0.00427841
0.00442716
0.00427349
0.00398642
0.00369854
0.00345207
0.00325968
0.00315236
0.00305238
0.00296162
0.00289551
0.00287141
0.00289831
0.0029755
0.00310552
0.00332358
0.00343111
0.0033773
0.00282243
0.00125171
0.00114122
0.0010203
0.00340585
0.00362836
0.00348695
0.00338458
0.00347457
0.00374459
0.00416622
0.00472635
0.00489537
0.00399805
0.00458879
0.00561696
0.00551652
0.00544415
0.0054642
0.00551971
0.00557281
0.00558093
0.00551607
0.00539766
0.00521937
0.00503074
0.00486033
0.00470349
0.00454387
0.0043655
0.00415769
0.00393116
0.00372022
0.00356775
0.00349661
0.00349906
0.00354916
0.00361234
0.00366337
0.00367879
0.00347796
0.00317333
0.00241848
0.00108522
0.00405986
0.00476552
0.00458807
0.00404495
0.00381134
0.00383406
0.00413531
0.00464089
0.00467421
0.0038179
0.00410436
0.00544849
0.00545275
0.00543733
0.00549224
0.00557615
0.00565839
0.0057015
0.00568053
0.00560539
0.00550506
0.00540959
0.00533336
0.00527017
0.00520068
0.00509703
0.0049276
0.00467353
0.00436065
0.00406063
0.00383242
0.00367979
0.00357432
0.00347676
0.00335252
0.00316651
0.00287563
0.002512
0.00207884
0.00105975
0.00451552
0.00579194
0.00796695
0.00469948
0.00406118
0.00392888
0.00418355
0.00459751
0.0044055
0.00364274
0.00398955
0.00503498
0.005215
0.00526287
0.0053243
0.00538759
0.00544284
0.00547001
0.00545543
0.00540809
0.00535198
0.00531123
0.00530209
0.00533015
0.00539141
0.00546762
0.00551391
0.00545548
0.00523819
0.00490313
0.00454485
0.00417137
0.0037744
0.00336163
0.00296481
0.00262348
0.00228739
0.00199821
0.00172412
0.00119874
0.00514976
0.00633137
0.0109308
0.00573781
0.00404287
0.00403507
0.00425558
0.00455413
0.00419238
0.00366213
0.00400007
0.0046543
0.00493906
0.0050483
0.0051016
0.00512442
0.00512709
0.00510928
0.00506865
0.00501252
0.00495766
0.00492267
0.0049235
0.00497325
0.00508502
0.0052719
0.0055348
0.00582221
0.00603063
0.00602739
0.00583434
0.00557074
0.00532498
0.00510728
0.00481502
0.00426894
0.00370044
0.00330859
0.00312157
0.00147912
0.0161405
0.00840411
0.00377802
0.00437554
0.00451206
0.00467287
0.00428666
0.00394804
0.00407131
0.00439933
0.00462789
0.00473319
0.00477767
0.00478614
0.00476868
0.00473057
0.00467659
0.00461466
0.00455637
0.00451417
0.00449935
0.00452253
0.00459654
0.0047397
0.0049746
0.00531144
0.00571229
0.00602439
0.00614877
0.00608906
0.00592321
0.00573476
0.00556669
0.00546372
0.00528662
0.00466193
0.00424742
0.00149719
0.00505798
0.00377378
0.00420612
0.00447845
0.00453592
0.00444536
0.00402243
0.00371054
0.0036533
0.0037822
0.00396948
0.00414842
0.00429831
0.00440331
0.00445773
0.00446607
0.00443973
0.00439349
0.00434227
0.00429854
0.00427125
0.00426676
0.00429096
0.00435118
0.00445632
0.00461344
0.00481753
0.00501129
0.00512752
0.00516756
0.0051339
0.00504337
0.00491865
0.0047684
0.00437781
0.00372694
0.00361429
0.00136852
0.00183672
0.00242833
0.00344964
0.00184275
0.00156777
0.00170315
0.00169261
0.00158353
0.00146419
0.00136804
0.0012966
0.00124232
0.00120197
0.00117531
0.00115856
0.00114795
0.00113997
0.00113182
0.00112178
0.00110923
0.00109443
0.0010782
0.00106162
0.00104585
0.00103202
0.0010212
0.00101425
0.00101158
0.00101291
0.00102244
0.00104026
0.00105808
0.00107222
0.00107926
0.0010734
0.00104748
0.00101967
0.000985317
0.00101379
0.000977391
)
;

boundaryField
{
    floor
    {
        type            nutkWallFunction;
        Cmu             0.09;
        kappa           0.41;
        E               9.8;
        value           nonuniform List<scalar> 
36
(
7.3828e-05
3.39955e-05
3.74582e-05
3.91956e-05
3.37179e-05
2.72272e-05
2.34384e-05
1.89107e-05
1.73007e-05
1.81672e-05
2.02909e-05
2.34683e-05
2.74537e-05
3.21019e-05
3.66852e-05
4.09407e-05
4.36036e-05
4.40641e-05
3.91086e-05
3.91085e-05
5.44571e-05
6.61367e-05
0.000108343
0.000149967
0.000137225
0.000123119
7.3828e-05
8.46883e-05
8.18552e-05
6.33789e-05
3.39954e-05
6.33789e-05
5.30919e-05
9.70075e-05
8.9561e-05
0.00011553
)
;
    }
    ceiling
    {
        type            nutkWallFunction;
        Cmu             0.09;
        kappa           0.41;
        E               9.8;
        value           nonuniform List<scalar> 
43
(
0.000215746
0.000280132
0.000387489
0.000216705
0.00018585
0.000200956
0.000199677
0.000187459
0.000174053
0.000163191
0.00015507
0.000148864
0.000144234
0.000141164
0.00013923
0.000138
0.00013707
0.000136119
0.000134947
0.000133483
0.000131757
0.000129863
0.000127928
0.000126086
0.000124469
0.000123204
0.000122394
0.000122085
0.000122245
0.000123372
0.000125463
0.000127549
0.0001292
0.000130021
0.000129337
0.000126306
0.000123046
0.000119003
0.000122356
0.000118067
0.000558225
0.000673958
0.000549853
)
;
    }
    sWall
    {
        type            nutkWallFunction;
        Cmu             0.09;
        kappa           0.41;
        E               9.8;
        value           uniform 0.000215795;
    }
    nWall
    {
        type            nutkWallFunction;
        Cmu             0.09;
        kappa           0.41;
        E               9.8;
        value           nonuniform List<scalar> 6(0.000123123 0.000130717 0.000127741 0.000177862 0.000163315 0.000118073);
    }
    sideWalls
    {
        type            empty;
    }
    glass1
    {
        type            nutkWallFunction;
        Cmu             0.09;
        kappa           0.41;
        E               9.8;
        value           nonuniform List<scalar> 9(0.000107731 0.000151502 0.000180738 0.000194199 0.000202354 0.000382974 0.000449611 0.000495543 0.000558748);
    }
    glass2
    {
        type            nutkWallFunction;
        Cmu             0.09;
        kappa           0.41;
        E               9.8;
        value           nonuniform List<scalar> 2(0.000143914 0.000175877);
    }
    sun
    {
        type            nutkWallFunction;
        Cmu             0.09;
        kappa           0.41;
        E               9.8;
        value           nonuniform List<scalar> 
14
(
0.000107696
0.000109644
0.000104392
0.000101237
9.82972e-05
9.61609e-05
9.35223e-05
8.94663e-05
8.44481e-05
7.95208e-05
7.54316e-05
7.31143e-05
7.2371e-05
7.27635e-05
)
;
    }
    Table_master
    {
        type            nutkWallFunction;
        Cmu             0.09;
        kappa           0.41;
        E               9.8;
        value           nonuniform List<scalar> 9(4.79847e-05 3.29527e-05 2.64867e-05 3.16056e-05 3.71289e-05 4.31124e-05 5e-05 5.83823e-05 6.92808e-05);
    }
    Table_slave
    {
        type            nutkWallFunction;
        Cmu             0.09;
        kappa           0.41;
        E               9.8;
        value           nonuniform List<scalar> 9(7.28802e-05 7.28759e-05 7.32736e-05 7.39178e-05 7.49743e-05 7.66831e-05 7.9322e-05 8.33266e-05 9.05636e-05);
    }
    inlet
    {
        type            calculated;
        value           uniform 0.0161405;
    }
    outlet
    {
        type            calculated;
        value           nonuniform List<scalar> 2(0.00183672 0.00242833);
    }
}


// ************************************************************************* //
