/*--------------------------------*- C++ -*----------------------------------*\
  =========                 |
  \\      /  F ield         | OpenFOAM: The Open Source CFD Toolbox
   \\    /   O peration     | Website:  https://openfoam.org
    \\  /    A nd           | Version:  6
     \\/     M anipulation  |
\*---------------------------------------------------------------------------*/
FoamFile
{
    version     2.0;
    format      ascii;
    class       surfaceScalarField;
    location    "700";
    object      phi;
}
// * * * * * * * * * * * * * * * * * * * * * * * * * * * * * * * * * * * * * //

dimensions      [1 0 -1 0 0 0 0];

internalField   nonuniform List<scalar> 
850
(
-0.00335172
0.00340611
-0.00477523
0.00142275
-0.0055904
0.000814731
-0.00603868
0.000448062
-0.00618846
0.000149687
-0.00607253
-0.000115949
-0.00570694
-0.000365509
-0.00512438
-0.000582403
-0.00441347
-0.000710709
-0.0036816
-0.000731673
-0.00302078
-0.000660632
-0.00242297
-0.000597637
-0.00182886
-0.00059394
-0.0011025
-0.000726206
-0.00110048
-0.000714411
0.000719584
-0.000742598
2.82989e-05
-0.000585562
-0.000156934
-0.000488586
-9.68771e-05
-0.000449818
-3.86697e-05
-0.000287408
-0.00016231
-5.49451e-05
-0.000232367
0.000200289
-0.000255132
0.00035641
-0.000156021
0.000466953
-0.000110446
0.000555734
-8.86853e-05
0.000632697
-7.68691e-05
0.000706533
-7.3744e-05
0.000768606
-6.19767e-05
0.000815371
-4.66623e-05
0.000870184
-5.4707e-05
0.000772505
9.77699e-05
0.000777345
-0.00237564
0.00592691
-0.00359968
0.00264484
-0.0044267
0.00164001
-0.00504721
0.00106727
-0.00542162
0.000523238
-0.00550405
-3.4023e-05
-0.00530431
-0.000565396
-0.00487399
-0.00101257
-0.0043076
-0.00127676
-0.00369105
-0.00134792
-0.00315573
-0.00119571
-0.00269872
-0.00105443
-0.00227775
-0.00101472
-0.00190676
-0.00109702
-0.00185708
-0.00115001
-0.000821282
-0.00103233
0.0002119
-0.0010296
0.000222663
0.000921466
-0.000190627
0.000864965
8.48725e-05
0.000535637
0.000172501
0.000317421
0.000121472
6.67594e-05
0.000212129
-0.000100698
5.24385e-06
-4.08486e-05
-0.000292111
4.03058e-05
-0.000336192
7.06987e-05
-0.00018632
7.87257e-05
-0.000118382
6.99484e-05
-7.98219e-05
4.1734e-05
-4.85747e-05
-1.81088e-05
-1.38231e-05
-8.21613e-05
2.15968e-06
-1.99241e-05
-0.000108814
0.000213452
-0.000288011
0.000275498
3.57901e-05
0.00106458
-0.00159955
0.00774698
-0.00209104
0.0031333
-0.00223855
0.00178416
-0.00268434
0.00150987
-0.00336237
0.00119883
-0.00395212
0.00055432
-0.00415935
-0.000359044
-0.00404929
-0.00112251
-0.00375861
-0.00156678
-0.003286
-0.00182001
-0.0029183
-0.0015631
-0.0026575
-0.00131499
-0.00246992
-0.00120209
-0.00235911
-0.00120764
-0.00227621
-0.00123276
-0.00205607
-0.00125234
-0.00172431
-0.00136124
-0.00149379
-0.000386471
0.000206844
-0.000474336
0.000172831
-0.000360328
5.86402e-05
-0.000186186
-5.24968e-05
0.000223762
-0.00019763
0.00022931
-6.2525e-05
-0.000398483
-0.000584573
-0.000702731
-0.000782335
-0.000830694
-0.000844296
-0.000841896
-0.000812542
-0.000138046
-0.00118019
7.97152e-05
-0.00128432
0.000140019
-0.000203434
-0.000454771
0.00849189
-4.61093e-06
0.00267945
0.000937997
0.000837649
0.000984495
0.00145934
0.000426118
0.00175341
-0.000511755
0.00148849
-0.00156446
0.000690818
-0.00233968
-0.000347185
-0.00258722
-0.00131794
-0.00242544
-0.00198077
-0.0023212
-0.00166693
-0.00228539
-0.00135054
-0.00229784
-0.00118942
-0.00235337
-0.00115192
-0.00241849
-0.00116747
-0.00246486
-0.00120583
-0.00258501
-0.00124097
-0.00306511
-0.00101361
-0.00247986
-0.000576988
-0.00202216
-0.000250828
-0.00173912
-0.00011013
-0.00155905
-0.000121319
-0.00144979
-0.000161635
-0.0014507
-0.000196608
-0.0012743
-0.000176461
-0.00108635
-0.000188005
-0.000889264
-0.000197146
-0.000689455
-0.00019987
-0.00049141
-0.000198106
-0.000295399
-0.000196072
-9.61627e-05
-0.000199294
0.000110327
-0.000206544
0.000308965
-0.000198676
0.000422569
-0.000251495
0.000655174
-0.000152717
0.000754836
4.05081e-05
0.000563261
0.00716187
0.00168244
0.009061
0.000776727
0.00855918
0.00133579
0.0075987
0.00241607
0.00642883
0.00291958
0.0051787
0.00273516
0.0036813
0.00218544
0.00177556
0.00155738
-0.000117177
0.000576108
-0.00118583
-0.000910019
-0.00149857
-0.00135357
-0.00169719
-0.00115164
-0.00186034
-0.00102606
-0.00200709
-0.00100499
-0.00213693
-0.00103745
-0.00226016
-0.00108246
-0.00241898
-0.00108202
-0.00250628
-0.000926193
-0.00240341
-0.00067975
-0.00218305
-0.000471085
-0.00194473
-0.000348346
-0.00175633
-0.000309616
-0.00160995
-0.000307913
-0.00149062
-0.000315844
-0.00134733
-0.000319662
-0.00120495
-0.000330285
-0.00106416
-0.000337852
-0.000924678
-0.000339258
-0.000786225
-0.000336469
-0.000645426
-0.00033678
-0.000493714
-0.000350916
-0.000310486
-0.000389681
-4.8202e-05
-0.000460865
0.000275582
-0.000575183
0.000769844
-0.000646887
0.00141402
-0.000603588
0.00250374
-0.000526398
0.00288259
-0.000370968
0.00230359
0.000587415
0.00234841
0.00852643
-0.00654157
0.0114609
-0.00215829
0.0111875
0.00160832
0.0100362
0.00356615
0.0086681
0.00428609
0.00709252
0.00430901
0.00529444
0.00398214
0.00345908
0.00339284
0.00171785
0.00232076
0.000193897
0.000618975
-0.000628747
-0.00052969
-0.00103323
-0.000746883
-0.00129473
-0.000764366
-0.00148983
-0.000809707
-0.00164837
-0.000878733
-0.00179171
-0.000938951
-0.00192585
-0.00094773
-0.00198613
-0.000865776
-0.00194405
-0.000721716
-0.0018273
-0.000587723
-0.00168259
-0.000492946
-0.00154951
-0.0004426
-0.00143699
-0.000420335
-0.00134104
-0.000411698
-0.00125284
-0.000407772
-0.00117626
-0.000406773
-0.00111237
-0.000401656
-0.00106196
-0.000389581
-0.00102493
-0.000373409
-0.000998268
-0.000363357
-0.000973556
-0.000375545
-0.000935214
-0.000427944
-0.000860235
-0.000535769
-0.000729746
-0.000705603
-0.000453675
-0.000922898
0.000119835
-0.00117705
0.000943822
-0.00135035
0.00150397
-0.000931087
0.00144884
0.000642577
0.0038383
0.00346529
-0.00967723
0.00560525
-0.00429736
0.00664158
0.000572688
0.00624209
0.00396582
0.00574697
0.00478088
0.00489979
0.00515556
0.00377247
0.00510915
0.00261363
0.00455312
0.00167201
0.00326735
0.000805005
0.00149129
6.96518e-05
0.000207431
-0.00037952
-0.000297427
-0.000656051
-0.000487681
-0.000851199
-0.000614393
-0.00100686
-0.000722892
-0.00114351
-0.000802122
-0.00125955
-0.000831516
-0.00132655
-0.000798616
-0.00132746
-0.000720656
-0.00127955
-0.0006355
-0.00120783
-0.000564543
-0.00113525
-0.00051507
-0.00107292
-0.000482565
-0.00102463
-0.000459891
-0.000992093
-0.00044022
-0.000980812
-0.000417967
-0.000997156
-0.000385229
-0.00104907
-0.000337585
-0.00114466
-0.000277743
-0.00128843
-0.000219504
-0.00147619
-0.00018771
-0.00169341
-0.000210651
-0.00192045
-0.00030867
-0.00213373
-0.000492268
-0.00229312
-0.000763459
-0.00232491
-0.00114521
-0.00203293
-0.00164229
-0.00102036
-0.00194363
0.000259002
-0.000636768
0.00414628
-0.00163249
-0.00767939
-0.001016
-0.004913
0.000718897
-0.00116132
0.00145978
0.00322535
0.0019892
0.00425153
0.00203295
0.00511179
0.00175219
0.00539056
0.00145398
0.00485427
0.0013036
0.00342368
0.00104885
0.00175052
0.000643118
0.000614639
0.000311171
3.48065e-05
8.92604e-05
-0.000265682
-6.85444e-05
-0.000456467
-0.000199356
-0.000591911
-0.000321809
-0.000679472
-0.000433864
-0.000719255
-0.00051895
-0.000713329
-0.000565114
-0.000674303
-0.000578173
-0.00062227
-0.000570926
-0.000571637
-0.00055687
-0.000528989
-0.000545408
-0.000493907
-0.000542531
-0.000462662
-0.000552933
-0.000429722
-0.000583085
-0.000387729
-0.000642696
-0.000325539
-0.00074716
-0.000233046
-0.000919255
-0.000105574
-0.00118764
4.89536e-05
-0.00158423
0.000208954
-0.00212591
0.000331094
-0.00279282
0.000358292
-0.00352896
0.000243926
-0.00426502
-2.73458e-05
-0.00502692
-0.000383267
-0.00595903
-0.000710151
-0.0068814
-0.00102122
-0.00598009
-0.00153805
-0.0016055
-0.00729814
-0.0122186
-0.00757447
-0.00580466
-0.00326277
-0.00108581
-0.00119747
0.00218678
-0.00019672
0.00411181
0.000314519
0.00488093
0.00079945
0.00437339
0.00124954
0.002979
0.00139038
0.00161279
0.00129801
0.000708069
0.00114867
0.000184412
0.00102158
-0.000138537
0.000917372
-0.00035219
0.000812021
-0.000486426
0.000694984
-0.000562243
0.000570678
-0.000594722
0.00045273
-0.000595139
0.000353268
-0.000574599
0.000275496
-0.00054427
0.000215984
-0.000511917
0.000168245
-0.000481064
0.000126041
-0.000451543
8.45177e-05
-0.000421002
4.04565e-05
-0.000385546
-7.77475e-06
-0.000339401
-5.94343e-05
-0.000273798
-0.00011284
-0.000179569
-0.000168251
-5.00965e-05
-0.000232735
0.000113501
-0.000321199
0.000297482
-0.000447391
0.00045735
-0.000634256
0.000545219
-0.000930771
0.000540502
-0.001401
0.000442945
-0.00201673
0.000232511
-0.00271255
-1.42803e-05
-0.0033797
-0.000354024
-0.0031466
-0.00177111
-0.00451633
-0.00634282
0.000401879
-0.00513895
-0.00228889
-0.00289402
-5.71437e-05
-0.00133691
0.00255608
-0.000196518
0.00374274
0.00092123
0.00325961
0.00174582
0.00215799
0.00214659
0.00121383
0.00227651
0.000578827
0.00228963
0.000171491
0.00225175
-0.000100629
0.00217122
-0.000271618
0.00205138
-0.000366491
0.00190188
-0.000412565
0.00173579
-0.000428395
0.00156719
-0.00042627
0.00140748
-0.000414598
0.00126268
-0.000399187
0.00113408
-0.000383038
0.00101996
-0.00036669
0.000917614
-0.000348968
0.000824591
-0.000327785
0.000739664
-0.000300459
0.000663882
-0.000263491
0.000602266
-0.000212082
0.000563375
-0.000140598
0.000556263
-4.29191e-05
0.000587847
8.19754e-05
0.000652726
0.000232659
0.000740725
0.000369407
0.000833281
0.000452719
0.000919154
0.000454685
0.00101249
0.000349664
0.00113852
0.000106539
0.00134253
-0.000218235
0.00169407
-0.000705526
0.00165192
-0.00172891
-0.00281161
-0.00141795
0.00180924
-0.00253634
-0.00116986
-0.00244883
-0.000143688
-0.00128177
0.00139038
0.000307159
0.00215603
0.0018554
0.00171394
0.00289196
0.0011232
0.00346727
0.000639376
0.00373785
0.000308563
0.00382125
8.81737e-05
0.00376482
-4.4175e-05
0.00361062
-0.000117378
0.0034035
-0.000159277
0.00317256
-0.000181453
0.00293716
-0.000192755
0.00270922
-0.000198036
0.00249481
-0.000199863
0.00229566
-0.000199694
0.0021111
-0.000198138
0.00193985
-0.000195111
0.00178122
-0.000190028
0.00163562
-0.000181915
0.00150481
-0.000169417
0.00139233
-0.000150822
0.00130461
-0.000124223
0.00125182
-8.76993e-05
0.00124807
-3.90913e-05
0.00129965
3.04645e-05
0.00141927
0.000113085
0.00160043
0.000188297
0.00181791
0.000235285
0.00204078
0.000231862
0.00223444
0.000156045
0.0023505
-9.47153e-06
0.00235295
-0.000220643
0.00214122
-0.00049376
0.00135685
-0.000944516
-0.00139205
0.00375197
-0.00247263
-0.000679574
-0.00187397
-0.00204566
-0.000682751
0.00144775
0.00313728
0.00423609
0.00485064
0.00513385
0.00519618
0.00512584
0.00498227
0.004797
0.00458994
0.00437207
0.00414948
0.00392568
0.00370267
0.00348187
0.00326477
0.00305344
0.00285092
0.0026616
0.00249156
0.00234876
0.0022431
0.00218662
0.0022003
0.00229727
0.00247005
0.00269028
0.00290741
0.00304884
0.00302458
0.00278894
0.00227986
0.00132041
)
;

boundaryField
{
    floor
    {
        type            calculated;
        value           nonuniform List<scalar> 
36
(
0
0
0
0
0
0
0
0
0
0
0
0
0
0
0
0
0
0
0
-4.75681e-06
-1.16626e-05
-1.61881e-05
-1.17779e-05
-7.84485e-06
-8.39046e-06
-9.05393e-06
-1.87092e-06
-3.32429e-06
-3.452e-06
-4.23455e-06
-5.05991e-06
-6.42822e-06
-1.12205e-05
-7.74779e-06
-1.09288e-05
-8.21307e-06
)
;
    }
    ceiling
    {
        type            calculated;
        value           nonuniform List<scalar> 
43
(
3.71914e-05
2.60397e-05
1.64118e-05
2.50516e-05
2.89001e-05
2.82894e-05
2.71446e-05
2.55161e-05
2.50307e-05
2.51337e-05
2.54801e-05
2.59109e-05
2.623e-05
2.63017e-05
2.61552e-05
2.58356e-05
2.53952e-05
2.4878e-05
2.43127e-05
2.37124e-05
2.30793e-05
2.24117e-05
2.17103e-05
2.09828e-05
2.02435e-05
1.95116e-05
1.88054e-05
1.81398e-05
1.75224e-05
1.68716e-05
1.61786e-05
1.55658e-05
1.50833e-05
1.47623e-05
1.46495e-05
1.48098e-05
1.50181e-05
1.53347e-05
1.49569e-05
1.6163e-05
1.08402e-05
8.27e-06
1.11485e-05
)
;
    }
    sWall
    {
        type            calculated;
        value           uniform -0.000153746;
    }
    nWall
    {
        type            calculated;
        value           nonuniform List<scalar> 6(-3.57381e-05 -4.10319e-05 -4.89463e-05 -5.27674e-05 -6.26832e-05 -8.77804e-05);
    }
    sideWalls
    {
        type            empty;
        value           nonuniform 0();
    }
    glass1
    {
        type            calculated;
        value           nonuniform List<scalar> 9(-5.56929e-05 -0.000147066 -0.000222916 -0.000292952 -0.000355567 -0.000303006 -0.000328966 -0.000364603 -0.000391347);
    }
    glass2
    {
        type            calculated;
        value           nonuniform List<scalar> 2(-0.000228272 -0.000235747);
    }
    sun
    {
        type            calculated;
        value           uniform 0;
    }
    Table_master
    {
        type            calculated;
        value           nonuniform List<scalar> 9(-1.54e-07 -1.54173e-07 -1.54186e-07 -1.54063e-07 -1.53969e-07 -1.53892e-07 -1.53826e-07 -1.53765e-07 -1.53683e-07);
    }
    Table_slave
    {
        type            calculated;
        value           nonuniform List<scalar> 9(1.52593e-07 1.52653e-07 1.52711e-07 1.52772e-07 1.52833e-07 1.52892e-07 1.52949e-07 1.52975e-07 1.52953e-07);
    }
    inlet
    {
        type            calculated;
        value           uniform 0.000137306;
    }
    outlet
    {
        type            calculated;
        value           nonuniform List<scalar> 2(-0.00363507 0.00619892);
    }
}


// ************************************************************************* //
