/*--------------------------------*- C++ -*----------------------------------*=========                 |
  \      /  F ield         | OpenFOAM: The Open Source CFD Toolbox
   \    /   O peration     | Website:  https://openfoam.org
    \  /    A nd           | Version:  6
     \/     M anipulation  |
\*---------------------------------------------------------------------------*/
FoamFile
{
    version     2.0;
    format      ascii;
    class       volScalarField;
    location    "700";
    object      PMV;
}
// * * * * * * * * * * * * * * * * * * * * * * * * * * * * * * * * * * * * * //

dimensions      [0 0 0 0 0 0 0];

internalField   nonuniform List<scalar> 
458
(
2.1072573992166155
1.8779943499160376
1.8218109694585218
1.7883909131584177
1.7692611420633393
1.7607896531060725
1.757275979052749
1.757681004326209
1.7638913814967936
1.7764557349366263
1.7943533188227376
1.8152101968192438
1.841660218881595
1.865657429305754
1.858180100169047
1.351946560217197
1.3548322835756246
1.3620464473080158
1.348098878368343
1.335112532968894
1.3341505562083007
1.3394413856875855
1.3331885760198028
1.3254926123709987
1.3192394845735167
1.3153913371680845
1.3144292922302752
1.3168343985260853
1.324049595274983
1.3355935200604132
1.3437701678109661
1.3418462734225265
1.3413652976266068
2.213495319851507
2.089612835813239
2.063399491433877
2.0120393237568854
1.9588266403402728
1.9136515865819983
1.8824917842085722
1.8483608311236046
1.8225172039282473
1.8148748990459849
1.822681163356066
1.8344856445085311
1.8465268317201453
1.8544270965562222
1.8570072597569984
1.8876798753940367
1.8915864345433036
1.8264343872658133
1.3526543638282813
1.4399450320884695
1.4433103750898395
1.4399450320884695
1.4231174699550826
1.3740695838374866
1.3779168606297236
1.3707031657393933
1.370222245019304
1.369260400706079
1.370222245019304
1.37455049684309
1.3846494436285168
1.414462759506238
1.4567711651867583
1.4500408875580695
1.4043651522602376
1.3171250014313634
2.377447912699403
2.329694296624787
2.4051931568812757
2.401440493202677
2.340626415855307
2.243337406483561
2.136107126217875
2.025447073221337
1.9305050971245048
1.8686220639105622
1.8620350037471254
1.8675387361000277
1.8709670625741448
1.8682230983679728
1.8610664179944827
1.8560589182775478
1.842097730275968
1.8055012863431963
1.6174784784045586
1.61149128538355
1.5970830470589514
1.6071689783797642
1.6138925053677764
1.5082000829217346
1.4298486621919535
1.4096544341344968
1.4370604068611572
1.459655496959801
1.4803252268172864
1.4995493024952098
1.520694857809968
1.5456814749690504
1.5754678204749075
1.512525305004244
1.4688209361073372
1.3231483935851382
2.5682137672560277
2.5561190328585495
2.7150132130854616
2.7326963218659914
2.7395264556617507
2.7510871262854053
2.616530837122033
2.348305049992527
2.158536890517643
1.9512320423672647
1.9111569524442953
1.9127673574409803
1.9133818387839467
1.9083650807697814
1.8972819485685297
1.8803501539692362
1.852768121209054
1.813631324808904
1.7915208881881561
1.7888947799920378
1.7989676043155014
1.8404237547049576
1.8799277291763328
1.9111797865553568
1.9401098661927618
1.955715903765865
1.958115195078328
1.960507091750277
1.962898899520009
1.9657689509234733
1.9676822467342177
1.9667256060253957
1.9451974338936202
1.8719509801787797
1.806783624232761
1.7549978846256034
1.7597940750754661
2.7989409765462456
2.796339150691056
2.847327169272744
2.884016986684806
2.9098334124033185
2.9318643580646446
2.9312040073177696
2.876152367104456
2.630410546851479
2.091943475743224
1.972132594159534
1.9652557930309518
1.9654044829338615
1.9614007009238699
1.9530479321298486
1.9406151849674493
1.9231892602152443
1.9063318760433587
1.897821162360713
1.8968339583391656
1.907462038399778
1.9239813888560313
1.9400744151024905
1.9528123795744545
1.9642160698227904
1.9747674641638384
1.9853774712579246
1.9887246475305553
1.9925497666916672
1.997330825360301
2.001633452250368
2.004501697347083
2.0035456310711135
1.99159350950485
1.9801172542335412
1.9637481733182447
1.9092073073887994
1.8850058471317326
1.8710158867627391
1.9029196638639978
3.0
3.0
3.0
3.0
3.0
3.0
3.0
2.9703558765549682
2.7314768819889426
2.3336687195031316
2.0565831548700366
2.025990397030435
2.023277000581075
2.019664588663145
2.0127947647887092
2.0027302228901958
1.9891840393542342
1.9770806225142628
1.969575586316668
1.9676230488435662
1.9702087915373938
1.9756516593636428
1.9815550908442567
1.9870266078162468
1.99210363867882
1.9972298508808124
2.0031955146006895
2.008803803864771
2.0140615051627138
2.0207524356407633
2.0279204225606065
2.0346097237775327
2.0403427726265435
2.0441644746923004
2.0479859101178004
2.050374170995802
2.0448622830964642
2.0320431251445146
1.9706249063149581
1.905890052078604
3.0
3.0
3.0
3.0
3.0
3.0
3.0
2.9569314089045142
2.6704025612149893
2.284127283514798
2.087617089193774
2.057060739264337
2.0699538914030686
2.0814117959658045
2.0807983785846993
2.0716701877195707
2.060498508687399
2.0490903583208104
2.0408821910728974
2.035293820242637
2.0324326391712186
2.031559199463722
2.0310078178774993
2.028876085736058
2.025531193983748
2.023141864859307
2.022663987008686
2.024575474374226
2.029353911254496
2.031499054311405
2.0309880309326305
2.029068326715947
2.0253767681146115
2.020960149253235
2.015532043640624
2.0094727213416936
2.003116142346671
2.0047338417666682
2.0532399448953575
1.8640982153512409
3.0
2.9478107024640776
2.9591696554478646
3.0
3.0
3.0
3.0
2.8753473941747667
2.535746917247874
2.208286493162687
2.1024112245275717
2.082366505867449
2.0990709997275006
2.11624685341705
2.126263254824233
2.129124691122881
2.125786331703801
2.118154903076972
2.107659687985323
2.0966849860749632
2.085707849216397
2.075683162120364
2.0666115254482604
2.058493466816265
2.0513294458650737
2.045119858621596
2.0408204999008364
2.0384318222046587
2.0398650412160317
2.0455975443274768
2.0427956215066954
2.0287764172093765
2.0126152018912324
1.9963447812001889
1.9814556499507692
1.9686223746058247
1.9577144740766397
1.9494106640284186
1.9293476287461748
1.8771495606378874
3.0
2.938789512500918
2.9426072587177825
2.969928899380846
3.0
3.0
2.9529751591572144
2.73824791128394
2.3991715673225076
2.1740398882599288
2.110435066111454
2.1166158424965045
2.1399341242358147
2.1582057837588167
2.1705952088481335
2.1753594224153923
2.1739302143207753
2.1672599435166187
2.1562994055800084
2.1439059488967813
2.130555343227515
2.117200887819619
2.104796959872943
2.0928671251045032
2.082366505867449
2.072341164489529
2.0632689464788823
2.0561055662104004
2.051807076966916
2.0508518105401037
2.0527623264859227
2.057538319389361
2.0632689464788823
2.0689989515166913
2.072933398561301
2.0487435305268105
2.031174690832545
2.0226288545074764
1.9949568038311336
1.931010410631849
2.9321717099167377
2.8574026766272604
2.911342937611241
2.919949327241914
2.848207012889798
2.602096793558956
2.343103253893956
2.2023869276192674
2.151845273945175
2.1454740161418138
2.1564324285433982
2.1704897257082925
2.182120688221443
2.1896019165078786
2.19190533714127
2.1902788331433034
2.1853732792025733
2.1778283537753587
2.1688569228999626
2.159343602479621
2.1477196866665094
2.132462810604793
2.118154903076972
2.104796959872943
2.0923898718770704
2.0814117959658045
2.072341164489529
2.064701506319826
2.0604037102689086
2.0594485971197907
2.059926155840562
2.0618363477601367
2.064701506319826
2.0666115254482604
2.0604602969254717
2.046008524653254
1.9878187258700672
1.9630659739747245
2.7692591379792764
2.7237596830812976
2.7527519514146697
2.803081617768104
2.745295714820303
2.539442960930496
2.3808511540921553
2.28621878181403
2.242548508491238
2.225850227382006
2.222198887016392
2.2226537840729654
2.2233125679180836
2.2220027583271653
2.2182923256002915
2.2108999307315353
2.2006781924797787
2.1875527008539
2.173015183911233
2.1575996079504525
2.1423370940580706
2.127263680342555
2.1138376525242766
2.1019944893478404
2.0916017638736233
2.0828493582057357
2.0742290416560882
2.066756822398578
2.0589688145311853
2.0483606702835266
2.0358988256241806
2.0244436170921465
2.014481799799479
2.0058287562178463
2.000970275890985
2.00073679175129
1.9704067853133127
1.9546228628925633
3.0
2.961472996617956
2.73332213905142
2.6467615817618344
2.6351582369702666
2.687701385825775
2.632926806586255
2.516864823473265
2.436142461415416
2.3868369176731044
2.358961852642107
2.3433610954272166
2.330947542158883
2.3191958514734607
2.307083215930862
2.292784767483801
2.2772439197045866
2.259303359949943
2.2394418647107646
2.2181685785769054
2.194954229576542
2.171396194760178
2.14698478568369
2.122760870940909
2.1002363253135217
2.0793054280383307
2.0608632527645865
2.0447409890697585
2.031293313044402
2.019971119102607
2.0112056412230297
2.0021174992167756
1.9929420518318182
1.9846355137108356
1.977401617515484
1.9721767272150779
1.9731462130727602
1.981455598836918
1.9640715848364814
1.9271940160864829
)
;

boundaryField
{
    ".*"
    {
        type            zeroGradient;
    }
}


// ************************************************************************* //
