// -*- C++ -*-
// File generated by PyFoam - sorry for the ugliness

FoamFile
{
 version 2.0;
 format ascii;
 class volVectorField;
 location "2400";
 object U;
}

dimensions [ 0 1 -1 0 0 0 0 ];

internalField nonuniform List<vector> 458
(
  (0.0396441 0.0824339 0)
  (-0.160166 0.0228549 0)
  (-0.179589 0.0163557 0)
  (-0.207739 0.0120362 0)
  (-0.229307 0.00712288 0)
  (-0.243779 0.00198401 0)
  (-0.250309 -0.003463 0)
  (-0.247657 -0.00930377 0)
  (-0.235538 -0.0155705 0)
  (-0.21424 -0.0217276 0)
  (-0.18496 -0.0271447 0)
  (-0.14943 -0.0315545 0)
  (-0.109772 -0.0354979 0)
  (-0.0717068 -0.0406423 0)
  (-0.0540546 -0.0474448 0)
  (0.0084057 0.00564021 0)
  (-0.0140338 -0.0183202 0)
  (0.0112884 -0.0241575 0)
  (0.0286519 -0.0171734 0)
  (0.0430601 -0.0110664 0)
  (0.0520967 -0.00620779 0)
  (0.0564175 -0.00369429 0)
  (0.0579157 -0.00271222 0)
  (0.0583143 -0.00230138 0)
  (0.0583728 -0.00205088 0)
  (0.0582111 -0.00183446 0)
  (0.0577567 -0.00158037 0)
  (0.0568281 -0.00113284 0)
  (0.0549271 -0.000128719 0)
  (0.0509778 0.00192466 0)
  (0.0438368 0.00399403 0)
  (0.0380522 0.00522177 0)
  (-0.0154932 0.0183864 0)
  (0.213158 0.168959 0)
  (-0.151357 0.0605511 0)
  (-0.144153 0.0472971 0)
  (-0.173058 0.0382029 0)
  (-0.19399 0.0280298 0)
  (-0.208273 0.0170241 0)
  (-0.215231 0.00484221 0)
  (-0.213534 -0.00870449 0)
  (-0.202951 -0.0228591 0)
  (-0.184225 -0.0359136 0)
  (-0.159031 -0.0461567 0)
  (-0.129798 -0.0525826 0)
  (-0.0995744 -0.0552015 0)
  (-0.0730887 -0.0545526 0)
  (-0.0563343 -0.0466558 0)
  (-0.0386442 -0.00911445 0)
  (-0.0168671 0.027663 0)
  (-0.0781352 0.0355029 0)
  (0.0730985 0.0196024 0)
  (0.0360186 -0.018956 0)
  (0.0398775 -0.0267603 0)
  (0.0499645 -0.0216446 0)
  (0.05774 -0.0141165 0)
  (0.0612825 -0.00537731 0)
  (0.0617064 -0.000363151 0)
  (0.0613551 0.00161502 0)
  (0.0612814 0.00241484 0)
  (0.0613984 0.00288253 0)
  (0.0614604 0.0032086 0)
  (0.0614177 0.00357542 0)
  (0.0612494 0.00431949 0)
  (0.0604623 0.00627303 0)
  (0.0567959 0.0118931 0)
  (0.0475755 0.0163317 0)
  (0.0435195 0.0186386 0)
  (-0.0493236 0.0403584 0)
  (0.370607 0.252685 0)
  (-0.169986 0.0972385 0)
  (-0.108272 0.0765127 0)
  (-0.135938 0.0596653 0)
  (-0.153818 0.0429246 0)
  (-0.166434 0.0252953 0)
  (-0.172898 0.00577093 0)
  (-0.171025 -0.0158534 0)
  (-0.160568 -0.0380859 0)
  (-0.142904 -0.057857 0)
  (-0.120235 -0.0724356 0)
  (-0.0951914 -0.0804519 0)
  (-0.0705639 -0.0818602 0)
  (-0.0491189 -0.0772824 0)
  (-0.0321627 -0.0652008 0)
  (-0.0150793 -0.0412615 0)
  (0.00164991 -0.02094 0)
  (-0.0311859 -0.0153877 0)
  (0.0957604 -0.0498929 0)
  (0.0603556 -0.0444801 0)
  (0.0578602 -0.0366811 0)
  (0.0619831 -0.028262 0)
  (0.0653643 -0.0213846 0)
  (0.0662462 -0.0160801 0)
  (0.0616125 -0.010925 0)
  (0.0582454 -0.00822476 0)
  (0.0572021 -0.00674291 0)
  (0.0572015 -0.00580492 0)
  (0.0575063 -0.00512258 0)
  (0.0580652 -0.00451438 0)
  (0.0593157 -0.00364003 0)
  (0.0623358 -0.000554697 0)
  (0.0608482 0.0161545 0)
  (0.0485154 0.0273324 0)
  (0.0504512 0.0344598 0)
  (-0.0786274 0.06403 0)
  (0.509908 0.320003 0)
  (-0.204607 0.130579 0)
  (-0.0709693 0.100851 0)
  (-0.0966023 0.0771171 0)
  (-0.1087 0.0558293 0)
  (-0.11728 0.0334695 0)
  (-0.121408 0.00765554 0)
  (-0.117174 -0.0220094 0)
  (-0.105459 -0.052225 0)
  (-0.0885406 -0.0778663 0)
  (-0.0690594 -0.0955098 0)
  (-0.0492248 -0.103955 0)
  (-0.0310528 -0.103467 0)
  (-0.0155283 -0.0952163 0)
  (-0.00243555 -0.0791013 0)
  (0.0116663 -0.0553345 0)
  (0.0288855 -0.0335753 0)
  (0.0448243 -0.0210869 0)
  (0.0719343 -0.00590872 0)
  (0.0791474 -0.0360214 0)
  (0.066142 -0.0380647 0)
  (0.0601277 -0.032305 0)
  (0.0584898 -0.0260922 0)
  (0.057103 -0.0190222 0)
  (0.0590269 -0.0118686 0)
  (0.0662677 -0.00885043 0)
  (0.0727663 -0.00726611 0)
  (0.0776884 -0.00624207 0)
  (0.0815 -0.00517437 0)
  (0.0838857 -0.00368301 0)
  (0.083478 -0.00146881 0)
  (0.0786853 0.00182438 0)
  (0.0672719 0.006677 0)
  (0.0550985 0.0257853 0)
  (0.043505 0.0415955 0)
  (0.0562573 0.0541607 0)
  (-0.100492 0.0864575 0)
  (0.62694 0.372544 0)
  (-0.244203 0.158742 0)
  (-0.0352496 0.113934 0)
  (-0.0552539 0.0862333 0)
  (-0.0591981 0.0626488 0)
  (-0.0611128 0.0376777 0)
  (-0.0600907 0.00701245 0)
  (-0.0495404 -0.0300547 0)
  (-0.0357059 -0.0664342 0)
  (-0.020659 -0.0952032 0)
  (-0.00657814 -0.11326 0)
  (0.00563589 -0.120209 0)
  (0.0149017 -0.117033 0)
  (0.0219036 -0.106199 0)
  (0.027483 -0.0892524 0)
  (0.0339677 -0.0682294 0)
  (0.0430589 -0.0484229 0)
  (0.0527114 -0.0358179 0)
  (0.0609702 -0.0313502 0)
  (0.061809 -0.0368144 0)
  (0.0559575 -0.034751 0)
  (0.0498092 -0.0293365 0)
  (0.0459692 -0.0237624 0)
  (0.0440208 -0.0178281 0)
  (0.0451566 -0.0109576 0)
  (0.0492758 -0.00764282 0)
  (0.0538419 -0.00656469 0)
  (0.0582441 -0.00587004 0)
  (0.0624248 -0.0043841 0)
  (0.0659081 -0.00128833 0)
  (0.0678721 0.00376316 0)
  (0.0669098 0.0107001 0)
  (0.0625997 0.0198813 0)
  (0.0564717 0.0349819 0)
  (0.0479746 0.0518975 0)
  (0.0677237 0.0704553 0)
  (0.00370068 0.0951165 0)
  (0.0543396 0.132392 0)
  (-0.0739806 0.0588643 0)
  (-0.264427 -0.00596441 0)
  (0.708443 0.41677 0)
  (-0.280473 0.178217 0)
  (-0.00952194 0.107726 0)
  (-0.0115744 0.0840737 0)
  (-0.00408957 0.0628454 0)
  (0.00304515 0.036191 0)
  (0.0156672 0.000209126 0)
  (0.0333279 -0.0425304 0)
  (0.0474984 -0.0799323 0)
  (0.0575865 -0.106843 0)
  (0.06315 -0.121857 0)
  (0.0645564 -0.125693 0)
  (0.0627488 -0.120204 0)
  (0.0589744 -0.107796 0)
  (0.0545262 -0.0906858 0)
  (0.0510839 -0.0712562 0)
  (0.049762 -0.052982 0)
  (0.049658 -0.0395743 0)
  (0.0487585 -0.03219 0)
  (0.0448294 -0.0302302 0)
  (0.0381915 -0.0278589 0)
  (0.0316187 -0.0241441 0)
  (0.0270399 -0.0203001 0)
  (0.0247839 -0.0165019 0)
  (0.0251708 -0.0129607 0)
  (0.0278514 -0.011535 0)
  (0.031602 -0.0113796 0)
  (0.0358633 -0.0111051 0)
  (0.0404541 -0.0096155 0)
  (0.0451224 -0.00589255 0)
  (0.0497653 0.000966323 0)
  (0.0528355 0.0105185 0)
  (0.0540401 0.0221199 0)
  (0.0550377 0.0366046 0)
  (0.0550727 0.0529466 0)
  (0.0734927 0.0725015 0)
  (0.0642015 0.0843256 0)
  (0.0940567 0.0902312 0)
  (0.110989 0.0550463 0)
  (-0.1295 -0.0235649 0)
  (0.757334 0.457284 0)
  (-0.295928 0.165051 0)
  (0.0171174 0.0551451 0)
  (0.0491451 0.0564998 0)
  (0.0676934 0.050825 0)
  (0.083853 0.0254932 0)
  (0.110405 -0.0161541 0)
  (0.129614 -0.0573176 0)
  (0.139707 -0.0895747 0)
  (0.140904 -0.110411 0)
  (0.134504 -0.119852 0)
  (0.122423 -0.119366 0)
  (0.106869 -0.11114 0)
  (0.089969 -0.0975602 0)
  (0.073519 -0.0808529 0)
  (0.0590253 -0.0631965 0)
  (0.0473061 -0.0469075 0)
  (0.0380905 -0.0343434 0)
  (0.0302543 -0.0265576 0)
  (0.0224853 -0.022892 0)
  (0.0148035 -0.0206996 0)
  (0.00825943 -0.0186169 0)
  (0.00372774 -0.0167941 0)
  (0.0013772 -0.0153135 0)
  (0.00121496 -0.0143494 0)
  (0.00279908 -0.0145024 0)
  (0.00533738 -0.015209 0)
  (0.00845815 -0.0155629 0)
  (0.0121722 -0.0146888 0)
  (0.0166654 -0.0115462 0)
  (0.0222742 -0.00482271 0)
  (0.0303419 0.00606666 0)
  (0.036893 0.0183359 0)
  (0.0441015 0.0314967 0)
  (0.0520655 0.044998 0)
  (0.0701606 0.0603866 0)
  (0.0834583 0.0660056 0)
  (0.112009 0.0608006 0)
  (0.152889 0.0505701 0)
  (-0.0262318 0.0912471 0)
  (0.861232 0.460001 0)
  (-0.0664915 0.143761 0)
  (0.10857 -0.0304877 0)
  (0.183009 -0.0403344 0)
  (0.198689 -0.0324499 0)
  (0.216857 -0.0449653 0)
  (0.236841 -0.0646474 0)
  (0.245293 -0.0830021 0)
  (0.239955 -0.0964942 0)
  (0.222854 -0.103484 0)
  (0.197371 -0.103638 0)
  (0.166998 -0.0977846 0)
  (0.134944 -0.0874086 0)
  (0.103835 -0.0740749 0)
  (0.0755289 -0.0593025 0)
  (0.0512374 -0.0446953 0)
  (0.0313412 -0.0317212 0)
  (0.0159657 -0.0220401 0)
  (0.00434902 -0.0164605 0)
  (-0.00502972 -0.014224 0)
  (-0.0122885 -0.0136399 0)
  (-0.0179854 -0.0135088 0)
  (-0.0220531 -0.0136844 0)
  (-0.0246156 -0.0141607 0)
  (-0.0258631 -0.0149784 0)
  (-0.0261976 -0.0161857 0)
  (-0.0260888 -0.0174835 0)
  (-0.0257366 -0.018432 0)
  (-0.0250451 -0.0185357 0)
  (-0.0236583 -0.0171976 0)
  (-0.0208454 -0.0137089 0)
  (-0.0143791 -0.00724806 0)
  (-0.00163054 0.00252137 0)
  (0.00931499 0.0124823 0)
  (0.0210889 0.0193541 0)
  (0.0381771 0.0251902 0)
  (0.0544246 0.0199546 0)
  (0.0778301 0.00443792 0)
  (0.141157 0.0432634 0)
  (-0.390103 0.196892 0)
  (1.00832 0.415994 0)
  (0.473636 0.272613 0)
  (0.495928 0.174 0)
  (0.529078 0.11887 0)
  (0.506751 0.081197 0)
  (0.467923 0.043892 0)
  (0.427924 0.00754857 0)
  (0.382106 -0.0227683 0)
  (0.330798 -0.0438597 0)
  (0.276461 -0.0551644 0)
  (0.22227 -0.0580078 0)
  (0.170766 -0.0547163 0)
  (0.123826 -0.0476421 0)
  (0.0826774 -0.0384542 0)
  (0.0479632 -0.0283929 0)
  (0.0199353 -0.0188811 0)
  (-0.00230064 -0.011192 0)
  (-0.0172746 -0.00712295 0)
  (-0.0270455 -0.00596207 0)
  (-0.0342672 -0.00636336 0)
  (-0.0400757 -0.00743113 0)
  (-0.0449506 -0.00865831 0)
  (-0.0490314 -0.00996827 0)
  (-0.0524994 -0.0113469 0)
  (-0.0555863 -0.0127961 0)
  (-0.058613 -0.0142658 0)
  (-0.0619383 -0.0155526 0)
  (-0.0658662 -0.0163164 0)
  (-0.0706892 -0.0160566 0)
  (-0.076786 -0.0140617 0)
  (-0.0846756 -0.00943724 0)
  (-0.0948124 -0.00132258 0)
  (-0.105872 0.0101953 0)
  (-0.118447 0.0242688 0)
  (-0.139661 0.0410259 0)
  (-0.172099 0.0602285 0)
  (-0.217456 0.0790841 0)
  (-0.267713 0.0948742 0)
  (-0.337596 0.105927 0)
  (-0.605453 0.11135 0)
  (-0.330092 -0.0762613 0)
  (0.124419 -0.0176367 0)
  (0.21191 -0.0114189 0)
  (0.201286 -0.0119472 0)
  (0.183536 -0.014293 0)
  (0.168242 -0.0165071 0)
  (0.147049 -0.0174118 0)
  (0.120072 -0.0163913 0)
  (0.0903852 -0.0137866 0)
  (0.0599024 -0.0100702 0)
  (0.0300813 -0.00584644 0)
  (0.00244586 -0.00150436 0)
  (-0.020302 0.00234131 0)
  (-0.0359897 0.00482433 0)
  (-0.0467015 0.00594452 0)
  (-0.0535694 0.00584825 0)
  (-0.0584524 0.00529326 0)
  (-0.0625403 0.00457337 0)
  (-0.0664548 0.00350022 0)
  (-0.0703511 0.00222242 0)
  (-0.0743487 0.000833395 0)
  (-0.0785917 -0.000575838 0)
  (-0.0831931 -0.00190514 0)
  (-0.0882349 -0.00295893 0)
  (-0.0937856 -0.0034856 0)
  (-0.0998455 -0.00318619 0)
  (-0.106329 -0.0017382 0)
  (-0.113073 0.00117063 0)
  (-0.119752 0.00581008 0)
  (-0.125412 0.0127704 0)
  (-0.129619 0.0233691 0)
  (-0.132897 0.0382483 0)
  (-0.13627 0.0565739 0)
  (-0.14034 0.0754369 0)
  (-0.141902 0.0864155 0)
  (-0.127203 0.0691647 0)
  (-0.0997037 -0.0170623 0)
  (-0.270807 -0.191756 0)
  (-0.0175436 0.150612 0)
  (0.0415327 0.0449688 0)
  (-0.0162335 0.00909159 0)
  (-0.0167413 0.0161178 0)
  (-0.0178561 0.0155424 0)
  (-0.0227277 0.00966557 0)
  (-0.0299834 0.00531678 0)
  (-0.0390531 0.00371003 0)
  (-0.0492478 0.0036771 0)
  (-0.0581545 0.00372105 0)
  (-0.0647948 0.00276159 0)
  (-0.0697176 0.000337208 0)
  (-0.0728792 -0.00362788 0)
  (-0.0745689 -0.00871469 0)
  (-0.0755298 -0.014424 0)
  (-0.076399 -0.0205304 0)
  (-0.0776501 -0.0263629 0)
  (-0.0793767 -0.0313267 0)
  (-0.0816009 -0.0350688 0)
  (-0.0844883 -0.0377167 0)
  (-0.0880051 -0.0392297 0)
  (-0.0920638 -0.0397176 0)
  (-0.0966027 -0.0396639 0)
  (-0.101523 -0.0390762 0)
  (-0.106636 -0.037854 0)
  (-0.111636 -0.0357663 0)
  (-0.116071 -0.0324028 0)
  (-0.119308 -0.0271076 0)
  (-0.12057 -0.0188604 0)
  (-0.119229 -0.00789356 0)
  (-0.114142 0.00581849 0)
  (-0.10394 0.0228685 0)
  (-0.0879613 0.0429215 0)
  (-0.0667746 0.0630053 0)
  (-0.042494 0.0767709 0)
  (-0.0078242 0.0674035 0)
  (0.144525 -0.00482829 0)
  (-0.203497 -0.104981 0)
  (0.0871791 -0.256478 0)
  (-0.354902 -0.122838 0)
  (-0.272812 0.0255743 0)
  (-0.234668 -0.0242878 0)
  (-0.209834 -0.0192388 0)
  (-0.193296 -0.0076085 0)
  (-0.180234 3.9343e-06 0)
  (-0.170128 0.0055006 0)
  (-0.162294 0.0113433 0)
  (-0.155321 0.0180783 0)
  (-0.148073 0.0254071 0)
  (-0.139934 0.0331736 0)
  (-0.130923 0.0414105 0)
  (-0.121528 0.0501171 0)
  (-0.112439 0.0591781 0)
  (-0.104336 0.0684565 0)
  (-0.097629 0.0777107 0)
  (-0.0924667 0.0865163 0)
  (-0.0887947 0.0942839 0)
  (-0.0864167 0.100486 0)
  (-0.0850849 0.104839 0)
  (-0.0846161 0.107429 0)
  (-0.0848992 0.10815 0)
  (-0.0858514 0.107154 0)
  (-0.0873985 0.105188 0)
  (-0.0894745 0.102322 0)
  (-0.0919581 0.0986417 0)
  (-0.094635 0.0942329 0)
  (-0.097146 0.0891397 0)
  (-0.0988794 0.0833073 0)
  (-0.0987663 0.0765947 0)
  (-0.0947611 0.0710147 0)
  (-0.0843647 0.0681894 0)
  (-0.0655269 0.0691053 0)
  (-0.0379982 0.0743557 0)
  (0.00275068 0.0833688 0)
  (0.0475184 0.0865314 0)
  (0.0878329 0.0748943 0)
  (0.160007 0.0496649 0)
  (-0.244119 0.00109338 0)
)
;

boundaryField
{
  floor
  {
    type noSlip;
  }
  ceiling
  {
    type noSlip;
  }
  sWall
  {
    type noSlip;
  }
  nWall
  {
    type noSlip;
  }
  sideWalls
  {
    type empty;
  }
  glass1
  {
    type noSlip;
  }
  glass2
  {
    type noSlip;
  }
  sun
  {
    type noSlip;
  }
  Table_master
  {
    type noSlip;
  }
  Table_slave
  {
    type noSlip;
  }
  inlet
  {
    type fixedValue;
    value uniform (0.212132 -0.212132 0);
  }
  outlet
  {
    type zeroGradient;
  }
} 	// ************************************************************************* //

