/*--------------------------------*- C++ -*----------------------------------*\
  =========                 |
  \\      /  F ield         | OpenFOAM: The Open Source CFD Toolbox
   \\    /   O peration     | Website:  https://openfoam.org
    \\  /    A nd           | Version:  6
     \\/     M anipulation  |
\*---------------------------------------------------------------------------*/
FoamFile
{
    version     2.0;
    format      ascii;
    class       surfaceScalarField;
    location    "100";
    object      phi;
}
// * * * * * * * * * * * * * * * * * * * * * * * * * * * * * * * * * * * * * //

dimensions      [1 0 -1 0 0 0 0];

internalField   nonuniform List<scalar> 
850
(
-0.00265533
0.00273324
-0.00276379
0.000108578
-0.00301419
0.000250521
-0.00333586
0.000321794
-0.0036497
0.000313957
-0.00391804
0.000268457
-0.00411598
0.000198052
-0.0042218
0.000105947
-0.00421406
-7.6218e-06
-0.00406878
-0.000145162
-0.00376477
-0.000303887
-0.00328914
-0.000475518
-0.0026132
-0.000675821
-0.00160557
-0.00100751
-0.00160088
-0.000633327
0.000639805
-0.000320697
-0.000312508
0.000299061
-0.000619641
0.000943046
-0.000643874
0.00136877
-0.000425619
0.00131327
5.56102e-05
0.0011935
0.000119879
0.00104952
0.000144086
0.000887805
0.000161829
0.000724714
0.000163204
0.000571727
0.000153102
0.00043989
0.000131953
0.000346363
9.36369e-05
0.000309243
3.72223e-05
0.000377183
-6.78635e-05
0.000614578
-0.000237337
0.000812694
-0.000198029
0.000821435
-0.00194815
0.00488073
-0.00254595
0.000706504
-0.00301425
0.000718948
-0.0034095
0.000717175
-0.00376231
0.000666891
-0.00406147
0.000567749
-0.00429065
0.000427361
-0.00443268
0.000248104
-0.004471
3.08336e-05
-0.00439324
-0.000222794
-0.00418799
-0.000508999
-0.00384156
-0.00082182
-0.00334635
-0.0011709
-0.00279509
-0.00155864
-0.00260532
-0.00179052
-0.000916871
-0.00167978
0.000622993
-0.00153076
0.000649171
0.00057451
8.28117e-05
0.000153146
0.000108976
-6.85835e-05
-0.000397798
0.00019643
-0.000908781
0.000554039
-0.000783133
0.000516814
9.29215e-05
0.000530042
0.000106733
0.00050777
0.000166443
0.000497899
0.000171792
0.000503642
0.00015756
0.000516472
0.000140378
0.000533159
0.000115376
0.000555928
7.09795e-05
0.000565882
2.73726e-05
0.000582158
-8.40447e-05
0.00067251
-0.000327578
0.000572836
-9.82297e-05
0.00141467
-0.00145542
0.00663004
-0.00225854
0.00150976
-0.00281794
0.00127849
-0.0032464
0.00114577
-0.00361998
0.00104061
-0.00394043
0.000888342
-0.00419753
0.000684599
-0.00437818
0.000428901
-0.00446979
0.000122586
-0.00446476
-0.00022768
-0.00436326
-0.000610355
-0.0041748
-0.00101014
-0.00393404
-0.00141152
-0.00371823
-0.00177432
-0.00351433
-0.00199429
-0.0031342
-0.0020598
-0.00258793
-0.00207691
-0.00191769
-0.00122089
0.00132453
-0.00138158
0.000269785
-0.00136207
-0.00041719
-0.00118708
-0.00108366
-0.000294693
-0.00167543
-0.000201571
-9.46226e-05
7.20562e-05
0.000244089
0.000401901
0.00054254
0.000658186
0.000729441
0.000757087
0.000588721
8.44517e-05
-0.000122573
0.000383872
-0.000755201
0.000534579
0.000689827
-0.00109502
0.00809556
-0.00196373
0.00237862
-0.00249089
0.00180578
-0.00289896
0.00155398
-0.00325457
0.00139637
-0.00356204
0.00119596
-0.00381585
0.000938562
-0.00400656
0.000619767
-0.00412327
0.000239448
-0.00415842
-0.000192368
-0.00412099
-0.000647631
-0.00404275
-0.00108822
-0.00397313
-0.001481
-0.00395923
-0.00178806
-0.00398598
-0.0019674
-0.00402105
-0.00202459
-0.00415713
-0.00194071
-0.00470137
-0.00137333
-0.00409041
-0.000588493
-0.00294887
0.000183117
-0.00270389
2.49331e-05
-0.00258427
-0.000536672
-0.0025853
-0.00108249
-0.00293578
-0.00132479
-0.00185289
-0.00108288
-0.000737882
-0.00111498
0.000338265
-0.0010761
0.00118591
-0.00084764
0.00194081
-0.000754892
0.00262788
-0.000687071
0.00321646
-0.000588583
0.00361119
-0.000394737
0.00366707
-5.58771e-05
0.00332437
0.00042732
0.00269648
0.00101192
0.00167561
0.00155561
0.00239842
-0.000816514
0.00934737
-0.00169085
0.00325309
-0.00207697
0.00219205
-0.00241768
0.00189484
-0.0027166
0.00169545
-0.00296998
0.0014495
-0.00317626
0.00114501
-0.00333066
0.000774324
-0.00342435
0.000333312
-0.00344721
-0.000169338
-0.00341215
-0.000682525
-0.00336506
-0.00113514
-0.00335382
-0.00149207
-0.00340587
-0.00173584
-0.00351326
-0.00185986
-0.00366915
-0.00186856
-0.00389076
-0.00171895
-0.00397117
-0.00129279
-0.00380887
-0.000750665
-0.00324984
-0.000375785
-0.00278547
-0.000439296
-0.00253565
-0.000786331
-0.00242722
-0.00119076
-0.00227245
-0.00147937
-0.00168096
-0.00167417
-0.000879144
-0.00191658
-1.29829e-05
-0.00194203
0.000736651
-0.00159709
0.00139269
-0.00141076
0.00200868
-0.00130291
0.00257777
-0.00115751
0.0030526
-0.0008694
0.00334832
-0.000351436
0.00340289
0.000372918
0.00328067
0.00113431
0.00303817
0.00179829
0.00364884
0.00178795
0.00291434
0.0007691
0.0023868
0.000563362
0.00250445
-0.000746578
0.0105858
-0.00155983
0.00406649
-0.00160076
0.00223315
-0.00180892
0.00210316
-0.00203764
0.00192434
-0.00221006
0.00162209
-0.00232769
0.00126281
-0.00239804
0.000844844
-0.00241867
0.000354125
-0.00238141
-0.00020643
-0.0023091
-0.000754658
-0.0022552
-0.00118887
-0.00225671
-0.00149039
-0.00232553
-0.00166684
-0.00245292
-0.0017323
-0.00262597
-0.00169533
-0.00280962
-0.00153514
-0.00286943
-0.00123282
-0.00274033
-0.000879613
-0.00245564
-0.000660314
-0.00220416
-0.000690618
-0.00206676
-0.000923555
-0.00200232
-0.00125501
-0.00186381
-0.00161767
-0.00150485
-0.00203291
-0.000931606
-0.00248959
-0.000281845
-0.00259155
0.000262768
-0.00214152
0.000756715
-0.00190454
0.00124282
-0.00178885
0.00173867
-0.0016532
0.00223552
-0.00136608
0.0026944
-0.000810143
0.00301825
4.92375e-05
0.00322875
0.000923982
0.00344754
0.00157969
0.00350304
0.00173265
0.00282372
0.00144862
0.00169719
0.00169007
0.00428928
-0.0010199
0.0121485
-0.00130684
0.00435358
-0.000756258
0.00168272
-0.000831998
0.00217906
-0.00108391
0.00217642
-0.00121699
0.00175534
-0.00123148
0.00127747
-0.00117914
0.000792687
-0.0010692
0.000244364
-0.000939963
-0.000335496
-0.000835473
-0.000858974
-0.000796201
-0.00122797
-0.000834665
-0.00145175
-0.000944355
-0.00155697
-0.00110813
-0.00156834
-0.0013009
-0.00150238
-0.00147743
-0.00135842
-0.00156788
-0.00114219
-0.00153396
-0.000913352
-0.00142536
-0.000768731
-0.00134078
-0.000775022
-0.00133613
-0.000928007
-0.0013939
-0.00119703
-0.00142486
-0.00158649
-0.00130914
-0.00214839
-0.000967569
-0.00283091
-0.000509054
-0.00304978
-0.000216362
-0.00243401
2.27295e-05
-0.00214347
0.000274337
-0.0020403
0.000571862
-0.00195056
0.000945453
-0.0017395
0.00140636
-0.00127087
0.00188331
-0.000427529
0.00230254
0.000504937
0.00264642
0.00123599
0.00288672
0.00149253
0.00292338
0.00141215
0.00229085
0.00232277
0.00666883
0.00211179
0.0106422
0.00251869
0.0039468
0.00216269
0.00203886
0.00158288
0.00275903
0.00099921
0.00276026
0.00066574
0.00208897
0.000593002
0.00135038
0.000671515
0.000714349
0.000850657
6.53963e-05
0.00102148
-0.000506151
0.00106443
-0.000901758
0.000996997
-0.00116036
0.000850155
-0.00130473
0.000647168
-0.00135381
0.000407552
-0.00132854
0.000154563
-0.0012492
-7.32257e-05
-0.00113044
-0.000229374
-0.000985847
-0.000296286
-0.000846243
-0.000310622
-0.000754198
-0.000338798
-0.000746644
-0.000436091
-0.000830503
-0.00062667
-0.00100623
-0.000876106
-0.0013368
-0.00105199
-0.00197226
-0.000965596
-0.00291704
-0.000666097
-0.00334893
-0.000638178
-0.00246173
-0.000738083
-0.0020434
-0.000862368
-0.00191586
-0.000958724
-0.00185404
-0.000969549
-0.0017285
-0.000801323
-0.00143892
-0.000323603
-0.000905067
0.00020543
-2.39055e-05
0.000579598
0.000861999
0.000839348
0.00123295
0.00100497
0.00124669
0.000360558
0.00296734
0.00749519
0.011324
0.0152765
0.0121205
0.005195
0.00952173
0.0053579
0.00751601
0.00476612
0.0061299
0.00347524
0.00523582
0.00224461
0.0046904
0.00125992
0.00425069
0.000505266
0.00381876
-7.40635e-05
0.00341558
-0.000498419
0.00303159
-0.000776213
0.00265747
-0.000930449
0.00229138
-0.000987547
0.00193806
-0.000975045
0.00160733
-0.00091829
0.00131557
-0.000838488
0.00108253
-0.000752608
0.000914553
-0.000678059
0.000794331
-0.000633764
0.000683586
-0.000635682
0.000533625
-0.000680317
0.000268836
-0.000741197
-0.000183961
-0.000883738
-0.000727734
-0.00142822
-0.000903432
-0.00274107
-0.000672593
-0.0035793
-0.000895254
-0.00223886
-0.00139201
-0.00154649
-0.00199328
-0.00131444
-0.00267221
-0.00117496
-0.00343425
-0.000966289
-0.00427581
-0.000597198
-0.00519681
1.60971e-05
-0.00610573
0.000885179
-0.00717749
0.00193391
-0.00886922
0.00292483
-0.011073
0.00345061
-0.010617
0.00251151
-0.00261104
0.00446758
0.00507802
0.00446483
0.00536073
0.00524388
0.00398718
0.00554783
0.00317142
0.00558572
0.00220686
0.00553729
0.00130849
0.00541856
0.000624141
0.00519518
0.000149464
0.0048517
-0.000154786
0.00444009
-0.000364444
0.00400343
-0.000493638
0.00357328
-0.000557236
0.0031708
-0.000572398
0.00280805
-0.000555364
0.0024914
-0.000521651
0.0022243
-0.000485309
0.00200366
-0.000457215
0.00181679
-0.000446686
0.0016484
-0.000467067
0.0014813
-0.000512985
0.00123463
-0.000494279
0.000690353
-0.0003392
-0.000196599
-0.000540984
-0.000660386
-0.00227699
-0.000542048
-0.00369699
-0.000909002
-0.00187167
-0.00160177
-0.000853579
-0.00233786
-0.0005782
-0.00308805
-0.000424617
-0.00381235
-0.000241843
-0.00440645
-2.94141e-06
-0.00485969
0.000469493
-0.00522062
0.00124627
-0.00550981
0.00222324
-0.00567662
0.00309178
-0.00548518
0.00325931
-0.00348849
0.000514953
-0.00597695
-0.00108477
0.00619984
0.00125584
0.0030202
0.00266936
0.00257377
0.00371708
0.00212382
0.00451181
0.00141226
0.00497606
0.000844374
0.00515805
0.000442286
0.00512903
0.000178631
0.00496905
5.34037e-06
0.00473271
-0.000127959
0.00445216
-0.000212934
0.00415657
-0.000261487
0.00386711
-0.000282774
0.00359748
-0.000285559
0.00335464
-0.000278635
0.00313914
-0.000269624
0.002945
-0.000262877
0.00276124
-0.000262722
0.00257814
-0.00028375
0.00239192
-0.00032655
0.0021815
-0.000283618
0.00181742
2.51327e-05
0.00118782
8.88854e-05
0.000219402
-0.00130827
-0.000740726
-0.00273598
-0.00133826
-0.00127391
-0.00178115
-0.000410539
-0.00212557
-0.000233647
-0.00241458
-0.000135462
-0.00267033
1.40402e-05
-0.00287388
0.000200759
-0.00287613
0.000471887
-0.00262007
0.000990355
-0.00211072
0.00171404
-0.00108016
0.00206135
0.000765198
0.00141409
0.00156401
-0.000283721
-0.00427905
-0.00927518
-0.0117766
-0.00553891
-0.00248934
0.000112719
0.00226557
0.00370818
0.00458443
0.00506024
0.00527405
0.00531625
0.00522669
0.00505362
0.00483339
0.00459317
0.00435133
0.00411736
0.00389309
0.00367595
0.00345909
0.00322117
0.00294037
0.00270233
0.00277272
0.00290745
0.00164784
-0.00103307
-0.00225196
-0.00260856
-0.00278872
-0.00287123
-0.00280525
-0.00255429
-0.00203419
-0.000997827
0.000760066
0.00286391
0.00432092
0.00408303
)
;

boundaryField
{
    floor
    {
        type            calculated;
        value           nonuniform List<scalar> 
36
(
0
0
0
0
0
0
0
0
0
0
0
0
0
0
0
0
0
0
0
-8.6535e-06
-2.02946e-05
-3.02369e-05
-3.2766e-05
-3.4392e-05
-3.56241e-05
-3.69274e-05
-4.57913e-06
-8.55388e-06
-8.98869e-06
-1.03996e-05
-6.35113e-06
-1.56772e-05
-1.73886e-05
-2.09567e-05
-2.07158e-05
-2.23545e-05
)
;
    }
    ceiling
    {
        type            calculated;
        value           nonuniform List<scalar> 
43
(
-4.07919e-05
-3.92814e-05
-3.779e-05
-2.92627e-05
-2.81841e-05
-2.89026e-05
-3.02112e-05
-3.17444e-05
-3.33769e-05
-3.50436e-05
-3.67121e-05
-3.82524e-05
-3.97124e-05
-4.11e-05
-4.23943e-05
-4.3549e-05
-4.44981e-05
-4.51752e-05
-4.55499e-05
-4.56644e-05
-4.56292e-05
-4.55362e-05
-4.53485e-05
-4.50135e-05
-4.56206e-05
-4.83485e-05
-5.4068e-05
-5.48366e-05
-5.38031e-05
-5.3352e-05
-5.28151e-05
-5.17991e-05
-5.00654e-05
-4.80716e-05
-4.58663e-05
-4.37115e-05
-4.23535e-05
-4.27816e-05
-4.5693e-05
-4.80434e-05
-4.32299e-06
-5.56075e-06
-3.702e-05
)
;
    }
    sWall
    {
        type            calculated;
        value           uniform -0.000230591;
    }
    nWall
    {
        type            calculated;
        value           nonuniform List<scalar> 6(-8.05305e-05 -8.7464e-05 -8.85188e-05 -0.000122436 -0.000133759 -0.000147837);
    }
    sideWalls
    {
        type            empty;
        value           nonuniform 0();
    }
    glass1
    {
        type            calculated;
        value           nonuniform List<scalar> 9(-7.77917e-05 -0.000199218 -0.00029378 -0.000370385 -0.000435182 -0.000491755 -0.000542714 -0.00060528 -0.000677421);
    }
    glass2
    {
        type            calculated;
        value           nonuniform List<scalar> 2(-0.000465646 -0.00051066);
    }
    sun
    {
        type            calculated;
        value           uniform 0;
    }
    Table_master
    {
        type            calculated;
        value           nonuniform List<scalar> 9(-1.57169e-07 -1.57306e-07 -1.57363e-07 -1.57376e-07 -1.5736e-07 -1.57351e-07 -1.57352e-07 -1.5737e-07 -1.57397e-07);
    }
    Table_slave
    {
        type            calculated;
        value           nonuniform List<scalar> 9(1.56044e-07 1.56434e-07 1.56723e-07 1.56712e-07 1.56473e-07 1.56253e-07 1.56068e-07 1.5595e-07 1.55949e-07);
    }
    inlet
    {
        type            calculated;
        value           uniform -0.0043506;
    }
    outlet
    {
        type            calculated;
        value           nonuniform List<scalar> 2(0.00954663 0.00254077);
    }
}


// ************************************************************************* //
