/*--------------------------------*- C++ -*----------------------------------*\
  =========                 |
  \\      /  F ield         | OpenFOAM: The Open Source CFD Toolbox
   \\    /   O peration     | Website:  https://openfoam.org
    \\  /    A nd           | Version:  6
     \\/     M anipulation  |
\*---------------------------------------------------------------------------*/
FoamFile
{
    version     2.0;
    format      ascii;
    class       volScalarField;
    location    "2200";
    object      k;
}
// * * * * * * * * * * * * * * * * * * * * * * * * * * * * * * * * * * * * * //

dimensions      [0 2 -2 0 0 0 0];

internalField   nonuniform List<scalar> 
458
(
0.00107995
0.0011294
0.00092203
0.000991844
0.00107182
0.00115065
0.00122785
0.00130492
0.00138478
0.0014703
0.00154375
0.00159951
0.0016347
0.00165157
0.00164516
0.000504436
0.000588412
0.000450541
0.000223174
0.000146942
0.000126241
0.00012789
0.000138439
0.000151727
0.000165741
0.000188388
0.00023494
0.000331697
0.000514541
0.000822176
0.00112721
0.00104307
0.000666708
0.00332922
0.00674977
0.00167752
0.00154668
0.00164462
0.00177023
0.00190568
0.0020503
0.0022026
0.00235867
0.00250507
0.00261577
0.00264721
0.00252823
0.00221635
0.00191711
0.0016189
0.00107027
0.000690577
0.00177256
0.00112962
0.000555268
0.000293774
0.000214074
0.000223506
0.000263058
0.000271463
0.000250135
0.000226729
0.000248865
0.000397384
0.000844402
0.00168644
0.00208596
0.00216891
0.000744311
0.00626548
0.0159804
0.00275408
0.00201386
0.00206382
0.00219639
0.00234838
0.0025141
0.00269067
0.00287165
0.00304668
0.0031859
0.00325553
0.00321488
0.00304287
0.0027735
0.00236941
0.0018371
0.00158295
0.00267447
0.0016146
0.00125541
0.00098779
0.000232406
0.000163979
0.000138123
0.000126102
0.000118719
0.000111712
0.000107568
0.000195237
0.000738786
0.00292286
0.00338956
0.00360852
0.00144238
0.00983831
0.0289129
0.00456655
0.00240863
0.00236463
0.00250813
0.00268702
0.00288543
0.00309848
0.00331983
0.00354129
0.0037327
0.0038673
0.00390971
0.00381306
0.00354165
0.00309458
0.00256707
0.00222112
0.00224729
0.00172351
0.00150166
0.00149056
0.00154753
0.00165883
0.00179589
0.00196938
0.00218426
0.00244699
0.00276039
0.00314629
0.00354395
0.00367796
0.00372835
0.00367098
0.00408224
0.00300869
0.0138179
0.0439002
0.00766866
0.0027939
0.00256319
0.00271795
0.00294074
0.00319697
0.00347915
0.00377998
0.00408389
0.00437221
0.00463936
0.00486529
0.00499461
0.00495746
0.00470361
0.0042172
0.00349725
0.00263466
0.00227364
0.00221509
0.00229745
0.00241053
0.00255161
0.00274214
0.00302686
0.00343012
0.00396244
0.00459786
0.00528082
0.0059129
0.00607457
0.00578209
0.00529007
0.00457536
0.00383023
0.00324859
0.00268235
0.0023905
0.0181029
0.0569106
0.0128914
0.00352706
0.00279391
0.00291449
0.00317924
0.00349139
0.00383178
0.00419648
0.00452998
0.00483885
0.00516459
0.00552479
0.00588104
0.00614524
0.00619296
0.00589107
0.00523413
0.00442306
0.00374308
0.0033308
0.00313995
0.0030687
0.00306724
0.00315403
0.0033828
0.00379828
0.00441067
0.00515455
0.0058883
0.00647108
0.00676302
0.00675787
0.00678226
0.00616726
0.00522749
0.00461334
0.00356743
0.00277142
0.0226304
0.0638786
0.0227035
0.00697501
0.00393222
0.00358986
0.00383746
0.00418768
0.00454163
0.00486977
0.00503165
0.00514885
0.00531885
0.00559983
0.00598864
0.00641057
0.00671045
0.00669192
0.00628738
0.0056276
0.00494771
0.00441937
0.00406987
0.00384291
0.00369886
0.00366162
0.00380923
0.00423064
0.00495111
0.00584127
0.00665341
0.00719007
0.0074294
0.00755481
0.00792144
0.00876655
0.00856392
0.00689944
0.00546526
0.0034941
0.0237448
0.0727952
0.041639
0.0236171
0.0125279
0.0076768
0.0065912
0.00649074
0.00650256
0.00622659
0.00585835
0.00555445
0.00536929
0.00534054
0.00549773
0.0058333
0.00624228
0.00648025
0.00640357
0.00605662
0.0055882
0.00514839
0.00480531
0.00455465
0.00438058
0.00430902
0.00443529
0.00491043
0.0058196
0.00693709
0.00784896
0.00828944
0.00828317
0.00804342
0.00786263
0.00791829
0.00799233
0.00755822
0.00708069
0.00366787
0.0223684
0.0321347
0.0319276
0.0267889
0.0206125
0.0153651
0.0117799
0.00953884
0.00811911
0.00708489
0.00632808
0.00576293
0.00534292
0.00505448
0.00491125
0.00493868
0.00513003
0.00538462
0.00555863
0.00557319
0.00545015
0.00526622
0.0050864
0.00494254
0.00485249
0.00485217
0.00502589
0.00554519
0.00676725
0.00835934
0.00964135
0.0101829
0.0100131
0.00926832
0.00808156
0.00674999
0.00598523
0.00578898
0.00600143
0.0050598
0.0252319
0.0315888
0.0222697
0.0167572
0.013064
0.0105274
0.00875704
0.00748163
0.0065362
0.00581736
0.00525951
0.00482669
0.00450711
0.00430858
0.00424765
0.00432234
0.00448986
0.00468245
0.00484795
0.00496995
0.00505597
0.00512219
0.00519216
0.00530946
0.00555898
0.0060877
0.00711418
0.0086622
0.0105249
0.012433
0.0149376
0.0183351
0.0221061
0.0237041
0.0203943
0.0153018
0.0111374
0.0056207
0.019486
0.0293988
0.0206229
0.0159895
0.0128261
0.01051
0.00877861
0.00745813
0.00641798
0.00557424
0.00489433
0.00435532
0.00394357
0.00365454
0.00349207
0.00346445
0.00357423
0.00380463
0.00411485
0.00445273
0.00477397
0.00505459
0.0052947
0.00552088
0.00579035
0.00617846
0.00670934
0.00732278
0.00797469
0.00860862
0.00940203
0.0108642
0.0131557
0.0151656
0.0155519
0.0139661
0.0106953
0.00545464
0.0101318
0.0124055
0.0149582
0.0156707
0.011259
0.00943356
0.00800739
0.00686432
0.00593854
0.00518033
0.00455923
0.00405196
0.00362486
0.00325947
0.0029456
0.00267787
0.00245393
0.00227346
0.00213726
0.00204588
0.00199774
0.00198765
0.0020072
0.00204667
0.00209766
0.0021559
0.0022241
0.00231291
0.00244894
0.00266359
0.00292588
0.00313838
0.0031938
0.00319471
0.0034732
0.00416953
0.00483278
0.00486932
0.00459246
0.00392837
)
;

boundaryField
{
    floor
    {
        type            kqRWallFunction;
        value           nonuniform List<scalar> 
36
(
0.00164516
0.000504436
0.000588412
0.000450541
0.000223174
0.000146942
0.000126241
0.00012789
0.000138439
0.000151727
0.000165741
0.000188388
0.00023494
0.000331697
0.000514541
0.000822176
0.00112721
0.00104307
0.000666708
0.000666708
0.000744311
0.00144238
0.00300869
0.00324859
0.00268235
0.0023905
0.00164516
0.00191711
0.0016189
0.00107027
0.000504436
0.00107027
0.000690577
0.0018371
0.00158295
0.00222112
)
;
    }
    ceiling
    {
        type            kqRWallFunction;
        value           nonuniform List<scalar> 
43
(
0.0101318
0.0124055
0.0149582
0.0156707
0.011259
0.00943356
0.00800739
0.00686432
0.00593854
0.00518033
0.00455923
0.00405196
0.00362486
0.00325947
0.0029456
0.00267787
0.00245393
0.00227346
0.00213726
0.00204588
0.00199774
0.00198765
0.0020072
0.00204667
0.00209766
0.0021559
0.0022241
0.00231291
0.00244894
0.00266359
0.00292588
0.00313838
0.0031938
0.00319471
0.0034732
0.00416953
0.00483278
0.00486932
0.00459246
0.00392837
0.0223684
0.0321347
0.019486
)
;
    }
    sWall
    {
        type            kqRWallFunction;
        value           uniform 0.0101318;
    }
    nWall
    {
        type            kqRWallFunction;
        value           nonuniform List<scalar> 6(0.0023905 0.00277142 0.0034941 0.0056207 0.00545464 0.00392837);
    }
    sideWalls
    {
        type            empty;
    }
    glass1
    {
        type            kqRWallFunction;
        value           nonuniform List<scalar> 9(0.00107995 0.00332922 0.00626548 0.00983831 0.0138179 0.0181029 0.0226304 0.0237448 0.0223684);
    }
    glass2
    {
        type            kqRWallFunction;
        value           nonuniform List<scalar> 2(0.00366787 0.0050598);
    }
    sun
    {
        type            kqRWallFunction;
        value           nonuniform List<scalar> 
14
(
0.00107995
0.0011294
0.00092203
0.000991844
0.00107182
0.00115065
0.00122785
0.00130492
0.00138478
0.0014703
0.00154375
0.00159951
0.0016347
0.00165157
)
;
    }
    Table_master
    {
        type            kqRWallFunction;
        value           nonuniform List<scalar> 9(0.000232406 0.000163979 0.000138123 0.000126102 0.000118719 0.000111712 0.000107568 0.000195237 0.000738786);
    }
    Table_slave
    {
        type            kqRWallFunction;
        value           nonuniform List<scalar> 9(0.00165883 0.00179589 0.00196938 0.00218426 0.00244699 0.00276039 0.00314629 0.00354395 0.00367796);
    }
    inlet
    {
        type            turbulentIntensityKineticEnergyInlet;
        intensity       0.05;
        value           uniform 3.75e-05;
    }
    outlet
    {
        type            zeroGradient;
    }
}


// ************************************************************************* //
