/*--------------------------------*- C++ -*----------------------------------*\
  =========                 |
  \\      /  F ield         | OpenFOAM: The Open Source CFD Toolbox
   \\    /   O peration     | Website:  https://openfoam.org
    \\  /    A nd           | Version:  6
     \\/     M anipulation  |
\*---------------------------------------------------------------------------*/
FoamFile
{
    version     2.0;
    format      ascii;
    class       volScalarField;
    location    "200";
    object      nut;
}
// * * * * * * * * * * * * * * * * * * * * * * * * * * * * * * * * * * * * * //

dimensions      [0 2 -1 0 0 0 0];

internalField   nonuniform List<scalar> 
458
(
0.00165735
0.00187844
0.0021237
0.00212484
0.0020316
0.00193366
0.0018381
0.00174704
0.00166007
0.00158073
0.00150654
0.00143313
0.001356
0.00126779
0.00116222
0.000506676
0.000582951
0.000655609
0.000732295
0.000796232
0.000747273
0.000692026
0.00064535
0.000606803
0.000574613
0.000547513
0.000524367
0.000503999
0.000485313
0.000466748
0.00044649
0.000422479
0.000385362
0.00174425
0.00291637
0.00372535
0.00395551
0.00397231
0.00387669
0.00373726
0.00359048
0.00344925
0.00328085
0.00308116
0.00285602
0.00259512
0.00226727
0.00179216
0.00121153
0.00111086
0.000958996
0.000488751
0.000842182
0.00138487
0.00195518
0.00230631
0.00159768
0.00134164
0.00117973
0.00107257
0.000999466
0.0009505
0.000922329
0.000903729
0.000857399
0.000790993
0.000717779
0.000686102
0.000405826
0.00170396
0.00294553
0.00349539
0.00374687
0.00379868
0.00376023
0.00369434
0.00362214
0.00355234
0.0034887
0.00341402
0.00330413
0.00312816
0.0028499
0.00244111
0.00198779
0.00172788
0.00103503
0.000484489
0.000738589
0.00123735
0.00201103
0.00257305
0.000920242
0.000802441
0.000692836
0.00059944
0.000522207
0.000459197
0.000408655
0.000376206
0.00037442
0.000512638
0.000617659
0.00077175
0.000419598
0.00179244
0.00334154
0.00372317
0.00376219
0.00374009
0.00372424
0.00372673
0.00372743
0.00373743
0.00374026
0.00371082
0.00363014
0.00347922
0.00323695
0.00289249
0.00248478
0.00210665
0.00146835
0.00102747
0.000873428
0.00101963
0.00160709
0.00257755
0.00329597
0.00110664
0.00104613
0.000995557
0.000950966
0.000909928
0.000871074
0.000830026
0.000783623
0.000728574
0.000676874
0.000634747
0.000846168
0.000455566
0.00279872
0.00457112
0.00428734
0.00391429
0.00388793
0.00404275
0.00428011
0.0044898
0.00456222
0.00447988
0.00431464
0.00410897
0.00386933
0.00358291
0.003242
0.00285869
0.00247252
0.00200417
0.00174743
0.00170089
0.00204728
0.00292302
0.00405142
0.00496123
0.00501901
0.00489109
0.00475742
0.00462534
0.00440558
0.00402919
0.00352935
0.00292979
0.00226738
0.00164379
0.00117185
0.00101717
0.000677191
0.000540215
0.000606381
0.000678244
0.00294346
0.00615749
0.00412155
0.00356472
0.00453621
0.00560211
0.00618877
0.00616872
0.00558476
0.0051574
0.00481863
0.00451626
0.00421947
0.00390868
0.00357903
0.00324196
0.00293047
0.00265655
0.00264235
0.00305468
0.00399908
0.00521557
0.00625932
0.00688099
0.00705548
0.00703806
0.00693758
0.00670471
0.00629491
0.00573088
0.00503469
0.00422933
0.00335395
0.00250056
0.00180475
0.00135093
0.000975956
0.000776599
0.00098309
0.000701528
0.00293627
0.0056475
0.00303525
0.00415525
0.00592217
0.00645201
0.00649809
0.0062481
0.00582161
0.00544892
0.00513997
0.00485959
0.00458773
0.00431706
0.0040449
0.0038157
0.0036951
0.00379868
0.00441988
0.00557606
0.00684818
0.00781263
0.0083597
0.00849794
0.00837574
0.00817106
0.00788359
0.00746251
0.00692106
0.00627774
0.00555272
0.00476795
0.00395346
0.00315925
0.00246194
0.00191945
0.00150612
0.0012765
0.00115571
0.000805054
0.00281646
0.00413208
0.00241946
0.00371518
0.00586682
0.00642941
0.0063937
0.00620556
0.00596819
0.00574012
0.00553952
0.0053573
0.00519221
0.00505473
0.0049709
0.00499773
0.00524343
0.005895
0.00701567
0.00822104
0.00912019
0.00948089
0.00947355
0.00916722
0.00871406
0.00821277
0.00767888
0.00709609
0.0064585
0.00578317
0.00510116
0.00444723
0.00384716
0.00330607
0.00278747
0.00246832
0.00229642
0.00221214
0.00260652
0.00121815
0.00265671
0.00286445
0.0025691
0.00352749
0.00512354
0.00611809
0.00634254
0.00639483
0.00636764
0.00630488
0.00625593
0.00623184
0.00624466
0.00631638
0.00648266
0.00679301
0.00730398
0.00804057
0.00887027
0.00949359
0.00972628
0.0095547
0.009087
0.00845111
0.00775849
0.00706898
0.00637808
0.00565575
0.00489047
0.00410922
0.00337852
0.00277763
0.00234895
0.00207974
0.00193294
0.0018751
0.00184501
0.00179585
0.00170721
0.00119558
0.00304571
0.00389192
0.00473774
0.00559565
0.00601989
0.00633511
0.00656767
0.00672152
0.00685683
0.00700484
0.00717959
0.00739609
0.00766883
0.00800329
0.00838318
0.00874539
0.00896304
0.00891018
0.00855192
0.00795176
0.00722954
0.00649732
0.00581618
0.00518717
0.00458352
0.00398826
0.00341161
0.00288772
0.00245803
0.0021481
0.0019556
0.00185819
0.00182585
0.00182329
0.00180506
0.00173324
0.00159836
0.0010907
0.00186887
0.00424898
0.00430573
0.00441092
0.00468383
0.00499746
0.00528818
0.00552112
0.00572086
0.0059218
0.00612453
0.00632852
0.00652953
0.00671394
0.00685328
0.00689928
0.0067953
0.00651775
0.00610179
0.00562551
0.0051641
0.00475306
0.00438887
0.00405189
0.00372613
0.00340651
0.00309757
0.00280867
0.00255008
0.00233125
0.00216063
0.00204319
0.00197351
0.00192966
0.00188672
0.00185887
0.00208555
0.0011448
0.00128696
0.00134791
0.00138928
0.00123821
0.00123276
0.00125171
0.00127468
0.00129688
0.00131816
0.00133931
0.00135756
0.00137093
0.00137918
0.00138184
0.00137815
0.00136707
0.00134748
0.00131861
0.00128104
0.00123772
0.00119287
0.00115041
0.00111244
0.00107883
0.00104818
0.00101914
0.000991293
0.000965279
0.000942548
0.000924864
0.000913863
0.00091081
0.000916618
0.000931862
0.000956153
0.000985843
0.00101242
0.000995328
0.000950878
0.000940683
)
;

boundaryField
{
    floor
    {
        type            nutkWallFunction;
        Cmu             0.09;
        kappa           0.41;
        E               9.8;
        value           nonuniform List<scalar> 
36
(
0.000139652
6.05584e-05
7.02081e-05
7.92567e-05
8.8677e-05
9.64416e-05
9.05035e-05
8.37468e-05
7.79878e-05
7.31939e-05
6.91622e-05
6.57466e-05
6.28127e-05
6.02176e-05
5.78254e-05
5.54371e-05
5.28173e-05
4.96923e-05
4.48169e-05
4.48168e-05
4.75096e-05
4.93114e-05
5.39857e-05
6.48102e-05
7.31282e-05
8.20412e-05
0.000139653
0.000145339
0.000133694
0.000115893
6.05584e-05
0.000115893
5.82647e-05
0.000124842
5.77174e-05
0.000123955
)
;
    }
    ceiling
    {
        type            nutkWallFunction;
        Cmu             0.09;
        kappa           0.41;
        E               9.8;
        value           nonuniform List<scalar> 
43
(
0.000154005
0.000160958
0.000165658
0.000148422
0.000147796
0.000149972
0.000152606
0.000155145
0.000157575
0.000159987
0.000162064
0.000163585
0.000164523
0.000164828
0.000164411
0.000163154
0.000160929
0.00015764
0.000153349
0.000148382
0.000143219
0.00013831
0.000133904
0.000129988
0.000126406
0.000123
0.000119723
0.000116652
0.000113961
0.000111861
0.000110551
0.000110186
0.000110874
0.000112683
0.000115559
0.000119064
0.000122191
0.000120181
0.000114935
0.000113731
0.00030379
0.00032559
0.000219111
)
;
    }
    sWall
    {
        type            nutkWallFunction;
        Cmu             0.09;
        kappa           0.41;
        E               9.8;
        value           uniform 0.00015404;
    }
    nWall
    {
        type            nutkWallFunction;
        Cmu             0.09;
        kappa           0.41;
        E               9.8;
        value           nonuniform List<scalar> 6(8.20388e-05 8.49019e-05 9.74976e-05 0.000131366 0.000137658 0.000113735);
    }
    sideWalls
    {
        type            empty;
    }
    glass1
    {
        type            nutkWallFunction;
        Cmu             0.09;
        kappa           0.41;
        E               9.8;
        value           nonuniform List<scalar> 9(0.000196002 0.000205652 0.000201188 0.000211034 0.000319437 0.00033453 0.000333749 0.000321162 0.000304289);
    }
    glass2
    {
        type            nutkWallFunction;
        Cmu             0.09;
        kappa           0.41;
        E               9.8;
        value           nonuniform List<scalar> 2(0.00014614 0.000143542);
    }
    sun
    {
        type            nutkWallFunction;
        Cmu             0.09;
        kappa           0.41;
        E               9.8;
        value           nonuniform List<scalar> 
14
(
0.000195743
0.000220158
0.000246904
0.000247004
0.000236879
0.000226193
0.000215712
0.000205673
0.000196032
0.00018719
0.000178878
0.000170607
0.000161867
0.000151802
)
;
    }
    Table_master
    {
        type            nutkWallFunction;
        Cmu             0.09;
        kappa           0.41;
        E               9.8;
        value           nonuniform List<scalar> 9(0.000111296 9.71906e-05 8.38462e-05 7.22746e-05 6.25394e-05 5.44646e-05 4.78865e-05 4.36098e-05 4.33738e-05);
    }
    Table_slave
    {
        type            nutkWallFunction;
        Cmu             0.09;
        kappa           0.41;
        E               9.8;
        value           nonuniform List<scalar> 9(0.0001332 0.00012614 0.000120203 0.00011494 0.00011007 0.000105436 0.000100514 9.49155e-05 8.82223e-05);
    }
    inlet
    {
        type            calculated;
        value           uniform 0.000100623;
    }
    outlet
    {
        type            calculated;
        value           nonuniform List<scalar> 2(0.00128696 0.00134791);
    }
}


// ************************************************************************* //
