/*--------------------------------*- C++ -*----------------------------------*\
  =========                 |
  \\      /  F ield         | OpenFOAM: The Open Source CFD Toolbox
   \\    /   O peration     | Website:  https://openfoam.org
    \\  /    A nd           | Version:  6
     \\/     M anipulation  |
\*---------------------------------------------------------------------------*/
FoamFile
{
    version     2.0;
    format      ascii;
    class       volVectorField;
    location    "200";
    object      U;
}
// * * * * * * * * * * * * * * * * * * * * * * * * * * * * * * * * * * * * * //

dimensions      [0 1 -1 0 0 0 0];

internalField   nonuniform List<vector> 
458
(
(-0.0702151 0.0837392 0)
(-0.187733 -0.0410227 0)
(-0.0942976 -0.114158 0)
(0.0182892 -0.11139 0)
(0.118359 -0.0809276 0)
(0.194665 -0.0555117 0)
(0.248255 -0.0362308 0)
(0.27857 -0.0221004 0)
(0.290038 -0.0117789 0)
(0.287719 -0.00370714 0)
(0.274777 0.00342675 0)
(0.252402 0.0107492 0)
(0.219634 0.020367 0)
(0.169944 0.0394325 0)
(0.126732 0.0955585 0)
(-0.0325136 0.0196082 0)
(-0.0593024 -0.00685229 0)
(-0.046802 -0.0249103 0)
(-0.0203543 -0.0392134 0)
(0.0296582 -0.039277 0)
(0.0532825 -0.0212798 0)
(0.0724438 -0.0119968 0)
(0.083644 -0.00867691 0)
(0.0893572 -0.00738822 0)
(0.093033 -0.0065109 0)
(0.0959466 -0.00570491 0)
(0.0980379 -0.0047928 0)
(0.0987003 -0.00352692 0)
(0.0967204 -0.00152166 0)
(0.0908611 0.00156372 0)
(0.0796049 0.00595253 0)
(0.0614169 0.0130437 0)
(0.0258658 0.0296064 0)
(0.0977667 0.19809 0)
(-0.10771 -0.046754 0)
(0.0543833 -0.204453 0)
(0.124775 -0.17859 0)
(0.189129 -0.131742 0)
(0.241855 -0.0873506 0)
(0.277778 -0.0511284 0)
(0.296802 -0.022962 0)
(0.301939 -0.00138365 0)
(0.296059 0.015238 0)
(0.281466 0.028929 0)
(0.259861 0.0416778 0)
(0.233284 0.056044 0)
(0.20647 0.0764753 0)
(0.189825 0.115796 0)
(0.191667 0.102014 0)
(0.12485 0.0877917 0)
(0.0301735 0.0867738 0)
(0.012668 0.0519579 0)
(-0.0305391 0.00949059 0)
(0.0143672 -0.0410524 0)
(0.0332646 -0.0578736 0)
(0.0555434 -0.0582001 0)
(0.0672592 -0.0288832 0)
(0.0709918 -0.00964562 0)
(0.0722438 -0.00292186 0)
(0.0731533 -0.000997032 0)
(0.0741028 -0.000146593 0)
(0.0748938 0.000476891 0)
(0.0755274 0.0015656 0)
(0.0757194 0.00393375 0)
(0.0740593 0.00778182 0)
(0.068994 0.0141808 0)
(0.058817 0.0225708 0)
(0.0447444 0.0346318 0)
(-0.00645088 0.0595126 0)
(0.321966 0.293749 0)
(0.0940769 -0.168545 0)
(0.18372 -0.269929 0)
(0.239874 -0.23886 0)
(0.268801 -0.179293 0)
(0.287882 -0.122384 0)
(0.299813 -0.0742193 0)
(0.303744 -0.0353398 0)
(0.299794 -0.00440936 0)
(0.287727 0.021171 0)
(0.270178 0.0426646 0)
(0.249009 0.0615026 0)
(0.226427 0.0793923 0)
(0.205423 0.0978283 0)
(0.189653 0.116135 0)
(0.173669 0.0987304 0)
(0.131335 0.0936702 0)
(0.0558745 0.123577 0)
(0.0682197 0.0336051 0)
(0.0496763 -0.025005 0)
(0.0646888 -0.0570793 0)
(0.0755085 -0.0737299 0)
(0.0862446 -0.0803264 0)
(0.0891204 -0.0596839 0)
(0.0670335 -0.0371424 0)
(0.0493535 -0.024555 0)
(0.0418191 -0.0177425 0)
(0.0382717 -0.0134913 0)
(0.0351055 -0.0106465 0)
(0.031963 -0.008143 0)
(0.0308288 -0.00434324 0)
(0.0353555 0.00308722 0)
(0.0407051 0.0188975 0)
(0.038201 0.0333188 0)
(0.0364643 0.0516872 0)
(-0.036551 0.0875872 0)
(0.569608 0.322126 0)
(0.309079 -0.173516 0)
(0.317464 -0.272988 0)
(0.336862 -0.241692 0)
(0.317757 -0.181208 0)
(0.295538 -0.121753 0)
(0.280633 -0.070538 0)
(0.269785 -0.0280467 0)
(0.254733 0.00817789 0)
(0.237395 0.0384408 0)
(0.219696 0.0629376 0)
(0.202428 0.0827632 0)
(0.186297 0.0993861 0)
(0.172092 0.113816 0)
(0.161769 0.125451 0)
(0.153387 0.122021 0)
(0.145871 0.124006 0)
(0.132682 0.145724 0)
(0.162036 0.123555 0)
(0.120195 0.0479716 0)
(0.115264 -0.00719763 0)
(0.114408 -0.0478971 0)
(0.105809 -0.0683712 0)
(0.0881665 -0.072453 0)
(0.0813267 -0.0420236 0)
(0.100755 -0.0251007 0)
(0.115105 -0.0161394 0)
(0.120046 -0.0108202 0)
(0.119576 -0.00692105 0)
(0.116045 -0.00359386 0)
(0.109831 -0.000437799 0)
(0.10006 0.00317635 0)
(0.0859979 0.00799714 0)
(0.0657501 0.0220246 0)
(0.0490267 0.0410902 0)
(0.0466325 0.0653967 0)
(-0.0502814 0.112121 0)
(0.964374 -0.301746 0)
(0.359019 -0.35255 0)
(0.329419 -0.291999 0)
(0.31659 -0.21459 0)
(0.250489 -0.147054 0)
(0.19774 -0.0898026 0)
(0.167932 -0.0431787 0)
(0.151483 -0.00370513 0)
(0.138772 0.0297349 0)
(0.132389 0.0564901 0)
(0.127855 0.0780466 0)
(0.123761 0.0955361 0)
(0.120125 0.109828 0)
(0.117574 0.121544 0)
(0.118116 0.130586 0)
(0.120754 0.131163 0)
(0.127163 0.13001 0)
(0.13457 0.124717 0)
(0.148107 0.0713924 0)
(0.144271 0.0216594 0)
(0.143389 -0.0181989 0)
(0.135224 -0.0445118 0)
(0.119827 -0.0555917 0)
(0.101215 -0.051266 0)
(0.0907753 -0.0280209 0)
(0.0906839 -0.0116737 0)
(0.0911939 -0.00323334 0)
(0.0885959 0.00170241 0)
(0.0841332 0.00551843 0)
(0.0794339 0.00895272 0)
(0.074484 0.0126637 0)
(0.0689164 0.0175597 0)
(0.0626131 0.0249575 0)
(0.0557456 0.0377042 0)
(0.0487338 0.0546437 0)
(0.0611528 0.0779865 0)
(0.0214937 0.117367 0)
(0.0693333 0.124325 0)
(-0.0557638 0.0345079 0)
(-0.250302 -0.0132306 0)
(0.982057 -0.464615 0)
(-0.096236 -0.324747 0)
(0.0909383 -0.188508 0)
(0.116024 -0.110535 0)
(0.0408332 -0.075171 0)
(0.00897838 -0.0449701 0)
(0.00205019 -0.0188581 0)
(0.00442059 0.00824856 0)
(0.0172345 0.0333887 0)
(0.0252696 0.0562842 0)
(0.0327172 0.0768833 0)
(0.0396619 0.0941512 0)
(0.0465516 0.107883 0)
(0.0540592 0.118318 0)
(0.063759 0.125109 0)
(0.0742971 0.124153 0)
(0.087047 0.117982 0)
(0.102503 0.102368 0)
(0.118288 0.0598944 0)
(0.125107 0.0204431 0)
(0.123811 -0.0103597 0)
(0.113096 -0.0299938 0)
(0.0967401 -0.0375211 0)
(0.0788048 -0.0337381 0)
(0.0648341 -0.0203533 0)
(0.0571486 -0.00839121 0)
(0.052174 -0.000831657 0)
(0.0477767 0.00404787 0)
(0.0444793 0.0076479 0)
(0.0421346 0.0108668 0)
(0.0406713 0.0145774 0)
(0.0400481 0.0197776 0)
(0.0404325 0.0276336 0)
(0.0424206 0.039646 0)
(0.0453239 0.0555921 0)
(0.0629159 0.0768292 0)
(0.0609268 0.0983901 0)
(0.0935926 0.0929747 0)
(0.105184 0.0561092 0)
(-0.114529 -0.00774984 0)
(0.92631 -0.447963 0)
(-0.392116 -0.262346 0)
(-0.0143396 -0.177515 0)
(-0.0285063 -0.0724882 0)
(-0.0877892 -0.0631666 0)
(-0.0915628 -0.0478637 0)
(-0.0908042 -0.0297612 0)
(-0.0864346 -0.00764453 0)
(-0.075437 0.0178259 0)
(-0.0646739 0.0428956 0)
(-0.0526225 0.0648495 0)
(-0.0398687 0.082738 0)
(-0.0264707 0.0964194 0)
(-0.0122755 0.106051 0)
(0.00440369 0.111313 0)
(0.0208384 0.108593 0)
(0.0383756 0.100031 0)
(0.0580754 0.0825392 0)
(0.0738268 0.049652 0)
(0.0798159 0.0182773 0)
(0.0768425 -0.00432621 0)
(0.0661291 -0.0171781 0)
(0.0508481 -0.02121 0)
(0.0347512 -0.0178513 0)
(0.0214395 -0.00937768 0)
(0.0127949 -0.00114551 0)
(0.0077557 0.00424143 0)
(0.00559966 0.00727057 0)
(0.00492956 0.00927199 0)
(0.0056048 0.0111431 0)
(0.00768698 0.0135944 0)
(0.0113807 0.0174284 0)
(0.0170181 0.0235665 0)
(0.0251302 0.0329813 0)
(0.0350729 0.0455235 0)
(0.0541503 0.0620121 0)
(0.0700345 0.073726 0)
(0.100074 0.0663174 0)
(0.13975 0.0524147 0)
(-0.0430905 0.0876846 0)
(0.819833 -0.350527 0)
(-0.389592 -0.22319 0)
(-0.195427 -0.20257 0)
(-0.124598 -0.0722196 0)
(-0.169938 -0.0660034 0)
(-0.161253 -0.0522284 0)
(-0.158098 -0.0347729 0)
(-0.154888 -0.0145524 0)
(-0.147993 0.0079317 0)
(-0.138308 0.0305138 0)
(-0.12572 0.0506146 0)
(-0.110868 0.0671093 0)
(-0.0942597 0.0795347 0)
(-0.0761507 0.0876946 0)
(-0.0562375 0.0912108 0)
(-0.0361492 0.0883843 0)
(-0.0157569 0.0797861 0)
(0.00496724 0.0630786 0)
(0.0175044 0.0386381 0)
(0.0204689 0.0175282 0)
(0.0154414 0.00318496 0)
(0.00700036 -0.00484694 0)
(-0.00577822 -0.00686174 0)
(-0.0179054 -0.00441201 0)
(-0.0273704 8.85099e-05 0)
(-0.0326359 0.00391387 0)
(-0.0344078 0.00612526 0)
(-0.0344313 0.0071741 0)
(-0.0332559 0.0076692 0)
(-0.0309271 0.00797758 0)
(-0.0272843 0.00845435 0)
(-0.022037 0.00955432 0)
(-0.0148287 0.0118238 0)
(-0.00522904 0.0158823 0)
(0.00782611 0.0218113 0)
(0.0261385 0.0289035 0)
(0.0460218 0.0286927 0)
(0.0711553 0.0152136 0)
(0.137129 0.0483689 0)
(-0.377385 0.183094 0)
(0.598733 -0.280511 0)
(-0.497622 -0.258732 0)
(-0.486599 -0.274732 0)
(-0.164808 -0.126598 0)
(-0.223948 -0.079691 0)
(-0.209732 -0.05607 0)
(-0.208281 -0.0366025 0)
(-0.208195 -0.0179842 0)
(-0.205159 0.000862915 0)
(-0.1978 0.0195132 0)
(-0.186503 0.036202 0)
(-0.171743 0.0499807 0)
(-0.154276 0.0602756 0)
(-0.134761 0.0667354 0)
(-0.113807 0.0689918 0)
(-0.0928001 0.0663252 0)
(-0.072856 0.0590204 0)
(-0.0559152 0.0473515 0)
(-0.046288 0.032907 0)
(-0.0441988 0.0202354 0)
(-0.0477991 0.0110287 0)
(-0.0543741 0.00560923 0)
(-0.0616722 0.00348033 0)
(-0.067994 0.00337777 0)
(-0.071957 0.00412053 0)
(-0.0737923 0.0047475 0)
(-0.0742435 0.00492178 0)
(-0.0741547 0.00477453 0)
(-0.0741077 0.00453264 0)
(-0.0746443 0.00450777 0)
(-0.0763974 0.00523318 0)
(-0.0801332 0.00753928 0)
(-0.0867858 0.0124977 0)
(-0.0976036 0.0212447 0)
(-0.114374 0.0346184 0)
(-0.139536 0.0524395 0)
(-0.176487 0.0722051 0)
(-0.224097 0.090738 0)
(-0.297218 0.104595 0)
(-0.557312 0.107891 0)
(-0.861731 -0.256259 0)
(-0.111669 -0.138265 0)
(-0.220937 -0.0777396 0)
(-0.235848 -0.0484529 0)
(-0.244961 -0.0281087 0)
(-0.250068 -0.0111337 0)
(-0.250545 0.0040436 0)
(-0.245629 0.0174164 0)
(-0.236257 0.029149 0)
(-0.222814 0.0388343 0)
(-0.206163 0.0460409 0)
(-0.187273 0.0504812 0)
(-0.167259 0.0519513 0)
(-0.14759 0.0503114 0)
(-0.1298 0.0459851 0)
(-0.115648 0.0396447 0)
(-0.106889 0.0323708 0)
(-0.103271 0.0259262 0)
(-0.103399 0.0211614 0)
(-0.105576 0.0184029 0)
(-0.108276 0.0175673 0)
(-0.110465 0.0180707 0)
(-0.111695 0.0193022 0)
(-0.112111 0.0207976 0)
(-0.11208 0.0223095 0)
(-0.11198 0.0237164 0)
(-0.112125 0.0249078 0)
(-0.112785 0.025874 0)
(-0.114126 0.0268956 0)
(-0.11611 0.0287423 0)
(-0.118479 0.0327451 0)
(-0.120823 0.0405761 0)
(-0.122686 0.0535178 0)
(-0.123505 0.0708785 0)
(-0.121211 0.0869055 0)
(-0.107808 0.0846611 0)
(-0.0831447 0.0249322 0)
(-0.210725 -0.173166 0)
(-0.136185 0.0565999 0)
(-0.151782 -0.0829861 0)
(-0.226523 -0.0677106 0)
(-0.259328 -0.055426 0)
(-0.277818 -0.045756 0)
(-0.287834 -0.0367886 0)
(-0.291202 -0.0276895 0)
(-0.288537 -0.0180293 0)
(-0.280869 -0.00933795 0)
(-0.26883 -0.00253493 0)
(-0.253333 0.00224926 0)
(-0.235464 0.00493567 0)
(-0.216439 0.00545986 0)
(-0.197596 0.00379802 0)
(-0.180246 0.000106169 0)
(-0.165581 -0.00543563 0)
(-0.15444 -0.0125156 0)
(-0.146802 -0.0204831 0)
(-0.142074 -0.0287876 0)
(-0.139439 -0.0368236 0)
(-0.138061 -0.0440336 0)
(-0.137295 -0.0501899 0)
(-0.136764 -0.0553286 0)
(-0.13632 -0.0595448 0)
(-0.135896 -0.0627539 0)
(-0.135395 -0.0645826 0)
(-0.134653 -0.0644273 0)
(-0.133434 -0.0615831 0)
(-0.131384 -0.0554162 0)
(-0.127895 -0.0455005 0)
(-0.121937 -0.0316086 0)
(-0.112041 -0.0136167 0)
(-0.096627 0.00817039 0)
(-0.074687 0.0313935 0)
(-0.0469807 0.0486877 0)
(-0.0102634 0.0427199 0)
(0.122876 -0.0342451 0)
(-0.153923 -0.0966187 0)
(0.0769852 -0.25542 0)
(-0.331792 -0.0876346 0)
(-0.276142 0.101088 0)
(-0.261572 0.0664215 0)
(-0.27729 0.0581446 0)
(-0.298916 0.0584878 0)
(-0.316375 0.0606882 0)
(-0.328083 0.0632794 0)
(-0.333817 0.0656796 0)
(-0.333407 0.0676404 0)
(-0.32736 0.070149 0)
(-0.316549 0.073599 0)
(-0.30193 0.0778265 0)
(-0.284591 0.0827482 0)
(-0.265668 0.088357 0)
(-0.24629 0.0947098 0)
(-0.227493 0.101924 0)
(-0.210166 0.110124 0)
(-0.194961 0.119373 0)
(-0.182158 0.129563 0)
(-0.171714 0.140314 0)
(-0.163349 0.151031 0)
(-0.156605 0.161151 0)
(-0.15097 0.170379 0)
(-0.145986 0.178675 0)
(-0.141309 0.186024 0)
(-0.136707 0.192217 0)
(-0.132011 0.196785 0)
(-0.127055 0.199109 0)
(-0.121609 0.198635 0)
(-0.115254 0.195127 0)
(-0.107134 0.188891 0)
(-0.095681 0.180904 0)
(-0.0788928 0.172865 0)
(-0.055895 0.167117 0)
(-0.0286653 0.165907 0)
(0.012538 0.16737 0)
(0.0430238 0.167635 0)
(0.148819 0.174083 0)
(-0.316705 0.173885 0)
)
;

boundaryField
{
    floor
    {
        type            noSlip;
    }
    ceiling
    {
        type            noSlip;
    }
    sWall
    {
        type            noSlip;
    }
    nWall
    {
        type            noSlip;
    }
    sideWalls
    {
        type            empty;
    }
    glass1
    {
        type            noSlip;
    }
    glass2
    {
        type            noSlip;
    }
    sun
    {
        type            noSlip;
    }
    Table_master
    {
        type            noSlip;
    }
    Table_slave
    {
        type            noSlip;
    }
    inlet
    {
        type            fixedValue;
        value           uniform (0.212132 -0.212132 0);
    }
    outlet
    {
        type            zeroGradient;
    }
}


// ************************************************************************* //
