/*--------------------------------*- C++ -*----------------------------------*\
  =========                 |
  \\      /  F ield         | OpenFOAM: The Open Source CFD Toolbox
   \\    /   O peration     | Website:  https://openfoam.org
    \\  /    A nd           | Version:  6
     \\/     M anipulation  |
\*---------------------------------------------------------------------------*/
FoamFile
{
    version     2.0;
    format      ascii;
    class       volScalarField;
    location    "200";
    object      k;
}
// * * * * * * * * * * * * * * * * * * * * * * * * * * * * * * * * * * * * * //

dimensions      [0 2 -2 0 0 0 0];

internalField   nonuniform List<scalar> 
458
(
0.00113287
0.00118656
0.000990274
0.00106237
0.00114282
0.00122083
0.00129609
0.00137016
0.00144582
0.00152776
0.00159956
0.00165661
0.00169888
0.00173292
0.00175872
0.000543695
0.000831347
0.000828733
0.000673406
0.000492183
0.000287736
0.000101872
9.49784e-05
0.000108494
0.000125684
0.000125339
0.000114064
0.000102485
0.000120018
0.000205198
0.000322457
0.000409738
0.00034726
0.0033591
0.00672142
0.00173859
0.00161605
0.00170119
0.00181152
0.00193054
0.00205858
0.00219523
0.00233587
0.00247074
0.00257413
0.0026093
0.002521
0.00228372
0.00208261
0.00190534
0.00115654
0.00112923
0.00171732
0.00156916
0.00139349
0.00103317
0.000613758
0.000411961
0.000339472
0.000345486
0.000354971
0.000322709
0.000244622
0.000167422
0.000169853
0.000513193
0.000993778
0.00187642
0.00080718
0.006244
0.0157323
0.00279947
0.00209026
0.00212542
0.00223867
0.00236989
0.00251558
0.00267432
0.00284023
0.00300278
0.00313306
0.00320425
0.00319386
0.00310149
0.00296099
0.00271505
0.00234795
0.00202277
0.00314111
0.00240414
0.00207575
0.00186184
0.000679283
0.000466365
0.000371098
0.000313541
0.000271509
0.000236979
0.000204355
0.000173212
0.000214879
0.00130426
0.00197454
0.00374768
0.00108439
0.0097782
0.0285476
0.00461453
0.00249499
0.00243622
0.00255731
0.00270909
0.00287949
0.00306643
0.00326514
0.00346534
0.00363412
0.00375235
0.00380876
0.00378673
0.00366913
0.00345273
0.00315809
0.00292384
0.00310568
0.00245146
0.00216554
0.00199932
0.00188387
0.00185385
0.00193337
0.0020774
0.00227351
0.00251937
0.00286708
0.0030873
0.00317127
0.00307213
0.00281204
0.00278089
0.00392522
0.00238417
0.0137722
0.0437148
0.00793836
0.00293505
0.00266667
0.00278915
0.00297455
0.0031915
0.00343517
0.00370024
0.00396399
0.00418575
0.00436393
0.00450818
0.00460844
0.00464342
0.00460063
0.00443962
0.00402636
0.00333443
0.00291854
0.00274916
0.00276762
0.00290012
0.00308968
0.00333018
0.00367445
0.00412242
0.00465385
0.00524159
0.00570578
0.00589465
0.00575823
0.00527249
0.00449638
0.00414831
0.00379969
0.00333293
0.00300439
0.00252037
0.0181664
0.05727
0.0141979
0.00401908
0.00304121
0.00306932
0.00327494
0.00354658
0.00385837
0.00420525
0.00450535
0.0047089
0.00485793
0.00499808
0.00513686
0.00524326
0.00524521
0.00502201
0.00453239
0.00394426
0.00349703
0.00327033
0.00323607
0.0033268
0.00350569
0.00378886
0.00421477
0.00478231
0.00544679
0.00612247
0.00669385
0.00706246
0.00716993
0.00709613
0.00658579
0.00593834
0.00560345
0.00573119
0.00622263
0.0036763
0.0227812
0.0650667
0.0262857
0.00928124
0.00501361
0.00410577
0.00411296
0.00438193
0.00473021
0.0051196
0.00529322
0.00531014
0.0052782
0.0052731
0.00532393
0.00541243
0.0054531
0.00530052
0.00490752
0.00440653
0.00397555
0.00371067
0.00361284
0.00364451
0.00379537
0.00410197
0.00460482
0.00530031
0.00611726
0.00691665
0.00755401
0.00798486
0.00829874
0.00871292
0.0095015
0.00995931
0.0102537
0.00956991
0.00980513
0.00503643
0.0238087
0.0715711
0.0438948
0.0287106
0.0172588
0.0105551
0.0078665
0.00710958
0.00699805
0.0068148
0.00643492
0.00603755
0.00569661
0.00544291
0.00529138
0.00524429
0.00525905
0.00520519
0.00498155
0.00465229
0.00433288
0.0041063
0.00399742
0.00400257
0.00414125
0.00447673
0.00506643
0.00591485
0.00693288
0.0079149
0.00863465
0.00904164
0.00933777
0.00987974
0.0109683
0.0123782
0.0126721
0.0120801
0.0117817
0.00521658
0.0224212
0.0318734
0.0304283
0.0265873
0.0218512
0.0170518
0.0132994
0.0107631
0.00915975
0.00798035
0.00709159
0.00640981
0.00588157
0.00547463
0.00517503
0.00498273
0.00489193
0.00485879
0.00481127
0.00472125
0.0046122
0.00452395
0.00448353
0.004509
0.00464084
0.00498041
0.0056071
0.00656834
0.00782908
0.00913406
0.0100367
0.0102546
0.00984425
0.0090477
0.00827314
0.00762852
0.00722938
0.00692116
0.00668129
0.00550507
0.0164997
0.0243143
0.0205429
0.0169322
0.0138507
0.0114383
0.00963782
0.00829353
0.0072885
0.00652902
0.00594353
0.00548805
0.00514333
0.00490976
0.00479623
0.00479984
0.00488935
0.00501724
0.00514418
0.005252
0.00534277
0.0054389
0.00558948
0.00586891
0.00634065
0.00707796
0.00824775
0.00985319
0.0115547
0.0131194
0.0147764
0.0163752
0.0169847
0.0163721
0.0147825
0.0131796
0.0109244
0.00573254
0.0141115
0.0236267
0.0196925
0.0162111
0.0135588
0.011389
0.00964024
0.00825442
0.0071619
0.00626309
0.0055406
0.00498658
0.00459837
0.00438002
0.00434008
0.00448047
0.00477668
0.00516694
0.00557002
0.0059221
0.00620256
0.00643586
0.00667519
0.00696739
0.00731911
0.00775284
0.00843418
0.00947936
0.0105337
0.0113147
0.0124843
0.0139554
0.0153461
0.0161688
0.0159837
0.0150267
0.0110159
0.00597947
0.00962359
0.0109118
0.0121296
0.0132996
0.0114579
0.0094532
0.00809651
0.00698171
0.00605202
0.00527698
0.00462873
0.00411249
0.0036874
0.00332914
0.00302621
0.00277431
0.00257372
0.00242729
0.00233769
0.00230339
0.00231564
0.00235978
0.00242065
0.0024889
0.00256461
0.00265521
0.00276847
0.00291723
0.00314439
0.00349417
0.00399298
0.00454607
0.00505616
0.0057696
0.00666818
0.00741497
0.00760198
0.00696574
0.00601011
0.00486439
)
;

boundaryField
{
    floor
    {
        type            kqRWallFunction;
        value           nonuniform List<scalar> 
36
(
0.00175872
0.000543695
0.000831347
0.000828733
0.000673406
0.000492183
0.000287736
0.000101872
9.49784e-05
0.000108494
0.000125684
0.000125339
0.000114064
0.000102485
0.000120018
0.000205198
0.000322457
0.000409738
0.00034726
0.00034726
0.00080718
0.00108439
0.00238417
0.00333293
0.00300439
0.00252037
0.00175872
0.00208261
0.00190534
0.00115654
0.000543695
0.00115654
0.00112923
0.00234795
0.00202277
0.00292384
)
;
    }
    ceiling
    {
        type            kqRWallFunction;
        value           nonuniform List<scalar> 
43
(
0.00962359
0.0109118
0.0121296
0.0132996
0.0114579
0.0094532
0.00809651
0.00698171
0.00605202
0.00527698
0.00462873
0.00411249
0.0036874
0.00332914
0.00302621
0.00277431
0.00257372
0.00242729
0.00233769
0.00230339
0.00231564
0.00235978
0.00242065
0.0024889
0.00256461
0.00265521
0.00276847
0.00291723
0.00314439
0.00349417
0.00399298
0.00454607
0.00505616
0.0057696
0.00666818
0.00741497
0.00760198
0.00696574
0.00601011
0.00486439
0.0224212
0.0318734
0.0141115
)
;
    }
    sWall
    {
        type            kqRWallFunction;
        value           uniform 0.00962359;
    }
    nWall
    {
        type            kqRWallFunction;
        value           nonuniform List<scalar> 6(0.00252037 0.0036763 0.00503643 0.00573254 0.00597947 0.00486439);
    }
    sideWalls
    {
        type            empty;
    }
    glass1
    {
        type            kqRWallFunction;
        value           nonuniform List<scalar> 9(0.00113287 0.0033591 0.006244 0.0097782 0.0137722 0.0181664 0.0227812 0.0238087 0.0224212);
    }
    glass2
    {
        type            kqRWallFunction;
        value           nonuniform List<scalar> 2(0.00521658 0.00550507);
    }
    sun
    {
        type            kqRWallFunction;
        value           nonuniform List<scalar> 
14
(
0.00113287
0.00118656
0.000990274
0.00106237
0.00114282
0.00122083
0.00129609
0.00137016
0.00144582
0.00152776
0.00159956
0.00165661
0.00169888
0.00173292
)
;
    }
    Table_master
    {
        type            kqRWallFunction;
        value           nonuniform List<scalar> 9(0.000679283 0.000466365 0.000371098 0.000313541 0.000271509 0.000236979 0.000204355 0.000173212 0.000214879);
    }
    Table_slave
    {
        type            kqRWallFunction;
        value           nonuniform List<scalar> 9(0.00185385 0.00193337 0.0020774 0.00227351 0.00251937 0.00286708 0.0030873 0.00317127 0.00307213);
    }
    inlet
    {
        type            turbulentIntensityKineticEnergyInlet;
        intensity       0.05;
        value           uniform 0.0003375;
    }
    outlet
    {
        type            zeroGradient;
    }
}


// ************************************************************************* //
