/*--------------------------------*- C++ -*----------------------------------*\
  =========                 |
  \\      /  F ield         | OpenFOAM: The Open Source CFD Toolbox
   \\    /   O peration     | Website:  https://openfoam.org
    \\  /    A nd           | Version:  6
     \\/     M anipulation  |
\*---------------------------------------------------------------------------*/
FoamFile
{
    version     2.0;
    format      ascii;
    class       volScalarField;
    location    "3000";
    object      T;
}
// * * * * * * * * * * * * * * * * * * * * * * * * * * * * * * * * * * * * * //

dimensions      [0 0 0 1 0 0 0];

internalField   nonuniform List<scalar> 
458
(
303.71
303.457
303.44
303.434
303.428
303.421
303.415
303.406
303.395
303.384
303.376
303.372
303.375
303.387
303.421
303.629
303.599
303.582
303.587
303.595
303.605
303.615
303.625
303.636
303.646
303.656
303.667
303.677
303.687
303.698
303.71
303.725
303.752
303.874
303.497
303.468
303.465
303.463
303.458
303.45
303.434
303.412
303.386
303.365
303.352
303.35
303.358
303.373
303.386
303.405
303.438
303.634
303.563
303.553
303.56
303.572
303.581
303.591
303.601
303.61
303.62
303.629
303.639
303.649
303.659
303.671
303.686
303.705
303.742
304.047
303.547
303.504
303.507
303.514
303.516
303.51
303.486
303.446
303.4
303.362
303.338
303.332
303.34
303.355
303.37
303.388
303.418
303.547
303.524
303.529
303.547
303.569
303.576
303.585
303.595
303.605
303.615
303.626
303.636
303.646
303.657
303.668
303.682
303.7
303.738
304.224
303.611
303.545
303.555
303.577
303.594
303.592
303.553
303.487
303.416
303.359
303.324
303.316
303.325
303.343
303.363
303.381
303.403
303.415
303.44
303.475
303.514
303.554
303.589
303.618
303.639
303.658
303.674
303.689
303.701
303.713
303.723
303.732
303.72
303.71
303.71
303.739
304.398
303.693
303.596
303.607
303.645
303.683
303.677
303.613
303.514
303.42
303.348
303.308
303.299
303.313
303.339
303.366
303.389
303.411
303.436
303.471
303.513
303.559
303.603
303.643
303.678
303.705
303.726
303.744
303.758
303.768
303.774
303.775
303.773
303.76
303.741
303.727
303.739
303.811
303.894
303.894
304.556
303.801
303.683
303.681
303.725
303.764
303.726
303.63
303.51
303.399
303.319
303.28
303.279
303.306
303.346
303.387
303.422
303.454
303.491
303.534
303.582
303.63
303.674
303.713
303.746
303.771
303.791
303.807
303.817
303.822
303.823
303.818
303.809
303.793
303.771
303.75
303.748
303.782
303.813
303.851
304.709
303.968
303.859
303.848
303.873
303.837
303.73
303.586
303.44
303.323
303.254
303.235
303.258
303.31
303.375
303.436
303.489
303.535
303.579
303.625
303.672
303.716
303.756
303.789
303.816
303.836
303.851
303.862
303.869
303.87
303.864
303.855
303.842
303.824
303.802
303.78
303.768
303.779
303.794
303.823
304.922
304.374
304.255
304.178
304.034
303.832
303.609
303.407
303.255
303.169
303.15
303.184
303.255
303.349
303.446
303.527
303.592
303.643
303.687
303.728
303.768
303.805
303.836
303.86
303.879
303.892
303.901
303.906
303.908
303.905
303.899
303.888
303.874
303.857
303.839
303.821
303.812
303.819
303.836
303.949
305.23
304.968
304.702
304.233
303.729
303.323
303.056
302.918
302.89
302.945
303.056
303.188
303.324
303.462
303.585
303.661
303.712
303.753
303.79
303.825
303.855
303.881
303.902
303.917
303.928
303.934
303.937
303.938
303.935
303.931
303.927
303.924
303.922
303.923
303.931
303.948
303.973
304.001
304.024
304.076
294.458
296.455
298.803
300.296
301.305
302.021
302.548
302.939
303.24
303.43
303.56
303.655
303.727
303.778
303.816
303.849
303.878
303.903
303.924
303.94
303.951
303.959
303.963
303.965
303.965
303.964
303.963
303.961
303.96
303.959
303.96
303.964
303.973
303.987
304.007
304.03
304.054
304.085
296.109
299.031
300.754
301.755
302.395
302.828
303.129
303.356
303.527
303.647
303.73
303.791
303.836
303.87
303.898
303.921
303.94
303.956
303.967
303.975
303.98
303.983
303.985
303.985
303.985
303.985
303.984
303.983
303.982
303.982
303.983
303.985
303.991
304
304.012
304.03
304.037
304.068
300.588
300.498
300.493
302.273
302.855
303.132
303.328
303.484
303.607
303.703
303.777
303.832
303.871
303.9
303.922
303.938
303.951
303.961
303.968
303.973
303.977
303.979
303.98
303.981
303.982
303.983
303.984
303.984
303.985
303.986
303.987
303.988
303.989
303.991
303.994
304
304.009
304.016
304.02
304.064
)
;

boundaryField
{
    floor
    {
        type            wallHeatTransfer;
        Tinf            uniform 305.2;
        alphaWall       uniform 0.24;
        value           nonuniform List<scalar> 
36
(
303.611
303.916
303.857
303.817
303.813
303.823
303.842
303.865
303.888
303.91
303.931
303.952
303.972
303.991
304.01
304.029
304.05
304.074
304.117
304.117
304.073
304.049
304.029
304.043
304.095
304.081
303.611
303.547
303.591
303.657
303.916
303.657
303.92
303.598
303.753
303.572
)
;
    }
    ceiling
    {
        type            wallHeatTransfer;
        Tinf            uniform 303.2;
        alphaWall       uniform 0.24;
        value           nonuniform List<scalar> 
43
(
300.774
300.679
300.666
302.328
302.876
303.137
303.32
303.466
303.578
303.665
303.73
303.776
303.807
303.83
303.846
303.859
303.868
303.875
303.88
303.883
303.884
303.884
303.884
303.883
303.882
303.882
303.881
303.881
303.882
303.884
303.886
303.889
303.893
303.898
303.904
303.913
303.923
303.928
303.927
303.962
305.136
304.896
296.56
)
;
    }
    sWall
    {
        type            wallHeatTransfer;
        Tinf            uniform 315.2;
        alphaWall       uniform 0.36;
        value           uniform 302.104;
    }
    nWall
    {
        type            wallHeatTransfer;
        Tinf            uniform 307.2;
        alphaWall       uniform 0.36;
        value           nonuniform List<scalar> 6(304.558 304.51 304.421 304.544 304.519 304.587);
    }
    sideWalls
    {
        type            empty;
    }
    glass1
    {
        type            wallHeatTransfer;
        Tinf            uniform 315.2;
        alphaWall       uniform 4.3;
        value           nonuniform List<scalar> 9(311.445 310.848 310.475 310.192 309.956 309.74 309.594 309.675 309.905);
    }
    glass2
    {
        type            wallHeatTransfer;
        Tinf            uniform 307.2;
        alphaWall       uniform 4.3;
        value           nonuniform List<scalar> 2(306.03 306.098);
    }
    sun
    {
        type            wallHeatTransfer;
        Tinf            uniform 305.2;
        alphaWall       uniform 0.24;
        value           nonuniform List<scalar> 
14
(
303.861
303.621
303.603
303.59
303.579
303.569
303.558
303.546
303.535
303.524
303.518
303.519
303.528
303.552
)
;
    }
    Table_master
    {
        type            zeroGradient;
    }
    Table_slave
    {
        type            zeroGradient;
    }
    inlet
    {
        type            fixedValue;
        value           uniform 292.15;
    }
    outlet
    {
        type            zeroGradient;
    }
}


// ************************************************************************* //
