/*--------------------------------*- C++ -*----------------------------------*\
  =========                 |
  \\      /  F ield         | OpenFOAM: The Open Source CFD Toolbox
   \\    /   O peration     | Website:  https://openfoam.org
    \\  /    A nd           | Version:  6
     \\/     M anipulation  |
\*---------------------------------------------------------------------------*/
FoamFile
{
    version     2.0;
    format      ascii;
    class       volScalarField;
    location    "200";
    object      nut;
}
// * * * * * * * * * * * * * * * * * * * * * * * * * * * * * * * * * * * * * //

dimensions      [0 2 -1 0 0 0 0];

internalField   nonuniform List<scalar> 
458
(
0.000753854
0.000771158
0.000705339
0.000731382
0.000758974
0.00078462
0.000808428
0.000831055
0.000853436
0.00087693
0.000897124
0.000912791
0.000924078
0.00093275
0.000938809
0.000515612
0.000624592
0.000622542
0.000534153
0.000442069
0.00028047
0.000247795
0.000253199
0.000267571
0.000270097
0.000258733
0.000242238
0.000232027
0.000258373
0.000328379
0.000420886
0.000465072
0.000425245
0.00129776
0.00219881
0.00157997
0.00205675
0.00220999
0.00236616
0.0025251
0.00267213
0.00278844
0.00284998
0.0028661
0.00280325
0.00261617
0.00223746
0.00162682
0.00101867
0.000973205
0.000765526
0.000734162
0.00148712
0.00170597
0.00167423
0.00126218
0.000916695
0.000755548
0.000730792
0.000759
0.000743098
0.000638714
0.00047921
0.00035186
0.000369316
0.000755172
0.00136644
0.00177236
0.000638311
0.0017612
0.00357489
0.00168284
0.00296926
0.00331533
0.0034915
0.0036444
0.00377464
0.00387546
0.00393729
0.00396257
0.00392307
0.00378111
0.00349041
0.00302918
0.00244825
0.00177433
0.00107069
0.0010162
0.00281846
0.0025528
0.00210469
0.00164186
0.000615432
0.000508744
0.000452427
0.000413827
0.000382839
0.000354515
0.000325517
0.000297442
0.000380419
0.00134584
0.00199402
0.00206625
0.000721165
0.00219519
0.00530224
0.00184259
0.00325276
0.00397329
0.00416294
0.00429017
0.00439701
0.00448618
0.00455422
0.00460646
0.00463955
0.00462627
0.004513
0.00421688
0.00365244
0.00280141
0.00184508
0.00119387
0.00277508
0.00291961
0.0024731
0.00191487
0.00135654
0.00092887
0.000945781
0.000977785
0.00102174
0.00107736
0.00115855
0.00121912
0.00124283
0.00122872
0.00149366
0.00186273
0.00241174
0.00111707
0.00259645
0.00719877
0.0023468
0.0030522
0.00424069
0.00448375
0.00458426
0.00465755
0.00471903
0.0047756
0.00483827
0.00494707
0.00510276
0.00528373
0.00544487
0.00553226
0.00550639
0.00534604
0.00505918
0.00487163
0.00456422
0.00427135
0.004092
0.00400067
0.00397162
0.00404795
0.00418667
0.00437688
0.00459536
0.00480256
0.00492162
0.00492997
0.00482131
0.00461462
0.00404171
0.00348298
0.00248878
0.00125671
0.00118949
0.00109434
0.00297096
0.00891982
0.00343174
0.00269831
0.00405296
0.00448393
0.00462344
0.00468276
0.00469475
0.00468192
0.00468324
0.00477602
0.00496304
0.00523234
0.0055514
0.00586595
0.00609957
0.00615374
0.00598158
0.00566236
0.00531759
0.00505856
0.00491926
0.00486326
0.00485135
0.00487843
0.00495642
0.00507867
0.00521625
0.00533384
0.00539784
0.00543355
0.00541133
0.00536764
0.00518663
0.00473667
0.00412256
0.00360971
0.00343221
0.00128693
0.00332633
0.0101888
0.00552653
0.00289022
0.00302414
0.00378202
0.00428811
0.00455287
0.00463059
0.00451694
0.00440808
0.00441917
0.00453799
0.00475938
0.00507006
0.00543251
0.00576561
0.0059475
0.00590919
0.00570264
0.0054381
0.0052126
0.00506485
0.00498351
0.00494911
0.00495908
0.00501688
0.00510847
0.00519681
0.00523968
0.0052653
0.0053581
0.00536933
0.00546477
0.005728
0.00574298
0.00543311
0.00485726
0.00447976
0.00150703
0.00341538
0.0104944
0.00771222
0.00526194
0.00365255
0.00328492
0.0037497
0.00424323
0.0045248
0.00430119
0.00412115
0.00404953
0.00407441
0.00418602
0.00438316
0.00466435
0.00499764
0.00527057
0.00537922
0.00534063
0.00521496
0.00507117
0.00495291
0.00487707
0.00485473
0.00489827
0.00500048
0.0051234
0.00520238
0.00517218
0.00516555
0.00534462
0.00528983
0.00534538
0.00570834
0.00612934
0.00581856
0.00492869
0.00446995
0.00157706
0.0033258
0.0040124
0.00441477
0.00440223
0.00402127
0.00358939
0.00333001
0.00325852
0.00329075
0.00335176
0.00341713
0.00348354
0.0035564
0.00364481
0.00376114
0.00392089
0.00413165
0.00436572
0.00456673
0.00469654
0.00475142
0.00475333
0.00472979
0.00470722
0.00471883
0.00480366
0.00496803
0.00516547
0.0052969
0.00516509
0.00505068
0.00541254
0.00493285
0.00426269
0.00373121
0.0033327
0.00300527
0.00262472
0.00230425
0.00155344
0.00233343
0.00341835
0.00372244
0.00363264
0.0034648
0.00332861
0.00323791
0.00318444
0.00317153
0.00318543
0.00321436
0.00325297
0.00330402
0.00337858
0.00349253
0.00365536
0.00385804
0.00407342
0.00426831
0.00441812
0.00451478
0.00457155
0.00462668
0.00472486
0.00486417
0.00503538
0.00528301
0.00508876
0.00442942
0.00598046
0.00606127
0.00572915
0.00524549
0.00459069
0.00384137
0.00313234
0.00254692
0.00149128
0.00242777
0.00388673
0.00403978
0.00389358
0.0037017
0.00351916
0.00336153
0.00322841
0.00310435
0.00296895
0.00283876
0.00272781
0.00264943
0.00261764
0.00264755
0.0027527
0.00293699
0.00318458
0.00345805
0.00371211
0.00391407
0.00405931
0.00417683
0.00430428
0.00441671
0.00447247
0.00464716
0.00463063
0.0030282
0.0050178
0.00529911
0.00544483
0.00553328
0.00544005
0.0050342
0.00453296
0.00343287
0.00154311
0.0021849
0.00226902
0.00234876
0.00248451
0.0023073
0.00209716
0.00194778
0.00182081
0.00171018
0.00161247
0.00152624
0.00145111
0.00138346
0.00132145
0.00126436
0.00121229
0.00116601
0.00112692
0.0010968
0.00107737
0.00106931
0.00107141
0.00108074
0.001094
0.0011093
0.0011263
0.00114328
0.00115854
0.00118059
0.0011933
0.00118397
0.0013384
0.00151749
0.00158265
0.00166273
0.001752
0.00178562
0.00172462
0.00159759
0.00145893
)
;

boundaryField
{
    floor
    {
        type            nutkWallFunction;
        Cmu             0.09;
        kappa           0.41;
        E               9.8;
        value           nonuniform List<scalar> 
36
(
0.000113485
6.17296e-05
7.54298e-05
7.51749e-05
6.40878e-05
5.22921e-05
3.07606e-05
2.62231e-05
2.69775e-05
2.89744e-05
2.93246e-05
2.77493e-05
2.54457e-05
2.40103e-05
2.7703e-05
3.72783e-05
4.95339e-05
5.52677e-05
5.01071e-05
5.0107e-05
7.71369e-05
8.7334e-05
0.000134379
0.000150485
0.000142761
0.000131741
0.000113485
0.000122899
0.00011755
9.27239e-05
6.17295e-05
9.27239e-05
8.8913e-05
0.000128985
0.000122608
0.000143266
)
;
    }
    ceiling
    {
        type            nutkWallFunction;
        Cmu             0.09;
        kappa           0.41;
        E               9.8;
        value           nonuniform List<scalar> 
43
(
0.000253333
0.000262385
0.000270935
0.000285466
0.00026655
0.000243903
0.000227655
0.000213739
0.000201528
0.000190672
0.000181031
0.000172583
0.000164935
0.000157888
0.000151367
0.000145391
0.000140056
0.00013553
0.000132031
0.000129769
0.000128829
0.000129075
0.000130163
0.000131708
0.000133487
0.00013546
0.000137427
0.000139192
0.000141744
0.000143218
0.000142111
0.000159755
0.000180045
0.00018735
0.000196267
0.000206154
0.000209863
0.000203126
0.000189013
0.000173465
0.000373825
0.000444058
0.000279339
)
;
    }
    sWall
    {
        type            nutkWallFunction;
        Cmu             0.09;
        kappa           0.41;
        E               9.8;
        value           uniform 0.0002534;
    }
    nWall
    {
        type            nutkWallFunction;
        Cmu             0.09;
        kappa           0.41;
        E               9.8;
        value           nonuniform List<scalar> 6(0.000131748 0.000153954 0.000178882 0.000177125 0.000182942 0.000173482);
    }
    sideWalls
    {
        type            empty;
    }
    glass1
    {
        type            nutkWallFunction;
        Cmu             0.09;
        kappa           0.41;
        E               9.8;
        value           nonuniform List<scalar> 9(9.12906e-05 0.000155386 0.000207511 0.000254951 0.000297919 0.000337393 0.000374373 0.000383588 0.000374352);
    }
    glass2
    {
        type            nutkWallFunction;
        Cmu             0.09;
        kappa           0.41;
        E               9.8;
        value           nonuniform List<scalar> 2(0.000186835 0.000184194);
    }
    sun
    {
        type            nutkWallFunction;
        Cmu             0.09;
        kappa           0.41;
        E               9.8;
        value           nonuniform List<scalar> 
14
(
9.13065e-05
9.34068e-05
8.53872e-05
8.85702e-05
9.19279e-05
9.50358e-05
9.79103e-05
0.000100633
0.000103318
0.000106127
0.000108535
0.000110398
0.000111738
0.000112767
)
;
    }
    Table_master
    {
        type            nutkWallFunction;
        Cmu             0.09;
        kappa           0.41;
        E               9.8;
        value           nonuniform List<scalar> 9(7.42907e-05 6.08647e-05 5.36411e-05 4.86257e-05 4.45569e-05 4.0801e-05 3.69155e-05 3.31112e-05 4.42451e-05);
    }
    Table_slave
    {
        type            nutkWallFunction;
        Cmu             0.09;
        kappa           0.41;
        E               9.8;
        value           nonuniform List<scalar> 9(0.000112307 0.00011431 0.000118089 0.000123257 0.00012976 0.000139182 0.000146167 0.00014889 0.000147272);
    }
    inlet
    {
        type            calculated;
        value           uniform 0.000100623;
    }
    outlet
    {
        type            calculated;
        value           nonuniform List<scalar> 2(0.0021849 0.00226902);
    }
}


// ************************************************************************* //
