/*--------------------------------*- C++ -*----------------------------------*=========                 |
  \      /  F ield         | OpenFOAM: The Open Source CFD Toolbox
   \    /   O peration     | Website:  https://openfoam.org
    \  /    A nd           | Version:  6
     \/     M anipulation  |
\*---------------------------------------------------------------------------*/
FoamFile
{
    version     2.0;
    format      ascii;
    class       volScalarField;
    location    "200";
    object      PMV;
}
// * * * * * * * * * * * * * * * * * * * * * * * * * * * * * * * * * * * * * //

dimensions      [0 0 0 0 0 0 0];

internalField   nonuniform List<scalar> 
458
(
1.184362215976448
0.9750992766922952
1.003519017097533
0.9862001788892901
0.9705421309482527
0.9574853059450198
0.9478284188900965
0.9424406922929321
0.9411991723647668
0.9447322360657435
0.9553616162713552
0.9754839851030961
1.0084261366077105
1.0387131254224145
1.014124678228198
0.931653401387751
0.9321299866565437
0.9340363266488694
0.9168792095950596
0.8749392387770254
0.6719210028031385
0.6195056247226804
0.6118819460575903
0.6109289934556911
0.6075936721758651
0.6047348413729636
0.6047348413729636
0.6090230931304437
0.616646733250103
0.6371357636671382
0.6609610733367992
0.667632314131225
0.6800219294814928
1.1536770177533737
0.9604859700012877
1.012671620223542
0.9870705412054839
0.9723032602466591
0.9613049860675191
0.9533608877093684
0.9488813673233853
0.947999003560026
0.9505837821461545
0.9571229955366901
0.96702036990358
0.9794394690942646
0.9883931912795042
0.9929042203606497
1.0467957781706747
1.1022570594787289
1.0507783798524715
0.8581641119439727
0.9616780281902563
0.9612014512691303
0.9588185642495054
0.9144962676155589
0.8220377056618637
0.7557932619901695
0.7143326825893169
0.6800219294814928
0.6533368788369501
0.6371357636671382
0.6299883471380755
0.6271294043203804
0.6399947536937171
0.7229105895732078
0.7681840861839313
0.7424494440644634
0.638658699126976
1.2192469489160311
0.9429136833212428
1.039156265578053
1.0052293374898227
0.9938970639146494
0.9868418561336688
0.9825624345532844
0.9806612768560065
0.9805372199429248
0.981844729521742
0.984469530094094
0.9861121145962484
0.9843993002149102
0.9768839187410828
0.9671910204889943
0.9669694776149915
0.9583528515249501
0.9196198461701219
1.0150533953318563
1.0150533953318563
1.0236313006641418
1.0283967640470342
1.0193423591993938
0.8735094632060861
0.8196547705039375
0.7872471174751997
0.7629417992971197
0.7405431976913255
0.718145075655949
0.6957475088704901
0.6719210028031385
0.6776392945907286
0.8959092642813954
0.8568287529983403
0.7810516047654577
0.5391149293606406
1.3111584447434936
0.9410768110809974
1.0644846413498166
1.0276627940208174
1.0238901054656238
1.0234944768015026
1.0255073699135255
1.0280927278352914
1.0315445957822127
1.034373659445103
1.0364820713771135
1.0341374192112196
1.025424502980694
1.0097334583721822
0.9903013272668717
0.9691379891195709
0.9409022942981131
0.9095558658298136
0.9075059052052347
0.9501833174513246
0.972189604557763
0.9981727025696161
1.0021630571996172
0.9955204714686272
1.0083625788018007
1.0414223028646679
1.0795379578614255
1.0936802188751442
1.0965391816418464
1.099874618188178
1.1017805721206957
1.0517538679023186
1.0031691466183186
0.9736528648114755
0.9462202161891372
0.8978508219652983
0.9203789389065916
1.4108484564294186
0.9561842099241036
1.0806753489336038
1.0498124367388688
1.0562061268288845
1.0656490851607523
1.0768313082734748
1.0879895539678166
1.098193700872899
1.1058252994613988
1.110439159196125
1.1072954164921849
1.09601743772793
1.077701609136637
1.0548539039881824
1.0299850707055214
1.0029053021930805
0.984164472769674
0.984562548558414
0.9970219727442972
1.0169838275251353
1.0331317919081868
1.0401182605689072
1.044039421919864
1.0564741201675656
1.0777300725907062
1.103935790609357
1.1113102321704433
1.1132161417836015
1.1151220437724356
1.1165514652195083
1.0878007874466193
1.0549280621649073
1.0207102282558087
0.9737700491130707
0.9034556641374671
0.8618189485523023
0.807552891904684
0.7952302571431971
0.8033209972300231
1.5050952316172352
0.9876913688761326
1.0992740054107057
1.071977657016023
1.087372559290259
1.1093477386271264
1.1327941313286924
1.157502914144129
1.1795817536456727
1.1971472205112297
1.2056927411936362
1.2014110328723018
1.186839900749069
1.1660945046941984
1.1417690574046577
1.116044966777591
1.0916529392563874
1.0754149330967002
1.0706686484632735
1.0757631656229363
1.0846622265676384
1.0910476149283348
1.0932227373871213
1.0951461798271849
1.1010430816736279
1.1098428551374964
1.118506435163724
1.1230827661465221
1.1183600116889107
1.1049665592105065
1.090164713441817
1.0880364497502777
1.0927783920215723
1.088121365730531
1.0308103697010322
0.9579781983834211
0.910900776391987
0.9011417600435125
0.8804164887590759
0.8376868662502257
1.5838331863564843
1.0716941004028528
1.1979453311855786
1.1157195129283717
1.1239697565416031
1.1594863991729256
1.201174141280363
1.2478259777810206
1.2723257799230783
1.2932801096006599
1.3080423215234693
1.3128041298152455
1.2876931338544713
1.2625703895584783
1.2380624074118631
1.2142090151036538
1.1931833298942425
1.1787368506606433
1.1725785616588182
1.1716800271329744
1.172622921657342
1.1706341806894978
1.163719754174479
1.1570498188187779
1.1513326412468197
1.146091823797237
1.1405873770526296
1.1247771880911368
1.1031823522493778
1.0797171215105212
1.0637522713400942
1.0666137217803164
1.0852161395695945
1.1241749719968175
1.1065454252281168
1.0836737278381794
1.0188483951589071
0.9765364528765799
0.8945887893726486
0.803234581788394
1.7242699870166187
1.4392619712405128
1.4395950199097391
1.27895964670412
1.2455210459861732
1.258514048567752
1.263753064889201
1.2780407679111336
1.2961373822987696
1.3199466587445987
1.3332787759377025
1.322289643087111
1.3100394336325567
1.2997865830206154
1.291377316647628
1.2843550283977596
1.2782199915913863
1.2594666045003715
1.2418437918077931
1.2261252386747217
1.2123112930683086
1.2008786089358152
1.1913510712256699
1.1827760616369634
1.174200845266032
1.1665782625175796
1.1584791003053858
1.148833368661524
1.1122076869836777
1.0758383917413743
1.0526222452364673
1.0455914931130372
1.0387821372907782
1.0368284654205722
1.048321907977272
1.0912495835658866
1.0898682442958554
1.0865327442121344
0.9492926146376327
0.7328063746485182
1.9273600202881618
1.7721755018048488
1.6218526144613126
1.464015125345983
1.3497897118952142
1.2868172586714401
1.255820546642565
1.2423423691554505
1.2380054733696821
1.2389171914489174
1.2387047433809761
1.2381601649295604
1.2382787875785726
1.2408294234117843
1.2453506355945458
1.2518771739762207
1.2600654849930137
1.2684512338242238
1.26851571853987
1.253751219361012
1.2399385573317394
1.228030561945153
1.217551137474213
1.2080240836109901
1.1984967497306247
1.1889691452466664
1.1784884788805439
1.16753109384847
1.157526246559447
1.1048985829178302
1.0734420899956343
1.0409816128740275
0.9922826110718004
0.9505287448573195
0.9182858033216713
0.8938653682060792
0.8797520290676554
0.8751050880220057
0.8654927496045
0.8253021463343426
0.12952858343535711
0.7299997639147722
1.0193335913663348
1.1265976789512562
1.1608303637098742
1.1684445003966377
1.1682035181450507
1.167214481098155
1.1674659408730765
1.1690189648128584
1.172191740878747
1.1777370852840932
1.185247352417378
1.193748845192706
1.2032064272986434
1.2129936180131173
1.2223677638428265
1.2302578752991467
1.2369457089742764
1.243179172050965
1.238033310364072
1.229459546524416
1.2204091976100762
1.2108822296026927
1.2008786089358152
1.1894455317535264
1.1746772514865895
1.160861224494991
1.154667671483351
1.146091823797237
1.130095737933497
1.0815196697655454
1.0482860425338205
1.0199995672115443
1.0054964512101663
1.0276700216551837
1.139993276970678
0.872160635855993
0.10355113539168709
0.7637420639646135
0.9992742456980379
1.0874783263720187
1.110643336675638
1.1115340098301327
1.1084514313711218
1.1062179495948758
1.1078064195287423
1.1118378175900874
1.1178638263725647
1.1247709387048312
1.132956192324258
1.1417135369081477
1.1498033325641122
1.156578129883457
1.1626699951174277
1.166831857174422
1.170852831424571
1.1752606624795983
1.181297096167406
1.1891507086549067
1.198085505864817
1.2055094722442719
1.215064615031075
1.2118349392888659
1.1975440013049465
1.17991767882481
1.1601581739830635
1.141327386360932
1.1403744923538466
1.1479975833941873
1.156096961607709
1.1505733162586786
1.1258316920973384
1.1238387023575296
1.0478344924789902
0.9443999952900025
0.2929644697618416
0.2757637159458934
0.3418403953168237
0.8238155841201048
1.1577924652561036
1.1922820064639374
1.1187605612082765
1.0797878092797346
1.0589995961311156
1.0480961959022135
1.0422079369457682
1.040536078160044
1.0414172595774194
1.0431186982389609
1.0451729291386977
1.0468099476481056
1.0470489271789571
1.0463460531098334
1.0445233751819858
1.04272741123829
1.0410786196778092
1.0399588497303682
1.0388228485124764
1.0378326699278713
1.0365026668840684
1.0328437373127002
1.0278988265827698
1.01925697913696
1.0074086987606896
0.986937016158127
0.9413307378904605
0.9445347501165715
1.0446970507108941
1.0495720075473807
1.057254719410622
1.0548451568378663
1.02623514438981
0.9792333925756418
0.9289124414653903
0.9539277183934919
)
;

boundaryField
{
    ".*"
    {
        type            zeroGradient;
    }
}


// ************************************************************************* //
