/*--------------------------------*- C++ -*----------------------------------*\
  =========                 |
  \\      /  F ield         | OpenFOAM: The Open Source CFD Toolbox
   \\    /   O peration     | Website:  https://openfoam.org
    \\  /    A nd           | Version:  6
     \\/     M anipulation  |
\*---------------------------------------------------------------------------*/
FoamFile
{
    version     2.0;
    format      ascii;
    class       volScalarField;
    location    "3000";
    object      epsilon;
}
// * * * * * * * * * * * * * * * * * * * * * * * * * * * * * * * * * * * * * //

dimensions      [0 2 -3 0 0 0 0];

internalField   nonuniform List<scalar> 
458
(
0.000529145
0.000704532
0.00075915
0.000881394
0.0010083
0.00114213
0.00129221
0.00141993
0.00149793
0.00150664
0.00143742
0.0012924
0.00108008
0.000798728
0.000426533
4.44764e-05
7.75157e-05
0.000122124
0.000141317
0.000134635
0.000109165
8.52379e-05
6.71397e-05
5.37803e-05
4.37881e-05
3.61931e-05
3.03029e-05
2.5679e-05
2.19134e-05
1.86932e-05
1.574e-05
1.32202e-05
9.57846e-06
0.00127375
0.00173217
0.000664137
0.000654651
0.000698881
0.000771237
0.00087554
0.000984124
0.00106322
0.00108753
0.00104854
0.000952141
0.000817653
0.000661663
0.000550046
0.000886458
0.000482696
0.000231326
4.48316e-05
0.000102551
0.000127134
0.000128775
0.000123191
0.000123311
9.56286e-05
7.16193e-05
5.39432e-05
4.11976e-05
3.19846e-05
2.52279e-05
2.02234e-05
1.64886e-05
1.40859e-05
1.28698e-05
2.09108e-05
1.60458e-05
0.00225022
0.00400895
0.000805974
0.00063537
0.00069027
0.000807872
0.000969886
0.00112561
0.00122649
0.00125172
0.00120334
0.00109036
0.000939011
0.000765599
0.000619093
0.000527544
0.000448774
0.000536964
0.000226767
0.000207151
0.000186411
0.000164513
0.000152274
0.000293311
0.000188447
0.000124408
8.52097e-05
6.05984e-05
4.46601e-05
3.40196e-05
2.68555e-05
2.21437e-05
1.67713e-05
1.38863e-05
3.27563e-05
2.22644e-05
0.00355194
0.00810835
0.00125138
0.000673804
0.000724679
0.000910101
0.00117294
0.00137663
0.00147645
0.00148038
0.00140711
0.0012609
0.00107862
0.000886385
0.000713087
0.00058205
0.000499265
0.000504733
0.000909733
0.000544632
0.000360396
0.000265042
0.000209206
0.000184399
0.000431235
0.000315451
0.000245817
0.000199194
0.000164424
0.000137478
0.000114886
9.45286e-05
7.48707e-05
4.35059e-05
2.59777e-05
4.98634e-05
3.05676e-05
0.00531915
0.0142771
0.00245696
0.000883503
0.000876074
0.00121615
0.00160077
0.00179807
0.00184469
0.00179566
0.00167363
0.00148677
0.00125567
0.00101029
0.000786048
0.000609166
0.000487725
0.000429872
0.000415259
0.000360663
0.000306598
0.000259167
0.000216655
0.000180806
0.000167339
0.000148053
0.000131621
0.000117153
0.000103605
9.08857e-05
7.86778e-05
6.70789e-05
5.62813e-05
4.34079e-05
3.14758e-05
4.07056e-05
4.83025e-05
6.65686e-05
9.58916e-05
0.000128032
0.00775544
0.0211476
0.00555366
0.00188288
0.00165758
0.00224204
0.002469
0.00247838
0.00238934
0.00224697
0.00204949
0.00178902
0.00147779
0.00115131
0.00085533
0.000624394
0.000470808
0.000391313
0.00035837
0.000333396
0.000301516
0.000262087
0.000219631
0.000179754
0.000150521
0.000132086
0.000120108
0.000110206
0.000100286
8.94614e-05
7.76882e-05
6.58636e-05
5.49088e-05
4.49056e-05
3.70906e-05
3.71764e-05
4.56708e-05
5.72622e-05
0.000141436
0.000140425
0.0104051
0.0252319
0.0113716
0.00593678
0.00500619
0.00446172
0.00394795
0.00351673
0.00317239
0.00287197
0.00255299
0.00217572
0.00174593
0.00130767
0.00092239
0.000636565
0.000460565
0.000377686
0.000346937
0.000324622
0.000292712
0.000251931
0.000209115
0.000171043
0.000143936
0.000128868
0.000121008
0.000115836
0.000111132
0.000105664
9.73167e-05
8.73155e-05
7.72439e-05
6.81415e-05
6.28278e-05
6.41979e-05
7.78152e-05
0.000108923
0.00020933
0.000224732
0.0108834
0.0258871
0.0155827
0.0114874
0.00886711
0.00691281
0.00557581
0.00471042
0.00413763
0.00368097
0.0032006
0.00264134
0.00202894
0.0014308
0.000935162
0.000605287
0.000426121
0.000352562
0.000324054
0.000298505
0.000263493
0.000223958
0.000186926
0.000157698
0.000139122
0.000130285
0.000127775
0.000129154
0.000133672
0.000141302
0.000151792
0.000160785
0.000170398
0.000187804
0.000220841
0.0003057
0.000493726
0.000815318
0.0025386
0.000842046
0.00998141
0.0160755
0.0131103
0.0101308
0.00807313
0.00684274
0.00613011
0.00568625
0.00528849
0.00474706
0.00397299
0.00305407
0.0021366
0.00131939
0.000738117
0.000477556
0.000362824
0.000312622
0.000284583
0.00025787
0.000227953
0.0001976
0.000171258
0.000151742
0.000139857
0.000134604
0.000134533
0.000139203
0.000149311
0.000166268
0.000192006
0.00022945
0.000282644
0.000361907
0.000478633
0.000640485
0.00083663
0.00103105
0.00119692
0.000754403
0.0023397
0.00626105
0.00769499
0.00815494
0.00813078
0.0075993
0.00648045
0.00496052
0.00325765
0.00200838
0.00122107
0.000752425
0.000492356
0.000368232
0.000310059
0.0002797
0.000257688
0.000236396
0.000215281
0.000195846
0.000179297
0.000165947
0.000155366
0.000146741
0.000140223
0.000137138
0.00013957
0.000149332
0.000168608
0.000200372
0.000248401
0.000317715
0.000412238
0.000527553
0.000640104
0.000710199
0.000719402
0.000492719
0.00288202
0.00852032
0.00806729
0.00676567
0.00576887
0.00472217
0.00363395
0.00259212
0.00170543
0.00109275
0.000722873
0.000517877
0.000412647
0.000364333
0.000344747
0.000338676
0.000337957
0.000338269
0.000337548
0.00033483
0.00032934
0.000320441
0.000307656
0.000291301
0.000272527
0.000253591
0.000237387
0.000227281
0.00022643
0.000237806
0.000264733
0.000310621
0.000376385
0.000455546
0.000527324
0.000607066
0.0007121
0.000540961
0.00195623
0.00249631
0.00294362
0.00389392
0.00363497
0.00345333
0.00317306
0.00271334
0.00217071
0.00164034
0.00119091
0.000866258
0.00065923
0.000534208
0.000458111
0.000408858
0.000373386
0.000344264
0.000317962
0.000293753
0.00027204
0.000252986
0.000236271
0.000221458
0.000208447
0.000197538
0.000189551
0.000185511
0.000186383
0.000192801
0.000205306
0.000224625
0.000251869
0.000288522
0.000335688
0.000394182
0.000430434
0.000404271
0.00034034
0.000290703
)
;

boundaryField
{
    floor
    {
        Cmu             0.09;
        kappa           0.41;
        E               9.8;
        type            epsilonWallFunction;
        value           nonuniform List<scalar> 
36
(
0.000426533
4.44764e-05
7.75157e-05
0.000122124
0.000141317
0.000134635
0.000109165
8.52379e-05
6.71397e-05
5.37803e-05
4.37881e-05
3.61931e-05
3.03029e-05
2.5679e-05
2.19134e-05
1.86932e-05
1.574e-05
1.32202e-05
9.57846e-06
9.57846e-06
1.60458e-05
2.22644e-05
3.05676e-05
6.65686e-05
9.58916e-05
0.000128032
0.000426533
0.000886458
0.000482696
0.000231326
4.44764e-05
0.000231326
4.48316e-05
0.000536964
0.000226767
0.000909733
)
;
    }
    ceiling
    {
        Cmu             0.09;
        kappa           0.41;
        E               9.8;
        type            epsilonWallFunction;
        value           nonuniform List<scalar> 
43
(
0.00195623
0.00249631
0.00294362
0.00389392
0.00363497
0.00345333
0.00317306
0.00271334
0.00217071
0.00164034
0.00119091
0.000866258
0.00065923
0.000534208
0.000458111
0.000408858
0.000373386
0.000344264
0.000317962
0.000293753
0.00027204
0.000252986
0.000236271
0.000221458
0.000208447
0.000197538
0.000189551
0.000185511
0.000186383
0.000192801
0.000205306
0.000224625
0.000251869
0.000288522
0.000335688
0.000394182
0.000430434
0.000404271
0.00034034
0.000290703
0.00998141
0.0160755
0.00288202
)
;
    }
    sWall
    {
        Cmu             0.09;
        kappa           0.41;
        E               9.8;
        type            epsilonWallFunction;
        value           uniform 0.00195623;
    }
    nWall
    {
        Cmu             0.09;
        kappa           0.41;
        E               9.8;
        type            epsilonWallFunction;
        value           nonuniform List<scalar> 6(0.000128032 0.000140425 0.000224732 0.000492719 0.000540961 0.000290703);
    }
    sideWalls
    {
        type            empty;
    }
    glass1
    {
        Cmu             0.09;
        kappa           0.41;
        E               9.8;
        type            epsilonWallFunction;
        value           nonuniform List<scalar> 9(0.000529145 0.00127375 0.00225022 0.00355194 0.00531915 0.00775544 0.0104051 0.0108834 0.00998141);
    }
    glass2
    {
        Cmu             0.09;
        kappa           0.41;
        E               9.8;
        type            epsilonWallFunction;
        value           nonuniform List<scalar> 2(0.000842046 0.000754403);
    }
    sun
    {
        Cmu             0.09;
        kappa           0.41;
        E               9.8;
        type            epsilonWallFunction;
        value           nonuniform List<scalar> 
14
(
0.000529145
0.000704532
0.00075915
0.000881394
0.0010083
0.00114213
0.00129221
0.00141993
0.00149793
0.00150664
0.00143742
0.0012924
0.00108008
0.000798728
)
;
    }
    Table_master
    {
        Cmu             0.09;
        kappa           0.41;
        E               9.8;
        type            epsilonWallFunction;
        value           nonuniform List<scalar> 9(0.000293311 0.000188447 0.000124408 8.52097e-05 6.05984e-05 4.46601e-05 3.40196e-05 2.68555e-05 2.21437e-05);
    }
    Table_slave
    {
        Cmu             0.09;
        kappa           0.41;
        E               9.8;
        type            epsilonWallFunction;
        value           nonuniform List<scalar> 9(0.000431235 0.000315451 0.000245817 0.000199194 0.000164424 0.000137478 0.000114886 9.45286e-05 7.48707e-05);
    }
    inlet
    {
        type            turbulentMixingLengthDissipationRateInlet;
        mixingLength    0.01;
        phi             phi;
        k               k;
        value           uniform 0.000101881;
    }
    outlet
    {
        type            zeroGradient;
    }
}


// ************************************************************************* //
