/*--------------------------------*- C++ -*----------------------------------*\
  =========                 |
  \\      /  F ield         | OpenFOAM: The Open Source CFD Toolbox
   \\    /   O peration     | Website:  https://openfoam.org
    \\  /    A nd           | Version:  6
     \\/     M anipulation  |
\*---------------------------------------------------------------------------*/
FoamFile
{
    version     2.0;
    format      ascii;
    class       volScalarField;
    location    "300";
    object      nut;
}
// * * * * * * * * * * * * * * * * * * * * * * * * * * * * * * * * * * * * * //

dimensions      [0 2 -1 0 0 0 0];

internalField   nonuniform List<scalar> 
458
(
0.000736631
0.000756255
0.000701494
0.000727229
0.000753886
0.00077862
0.000801608
0.000823483
0.000845118
0.000867778
0.00088738
0.000902751
0.000914055
0.000923096
0.000929952
0.000459661
0.000544067
0.000554997
0.000448761
0.000360972
0.000289603
0.000271351
0.000272722
0.000282247
0.00027849
0.000263068
0.00024534
0.000233383
0.000255473
0.000310653
0.000395088
0.000431688
0.000396906
0.00124984
0.0021108
0.00157614
0.00204028
0.00220175
0.00236425
0.00252867
0.00268129
0.00280339
0.00287014
0.00289167
0.00283175
0.00264248
0.0022537
0.00162377
0.00100664
0.000964328
0.00073334
0.000665145
0.00134029
0.00158271
0.00162847
0.00136134
0.00104507
0.000873547
0.000835634
0.000835867
0.000779779
0.00064363
0.000475633
0.000350858
0.000371354
0.000742436
0.00128959
0.00161888
0.000592205
0.00170126
0.00347075
0.00167518
0.00295155
0.0033253
0.00352045
0.00368688
0.00382852
0.00394062
0.00401438
0.00405452
0.0040341
0.00391246
0.00363575
0.0031678
0.00254997
0.00181707
0.00106316
0.000965782
0.0027981
0.00260867
0.00217202
0.00164765
0.000622639
0.000512201
0.000453177
0.000412557
0.000380131
0.000350762
0.000321344
0.000294098
0.000383555
0.00137509
0.00191244
0.00180543
0.000659651
0.00213366
0.00524954
0.00185745
0.00318621
0.00396568
0.00418142
0.0043183
0.00442838
0.00451999
0.00459361
0.00465784
0.00471555
0.00474147
0.00467899
0.00443025
0.00388006
0.00298012
0.00191171
0.00116652
0.00287511
0.00306697
0.00261626
0.00200563
0.00138314
0.000915134
0.000936514
0.000972802
0.00101986
0.00107609
0.00115108
0.00120005
0.00122164
0.00120735
0.00151819
0.00191263
0.00239247
0.00106331
0.00254147
0.0072635
0.0025186
0.00291867
0.00416803
0.00446447
0.00457734
0.00464649
0.00469819
0.00474726
0.0048095
0.00492958
0.00511029
0.0053326
0.00554949
0.00569676
0.00571986
0.00557756
0.00527712
0.00515105
0.00484824
0.00452416
0.00431555
0.00421468
0.00420071
0.00432852
0.00452284
0.0047598
0.0050034
0.0052067
0.00530531
0.00526647
0.00511197
0.00488218
0.00428363
0.00370751
0.00266527
0.001255
0.00118995
0.001087
0.00293095
0.00916213
0.00406948
0.00269383
0.00375366
0.00430857
0.00453437
0.00463214
0.00465562
0.00464174
0.00464383
0.00474235
0.00493573
0.00522076
0.00557775
0.00595907
0.00628356
0.00643342
0.00633647
0.00606946
0.00574553
0.00548657
0.00534945
0.00531259
0.00534211
0.0054358
0.00559308
0.00579053
0.00598095
0.00611075
0.00613726
0.00603596
0.00588594
0.00576144
0.00558464
0.0051889
0.00468542
0.00424368
0.00382109
0.0013056
0.00329442
0.0106109
0.00684392
0.0038332
0.00303161
0.00335782
0.00392266
0.00433962
0.00454376
0.0045026
0.00443487
0.00446457
0.00457691
0.00477888
0.00507772
0.0054584
0.00585203
0.00613242
0.00620444
0.00608112
0.00587825
0.00570183
0.00560283
0.00557936
0.00561574
0.00571232
0.00586912
0.00605915
0.00622472
0.00629533
0.00622975
0.00605548
0.00586883
0.00580154
0.00595374
0.00615269
0.00606631
0.00555612
0.00498337
0.00151305
0.00337165
0.0105195
0.00848743
0.00679902
0.00506963
0.00398681
0.00374566
0.00399916
0.00432961
0.00434087
0.00425765
0.00421483
0.00423132
0.00430894
0.00445588
0.00468732
0.00499618
0.00530968
0.00552303
0.00556966
0.00552442
0.00545924
0.00542551
0.00545147
0.0055551
0.00574333
0.00599241
0.00625345
0.00645644
0.00651145
0.00636096
0.00604364
0.00568866
0.00545114
0.00541947
0.00546978
0.00515566
0.00444949
0.00383526
0.00154149
0.0032748
0.00390557
0.00445138
0.00468384
0.00460817
0.00428349
0.0039673
0.00378139
0.00371668
0.00370384
0.00372673
0.00376512
0.00380816
0.00385383
0.00391028
0.00399709
0.00413722
0.00433087
0.00453837
0.00470964
0.00482972
0.00490922
0.00497417
0.00506324
0.00523245
0.00554027
0.00595581
0.00639034
0.00674812
0.00691015
0.00676295
0.00629191
0.00558786
0.00478332
0.0040327
0.00339577
0.00289746
0.00250635
0.00217759
0.00158663
0.0027991
0.00478051
0.00473111
0.00453201
0.00429386
0.00408453
0.00392532
0.00380669
0.00371905
0.00365234
0.00359518
0.00354182
0.00349517
0.00346794
0.0034812
0.00355634
0.00370051
0.00389705
0.00411212
0.00431132
0.00447908
0.00462974
0.00480959
0.00508542
0.00550152
0.00605534
0.00668639
0.00722068
0.00750477
0.00755236
0.00752631
0.00746282
0.0071643
0.00657705
0.0058398
0.00523727
0.00484056
0.00162221
0.00263303
0.00525556
0.00508309
0.00478466
0.00452336
0.00427058
0.00403126
0.00381184
0.00361161
0.00339307
0.00317152
0.00296603
0.00279236
0.00266593
0.00260396
0.0026249
0.00274106
0.00294499
0.00320244
0.00346477
0.00369444
0.00388315
0.0040531
0.00424181
0.0044827
0.00481426
0.00529881
0.00592193
0.00649131
0.00674654
0.00686001
0.00692802
0.00693379
0.00680097
0.00650267
0.00612536
0.00464232
0.00163926
0.00214754
0.00229896
0.00243276
0.002558
0.00236868
0.00217225
0.00200493
0.00185852
0.00172608
0.0016062
0.00149749
0.00140406
0.00132141
0.00124631
0.00117739
0.00111452
0.00105841
0.00101052
0.000972763
0.000947055
0.00093431
0.000933459
0.000941524
0.000955004
0.000971536
0.00099061
0.00101341
0.00104357
0.00108841
0.00115268
0.00122751
0.00132027
0.00142081
0.00154404
0.00168096
0.00178831
0.00181665
0.00173401
0.00161663
0.00145331
)
;

boundaryField
{
    floor
    {
        type            nutkWallFunction;
        Cmu             0.09;
        kappa           0.41;
        E               9.8;
        value           nonuniform List<scalar> 
36
(
0.000112439
5.45493e-05
6.53282e-05
6.67091e-05
5.3141e-05
4.16249e-05
3.19989e-05
2.9489e-05
2.96787e-05
3.0991e-05
3.04737e-05
2.83414e-05
2.58693e-05
2.41886e-05
2.72854e-05
3.48693e-05
4.61467e-05
5.09371e-05
4.63875e-05
4.63874e-05
7.13923e-05
7.97741e-05
0.000128129
0.000150299
0.000142822
0.000130893
0.00011244
0.000121493
0.000116508
8.8808e-05
5.45493e-05
8.8808e-05
8.04438e-05
0.000128113
0.000116679
0.00014012
)
;
    }
    ceiling
    {
        type            nutkWallFunction;
        Cmu             0.09;
        kappa           0.41;
        E               9.8;
        value           nonuniform List<scalar> 
43
(
0.000249293
0.00026559
0.000279898
0.0002933
0.000273155
0.000252059
0.00023392
0.000217914
0.000203315
0.000189997
0.000177826
0.000167287
0.000157899
0.000149312
0.000141381
0.0001341
0.000127564
0.000121953
0.000117508
0.00011447
0.000112961
0.000112861
0.000113817
0.000115412
0.000117365
0.000119613
0.000122294
0.00012583
0.000131067
0.00013853
0.000147158
0.000157773
0.000169181
0.000183042
0.000198306
0.000210181
0.000213303
0.000204185
0.000191152
0.000172845
0.000368611
0.000433291
0.00030108
)
;
    }
    sWall
    {
        type            nutkWallFunction;
        Cmu             0.09;
        kappa           0.41;
        E               9.8;
        value           uniform 0.000249359;
    }
    nWall
    {
        type            nutkWallFunction;
        Cmu             0.09;
        kappa           0.41;
        E               9.8;
        value           nonuniform List<scalar> 6(0.000130899 0.000156095 0.000179572 0.000191795 0.000193692 0.00017286);
    }
    sideWalls
    {
        type            empty;
    }
    glass1
    {
        type            nutkWallFunction;
        Cmu             0.09;
        kappa           0.41;
        E               9.8;
        value           nonuniform List<scalar> 9(8.91849e-05 0.000149891 0.000200875 0.000248308 0.000292099 0.000333233 0.000371106 0.00037911 0.000369105);
    }
    glass2
    {
        type            nutkWallFunction;
        Cmu             0.09;
        kappa           0.41;
        E               9.8;
        value           nonuniform List<scalar> 2(0.000182858 0.000187917);
    }
    sun
    {
        type            nutkWallFunction;
        Cmu             0.09;
        kappa           0.41;
        E               9.8;
        value           nonuniform List<scalar> 
14
(
8.92081e-05
9.1597e-05
8.49133e-05
8.80615e-05
9.13087e-05
9.43095e-05
9.70885e-05
9.97241e-05
0.000102323
0.000105036
0.000107377
0.000109208
0.000110552
0.000111626
)
;
    }
    Table_master
    {
        type            nutkWallFunction;
        Cmu             0.09;
        kappa           0.41;
        E               9.8;
        value           nonuniform List<scalar> 9(7.51838e-05 6.12974e-05 5.37283e-05 4.84484e-05 4.41867e-05 4.02868e-05 3.63379e-05 3.26389e-05 4.46455e-05);
    }
    Table_slave
    {
        type            nutkWallFunction;
        Cmu             0.09;
        kappa           0.41;
        E               9.8;
        value           nonuniform List<scalar> 9(0.000110675 0.000113211 0.000117502 0.000123038 0.000129616 0.000138327 0.000143983 0.000146468 0.000144825);
    }
    inlet
    {
        type            calculated;
        value           uniform 0.000100623;
    }
    outlet
    {
        type            calculated;
        value           nonuniform List<scalar> 2(0.00214754 0.00229896);
    }
}


// ************************************************************************* //
