/*--------------------------------*- C++ -*----------------------------------*\
  =========                 |
  \\      /  F ield         | OpenFOAM: The Open Source CFD Toolbox
   \\    /   O peration     | Website:  https://openfoam.org
    \\  /    A nd           | Version:  6
     \\/     M anipulation  |
\*---------------------------------------------------------------------------*/
FoamFile
{
    version     2.0;
    format      ascii;
    class       volScalarField;
    location    "200";
    object      nut;
}
// * * * * * * * * * * * * * * * * * * * * * * * * * * * * * * * * * * * * * //

dimensions      [0 2 -1 0 0 0 0];

internalField   nonuniform List<scalar> 
458
(
0.00070488
0.000725254
0.00068152
0.000707704
0.00073363
0.000757188
0.000778681
0.000798774
0.000818302
0.000838393
0.000856373
0.000870614
0.000881178
0.000889509
0.000895466
0.000421084
0.000508243
0.00050607
0.000409244
0.000314613
0.000214269
0.000198519
0.000205159
0.000216207
0.000208834
0.000192024
0.000177668
0.00019087
0.000217729
0.000261528
0.000354998
0.000411553
0.000370311
0.00117778
0.00194937
0.00147272
0.00184141
0.00197431
0.00211394
0.00225588
0.00238827
0.00249539
0.00255659
0.00257662
0.0025286
0.00237142
0.00204244
0.00149865
0.000958621
0.000919643
0.000680928
0.000581454
0.00131637
0.00151824
0.00145989
0.0010381
0.000738865
0.000591085
0.000582506
0.000599392
0.000536372
0.00039479
0.000266641
0.000240437
0.000355825
0.000896038
0.00143125
0.00170252
0.000541782
0.00159032
0.00311474
0.00158189
0.00268401
0.00295586
0.00311765
0.00325799
0.0033765
0.0034694
0.00353014
0.00356112
0.00354207
0.00344156
0.00321746
0.00283877
0.00232639
0.00167811
0.000988382
0.000859053
0.00242287
0.00221516
0.0018223
0.00140617
0.0005037
0.000408078
0.000357554
0.000322147
0.000293031
0.000265456
0.0002382
0.000252124
0.000494821
0.00142436
0.00190891
0.00197268
0.000624637
0.00198683
0.00464823
0.00167474
0.00300294
0.00355575
0.00372238
0.00383474
0.00392178
0.0039891
0.00403815
0.00407405
0.00409817
0.00409591
0.00403226
0.00383916
0.00342028
0.0026975
0.00175992
0.00104702
0.0023254
0.00268341
0.00227712
0.00172798
0.00118078
0.000767088
0.000774607
0.000794169
0.000822533
0.000858806
0.00090861
0.000953047
0.000981657
0.000990556
0.00142562
0.00187465
0.00235079
0.000942469
0.00236259
0.00641515
0.00209699
0.00285343
0.00382395
0.00403433
0.00412751
0.00418547
0.00422198
0.00424681
0.00426712
0.00431668
0.0044076
0.00453703
0.00468194
0.004805
0.004868
0.00482038
0.00460353
0.004418
0.00412734
0.00383281
0.00363053
0.0035077
0.00344578
0.0034918
0.00359199
0.00373326
0.00389464
0.0040546
0.00417098
0.00420684
0.00416223
0.00408191
0.00381586
0.00346042
0.00247224
0.00114493
0.00108934
0.000993818
0.00272
0.00809708
0.00313554
0.0025026
0.00368611
0.00407955
0.00423182
0.00430333
0.00431484
0.00428274
0.00422593
0.0042276
0.00429868
0.00444186
0.00464832
0.00489187
0.0051174
0.00522525
0.0051325
0.0048879
0.00461801
0.00443409
0.00435031
0.00431448
0.00428889
0.0042897
0.00434588
0.00445817
0.0045987
0.00472817
0.00481288
0.00482841
0.00478636
0.00475255
0.00478373
0.00469101
0.00437443
0.00403911
0.00351026
0.0012002
0.00306728
0.00938834
0.00521238
0.00270298
0.00274772
0.00341496
0.00392441
0.00423163
0.004363
0.00429004
0.0041166
0.00403651
0.00403201
0.00410041
0.00424126
0.0044449
0.00466758
0.0048151
0.00480514
0.00465475
0.00447091
0.00436634
0.00436154
0.00440111
0.00442678
0.00444124
0.00449511
0.00461469
0.00476519
0.00488089
0.004915
0.00486584
0.00478262
0.00474552
0.00484193
0.00505611
0.00504037
0.00467789
0.00419826
0.00133859
0.00316367
0.00981162
0.00722552
0.00498577
0.00349359
0.00305838
0.00338798
0.00385511
0.00417677
0.00408523
0.00390581
0.00377857
0.00371434
0.00370496
0.00374541
0.00383657
0.0039698
0.00409733
0.0041464
0.00409044
0.00398357
0.003923
0.00395967
0.0040854
0.00425011
0.00439843
0.00453524
0.004718
0.00492348
0.00505475
0.00503789
0.00486987
0.00460601
0.00432352
0.00407597
0.00384667
0.00354794
0.00315104
0.00279351
0.00135007
0.00308944
0.00374533
0.00409124
0.00408694
0.00376707
0.00339206
0.00315485
0.00308046
0.00310296
0.00314892
0.00318807
0.00321333
0.00322629
0.00323158
0.00323538
0.00324571
0.0032694
0.0033015
0.00332006
0.00330496
0.0032656
0.00323892
0.00326938
0.0033997
0.00366555
0.00404628
0.0043945
0.00471494
0.00505866
0.00532852
0.0053998
0.00522892
0.00484754
0.00432614
0.00374189
0.00316945
0.00268218
0.00234171
0.00213208
0.00147104
0.00202608
0.00300773
0.00334435
0.00331921
0.00319939
0.00308929
0.00300711
0.00294375
0.00289996
0.00286473
0.00282944
0.0027887
0.00274084
0.00268782
0.00263429
0.00258487
0.00254094
0.0025008
0.00246521
0.00244221
0.00244914
0.00251739
0.00270321
0.00308086
0.00364267
0.00426222
0.00486669
0.00541468
0.00584557
0.00619145
0.00647136
0.00669308
0.00680451
0.00668201
0.00622049
0.00555555
0.00489714
0.00154001
0.00215051
0.0033548
0.00355291
0.00347694
0.00333182
0.00317798
0.0030361
0.00290886
0.00278291
0.00264549
0.00250578
0.00236933
0.0022394
0.00211802
0.00200669
0.00190679
0.00181942
0.00174527
0.0016849
0.00163974
0.00161375
0.0016169
0.00167342
0.00183804
0.00219574
0.00277005
0.00342075
0.00400874
0.00450862
0.00494152
0.00532716
0.00567295
0.0059465
0.0060528
0.00587107
0.00524971
0.00447093
0.00145976
0.00191905
0.00200572
0.0020845
0.00222322
0.00209819
0.00192968
0.00180063
0.00168781
0.00158703
0.00149527
0.00141237
0.00133788
0.00126834
0.0012017
0.00113678
0.00107301
0.00101027
0.000948861
0.000889365
0.000832533
0.000779109
0.000729696
0.000684723
0.000644546
0.000609733
0.00058175
0.000564316
0.000564559
0.000593504
0.000658558
0.000758176
0.000883601
0.00102419
0.00116918
0.0013043
0.00140196
0.00141706
0.00136238
0.0013107
0.00118502
)
;

boundaryField
{
    floor
    {
        type            nutkWallFunction;
        Cmu             0.09;
        kappa           0.41;
        E               9.8;
        value           nonuniform List<scalar> 
36
(
0.000108348
4.95251e-05
6.07707e-05
6.04929e-05
4.79838e-05
3.53833e-05
2.14389e-05
1.91765e-05
2.01323e-05
2.17136e-05
2.06614e-05
1.82407e-05
1.61495e-05
1.80738e-05
2.19366e-05
2.80969e-05
4.08119e-05
4.82878e-05
4.28473e-05
4.28473e-05
6.50338e-05
7.54283e-05
0.000113935
0.000137653
0.000131194
0.000120005
0.000108348
0.000115845
0.000111225
8.23836e-05
4.9525e-05
8.23836e-05
7.00305e-05
0.000119358
0.000103997
0.000126244
)
;
    }
    ceiling
    {
        type            nutkWallFunction;
        Cmu             0.09;
        kappa           0.41;
        E               9.8;
        value           nonuniform List<scalar> 
43
(
0.000224565
0.000234024
0.000242587
0.000257613
0.000244113
0.000225767
0.000211598
0.000199122
0.000187899
0.000177613
0.000168259
0.000159803
0.000151861
0.000144205
0.000136701
0.000129281
0.000121933
0.00011469
0.00010762
0.000100816
9.43699e-05
8.83612e-05
8.28502e-05
7.78903e-05
7.35623e-05
7.00616e-05
6.78702e-05
6.79e-05
7.1531e-05
7.96188e-05
9.18254e-05
0.00010693
0.000123566
0.000140449
0.000155967
0.000167071
0.000168779
0.000162581
0.000156698
0.000142277
0.000349461
0.000417085
0.000249707
)
;
    }
    sWall
    {
        type            nutkWallFunction;
        Cmu             0.09;
        kappa           0.41;
        E               9.8;
        value           uniform 0.000224623;
    }
    nWall
    {
        type            nutkWallFunction;
        Cmu             0.09;
        kappa           0.41;
        E               9.8;
        value           nonuniform List<scalar> 6(0.000120009 0.000144044 0.00015989 0.00018265 0.000173622 0.000142287);
    }
    sideWalls
    {
        type            empty;
    }
    glass1
    {
        type            nutkWallFunction;
        Cmu             0.09;
        kappa           0.41;
        E               9.8;
        value           nonuniform List<scalar> 9(8.52885e-05 0.000141584 0.00018852 0.00023236 0.000273032 0.000311082 0.000347554 0.000357609 0.00034989);
    }
    glass2
    {
        type            nutkWallFunction;
        Cmu             0.09;
        kappa           0.41;
        E               9.8;
        value           nonuniform List<scalar> 2(0.00016125 0.00017496);
    }
    sun
    {
        type            nutkWallFunction;
        Cmu             0.09;
        kappa           0.41;
        E               9.8;
        value           nonuniform List<scalar> 
14
(
8.53237e-05
8.7818e-05
8.24549e-05
8.56704e-05
8.88403e-05
9.17092e-05
9.43174e-05
9.67481e-05
9.91035e-05
0.00010152
0.000103677
0.000105381
0.000106644
0.000107638
)
;
    }
    Table_master
    {
        type            nutkWallFunction;
        Cmu             0.09;
        kappa           0.41;
        E               9.8;
        value           nonuniform List<scalar> 9(6.01851e-05 4.78244e-05 4.11493e-05 3.63999e-05 3.24441e-05 2.86501e-05 2.48481e-05 2.68014e-05 5.90654e-05);
    }
    Table_slave
    {
        type            nutkWallFunction;
        Cmu             0.09;
        kappa           0.41;
        E               9.8;
        value           nonuniform List<scalar> 9(9.29124e-05 9.38234e-05 9.61898e-05 9.96091e-05 0.000103962 0.000109904 0.000115176 0.000118556 0.000119607);
    }
    inlet
    {
        type            calculated;
        value           uniform 0.000100623;
    }
    outlet
    {
        type            calculated;
        value           nonuniform List<scalar> 2(0.00191905 0.00200572);
    }
}


// ************************************************************************* //
