/*--------------------------------*- C++ -*----------------------------------*\
  =========                 |
  \\      /  F ield         | OpenFOAM: The Open Source CFD Toolbox
   \\    /   O peration     | Website:  https://openfoam.org
    \\  /    A nd           | Version:  6
     \\/     M anipulation  |
\*---------------------------------------------------------------------------*/
FoamFile
{
    version     2.0;
    format      ascii;
    class       volScalarField;
    location    "2900";
    object      nut;
}
// * * * * * * * * * * * * * * * * * * * * * * * * * * * * * * * * * * * * * //

dimensions      [0 2 -1 0 0 0 0];

internalField   nonuniform List<scalar> 
458
(
0.00107849
0.00118212
0.00120542
0.00126492
0.00132007
0.00137152
0.00142164
0.0014715
0.00150752
0.00152529
0.00152094
0.00149241
0.00144014
0.00136886
0.0012877
0.000464326
0.000579903
0.000654636
0.000649046
0.000624422
0.000582918
0.000540037
0.000501592
0.000468038
0.000438743
0.000413039
0.000390491
0.000370412
0.00035201
0.000334332
0.000315959
0.000299759
0.00026945
0.00147037
0.0037028
0.00360321
0.00422042
0.00482563
0.00542517
0.00595392
0.00634291
0.0066835
0.00695361
0.00711858
0.00713755
0.00693939
0.00633498
0.00467789
0.00137096
0.00102518
0.000710134
0.000507302
0.00112807
0.00156308
0.00185057
0.00191863
0.00149196
0.00127691
0.00112543
0.00101077
0.000921029
0.000848848
0.00078572
0.00072648
0.000668395
0.000617091
0.000574594
0.000652947
0.000339018
0.00179636
0.00508275
0.00454702
0.00576699
0.00642195
0.00691386
0.00729031
0.00756657
0.00784192
0.00811336
0.00835092
0.00851695
0.00856504
0.0084338
0.00796604
0.00677687
0.00535839
0.00116959
0.0010223
0.00153204
0.00200321
0.0023749
0.00241791
0.000834943
0.000728271
0.000642316
0.000573585
0.000518364
0.000473617
0.000437116
0.000407362
0.000383617
0.000412124
0.00047131
0.000727864
0.000385236
0.00210937
0.00648677
0.0046281
0.00618465
0.00683482
0.00710879
0.00727163
0.00740863
0.00761989
0.00789259
0.00818962
0.00847168
0.00869095
0.00880725
0.00875462
0.00842892
0.0076225
0.00526614
0.00145652
0.00186796
0.00247825
0.00303581
0.00340608
0.00328797
0.000934228
0.000840558
0.000773855
0.000723366
0.000681604
0.000644454
0.000609979
0.000574962
0.000535546
0.000499185
0.000495483
0.000799834
0.00042671
0.00242954
0.00827347
0.00517678
0.00600592
0.00682114
0.00700466
0.00698324
0.00705015
0.00723468
0.00751626
0.00785517
0.00820558
0.00850083
0.00867826
0.00870789
0.00856196
0.00817946
0.00739512
0.00606718
0.00562812
0.0054551
0.00533675
0.00518727
0.00489893
0.00407253
0.00364731
0.00340266
0.00322875
0.0030625
0.002837
0.00252983
0.00214953
0.00171823
0.00127992
0.000942161
0.000878978
0.000666961
0.000555576
0.000634218
0.00069715
0.00276862
0.0102194
0.00715184
0.00616862
0.00667076
0.00695757
0.00687433
0.00693418
0.00707169
0.00731983
0.00767722
0.00807744
0.00842047
0.008614
0.00861394
0.00843448
0.00813751
0.00779319
0.00741578
0.00713383
0.00685478
0.00653332
0.00617778
0.00579281
0.00535057
0.00499815
0.00471878
0.00446921
0.00422081
0.0039503
0.00360631
0.00317835
0.00266482
0.00209221
0.00157419
0.00118281
0.00090679
0.00074485
0.000971774
0.000715502
0.00306678
0.0115413
0.00984113
0.00803063
0.00767975
0.00745921
0.00719031
0.00704464
0.00708969
0.00734296
0.0077571
0.00822127
0.00859748
0.00877435
0.00871107
0.00845613
0.00814104
0.00790914
0.00776949
0.00760514
0.00730782
0.00688567
0.00640365
0.00591849
0.00546867
0.00509591
0.00478242
0.00449763
0.00422772
0.00397471
0.00374084
0.00345332
0.00306155
0.00257826
0.00209558
0.00166491
0.00134647
0.00117999
0.00111092
0.00082173
0.00311623
0.0100447
0.00918615
0.00851053
0.00794767
0.00737974
0.00699649
0.0069054
0.00712212
0.00758781
0.00817802
0.00872847
0.00908282
0.00915291
0.00894735
0.00857294
0.00821256
0.00799691
0.00784615
0.0075683
0.00708345
0.00647666
0.00585166
0.00528934
0.00483209
0.00447415
0.00417597
0.0039103
0.00367628
0.00348872
0.00336451
0.00329549
0.00312621
0.00282122
0.00253385
0.00234391
0.00231387
0.00237187
0.00282121
0.00129739
0.00302621
0.00355547
0.00388713
0.00402273
0.00429974
0.00481012
0.00555566
0.00649878
0.00753691
0.00852173
0.00930047
0.00974936
0.00980435
0.00951251
0.00901226
0.00850086
0.00813346
0.00776716
0.00731982
0.00673928
0.00605473
0.0053656
0.00476549
0.00429634
0.00393952
0.00364851
0.00338278
0.00312621
0.00288373
0.00266658
0.00247882
0.00231554
0.0021871
0.00208355
0.00201786
0.00198917
0.00195728
0.00188532
0.00178168
0.00125908
0.00130977
0.00451467
0.00738298
0.0091631
0.010356
0.0110928
0.0114121
0.011386
0.0110996
0.0106141
0.00997861
0.00919185
0.00840081
0.00770844
0.00707547
0.00641067
0.00573591
0.0051095
0.0045719
0.0041346
0.00379087
0.0035182
0.00328052
0.00305204
0.00282174
0.00259215
0.00237675
0.00219584
0.00206755
0.00199461
0.00195759
0.00194591
0.00194902
0.00194614
0.00190324
0.00180174
0.00165832
0.00111131
0.00192787
0.00743073
0.00954579
0.0102859
0.0106349
0.0106526
0.0103704
0.00987115
0.00923797
0.00853991
0.00783008
0.00711845
0.00642706
0.00576696
0.00516584
0.00467397
0.00431339
0.00406701
0.00390157
0.00378152
0.00367364
0.00355257
0.00340373
0.00322301
0.00301617
0.00279708
0.00258383
0.00239333
0.00223927
0.00213101
0.0020698
0.00205041
0.00205624
0.00206003
0.00203262
0.00203958
0.00223724
0.00114883
0.00173282
0.0018799
0.00198487
0.00220088
0.00220267
0.00220252
0.00217647
0.00210521
0.00199403
0.00185241
0.00169175
0.00152575
0.00136862
0.00123481
0.00113121
0.0010565
0.00100512
0.000970527
0.000946809
0.000929404
0.000915006
0.00090131
0.000886742
0.000870457
0.000852964
0.000835831
0.000821427
0.000812317
0.000810522
0.000817162
0.000832213
0.000855153
0.000885904
0.000924336
0.000969605
0.00102029
0.00105026
0.00102998
0.000976298
0.000930282
)
;

boundaryField
{
    floor
    {
        type            nutkWallFunction;
        Cmu             0.09;
        kappa           0.41;
        E               9.8;
        value           nonuniform List<scalar> 
36
(
0.000154089
5.51184e-05
6.98213e-05
7.91315e-05
7.84381e-05
7.53812e-05
7.01966e-05
6.47925e-05
5.99026e-05
5.55965e-05
5.18055e-05
4.84529e-05
4.549e-05
4.28331e-05
4.0382e-05
3.80115e-05
3.55305e-05
3.33273e-05
2.91618e-05
2.91617e-05
3.86418e-05
4.47973e-05
5.02404e-05
6.67593e-05
7.66022e-05
8.43724e-05
0.000154089
0.000163575
0.000123684
8.59509e-05
5.51183e-05
8.59509e-05
6.0635e-05
0.00014052
0.000123358
0.000173263
)
;
    }
    ceiling
    {
        type            nutkWallFunction;
        Cmu             0.09;
        kappa           0.41;
        E               9.8;
        value           nonuniform List<scalar> 
43
(
0.000203992
0.000220176
0.000231645
0.000255153
0.000255382
0.000255384
0.000252586
0.000244887
0.00023281
0.000217317
0.000199581
0.000181059
0.000163319
0.000148031
0.000136067
0.000127361
0.000121333
0.000117255
0.00011445
0.000112386
0.000110676
0.000109046
0.000107309
0.000105363
0.000103269
0.000101212
9.94794e-05
9.83817e-05
9.81653e-05
9.89658e-05
0.000100777
0.000103531
0.000107209
0.000111785
0.000117147
0.000123116
0.00012663
0.000124254
0.000117937
0.000112491
0.000342904
0.000397688
0.000225229
)
;
    }
    sWall
    {
        type            nutkWallFunction;
        Cmu             0.09;
        kappa           0.41;
        E               9.8;
        value           uniform 0.000204048;
    }
    nWall
    {
        type            nutkWallFunction;
        Cmu             0.09;
        kappa           0.41;
        E               9.8;
        value           nonuniform List<scalar> 6(8.43704e-05 8.66207e-05 9.95167e-05 0.000133761 0.000138117 0.000112496);
    }
    sideWalls
    {
        type            empty;
    }
    glass1
    {
        type            nutkWallFunction;
        Cmu             0.09;
        kappa           0.41;
        E               9.8;
        value           nonuniform List<scalar> 9(0.000130022 0.00017503 0.000211433 0.000245711 0.000280212 0.00031623 0.000347522 0.000352689 0.000343309);
    }
    glass2
    {
        type            nutkWallFunction;
        Cmu             0.09;
        kappa           0.41;
        E               9.8;
        value           nonuniform List<scalar> 2(0.000155246 0.000150858);
    }
    sun
    {
        type            nutkWallFunction;
        Cmu             0.09;
        kappa           0.41;
        E               9.8;
        value           nonuniform List<scalar> 
14
(
0.000129926
0.00014195
0.000144637
0.000151473
0.000157778
0.000163632
0.000169312
0.000174941
0.000178995
0.000180992
0.000180504
0.000177299
0.000171408
0.000163335
)
;
    }
    Table_master
    {
        type            nutkWallFunction;
        Cmu             0.09;
        kappa           0.41;
        E               9.8;
        value           nonuniform List<scalar> 9(0.0001011 8.81805e-05 7.76064e-05 6.90286e-05 6.20459e-05 5.63203e-05 5.15999e-05 4.77152e-05 4.45894e-05);
    }
    Table_slave
    {
        type            nutkWallFunction;
        Cmu             0.09;
        kappa           0.41;
        E               9.8;
        value           nonuniform List<scalar> 9(0.000112952 0.000101775 9.37268e-05 8.75811e-05 8.2459e-05 7.7871e-05 7.35848e-05 6.9201e-05 6.42271e-05);
    }
    inlet
    {
        type            calculated;
        value           uniform 0.000100623;
    }
    outlet
    {
        type            calculated;
        value           nonuniform List<scalar> 2(0.00173282 0.0018799);
    }
}


// ************************************************************************* //
