// -*- C++ -*-
// File generated by PyFoam - sorry for the ugliness

FoamFile
{
 version 2.0;
 format ascii;
 class volVectorField;
 location "1200";
 object U;
}

dimensions [ 0 1 -1 0 0 0 0 ];

internalField nonuniform List<vector> 458
(
  (0.0845479 0.0698434 0)
  (-0.139372 0.00683748 0)
  (-0.133069 0.00955686 0)
  (-0.153396 0.00886853 0)
  (-0.171998 0.00681682 0)
  (-0.188117 0.00419172 0)
  (-0.200952 0.00109825 0)
  (-0.209784 -0.00252697 0)
  (-0.213823 -0.00680987 0)
  (-0.211992 -0.0119385 0)
  (-0.20249 -0.0184337 0)
  (-0.182358 -0.0268668 0)
  (-0.150039 -0.0389771 0)
  (-0.115833 -0.0584117 0)
  (-0.115624 -0.0858377 0)
  (0.0185059 0.00583668 0)
  (-0.0229018 -0.0115635 0)
  (0.00250886 -0.0206277 0)
  (0.0284663 -0.0256271 0)
  (0.0527793 -0.0230575 0)
  (0.0740342 -0.0127734 0)
  (0.0830126 -0.00703979 0)
  (0.08339 -0.00433753 0)
  (0.0807643 -0.00272338 0)
  (0.0778173 -0.00162182 0)
  (0.0748921 -0.000894231 0)
  (0.0719009 -0.000374863 0)
  (0.0687171 0.00016566 0)
  (0.0648914 0.00107252 0)
  (0.0594809 0.00265991 0)
  (0.0515297 0.00455363 0)
  (0.0439588 0.00663979 0)
  (-0.00686138 0.0217541 0)
  (0.282015 0.151314 0)
  (-0.158547 0.0290941 0)
  (-0.119205 0.0323477 0)
  (-0.144913 0.0309221 0)
  (-0.164766 0.0278697 0)
  (-0.181838 0.0238884 0)
  (-0.195717 0.0189503 0)
  (-0.205898 0.0128473 0)
  (-0.211692 0.00531788 0)
  (-0.212133 -0.00391878 0)
  (-0.206412 -0.0147343 0)
  (-0.193718 -0.0270812 0)
  (-0.17523 -0.0421379 0)
  (-0.157592 -0.0617946 0)
  (-0.145456 -0.0784816 0)
  (-0.113046 -0.0611253 0)
  (-0.0604698 -0.0652354 0)
  (-0.0226138 0.0739266 0)
  (0.0866898 0.0249188 0)
  (-0.0193788 -0.00731316 0)
  (0.001842 -0.0255959 0)
  (0.0182205 -0.039424 0)
  (0.0323014 -0.0420029 0)
  (0.0552189 -0.016104 0)
  (0.0589956 -0.00286038 0)
  (0.0562863 0.00229784 0)
  (0.0536599 0.00473792 0)
  (0.0521305 0.00583475 0)
  (0.0511845 0.0060744 0)
  (0.0505749 0.00601068 0)
  (0.0502102 0.00618882 0)
  (0.0495185 0.00732657 0)
  (0.0468393 0.0107676 0)
  (0.0400233 0.0142622 0)
  (0.0402565 0.0176272 0)
  (-0.0533291 0.04425 0)
  (0.452307 0.231396 0)
  (-0.202043 0.0590812 0)
  (-0.0957468 0.0568551 0)
  (-0.127058 0.050418 0)
  (-0.14539 0.0440692 0)
  (-0.161496 0.0366768 0)
  (-0.174949 0.027787 0)
  (-0.185344 0.0170977 0)
  (-0.192021 0.00444396 0)
  (-0.194004 -0.0100661 0)
  (-0.190504 -0.0262655 0)
  (-0.182052 -0.0437484 0)
  (-0.170513 -0.0620874 0)
  (-0.159447 -0.0800054 0)
  (-0.148086 -0.0912645 0)
  (-0.1295 -0.0894394 0)
  (-0.114846 -0.0973672 0)
  (-0.133797 -0.0982497 0)
  (0.100288 0.0342889 0)
  (-0.0274519 -0.00336255 0)
  (-0.0118126 -0.0299436 0)
  (-0.00254754 -0.0535149 0)
  (-0.000442575 -0.0703453 0)
  (0.0394399 -0.037326 0)
  (0.0221183 -0.0105708 0)
  (0.010403 -0.00214055 0)
  (0.013549 0.00011706 0)
  (0.0184937 0.000566241 0)
  (0.0225044 0.000220204 0)
  (0.0260358 -0.000242225 0)
  (0.0295828 -0.000231437 0)
  (0.0337236 0.00279973 0)
  (0.0375346 0.0167021 0)
  (0.0320538 0.0246787 0)
  (0.0457697 0.0309318 0)
  (-0.0971942 0.067222 0)
  (0.593873 0.298328 0)
  (-0.251264 0.0925193 0)
  (-0.0655752 0.0795156 0)
  (-0.103311 0.0685039 0)
  (-0.117951 0.0602938 0)
  (-0.131379 0.05116 0)
  (-0.143147 0.0401615 0)
  (-0.15283 0.0267532 0)
  (-0.159718 0.0105585 0)
  (-0.162655 -0.00839544 0)
  (-0.160436 -0.0293319 0)
  (-0.15463 -0.0507732 0)
  (-0.147139 -0.0709246 0)
  (-0.140252 -0.0874034 0)
  (-0.133752 -0.096658 0)
  (-0.126959 -0.0980871 0)
  (-0.126774 -0.0946921 0)
  (-0.137926 -0.0692938 0)
  (-0.124572 -0.0021816 0)
  (-0.0641926 0.00688679 0)
  (-0.0574419 -0.0119115 0)
  (-0.0350611 -0.0382589 0)
  (-0.0314014 -0.0598821 0)
  (-0.0386209 -0.0671383 0)
  (-0.0345356 -0.0405158 0)
  (0.00686126 -0.0275113 0)
  (0.03232 -0.0221356 0)
  (0.053631 -0.0190117 0)
  (0.0730153 -0.0165482 0)
  (0.0900048 -0.0138682 0)
  (0.103119 -0.010188 0)
  (0.109999 -0.00488628 0)
  (0.107845 0.00246694 0)
  (0.0928795 0.0184544 0)
  (0.0729226 0.0350096 0)
  (0.0739879 0.051277 0)
  (-0.0851798 0.0931807 0)
  (0.706924 0.353296 0)
  (-0.295873 0.125975 0)
  (-0.033292 0.0947413 0)
  (-0.0751852 0.0815821 0)
  (-0.0852789 0.0724079 0)
  (-0.0945935 0.0622029 0)
  (-0.103138 0.0497445 0)
  (-0.11055 0.0342626 0)
  (-0.116249 0.0151559 0)
  (-0.118772 -0.00758239 0)
  (-0.116337 -0.0323985 0)
  (-0.11159 -0.0564338 0)
  (-0.106361 -0.0770217 0)
  (-0.10229 -0.0921577 0)
  (-0.0996104 -0.100557 0)
  (-0.0986092 -0.103127 0)
  (-0.100912 -0.100585 0)
  (-0.103386 -0.0865466 0)
  (-0.0963209 -0.0546815 0)
  (-0.0763288 -0.0324745 0)
  (-0.0534176 -0.0320171 0)
  (-0.0377238 -0.0474308 0)
  (-0.0325608 -0.0621715 0)
  (-0.0297738 -0.0657016 0)
  (-0.0203657 -0.0508508 0)
  (-0.000932035 -0.0408212 0)
  (0.0195615 -0.0339174 0)
  (0.0372362 -0.03013 0)
  (0.0540024 -0.0269033 0)
  (0.0695114 -0.022518 0)
  (0.082946 -0.0151538 0)
  (0.0930808 -0.00298591 0)
  (0.0980139 0.0133984 0)
  (0.0959099 0.0328429 0)
  (0.087388 0.0517654 0)
  (0.099851 0.0712101 0)
  (0.0467877 0.0962959 0)
  (0.101836 0.114878 0)
  (0.122663 0.129265 0)
  (-0.17327 0.164257 0)
  (0.77981 0.401943 0)
  (-0.331027 0.154312 0)
  (-0.00929761 0.0954628 0)
  (-0.041367 0.0895427 0)
  (-0.0477237 0.0808091 0)
  (-0.0530833 0.0693145 0)
  (-0.0574946 0.0557882 0)
  (-0.0610738 0.0392349 0)
  (-0.063809 0.0184568 0)
  (-0.0634153 -0.00725847 0)
  (-0.0590382 -0.0355468 0)
  (-0.0547211 -0.0610339 0)
  (-0.0516732 -0.0808707 0)
  (-0.0506541 -0.0940544 0)
  (-0.0516138 -0.100539 0)
  (-0.0545002 -0.101069 0)
  (-0.0588645 -0.095529 0)
  (-0.0616665 -0.0820165 0)
  (-0.0582888 -0.0627672 0)
  (-0.048126 -0.0480147 0)
  (-0.0360822 -0.0458522 0)
  (-0.0287223 -0.0544219 0)
  (-0.0265751 -0.0655323 0)
  (-0.0245836 -0.0699218 0)
  (-0.0184697 -0.0632952 0)
  (-0.00842656 -0.0555173 0)
  (0.00439646 -0.0495668 0)
  (0.0169682 -0.0459845 0)
  (0.0296846 -0.0427775 0)
  (0.0424488 -0.0380128 0)
  (0.0550573 -0.0294537 0)
  (0.067243 -0.0144488 0)
  (0.0796129 0.00797108 0)
  (0.086057 0.0321901 0)
  (0.0879678 0.0541118 0)
  (0.100548 0.0736968 0)
  (0.0941089 0.0778358 0)
  (0.101212 0.0402861 0)
  (0.124752 0.00762036 0)
  (-0.197373 0.092536 0)
  (0.80087 0.445838 0)
  (-0.344348 0.149278 0)
  (0.00791208 0.0540189 0)
  (0.0116061 0.0878359 0)
  (0.00490784 0.0932945 0)
  (-0.00169985 0.0764514 0)
  (-0.00367728 0.0583636 0)
  (-0.0033405 0.0404016 0)
  (-0.0024684 0.0179017 0)
  (0.0049762 -0.0113811 0)
  (0.0117126 -0.0410883 0)
  (0.0143158 -0.06497 0)
  (0.0135997 -0.0820214 0)
  (0.010017 -0.0925114 0)
  (0.00418427 -0.0970712 0)
  (-0.00346976 -0.0963971 0)
  (-0.0114165 -0.0906563 0)
  (-0.0175997 -0.0796877 0)
  (-0.0195957 -0.0659178 0)
  (-0.0175314 -0.0545406 0)
  (-0.014682 -0.0504864 0)
  (-0.0149097 -0.0549676 0)
  (-0.0181074 -0.0647394 0)
  (-0.0207908 -0.0713396 0)
  (-0.0200837 -0.0685823 0)
  (-0.0170304 -0.0628788 0)
  (-0.0124408 -0.0586176 0)
  (-0.00677864 -0.0559179 0)
  (-0.000127293 -0.0535491 0)
  (0.00745918 -0.0497704 0)
  (0.0160869 -0.0425483 0)
  (0.0263941 -0.0289273 0)
  (0.0412957 -0.00545737 0)
  (0.0582507 0.0226703 0)
  (0.0686305 0.0455358 0)
  (0.0831415 0.0631432 0)
  (0.0935137 0.0662608 0)
  (0.102549 0.0494154 0)
  (0.152356 0.0568942 0)
  (-0.139615 0.153603 0)
  (0.897386 0.462651 0)
  (-0.123299 0.130875 0)
  (0.0829822 -0.0259434 0)
  (0.132731 0.0239209 0)
  (0.111217 0.0616171 0)
  (0.0896252 0.057727 0)
  (0.0821647 0.0410289 0)
  (0.0816664 0.0227326 0)
  (0.083678 -4.02284e-05 0)
  (0.0924472 -0.0246479 0)
  (0.0960961 -0.0466704 0)
  (0.0931821 -0.0644048 0)
  (0.085645 -0.0770242 0)
  (0.075019 -0.0845156 0)
  (0.062518 -0.0872739 0)
  (0.0492054 -0.0859208 0)
  (0.0361783 -0.080908 0)
  (0.0247817 -0.0726087 0)
  (0.0163548 -0.0624238 0)
  (0.0108934 -0.0531478 0)
  (0.00642972 -0.0477594 0)
  (9.39015e-05 -0.0489448 0)
  (-0.0088683 -0.0579478 0)
  (-0.0178431 -0.0670776 0)
  (-0.0233589 -0.0667348 0)
  (-0.0272095 -0.0624896 0)
  (-0.0300892 -0.0594707 0)
  (-0.032171 -0.057811 0)
  (-0.0336274 -0.0564382 0)
  (-0.0343744 -0.0540857 0)
  (-0.0339865 -0.0494425 0)
  (-0.03169 -0.0411377 0)
  (-0.0253249 -0.0278194 0)
  (0.000859879 -0.00654417 0)
  (0.020047 0.0154969 0)
  (0.0370633 0.0266183 0)
  (0.0526387 0.0220914 0)
  (0.0657861 0.00366737 0)
  (0.150145 0.0613732 0)
  (-0.4339 0.243672 0)
  (1.02829 0.43033 0)
  (0.486952 0.283499 0)
  (0.497782 0.19699 0)
  (0.487907 0.177442 0)
  (0.402691 0.160655 0)
  (0.325163 0.128943 0)
  (0.279127 0.0926543 0)
  (0.252223 0.0582958 0)
  (0.23559 0.026678 0)
  (0.218378 -0.00286989 0)
  (0.198576 -0.0280024 0)
  (0.177926 -0.0470334 0)
  (0.156901 -0.0598669 0)
  (0.135785 -0.067269 0)
  (0.115004 -0.0701686 0)
  (0.0950857 -0.0694117 0)
  (0.0765967 -0.0656935 0)
  (0.0601537 -0.0596764 0)
  (0.0462639 -0.0523288 0)
  (0.0347894 -0.0450892 0)
  (0.0245771 -0.0396777 0)
  (0.0138622 -0.0384331 0)
  (0.000579193 -0.0452778 0)
  (-0.015163 -0.0568324 0)
  (-0.0266927 -0.0585381 0)
  (-0.0369912 -0.055054 0)
  (-0.0471117 -0.0525407 0)
  (-0.057257 -0.0510857 0)
  (-0.0677194 -0.0495836 0)
  (-0.0788263 -0.0467363 0)
  (-0.0909592 -0.0410554 0)
  (-0.104774 -0.0307984 0)
  (-0.120846 -0.0142438 0)
  (-0.137973 0.00918911 0)
  (-0.152196 0.0359913 0)
  (-0.178538 0.0646542 0)
  (-0.221069 0.094863 0)
  (-0.272651 0.125997 0)
  (-0.345094 0.154859 0)
  (-0.650262 0.17965 0)
  (-0.541196 0.000891451 0)
  (0.184159 0.139599 0)
  (0.250473 0.15402 0)
  (0.242539 0.135886 0)
  (0.243713 0.104567 0)
  (0.24591 0.0694082 0)
  (0.244091 0.0370748 0)
  (0.237656 0.0105981 0)
  (0.22548 -0.0103429 0)
  (0.208466 -0.0260431 0)
  (0.188235 -0.037094 0)
  (0.166159 -0.0440913 0)
  (0.143495 -0.0476176 0)
  (0.121289 -0.048247 0)
  (0.100361 -0.0465241 0)
  (0.0813211 -0.0429832 0)
  (0.0645165 -0.0382421 0)
  (0.0498314 -0.0330775 0)
  (0.0365179 -0.0285041 0)
  (0.0232634 -0.0263039 0)
  (0.00892328 -0.0302467 0)
  (-0.0116136 -0.0425635 0)
  (-0.0276895 -0.0459153 0)
  (-0.04251 -0.042311 0)
  (-0.0578507 -0.0394473 0)
  (-0.073657 -0.0372908 0)
  (-0.0898479 -0.0347154 0)
  (-0.10636 -0.030604 0)
  (-0.122812 -0.0239065 0)
  (-0.138395 -0.0136195 0)
  (-0.151619 0.00128401 0)
  (-0.160038 0.0215118 0)
  (-0.165177 0.0470137 0)
  (-0.170018 0.0741378 0)
  (-0.173221 0.0934224 0)
  (-0.165689 0.0836548 0)
  (-0.156122 0.00246337 0)
  (-0.289086 -0.200503 0)
  (-0.243271 0.183133 0)
  (0.117274 0.123813 0)
  (0.089626 0.106978 0)
  (0.11634 0.105266 0)
  (0.151501 0.0853792 0)
  (0.179162 0.0567135 0)
  (0.196248 0.0308309 0)
  (0.202808 0.0109247 0)
  (0.200792 -0.00344444 0)
  (0.191663 -0.0136156 0)
  (0.177403 -0.0206724 0)
  (0.159783 -0.0252258 0)
  (0.140303 -0.027697 0)
  (0.120212 -0.0284509 0)
  (0.10054 -0.0278129 0)
  (0.0821096 -0.0260808 0)
  (0.0654927 -0.0235721 0)
  (0.0509018 -0.0207052 0)
  (0.0379936 -0.018132 0)
  (0.0256434 -0.016856 0)
  (0.0131912 -0.0182475 0)
  (-0.00432639 -0.0254678 0)
  (-0.0234083 -0.0303115 0)
  (-0.0397975 -0.0271155 0)
  (-0.0561847 -0.0252374 0)
  (-0.0723604 -0.0240987 0)
  (-0.0878143 -0.0227466 0)
  (-0.102189 -0.0204303 0)
  (-0.114725 -0.0164044 0)
  (-0.124041 -0.00971964 0)
  (-0.128103 0.00113116 0)
  (-0.125465 0.0177608 0)
  (-0.114288 0.0410043 0)
  (-0.095316 0.0689063 0)
  (-0.0708207 0.0926385 0)
  (-0.0471438 0.0975719 0)
  (0.127039 0.0155912 0)
  (-0.2253 -0.116377 0)
  (0.000362188 -0.282686 0)
  (-0.355623 -0.0926649 0)
  (-0.290559 0.0966075 0)
  (-0.141994 0.0341382 0)
  (-0.100327 0.0439087 0)
  (-0.0225794 0.0620149 0)
  (0.0561469 0.0511609 0)
  (0.104265 0.0340239 0)
  (0.138516 0.0203541 0)
  (0.156907 0.0109204 0)
  (0.161696 0.00477801 0)
  (0.15752 0.000738954 0)
  (0.14702 -0.00177329 0)
  (0.132451 -0.0029764 0)
  (0.115494 -0.00292803 0)
  (0.0974592 -0.00161363 0)
  (0.0794303 0.00105462 0)
  (0.0623236 0.00525866 0)
  (0.0469306 0.0112624 0)
  (0.0339805 0.0192636 0)
  (0.0241509 0.0288154 0)
  (0.017644 0.0375884 0)
  (0.0136922 0.0404362 0)
  (0.0129363 0.0290249 0)
  (-0.0151141 -0.000711822 0)
  (-0.0331803 0.00610349 0)
  (-0.0481758 0.00925896 0)
  (-0.0621041 0.0103222 0)
  (-0.07508 0.0109808 0)
  (-0.0868007 0.0118965 0)
  (-0.0963815 0.0133797 0)
  (-0.102011 0.0156784 0)
  (-0.100776 0.019235 0)
  (-0.0888594 0.0257788 0)
  (-0.0641505 0.0373933 0)
  (-0.0311338 0.0544857 0)
  (0.0323904 0.0756477 0)
  (0.0781929 0.0650073 0)
  (0.161175 0.0329129 0)
  (-0.202766 -0.035392 0)
)
;

boundaryField
{
  floor
  {
    type noSlip;
  }
  ceiling
  {
    type noSlip;
  }
  sWall
  {
    type noSlip;
  }
  nWall
  {
    type noSlip;
  }
  sideWalls
  {
    type empty;
  }
  glass1
  {
    type noSlip;
  }
  glass2
  {
    type noSlip;
  }
  sun
  {
    type noSlip;
  }
  Table_master
  {
    type noSlip;
  }
  Table_slave
  {
    type noSlip;
  }
  inlet
  {
    type fixedValue;
    value uniform (0.212132 -0.212132 0);
  }
  outlet
  {
    type zeroGradient;
  }
} 	// ************************************************************************* //

