/*--------------------------------*- C++ -*----------------------------------*\
  =========                 |
  \\      /  F ield         | OpenFOAM: The Open Source CFD Toolbox
   \\    /   O peration     | Website:  https://openfoam.org
    \\  /    A nd           | Version:  6
     \\/     M anipulation  |
\*---------------------------------------------------------------------------*/
FoamFile
{
    version     2.0;
    format      ascii;
    class       volScalarField;
    location    "300";
    object      k;
}
// * * * * * * * * * * * * * * * * * * * * * * * * * * * * * * * * * * * * * //

dimensions      [0 2 -2 0 0 0 0];

internalField   nonuniform List<scalar> 
458
(
0.000955688
0.00101854
0.000923709
0.000997149
0.00107033
0.0011384
0.0012019
0.00126248
0.00132246
0.00138527
0.00144339
0.00149091
0.0015275
0.00155773
0.001581
0.000282975
0.00040043
0.000409738
0.000275166
0.000170634
0.000121207
0.000107114
0.00010694
0.000105507
9.08283e-05
7.49567e-05
6.60517e-05
7.2511e-05
8.39869e-05
0.000125482
0.000253453
0.000309687
0.000243031
0.00257636
0.00497765
0.00142648
0.00139838
0.00146214
0.00154207
0.00162927
0.00172571
0.00183242
0.00194701
0.00206195
0.00215553
0.00219657
0.00213814
0.00195351
0.00180417
0.00166867
0.000868492
0.000479271
0.00101134
0.00093828
0.000896861
0.000686114
0.000473885
0.000344665
0.000288966
0.000244505
0.000187297
0.000126445
9.25483e-05
0.000107712
0.000161143
0.000465185
0.000911312
0.00114119
0.000478543
0.00465989
0.0112729
0.00210211
0.00175495
0.00178469
0.00186683
0.00196197
0.00207031
0.00219237
0.00232472
0.00245965
0.00257166
0.00263606
0.00263223
0.00255984
0.00244083
0.00221735
0.00192107
0.00135624
0.00205701
0.00164351
0.0014258
0.00127054
0.000517817
0.000348662
0.000270379
0.000219353
0.000179732
0.000145323
0.000116163
0.000164709
0.000468306
0.00135832
0.0016654
0.00167653
0.000604075
0.00728235
0.0206416
0.00321521
0.00204537
0.00202488
0.00212309
0.00223763
0.00236328
0.00250085
0.00265001
0.00280829
0.00294448
0.00304086
0.00308941
0.00307893
0.00298773
0.00278863
0.00245444
0.00209802
0.00202137
0.00173325
0.00146349
0.00131587
0.00122509
0.00119825
0.00124061
0.00132592
0.00144629
0.00160186
0.00182933
0.00200958
0.0021244
0.00213896
0.00208577
0.00212137
0.00247418
0.0017475
0.0103529
0.0324844
0.00531385
0.00230655
0.00217894
0.0023006
0.00245592
0.00262674
0.00281118
0.00300895
0.00321384
0.00338216
0.00350822
0.00360718
0.00368537
0.00373643
0.00374726
0.00365358
0.00327267
0.00256128
0.00205205
0.00180143
0.0017548
0.00182386
0.00193864
0.00208629
0.00230772
0.00260202
0.00296022
0.00337729
0.00377853
0.00403652
0.00411141
0.00394842
0.00348809
0.00312889
0.00268347
0.00238162
0.0021336
0.00175985
0.0138172
0.043903
0.0095294
0.00281973
0.0023465
0.00245798
0.00266198
0.0028973
0.00314951
0.00342029
0.0036711
0.00382528
0.00390725
0.0039644
0.00402474
0.00409025
0.00411751
0.00398149
0.00356498
0.00295508
0.00241561
0.00210186
0.00199857
0.00202493
0.00212654
0.002309
0.00259868
0.00299114
0.00346215
0.00397107
0.00445949
0.00486061
0.00512565
0.00525548
0.00528483
0.00487295
0.00448017
0.00424373
0.00433821
0.00255381
0.0177136
0.0509219
0.0183817
0.00551159
0.00321043
0.00296707
0.00315848
0.00345684
0.00377803
0.00412855
0.00431826
0.00434249
0.00428002
0.0042004
0.00414172
0.00411831
0.00409741
0.00396734
0.00362742
0.0031243
0.00263148
0.0022929
0.0021334
0.00211033
0.00219362
0.00240413
0.00276709
0.00326879
0.00386251
0.00447614
0.00503342
0.00548925
0.00585833
0.00622666
0.00674216
0.00744731
0.00747546
0.00648361
0.00617603
0.003312
0.0189156
0.0604788
0.0342362
0.0192297
0.0104845
0.00660436
0.00549488
0.00534716
0.00544274
0.00544745
0.00521037
0.00491062
0.00461901
0.00436006
0.00414199
0.00396842
0.00382856
0.00366711
0.00340679
0.00303971
0.00265312
0.00234461
0.00216428
0.00211846
0.00220258
0.00245335
0.00291201
0.00355342
0.00430217
0.00504542
0.00566841
0.00611727
0.00643109
0.00673223
0.00715326
0.00768498
0.00794194
0.00760429
0.00744108
0.00343475
0.0180962
0.026722
0.0243864
0.0205577
0.0161905
0.0123843
0.0096838
0.00796996
0.0069266
0.00617374
0.0055723
0.0050765
0.00465721
0.00429556
0.0039796
0.00370177
0.00345444
0.00322126
0.00297821
0.00271525
0.00245239
0.00222645
0.0020729
0.00201907
0.00209347
0.00234952
0.00288624
0.0036689
0.00462029
0.00559709
0.00638943
0.00683519
0.00687222
0.00654993
0.00602661
0.00548646
0.0050691
0.00490714
0.00491353
0.00400402
0.0103625
0.0136587
0.0132411
0.0114424
0.00960764
0.00811794
0.00698009
0.00609895
0.00540338
0.00484057
0.00437376
0.00397646
0.00362939
0.00331902
0.00303675
0.00277749
0.00253882
0.0023221
0.00213391
0.001985
0.00188862
0.00186155
0.00192923
0.00213198
0.00252512
0.00314402
0.00400629
0.00513469
0.00642996
0.00788516
0.00954025
0.0112747
0.0126415
0.0130147
0.0122165
0.0110271
0.00937117
0.004498
0.00869684
0.0134984
0.0127281
0.0110052
0.0093634
0.00798166
0.00687168
0.0059893
0.00527372
0.00468056
0.00418777
0.00377347
0.0034189
0.00310994
0.00283796
0.0026
0.00239857
0.00224068
0.00213587
0.00209368
0.00212183
0.00222556
0.0024078
0.00266262
0.00296498
0.00331714
0.00374144
0.00427866
0.00494807
0.00577743
0.00680774
0.00802423
0.00923197
0.00994912
0.00964447
0.00833987
0.00859006
0.00409056
0.00687761
0.00753898
0.0081573
0.00929055
0.00833708
0.00709423
0.00619754
0.00545531
0.00482676
0.00428324
0.00381975
0.00342554
0.00307613
0.00275806
0.0024641
0.002191
0.00193836
0.00170787
0.00150261
0.00132609
0.00118135
0.00107021
0.000993271
0.000950423
0.000941799
0.000970743
0.001047
0.00116638
0.00132711
0.00152895
0.00176839
0.00205187
0.00240351
0.00285401
0.00338166
0.00380957
0.0038211
0.0034833
0.00323334
0.00262665
)
;

boundaryField
{
    floor
    {
        type            kqRWallFunction;
        value           nonuniform List<scalar> 
36
(
0.001581
0.000282975
0.00040043
0.000409738
0.000275166
0.000170634
0.000121207
0.000107114
0.00010694
0.000105507
9.08283e-05
7.49567e-05
6.60517e-05
7.2511e-05
8.39869e-05
0.000125482
0.000253453
0.000309687
0.000243031
0.000243031
0.000478543
0.000604075
0.0017475
0.00238162
0.0021336
0.00175985
0.001581
0.00180417
0.00166867
0.000868492
0.000282975
0.000868492
0.000479271
0.00192107
0.00135624
0.00209802
)
;
    }
    ceiling
    {
        type            kqRWallFunction;
        value           nonuniform List<scalar> 
43
(
0.00687761
0.00753898
0.0081573
0.00929055
0.00833708
0.00709423
0.00619754
0.00545531
0.00482676
0.00428324
0.00381975
0.00342554
0.00307613
0.00275806
0.0024641
0.002191
0.00193836
0.00170787
0.00150261
0.00132609
0.00118135
0.00107021
0.000993271
0.000950423
0.000941799
0.000970743
0.001047
0.00116638
0.00132711
0.00152895
0.00176839
0.00205187
0.00240351
0.00285401
0.00338166
0.00380957
0.0038211
0.0034833
0.00323334
0.00262665
0.0180962
0.026722
0.00869684
)
;
    }
    sWall
    {
        type            kqRWallFunction;
        value           uniform 0.00687761;
    }
    nWall
    {
        type            kqRWallFunction;
        value           nonuniform List<scalar> 6(0.00175985 0.00255381 0.003312 0.004498 0.00409056 0.00262665);
    }
    sideWalls
    {
        type            empty;
    }
    glass1
    {
        type            kqRWallFunction;
        value           nonuniform List<scalar> 9(0.000955688 0.00257636 0.00465989 0.00728235 0.0103529 0.0138172 0.0177136 0.0189156 0.0180962);
    }
    glass2
    {
        type            kqRWallFunction;
        value           nonuniform List<scalar> 2(0.00343475 0.00400402);
    }
    sun
    {
        type            kqRWallFunction;
        value           nonuniform List<scalar> 
14
(
0.000955688
0.00101854
0.000923709
0.000997149
0.00107033
0.0011384
0.0012019
0.00126248
0.00132246
0.00138527
0.00144339
0.00149091
0.0015275
0.00155773
)
;
    }
    Table_master
    {
        type            kqRWallFunction;
        value           nonuniform List<scalar> 9(0.000517817 0.000348662 0.000270379 0.000219353 0.000179732 0.000145323 0.000116163 0.000164709 0.000468306);
    }
    Table_slave
    {
        type            kqRWallFunction;
        value           nonuniform List<scalar> 9(0.00119825 0.00124061 0.00132592 0.00144629 0.00160186 0.00182933 0.00200958 0.0021244 0.00213896);
    }
    inlet
    {
        type            turbulentIntensityKineticEnergyInlet;
        intensity       0.05;
        value           uniform 0.000337501;
    }
    outlet
    {
        type            zeroGradient;
    }
}


// ************************************************************************* //
