/*--------------------------------*- C++ -*----------------------------------*\
  =========                 |
  \\      /  F ield         | OpenFOAM: The Open Source CFD Toolbox
   \\    /   O peration     | Website:  https://openfoam.org
    \\  /    A nd           | Version:  6
     \\/     M anipulation  |
\*---------------------------------------------------------------------------*/
FoamFile
{
    version     2.0;
    format      ascii;
    class       volScalarField;
    location    "2200";
    object      epsilon;
}
// * * * * * * * * * * * * * * * * * * * * * * * * * * * * * * * * * * * * * //

dimensions      [0 2 -3 0 0 0 0];

internalField   nonuniform List<scalar> 
458
(
8.5601e-05
0.000107238
0.000114246
7.85179e-05
5.96161e-05
5.47046e-05
5.16197e-05
4.79949e-05
4.39771e-05
4.00681e-05
3.68662e-05
3.54401e-05
3.78871e-05
4.82236e-05
7.9288e-05
4.63383e-05
5.09525e-05
1.57567e-05
6.50552e-06
3.31216e-06
2.69209e-06
3.1091e-06
3.24175e-06
3.66216e-06
4.37889e-06
5.4871e-06
7.13887e-06
9.25518e-06
1.01039e-05
1.21081e-05
1.79657e-05
4.059e-05
3.77079e-05
0.000155572
0.000396128
0.000390297
9.08785e-05
4.51327e-05
3.85649e-05
3.60613e-05
3.42512e-05
3.35329e-05
3.45326e-05
3.83589e-05
4.7838e-05
6.96208e-05
0.000118832
0.00022974
0.000220072
0.000259907
0.000173484
0.000143852
0.000235564
7.21814e-05
2.32347e-05
8.02373e-06
6.74937e-06
6.42828e-06
7.50152e-06
9.59409e-06
1.29886e-05
1.76732e-05
2.34775e-05
2.93446e-05
3.67526e-05
5.01167e-05
9.06509e-05
0.000261663
0.000147434
0.000840129
0.000403819
0.000343175
0.000132213
6.92633e-05
5.41271e-05
4.74285e-05
4.38771e-05
4.36903e-05
4.67402e-05
5.31978e-05
6.41412e-05
8.22502e-05
0.000112986
0.000165875
0.000249791
0.000365579
0.000323899
0.000309963
0.000322735
0.000102904
5.853e-05
4.46027e-05
2.05348e-05
1.00797e-05
1.51931e-05
2.24108e-05
3.2699e-05
4.82684e-05
7.34002e-05
0.000117455
0.000203744
0.000206992
0.000330072
0.000801146
0.000432628
0.00252505
0.00114034
0.000539512
0.000260873
0.000137638
8.9111e-05
6.91532e-05
6.04292e-05
6.01379e-05
6.56941e-05
7.63158e-05
9.27382e-05
0.000116599
0.000150119
0.000196043
0.000256759
0.0003476
0.000510487
0.000374718
0.000189832
0.000142723
0.000113957
0.000118195
0.00013702
0.000177465
0.000188395
0.000203011
0.000219508
0.000241124
0.000272766
0.000322484
0.000405264
0.000552998
0.000420459
0.000599331
0.000977167
0.00102523
0.00603943
0.00369807
0.00150825
0.000778775
0.00040339
0.000173836
0.000108991
8.65157e-05
8.37291e-05
8.97098e-05
0.000100884
0.000115618
0.000133599
0.000154772
0.000177254
0.00019822
0.000213074
0.00021378
0.000192607
0.000153388
0.000143786
0.000141179
0.000144939
0.000151938
0.000160761
0.000169671
0.000180122
0.000192949
0.000210369
0.000235917
0.000275169
0.000337067
0.000435993
0.000594011
0.000877367
0.00136312
0.00219888
0.00309316
0.0034738
0.003447
0.0125307
0.010717
0.00455091
0.00212556
0.00113347
0.000494333
0.000190998
0.000131007
0.000123232
0.000131615
0.000145705
0.000163793
0.000185482
0.000209977
0.000235782
0.000259964
0.000278979
0.000289639
0.000287766
0.000278406
0.000272391
0.000269836
0.000271358
0.000276163
0.000282831
0.000289953
0.000297954
0.000307461
0.000319975
0.000338214
0.00036667
0.000413014
0.000491289
0.0006288
0.000880457
0.00135564
0.00229578
0.00415543
0.00717354
0.0068875
0.0232915
0.027462
0.0117481
0.00501133
0.0022272
0.00101025
0.000341659
0.000216913
0.000206915
0.00022443
0.000253396
0.000288345
0.000327399
0.00036975
0.000415265
0.000462364
0.000505873
0.000540096
0.000559624
0.000564005
0.000560779
0.000554977
0.000549276
0.000545318
0.00054343
0.000543294
0.0005443
0.000546062
0.000549084
0.000554963
0.000566682
0.000589426
0.000632317
0.000712326
0.000865497
0.00118317
0.001974
0.00462174
0.0137067
0.0120241
0.0411664
0.0677275
0.0345937
0.0103983
0.00302822
0.0011923
0.000508436
0.000403578
0.000429308
0.000491262
0.000566117
0.00064306
0.000719447
0.000792909
0.000865481
0.000937877
0.00100736
0.0010654
0.00110063
0.00111363
0.00111064
0.00109848
0.00108217
0.00106548
0.00105047
0.00103781
0.00102703
0.00101734
0.00100854
0.00100137
0.000997963
0.00100257
0.00102295
0.00107338
0.00118717
0.00145007
0.00216677
0.00507399
0.021065
0.0199345
0.078569
0.178387
0.25208
0.0282277
0.00387603
0.00167666
0.00121246
0.00121692
0.00132697
0.00147055
0.00162733
0.00175818
0.00187358
0.0019686
0.00205156
0.00212452
0.00218444
0.00222301
0.00223975
0.00223551
0.00221529
0.00218454
0.00214797
0.00210981
0.00207312
0.0020396
0.00200958
0.00198272
0.00195876
0.00193819
0.00192289
0.0019172
0.0019297
0.0019765
0.00208969
0.00234643
0.00301234
0.00555054
0.019707
0.0199402
0.6245
0.248777
0.0191652
0.00716973
0.00641195
0.00571882
0.00533905
0.00508526
0.00492821
0.00488888
0.004935
0.00502376
0.0051109
0.00516479
0.00517223
0.00513506
0.00506107
0.00496675
0.00486605
0.00476517
0.00466715
0.00457413
0.00448784
0.00440947
0.00433954
0.0042781
0.00422511
0.00418109
0.00414786
0.00412974
0.00413555
0.00418206
0.00430064
0.00455578
0.00513407
0.00682385
0.00992323
0.00732364
0.290846
0.147701
0.0608378
0.0334435
0.0215161
0.0156598
0.0125628
0.0108857
0.0100922
0.00991036
0.0101429
0.0105959
0.0110815
0.0114568
0.0116533
0.0116702
0.0115398
0.0113229
0.0110765
0.0108323
0.0106066
0.0104068
0.0102352
0.010091
0.00997197
0.00987506
0.00979788
0.00973949
0.0097017
0.00969094
0.00972119
0.00981758
0.0100174
0.0103777
0.01108
0.0134451
0.0110593
0.00505292
0.00407446
0.00780498
0.0493458
0.043402
0.0342597
0.0266794
0.020828
0.0163981
0.0130967
0.0106784
0.00895321
0.00778037
0.0070522
0.00667484
0.00655455
0.0065963
0.00671311
0.00683764
0.00693181
0.00697255
0.00695835
0.00690529
0.00682558
0.00672957
0.00662493
0.00651669
0.00640764
0.00629877
0.00618985
0.00607995
0.00596802
0.00585357
0.00573765
0.00562408
0.00552051
0.0054409
0.00542027
0.00559586
0.00499091
0.00366998
)
;

boundaryField
{
    floor
    {
        Cmu             0.09;
        kappa           0.41;
        E               9.8;
        type            epsilonWallFunction;
        value           nonuniform List<scalar> 
36
(
7.9288e-05
4.63383e-05
5.09525e-05
1.57567e-05
6.50552e-06
3.31216e-06
2.69209e-06
3.1091e-06
3.24175e-06
3.66216e-06
4.37889e-06
5.4871e-06
7.13887e-06
9.25518e-06
1.01039e-05
1.21081e-05
1.79657e-05
4.059e-05
3.77079e-05
3.77079e-05
0.000147434
0.000432628
0.00102523
0.00309316
0.0034738
0.003447
7.9288e-05
0.000220072
0.000259907
0.000173484
4.63383e-05
0.000173484
0.000143852
0.000323899
0.000309963
0.000374718
)
;
    }
    ceiling
    {
        Cmu             0.09;
        kappa           0.41;
        E               9.8;
        type            epsilonWallFunction;
        value           nonuniform List<scalar> 
43
(
0.00407446
0.00780498
0.0493458
0.043402
0.0342597
0.0266794
0.020828
0.0163981
0.0130967
0.0106784
0.00895321
0.00778037
0.0070522
0.00667484
0.00655455
0.0065963
0.00671311
0.00683764
0.00693181
0.00697255
0.00695835
0.00690529
0.00682558
0.00672957
0.00662493
0.00651669
0.00640764
0.00629877
0.00618985
0.00607995
0.00596802
0.00585357
0.00573765
0.00562408
0.00552051
0.0054409
0.00542027
0.00559586
0.00499091
0.00366998
0.078569
0.178387
0.290846
)
;
    }
    sWall
    {
        Cmu             0.09;
        kappa           0.41;
        E               9.8;
        type            epsilonWallFunction;
        value           uniform 0.00407446;
    }
    nWall
    {
        Cmu             0.09;
        kappa           0.41;
        E               9.8;
        type            epsilonWallFunction;
        value           nonuniform List<scalar> 6(0.003447 0.0068875 0.0120241 0.00732364 0.00505292 0.00366998);
    }
    sideWalls
    {
        type            empty;
    }
    glass1
    {
        Cmu             0.09;
        kappa           0.41;
        E               9.8;
        type            epsilonWallFunction;
        value           nonuniform List<scalar> 9(8.5601e-05 0.000155572 0.000840129 0.00252505 0.00603943 0.0125307 0.0232915 0.0411664 0.078569);
    }
    glass2
    {
        Cmu             0.09;
        kappa           0.41;
        E               9.8;
        type            epsilonWallFunction;
        value           nonuniform List<scalar> 2(0.0199345 0.0199402);
    }
    sun
    {
        Cmu             0.09;
        kappa           0.41;
        E               9.8;
        type            epsilonWallFunction;
        value           nonuniform List<scalar> 
14
(
8.5601e-05
0.000107238
0.000114246
7.85179e-05
5.96161e-05
5.47046e-05
5.16197e-05
4.79949e-05
4.39771e-05
4.00681e-05
3.68662e-05
3.54401e-05
3.78871e-05
4.82236e-05
)
;
    }
    Table_master
    {
        Cmu             0.09;
        kappa           0.41;
        E               9.8;
        type            epsilonWallFunction;
        value           nonuniform List<scalar> 9(2.05348e-05 1.00797e-05 1.51931e-05 2.24108e-05 3.2699e-05 4.82684e-05 7.34002e-05 0.000117455 0.000203744);
    }
    Table_slave
    {
        Cmu             0.09;
        kappa           0.41;
        E               9.8;
        type            epsilonWallFunction;
        value           nonuniform List<scalar> 9(0.000177465 0.000188395 0.000203011 0.000219508 0.000241124 0.000272766 0.000322484 0.000405264 0.000552998);
    }
    inlet
    {
        type            turbulentMixingLengthDissipationRateInlet;
        mixingLength    0.01;
        phi             phi;
        k               k;
        value           uniform 0.6245;
    }
    outlet
    {
        type            zeroGradient;
    }
}


// ************************************************************************* //
