/*--------------------------------*- C++ -*----------------------------------*\
  =========                 |
  \\      /  F ield         | OpenFOAM: The Open Source CFD Toolbox
   \\    /   O peration     | Website:  https://openfoam.org
    \\  /    A nd           | Version:  6
     \\/     M anipulation  |
\*---------------------------------------------------------------------------*/
FoamFile
{
    version     2.0;
    format      ascii;
    class       volScalarField;
    location    "2200";
    object      k;
}
// * * * * * * * * * * * * * * * * * * * * * * * * * * * * * * * * * * * * * //

dimensions      [0 2 -2 0 0 0 0];

internalField   nonuniform List<scalar> 
458
(
0.000769695
0.000894466
0.000933067
0.000726715
0.000604756
0.000571061
0.000549398
0.000523384
0.000493765
0.000464062
0.000439001
0.000427603
0.000447066
0.000525097
0.000731447
0.000511353
0.000544766
0.000249127
0.000138136
8.80713e-05
7.66999e-05
8.44274e-05
8.68106e-05
9.41614e-05
0.000106076
0.000123291
0.000146935
0.000174704
0.000185232
0.000208985
0.000271877
0.000468132
0.000445706
0.00114619
0.00233373
0.00272189
0.0014238
0.00109331
0.00105641
0.00104335
0.0010143
0.000977963
0.0009474
0.000935437
0.000966281
0.00108842
0.00138611
0.00197998
0.0014448
0.0016143
0.00123293
0.00108819
0.00231758
0.00107873
0.000512713
0.000204854
0.000148574
0.000144927
0.000166894
0.000205844
0.000264916
0.000341238
0.000429336
0.000510605
0.000586826
0.000826827
0.00120813
0.00232253
0.00110617
0.00352739
0.00247643
0.00274129
0.00190521
0.00150705
0.00140957
0.00137771
0.00134564
0.0013234
0.00132312
0.00135116
0.00141887
0.0015498
0.00178124
0.00215347
0.00263949
0.0030847
0.00186941
0.00181536
0.00304984
0.00151462
0.000992384
0.000673025
0.000297225
0.000184943
0.000243131
0.000315054
0.000405296
0.000525442
0.000694834
0.000950599
0.00137238
0.00215826
0.00291371
0.00516538
0.00226724
0.00734781
0.00494544
0.00347953
0.00270511
0.00212373
0.00183123
0.00173521
0.00169337
0.00169757
0.00174643
0.00183593
0.00196972
0.00215235
0.00237327
0.00261283
0.00282863
0.00302208
0.00337977
0.00206013
0.00224459
0.00207285
0.00162542
0.00140186
0.00127655
0.0012517
0.00130258
0.00136911
0.0014423
0.00153549
0.00166704
0.0018639
0.00217058
0.00267035
0.00351706
0.00427952
0.00546161
0.00402995
0.013143
0.0110655
0.00616202
0.00438041
0.00348952
0.00251244
0.00220573
0.00211902
0.00214101
0.00223326
0.00237747
0.00255555
0.00276128
0.00299432
0.00322596
0.00340966
0.00351439
0.00348339
0.003311
0.00295112
0.00283275
0.00274222
0.0027274
0.00275947
0.00281885
0.00289689
0.00296239
0.00302897
0.00311099
0.00322783
0.00340676
0.00368586
0.00411423
0.00474069
0.0056189
0.00682603
0.00836031
0.0084144
0.00909129
0.00904454
0.0213818
0.0229575
0.0126424
0.00768091
0.0055897
0.00413556
0.00292794
0.00267232
0.00268621
0.00282541
0.00302549
0.00327217
0.00355877
0.00387314
0.00419348
0.00448
0.00469075
0.00480363
0.00478677
0.00468338
0.00460331
0.00455207
0.00454332
0.00456847
0.00460968
0.00464792
0.00468405
0.0047234
0.00477609
0.00485923
0.00499843
0.00523293
0.00562656
0.00628609
0.00738752
0.00922258
0.0123083
0.017256
0.0226685
0.0143483
0.0323249
0.0397402
0.0228675
0.0128568
0.00799231
0.00581074
0.00396752
0.0034322
0.00345235
0.00368704
0.00403667
0.00444865
0.00489851
0.00537209
0.00586074
0.00634257
0.00676682
0.00708337
0.00726133
0.00730582
0.00727954
0.00722406
0.00716162
0.00710523
0.00705718
0.0070149
0.00697465
0.00693422
0.00689753
0.00687591
0.00688925
0.0069697
0.00716912
0.00757289
0.00833433
0.00976985
0.0127275
0.020278
0.0381214
0.0208031
0.0472542
0.068151
0.0475988
0.0203479
0.00990655
0.00710897
0.00494807
0.00454274
0.00483969
0.00540112
0.00606473
0.00675592
0.00744767
0.00811613
0.00876844
0.00940166
0.00998587
0.0104578
0.0107605
0.0108978
0.0109102
0.0108435
0.0107319
0.0106014
0.0104669
0.010334
0.0102014
0.0100649
0.00992343
0.00978173
0.00965241
0.00956003
0.00954807
0.00969224
0.0101484
0.0112472
0.0138284
0.0215419
0.0503272
0.0291407
0.0727087
0.125604
0.199082
0.0385059
0.0118019
0.00878748
0.00754982
0.00791426
0.00876351
0.00975089
0.0107673
0.0117036
0.0125925
0.0133729
0.0140787
0.0147168
0.0152652
0.015678
0.0159438
0.0160614
0.0160548
0.0159562
0.0157955
0.015599
0.0153858
0.0151671
0.0149462
0.0147218
0.0144921
0.0142579
0.0140258
0.0138132
0.0136559
0.0136221
0.0138456
0.0146162
0.0167019
0.0231872
0.048358
0.0291462
0.398903
0.185928
0.0306658
0.0204798
0.0203416
0.0201072
0.0200843
0.0202285
0.0205487
0.0211507
0.0219609
0.0228483
0.0236735
0.024334
0.0247816
0.0250149
0.0250567
0.024959
0.0247714
0.0245241
0.0242369
0.0239256
0.0236029
0.0232775
0.0229541
0.0226335
0.022315
0.0219977
0.0216837
0.0213823
0.0211159
0.0209325
0.0209286
0.021303
0.0225478
0.0262502
0.0314209
0.014948
0.173993
0.145217
0.0808871
0.0557991
0.042666
0.0354727
0.0315797
0.029702
0.0293037
0.0300681
0.0316597
0.0336547
0.0356097
0.0371865
0.0382258
0.0387302
0.0387821
0.038542
0.0381603
0.0377191
0.0372686
0.0368355
0.0364318
0.0360605
0.0357184
0.0353992
0.035096
0.0348036
0.0345215
0.0342586
0.0340391
0.0339101
0.0339422
0.0342393
0.0350803
0.0383819
0.0324835
0.0116713
0.0101108
0.0155953
0.0533228
0.0489505
0.0418097
0.0353896
0.0300049
0.0255835
0.0220228
0.0192208
0.0170904
0.0155631
0.0145761
0.0140512
0.0138817
0.0139405
0.0141046
0.0142784
0.0144092
0.0144657
0.0144461
0.0143726
0.0142618
0.0141278
0.0139809
0.0138282
0.0136735
0.0135182
0.0133619
0.0132033
0.0130407
0.0128735
0.012703
0.0125348
0.0123804
0.0122611
0.0122301
0.0124929
0.0115755
0.00943043
)
;

boundaryField
{
    floor
    {
        type            kqRWallFunction;
        value           nonuniform List<scalar> 
36
(
0.000731447
0.000511353
0.000544766
0.000249127
0.000138136
8.80713e-05
7.66999e-05
8.44274e-05
8.68106e-05
9.41614e-05
0.000106076
0.000123291
0.000146935
0.000174704
0.000185232
0.000208985
0.000271877
0.000468132
0.000445706
0.000445706
0.00110617
0.00226724
0.00402995
0.0084144
0.00909129
0.00904454
0.000731447
0.0014448
0.0016143
0.00123293
0.000511353
0.00123293
0.00108819
0.00186941
0.00181536
0.00206013
)
;
    }
    ceiling
    {
        type            kqRWallFunction;
        value           nonuniform List<scalar> 
43
(
0.0101108
0.0155953
0.0533228
0.0489505
0.0418097
0.0353896
0.0300049
0.0255835
0.0220228
0.0192208
0.0170904
0.0155631
0.0145761
0.0140512
0.0138817
0.0139405
0.0141046
0.0142784
0.0144092
0.0144657
0.0144461
0.0143726
0.0142618
0.0141278
0.0139809
0.0138282
0.0136735
0.0135182
0.0133619
0.0132033
0.0130407
0.0128735
0.012703
0.0125348
0.0123804
0.0122611
0.0122301
0.0124929
0.0115755
0.00943043
0.0727087
0.125604
0.173993
)
;
    }
    sWall
    {
        type            kqRWallFunction;
        value           uniform 0.0101108;
    }
    nWall
    {
        type            kqRWallFunction;
        value           nonuniform List<scalar> 6(0.00904454 0.0143483 0.0208031 0.014948 0.0116713 0.00943043);
    }
    sideWalls
    {
        type            empty;
    }
    glass1
    {
        type            kqRWallFunction;
        value           nonuniform List<scalar> 9(0.000769695 0.00114619 0.00352739 0.00734781 0.013143 0.0213818 0.0323249 0.0472542 0.0727087);
    }
    glass2
    {
        type            kqRWallFunction;
        value           nonuniform List<scalar> 2(0.0291407 0.0291462);
    }
    sun
    {
        type            kqRWallFunction;
        value           nonuniform List<scalar> 
14
(
0.000769695
0.000894466
0.000933067
0.000726715
0.000604756
0.000571061
0.000549398
0.000523384
0.000493765
0.000464062
0.000439001
0.000427603
0.000447066
0.000525097
)
;
    }
    Table_master
    {
        type            kqRWallFunction;
        value           nonuniform List<scalar> 9(0.000297225 0.000184943 0.000243131 0.000315054 0.000405296 0.000525442 0.000694834 0.000950599 0.00137238);
    }
    Table_slave
    {
        type            kqRWallFunction;
        value           nonuniform List<scalar> 9(0.0012517 0.00130258 0.00136911 0.0014423 0.00153549 0.00166704 0.0018639 0.00217058 0.00267035);
    }
    inlet
    {
        type            turbulentIntensityKineticEnergyInlet;
        intensity       0.05;
        value           uniform 0.398903;
    }
    outlet
    {
        type            zeroGradient;
    }
}


// ************************************************************************* //
