/*--------------------------------*- C++ -*----------------------------------*\
  =========                 |
  \\      /  F ield         | OpenFOAM: The Open Source CFD Toolbox
   \\    /   O peration     | Website:  https://openfoam.org
    \\  /    A nd           | Version:  6
     \\/     M anipulation  |
\*---------------------------------------------------------------------------*/
FoamFile
{
    version     2.0;
    format      ascii;
    class       volScalarField;
    location    "1900";
    object      nut;
}
// * * * * * * * * * * * * * * * * * * * * * * * * * * * * * * * * * * * * * //

dimensions      [0 2 -1 0 0 0 0];

internalField   nonuniform List<scalar> 
458
(
0.000929781
0.00100306
0.00100974
0.00105463
0.00109571
0.0011332
0.00116851
0.00120332
0.00123768
0.00126329
0.00127625
0.00127271
0.00125123
0.00121586
0.00117426
0.000409651
0.000515915
0.000547456
0.000532864
0.000510476
0.000481518
0.000452461
0.000426027
0.000402475
0.00038151
0.000362958
0.000346361
0.000331246
0.000317085
0.000303154
0.000288271
0.000276105
0.00025068
0.00131531
0.00289994
0.0026822
0.00312155
0.00350551
0.00389999
0.00428164
0.00461331
0.00486411
0.00508675
0.00524702
0.00528693
0.00511249
0.00453339
0.00315653
0.00121132
0.000996617
0.000790206
0.000568331
0.000931587
0.00119181
0.00135864
0.00139979
0.0011622
0.001028
0.000929437
0.000852261
0.000790026
0.000735367
0.00068518
0.000637105
0.000589676
0.000549044
0.000515625
0.000602625
0.000322214
0.00164637
0.00401789
0.00321199
0.00428917
0.00475265
0.00508683
0.00533982
0.00553652
0.00569918
0.00588263
0.00607381
0.00624323
0.00635581
0.00637179
0.00621333
0.00569434
0.00472585
0.00109484
0.000921813
0.00128083
0.00156521
0.00177404
0.00178948
0.000668457
0.000593578
0.000532513
0.00048305
0.00044283
0.000409908
0.000382806
0.000360535
0.000342663
0.000370042
0.000425316
0.000671869
0.00036971
0.00197389
0.00539402
0.0031809
0.00460089
0.00516122
0.00535413
0.00541767
0.00544766
0.0055084
0.00564367
0.00583882
0.00606831
0.00630927
0.00653772
0.00669211
0.00664404
0.00616091
0.0047543
0.00121979
0.00156089
0.00199439
0.00232825
0.00252575
0.00242709
0.00073075
0.000670266
0.000630579
0.000602538
0.000579434
0.000556064
0.000533453
0.000509463
0.000480835
0.000451678
0.000449914
0.000741411
0.000411634
0.00231133
0.00720696
0.00368004
0.00432104
0.00517652
0.00536646
0.00532206
0.00521736
0.00519571
0.00531956
0.00552126
0.00577466
0.00605806
0.00633276
0.00650491
0.00649859
0.00623847
0.00566838
0.00456843
0.00415065
0.00392974
0.00376529
0.00362353
0.00344648
0.0029728
0.00277585
0.00268572
0.00262244
0.0025454
0.00242853
0.00220326
0.00189701
0.00153557
0.00115538
0.000855151
0.000800663
0.000636625
0.000547916
0.0006282
0.000688567
0.00266735
0.00918581
0.00557969
0.00423313
0.0047008
0.00507662
0.0052329
0.00509353
0.00505124
0.0051843
0.00537984
0.00563475
0.00592538
0.00618887
0.00633867
0.00630087
0.00606439
0.00569548
0.00525955
0.00492483
0.00462487
0.00432769
0.00405904
0.00383515
0.00364405
0.00353556
0.0034635
0.00338903
0.00329368
0.00316873
0.00298209
0.00269525
0.00230891
0.00184205
0.0013995
0.00105188
0.000828114
0.000698276
0.000929023
0.00070412
0.00299853
0.010662
0.008456
0.00602707
0.00518856
0.00500487
0.00515818
0.00519827
0.00520373
0.0052615
0.00540885
0.00565053
0.00594642
0.00621421
0.00635125
0.00628247
0.00601853
0.00566037
0.00532141
0.00501953
0.00467404
0.00428938
0.00394561
0.00370294
0.00356695
0.00350142
0.00345017
0.00338377
0.00329769
0.00320017
0.0030988
0.00293498
0.00264639
0.00225132
0.00184032
0.0014666
0.00119692
0.00106364
0.00101715
0.000792082
0.0030651
0.00977163
0.00871312
0.00806088
0.00721148
0.00649735
0.0061293
0.00575941
0.00549359
0.00542395
0.00554692
0.0058082
0.00612675
0.00639628
0.00650248
0.00637447
0.00604905
0.00564505
0.00525471
0.00480912
0.0042993
0.00385679
0.0035531
0.0033781
0.00328539
0.0032257
0.00316319
0.00308677
0.00300682
0.00294452
0.00291898
0.00292379
0.00281749
0.00254685
0.00228547
0.00211846
0.00210964
0.00219335
0.00266852
0.00127231
0.00298585
0.00354571
0.00408619
0.00434372
0.00457249
0.00466901
0.00469864
0.00478261
0.00500335
0.00533496
0.00572831
0.00613242
0.00649018
0.00671371
0.00670568
0.00642577
0.00597704
0.00547518
0.00486254
0.00423193
0.00373286
0.00340844
0.00321308
0.00308855
0.0029928
0.00289823
0.00278751
0.00265567
0.0025117
0.00237167
0.00224479
0.00212859
0.00202922
0.00194585
0.00189778
0.00188697
0.00187361
0.00181795
0.00172592
0.00124005
0.00193517
0.00462405
0.00501782
0.00531417
0.00564811
0.00603161
0.00634138
0.00658212
0.00677535
0.00694081
0.00705652
0.00701234
0.00670889
0.00614393
0.00542888
0.00470242
0.00408775
0.00366964
0.00341449
0.00324823
0.00311909
0.00299633
0.0028641
0.00271629
0.00255313
0.00237935
0.00220524
0.00204974
0.00193711
0.00187608
0.00185026
0.0018466
0.00185754
0.0018648
0.00183527
0.00174919
0.00162278
0.00110411
0.00207421
0.00530972
0.00604911
0.00618481
0.00645221
0.00675066
0.00695079
0.00690586
0.00683169
0.0068127
0.00680405
0.00654828
0.00599088
0.00528013
0.00462358
0.0041661
0.00392139
0.00380014
0.00372079
0.00364976
0.00357921
0.00349124
0.00337176
0.00321363
0.00301882
0.0027989
0.00257219
0.00235827
0.00218112
0.00205886
0.00199175
0.00197101
0.00197855
0.00198708
0.00196851
0.00198963
0.002202
0.00114107
0.00171503
0.00185682
0.00196074
0.00210662
0.00206282
0.00199884
0.00188427
0.00171671
0.00155452
0.00147413
0.00141788
0.00136047
0.00129259
0.0012151
0.00113155
0.00104878
0.000986037
0.000947229
0.000924698
0.000910755
0.000901545
0.000893783
0.000883376
0.000869413
0.000852144
0.000833178
0.000815393
0.000802373
0.000797558
0.000803655
0.000819758
0.000843584
0.000874612
0.000912832
0.000957592
0.00100774
0.00103843
0.00101993
0.000968246
0.000924225
)
;

boundaryField
{
    floor
    {
        type            nutkWallFunction;
        Cmu             0.09;
        kappa           0.41;
        E               9.8;
        value           nonuniform List<scalar> 
36
(
0.000141045
4.8009e-05
6.1731e-05
6.57312e-05
6.38833e-05
6.10362e-05
5.73305e-05
5.35842e-05
5.01496e-05
4.70669e-05
4.43034e-05
4.18418e-05
3.96258e-05
3.75959e-05
3.5683e-05
3.37901e-05
3.17554e-05
3.00818e-05
2.65515e-05
2.65514e-05
3.63774e-05
4.27405e-05
4.82698e-05
6.5792e-05
7.58545e-05
8.3318e-05
0.000141045
0.00014532
0.000120331
9.5713e-05
4.80089e-05
9.5713e-05
6.83712e-05
0.000131833
0.000111481
0.000146292
)
;
    }
    ceiling
    {
        type            nutkWallFunction;
        Cmu             0.09;
        kappa           0.41;
        E               9.8;
        value           nonuniform List<scalar> 
43
(
0.000202026
0.000217647
0.000229017
0.000244967
0.000240242
0.000233297
0.000220781
0.000202318
0.000184255
0.00017523
0.000168883
0.000162376
0.000154642
0.000145754
0.000136101
0.000126456
0.000119085
0.000114499
0.000111826
0.000110169
0.000109073
0.000108147
0.000106906
0.000105237
0.000103169
0.000100892
9.87515e-05
9.7181e-05
9.65995e-05
9.7336e-05
9.9278e-05
0.000102143
0.00010586
0.000110417
0.000115727
0.000121641
0.000125245
0.000123075
0.000116987
0.000111772
0.000338697
0.000396699
0.0002412
)
;
    }
    sWall
    {
        type            nutkWallFunction;
        Cmu             0.09;
        kappa           0.41;
        E               9.8;
        value           uniform 0.000202082;
    }
    nWall
    {
        type            nutkWallFunction;
        Cmu             0.09;
        kappa           0.41;
        E               9.8;
        value           nonuniform List<scalar> 6(8.33158e-05 8.52262e-05 9.59386e-05 0.000132923 0.000137216 0.000111776);
    }
    sideWalls
    {
        type            empty;
    }
    glass1
    {
        type            nutkWallFunction;
        Cmu             0.09;
        kappa           0.41;
        E               9.8;
        value           nonuniform List<scalar> 9(0.000112479 0.00015741 0.000194788 0.000230954 0.00026754 0.00030553 0.000340395 0.000347363 0.000339092);
    }
    glass2
    {
        type            nutkWallFunction;
        Cmu             0.09;
        kappa           0.41;
        E               9.8;
        value           nonuniform List<scalar> 2(0.000152375 0.000148673);
    }
    sun
    {
        type            nutkWallFunction;
        Cmu             0.09;
        kappa           0.41;
        E               9.8;
        value           nonuniform List<scalar> 
14
(
0.000112431
0.000121089
0.000121873
0.000127137
0.000131933
0.000136291
0.000140381
0.000144398
0.000148352
0.00015129
0.000152775
0.000152369
0.000149908
0.000145843
)
;
    }
    Table_master
    {
        type            nutkWallFunction;
        Cmu             0.09;
        kappa           0.41;
        E               9.8;
        value           nonuniform List<scalar> 9(8.0838e-05 7.15343e-05 6.38414e-05 5.75306e-05 5.234e-05 4.80471e-05 4.44804e-05 4.15253e-05 3.91369e-05);
    }
    Table_slave
    {
        type            nutkWallFunction;
        Cmu             0.09;
        kappa           0.41;
        E               9.8;
        value           nonuniform List<scalar> 9(8.8482e-05 8.1061e-05 7.61485e-05 7.26552e-05 6.97621e-05 6.68215e-05 6.39616e-05 6.0911e-05 5.72471e-05);
    }
    inlet
    {
        type            calculated;
        value           uniform 0.000100623;
    }
    outlet
    {
        type            calculated;
        value           nonuniform List<scalar> 2(0.00171503 0.00185682);
    }
}


// ************************************************************************* //
