/*--------------------------------*- C++ -*----------------------------------*\
  =========                 |
  \\      /  F ield         | OpenFOAM: The Open Source CFD Toolbox
   \\    /   O peration     | Website:  https://openfoam.org
    \\  /    A nd           | Version:  6
     \\/     M anipulation  |
\*---------------------------------------------------------------------------*/
FoamFile
{
    version     2.0;
    format      ascii;
    class       surfaceScalarField;
    location    "700";
    object      phi;
}
// * * * * * * * * * * * * * * * * * * * * * * * * * * * * * * * * * * * * * //

dimensions      [1 0 -1 0 0 0 0];

internalField   nonuniform List<scalar> 
850
(
-0.00325601
0.0033195
-0.00449765
0.00124145
-0.00539429
0.000896455
-0.00606113
0.000666653
-0.00647889
0.000417573
-0.00663124
0.000152151
-0.00650017
-0.000131261
-0.00607391
-0.000426448
-0.00537268
-0.000701427
-0.00445302
-0.000919855
-0.00339798
-0.00105523
-0.00230781
-0.00109036
-0.00129362
-0.00101437
-0.000470589
-0.000823193
-0.000468199
-0.000998435
0.00100258
-0.00063954
-0.000358997
0.000175488
-0.000815139
0.000880628
-0.000705251
0.00138554
-0.000505021
0.00167072
-0.000285287
0.00180195
-0.00013132
0.00187157
-6.97122e-05
0.00191245
-4.09632e-05
0.00193265
-2.02769e-05
0.00193656
-3.97521e-06
0.00192467
1.18285e-05
0.00188834
3.62703e-05
0.00180146
8.68343e-05
0.00161924
0.000182176
0.00132287
0.000296331
0.000941747
0.000381095
0.000947598
-0.00229513
0.00578589
-0.00343478
0.00238091
-0.0043125
0.00177399
-0.00494609
0.00130006
-0.00534274
0.000814031
-0.00549422
0.000303446
-0.0053796
-0.000246079
-0.00499336
-0.000812888
-0.0043669
-0.0013281
-0.00356415
-0.00172281
-0.00266415
-0.00195544
-0.00175076
-0.00200394
-0.000906568
-0.00185876
-0.000197586
-0.00153235
0.000410505
-0.00107645
0.000971873
-0.000556983
0.000925162
5.18052e-05
0.000940566
0.000256649
0.000758325
0.000798032
-0.000900492
0.0011935
-0.00121072
0.00153737
-0.00104924
0.0017999
-0.000767666
0.00185888
-0.000344381
0.00187028
-0.000142826
0.0018831
-8.26375e-05
0.00189332
-5.12767e-05
0.00189916
-2.61993e-05
0.00190136
-6.24726e-06
0.00189948
1.36338e-05
0.00188957
4.6125e-05
0.00183731
0.000139043
0.00162414
0.000395307
0.00125782
0.000662612
0.000794633
0.000844247
0.00175731
-0.00157484
0.00762275
-0.00251406
0.00331995
-0.0032496
0.00250935
-0.0037557
0.00180597
-0.0040676
0.00112575
-0.00417524
0.000410893
-0.00404049
-0.000381023
-0.00366068
-0.0011929
-0.00308673
-0.00190226
-0.00239288
-0.00241689
-0.00164932
-0.00269922
-0.000919628
-0.00273385
-0.000259886
-0.00251869
0.000290906
-0.00208332
0.000691377
-0.0014771
0.000873887
-0.000739665
0.000737834
0.000187684
0.00169098
0.00180217
-0.00102978
0.00209096
-0.0011894
0.00209011
-0.00121
0.0021368
-0.00109606
0.00230337
-0.000934363
0.00195903
0.00181624
0.00173365
0.00168243
0.0016563
0.00165012
0.00166384
0.00171006
0.00184921
0.00153546
0.000709014
0.0011475
0.00105053
0.000649737
0.00134198
0.00242993
-0.00107262
0.00903457
-0.00178093
0.00402808
-0.00221233
0.00294057
-0.00247963
0.00207309
-0.00260934
0.00125528
-0.00258041
0.000381783
-0.00235163
-0.000609987
-0.0019498
-0.00159495
-0.0014427
-0.00240959
-0.000898148
-0.00296168
-0.000360089
-0.00323752
0.00013583
-0.00322999
0.000563297
-0.00294636
0.000919552
-0.00243975
0.00120886
-0.00176657
0.00144079
-0.000971761
0.00174169
-0.000113373
0.00295566
0.000476831
0.00313229
-0.000163917
0.0027952
-0.000692852
0.00261057
-0.00100492
0.00241947
-0.00101904
0.00223948
-0.000916211
0.00200162
-0.000696626
0.00229201
-0.000290658
0.00242067
-0.000128919
0.00249226
-7.18426e-05
0.00252419
-3.21812e-05
0.00250689
1.70525e-05
0.00242504
8.16109e-05
0.00225717
0.000167639
0.0019691
0.000287845
0.00149536
0.000473524
0.00131354
0.000890778
0.000966449
0.00139758
0.000460257
0.00184814
0.0029199
-0.000737515
0.0101765
-0.00125242
0.0045428
-0.00124564
0.00293362
-0.00114858
0.00197586
-0.00097952
0.00108605
-0.000670426
7.25174e-05
-0.000257802
-0.0010228
0.000156077
-0.00200906
0.000529515
-0.00278328
0.000846616
-0.00327905
0.00109918
-0.00349034
0.00128747
-0.00341852
0.0014312
-0.00309029
0.00155033
-0.00255906
0.00167062
-0.00188703
0.00184826
-0.00114955
0.0021942
-0.000459462
0.00271394
-4.30658e-05
0.00276947
-0.000219608
0.00261237
-0.000535907
0.00234184
-0.000734532
0.00208319
-0.000760527
0.00185127
-0.000684417
0.00168237
-0.000527834
0.00170166
-0.000310042
0.00174258
-0.000169937
0.00177643
-0.000105779
0.00180451
-6.03297e-05
0.00181639
5.10045e-06
0.00179414
0.00010379
0.00172213
0.000239591
0.00158819
0.000421722
0.00139581
0.000665852
0.00123893
0.00104762
0.00108441
0.00155206
0.000742176
0.00219034
0.0010224
0.00263965
-0.00140017
0.00244972
-0.00209109
0.00071615
-0.00200499
-0.000624029
0.0112596
-0.000946159
0.00486476
-0.00031837
0.00230565
0.000366341
0.00129098
0.0010511
0.000401123
0.00169973
-0.000576278
0.00219738
-0.00152067
0.00251311
-0.00232505
0.0026602
-0.00293065
0.0026741
-0.00329323
0.00257977
-0.00339628
0.00241096
-0.00324995
0.00221082
-0.00289034
0.00202074
-0.00236914
0.00187714
-0.00174357
0.00182365
-0.00109618
0.00189843
-0.000534383
0.00205428
-0.000199044
0.00203508
-0.000200547
0.00185216
-0.000353114
0.00158935
-0.000471844
0.00133288
-0.000504169
0.00111566
-0.000467305
0.00096812
-0.000380382
0.000925329
-0.000267332
0.000946592
-0.000191272
0.000996427
-0.000155679
0.0010609
-0.000124856
0.00113066
-6.47174e-05
0.00118811
4.62917e-05
0.00121989
0.000207759
0.00122881
0.000412764
0.00122282
0.000671802
0.00125534
0.00101505
0.00139185
0.00141552
0.00165037
0.00193179
0.00210096
0.00218904
0.00245136
0.0020993
0.00190344
0.00126405
-2.64678e-05
-0.000586513
0.0123564
-0.00028048
0.00455855
0.0013552
0.000669803
0.00272012
-7.4103e-05
0.00379018
-0.000669113
0.00452273
-0.00130905
0.00490871
-0.00190691
0.00498262
-0.00239925
0.00479331
-0.00274165
0.0044006
-0.00290083
0.00386795
-0.0028639
0.00326482
-0.00264704
0.00266144
-0.00228714
0.00211661
-0.00182445
0.00166658
-0.00129364
0.00134516
-0.000774858
0.00116812
-0.000357436
0.00108761
-0.000118637
0.000978816
-9.18588e-05
0.000798677
-0.000173079
0.000581078
-0.000254344
0.00037116
-0.00029434
0.000199194
-0.000295417
8.9423e-05
-0.000270679
5.91896e-05
-0.000237157
8.95624e-05
-0.000221696
0.000154286
-0.000220447
0.000241414
-0.000212024
0.000350266
-0.000173607
0.0004774
-8.08777e-05
0.00060876
7.63646e-05
0.000743678
0.000277812
0.000896425
0.000519021
0.00110074
0.000810703
0.00140432
0.0011119
0.00186475
0.00147134
0.00250986
0.0015439
0.0034244
0.00118474
0.00371605
0.000972379
0.00376943
0.00320986
0.00971943
0.00434556
0.00342268
0.00603331
-0.00101812
0.00730775
-0.00134875
0.00796428
-0.00132589
0.00814656
-0.00149163
0.00794596
-0.00170664
0.00741365
-0.00186729
0.00661154
-0.00193986
0.00562029
-0.00190987
0.00453249
-0.00177633
0.00344236
-0.0015571
0.00243336
-0.00127827
0.00156771
-0.000958886
0.000866901
-0.000592876
0.000363363
-0.000271367
5.64406e-05
-5.05726e-05
-0.000108974
4.67119e-05
-0.000231306
3.03976e-05
-0.000369059
-3.54029e-05
-0.000520739
-0.000102735
-0.000662602
-0.00015254
-0.000774859
-0.000183214
-0.000843627
-0.000201955
-0.000863647
-0.000217174
-0.000848506
-0.000236868
-0.000812997
-0.000255984
-0.000761648
-0.000263399
-0.000687218
-0.000248062
-0.000570293
-0.000197828
-0.000400778
-9.31759e-05
-0.000199418
7.64276e-05
3.65738e-05
0.000283004
0.000326319
0.000520931
0.00066096
0.000777232
0.00109341
0.00103886
0.00158985
0.00104743
0.00201451
0.000760054
0.00117294
0.00181393
0.00527519
0.0103601
0.0137833
0.0138412
-0.00107623
0.0134258
-0.000933559
0.012826
-0.000726469
0.0118435
-0.000509481
0.010477
-0.000340537
0.00884665
-0.000237263
0.00709041
-0.000183873
0.00533839
-0.000158036
0.00370444
-0.000142514
0.00226606
-0.000118801
0.00105627
-6.85184e-05
8.14565e-05
1.5929e-05
-0.000617163
0.00010577
-0.00103379
0.000145238
-0.00124558
0.000161184
-0.00134597
0.000147043
-0.00141775
0.000102124
-0.00149621
4.30012e-05
-0.00158469
-1.43026e-05
-0.00167267
-6.45964e-05
-0.00175038
-0.00010554
-0.00181328
-0.000139073
-0.00186379
-0.00016669
-0.00191223
-0.000188449
-0.00196954
-0.000198687
-0.00204511
-0.000187853
-0.00214928
-0.000143904
-0.00229666
-5.0468e-05
-0.00248921
9.9356e-05
-0.00272765
0.00031485
-0.00306522
0.000620558
-0.00358778
0.00104347
-0.00439655
0.00158599
-0.00555903
0.00220133
-0.00720191
0.00269029
-0.00911724
0.00267538
-0.00855295
0.00124963
-0.00290934
0.00656706
-0.000371485
0.0053923
0.00024134
0.00433873
0.000327296
0.00329753
0.000531939
0.00226643
0.000690777
0.00131922
0.000710143
0.000484593
0.000650909
-0.000238309
0.000565008
-0.000854612
0.000473834
-0.0013717
0.000398306
-0.00178651
0.000346298
-0.00207964
0.000309069
-0.00224945
0.00027557
-0.00234061
0.000236374
-0.00237852
0.000199054
-0.00239302
0.000161505
-0.00241115
0.000120227
-0.0024448
7.66156e-05
-0.00249281
3.36869e-05
-0.00254987
-7.55786e-06
-0.00261244
-4.29881e-05
-0.00268424
-6.72879e-05
-0.00276962
-8.13219e-05
-0.00287213
-8.59473e-05
-0.0029913
-7.95254e-05
-0.0031212
-5.79675e-05
-0.00324811
-1.70072e-05
-0.00335457
5.59762e-05
-0.00343979
0.000184567
-0.00351361
0.000388657
-0.00358709
0.000694022
-0.00367307
0.00112944
-0.00378104
0.00169394
-0.00386893
0.00228921
-0.00384994
0.00267129
-0.00352612
0.00235155
-0.00208605
-0.000190446
-0.00490016
-0.00395112
0.003614
-0.00408562
0.000376237
-0.00402727
0.000269293
-0.00391231
0.000417278
-0.00378265
0.000561347
-0.0036946
0.000622275
-0.00364688
0.000603335
-0.00362136
0.000539577
-0.00360652
0.00045905
-0.00359072
0.000382534
-0.00356184
0.000317422
-0.00351387
0.000261102
-0.00344849
0.000210181
-0.00337677
0.00016463
-0.00330437
0.000126636
-0.00323695
9.40645e-05
-0.00318099
6.42536e-05
-0.00314087
3.64768e-05
-0.00311834
1.11495e-05
-0.0031116
-1.43051e-05
-0.00311493
-3.96679e-05
-0.0031289
-5.33228e-05
-0.00315281
-5.74227e-05
-0.00318531
-5.34515e-05
-0.0032237
-4.11441e-05
-0.00326322
-1.84544e-05
-0.0032964
1.61646e-05
-0.00330425
6.38171e-05
-0.00326322
0.000143528
-0.00314517
0.000270598
-0.0029134
0.00046224
-0.0025331
0.000749128
-0.00200143
0.00116227
-0.00131544
0.00160321
-0.000236943
0.00159278
0.00128572
0.000828875
0.00168521
-0.000589938
-0.00311019
-0.009426
-0.0129399
-0.00929309
-0.00888941
-0.00859493
-0.00815475
-0.00757273
-0.00693162
-0.00631065
-0.00575399
-0.00527789
-0.004878
-0.00454275
-0.00426329
-0.00403423
-0.00385024
-0.00370377
-0.00358941
-0.00350437
-0.00344664
-0.00341383
-0.00340618
-0.00342368
-0.00345472
-0.0034898
-0.00352096
-0.00353995
-0.00353648
-0.00349873
-0.00341377
-0.00324962
-0.002959
-0.00247741
-0.00170967
-0.00052959
0.00109042
0.00269931
0.00354428
0.00297121
)
;

boundaryField
{
    floor
    {
        type            calculated;
        value           nonuniform List<scalar> 
36
(
0
0
0
0
0
0
0
0
0
0
0
0
0
0
0
0
0
0
0
-5.87777e-06
-1.51012e-05
-2.29093e-05
-2.97414e-05
-2.71638e-05
-2.52346e-05
-2.39029e-05
-2.52766e-06
-4.55961e-06
-5.27884e-06
-6.20545e-06
-4.23942e-06
-9.38545e-06
-1.24795e-05
-1.27589e-05
-1.41518e-05
-1.2879e-05
)
;
    }
    ceiling
    {
        type            calculated;
        value           nonuniform List<scalar> 
43
(
-3.60917e-05
-3.41211e-05
-3.25239e-05
-2.72155e-05
-2.49854e-05
-2.27347e-05
-2.05427e-05
-1.87402e-05
-1.75655e-05
-1.70331e-05
-1.70187e-05
-1.734e-05
-1.78275e-05
-1.83629e-05
-1.88824e-05
-1.93687e-05
-1.98364e-05
-2.0309e-05
-2.07912e-05
-2.12566e-05
-2.16611e-05
-2.19629e-05
-2.21682e-05
-2.22939e-05
-2.23383e-05
-2.22968e-05
-2.2163e-05
-2.19305e-05
-2.15907e-05
-2.11504e-05
-2.06266e-05
-2.00265e-05
-1.93567e-05
-1.86201e-05
-1.78204e-05
-1.68165e-05
-1.61143e-05
-1.6094e-05
-1.68715e-05
-1.71096e-05
1.0404e-06
-7.58986e-07
-3.40031e-05
)
;
    }
    sWall
    {
        type            calculated;
        value           uniform -0.000202046;
    }
    nWall
    {
        type            calculated;
        value           nonuniform List<scalar> 6(-6.22082e-05 -7.50928e-05 -7.98601e-05 -9.52307e-05 -0.000104772 -0.000121875);
    }
    sideWalls
    {
        type            empty;
        value           nonuniform 0();
    }
    glass1
    {
        type            calculated;
        value           nonuniform List<scalar> 9(-6.36731e-05 -0.000171451 -0.000262204 -0.000339383 -0.000404575 -0.0004593 -0.000510431 -0.000573036 -0.000641818);
    }
    glass2
    {
        type            calculated;
        value           nonuniform List<scalar> 2(-0.000332835 -0.000368437);
    }
    sun
    {
        type            calculated;
        value           uniform 0;
    }
    Table_master
    {
        type            calculated;
        value           nonuniform List<scalar> 9(-1.54459e-07 -1.54614e-07 -1.54658e-07 -1.5468e-07 -1.54691e-07 -1.54692e-07 -1.54683e-07 -1.54662e-07 -1.54609e-07);
    }
    Table_slave
    {
        type            calculated;
        value           nonuniform List<scalar> 9(1.54299e-07 1.54306e-07 1.5427e-07 1.54247e-07 1.54237e-07 1.54236e-07 1.54259e-07 1.54314e-07 1.54413e-07);
    }
    inlet
    {
        type            calculated;
        value           uniform -0.00727172;
    }
    outlet
    {
        type            calculated;
        value           nonuniform List<scalar> 2(0.0096644 0.00354827);
    }
}


// ************************************************************************* //
