/*--------------------------------*- C++ -*----------------------------------*\
  =========                 |
  \\      /  F ield         | OpenFOAM: The Open Source CFD Toolbox
   \\    /   O peration     | Website:  https://openfoam.org
    \\  /    A nd           | Version:  6
     \\/     M anipulation  |
\*---------------------------------------------------------------------------*/
FoamFile
{
    version     2.0;
    format      ascii;
    class       volScalarField;
    location    "700";
    object      T;
}
// * * * * * * * * * * * * * * * * * * * * * * * * * * * * * * * * * * * * * //

dimensions      [0 0 0 1 0 0 0];

internalField   nonuniform List<scalar> 
458
(
301.603
301.289
301.261
301.246
301.233
301.22
301.208
301.196
301.183
301.171
301.164
301.163
301.172
301.194
301.237
301.675
301.62
301.593
301.605
301.621
301.64
301.658
301.676
301.693
301.709
301.725
301.739
301.752
301.765
301.777
301.79
301.805
301.84
301.798
301.325
301.276
301.26
301.247
301.233
301.216
301.196
301.17
301.142
301.117
301.104
301.107
301.127
301.163
301.208
301.265
301.346
301.684
301.557
301.539
301.552
301.574
301.593
301.611
301.629
301.646
301.661
301.675
301.687
301.7
301.712
301.725
301.742
301.764
301.819
302.009
301.382
301.31
301.298
301.292
301.283
301.268
301.24
301.195
301.143
301.095
301.065
301.061
301.085
301.125
301.17
301.223
301.307
301.504
301.477
301.492
301.526
301.563
301.579
301.598
301.617
301.635
301.652
301.667
301.68
301.691
301.702
301.714
301.729
301.751
301.812
302.224
301.461
301.357
301.348
301.355
301.36
301.351
301.312
301.24
301.154
301.078
301.029
301.021
301.047
301.095
301.148
301.2
301.261
301.291
301.339
301.403
301.472
301.539
301.596
301.641
301.677
301.706
301.731
301.753
301.773
301.79
301.804
301.816
301.791
301.768
301.764
301.813
302.435
301.565
301.426
301.411
301.428
301.447
301.444
301.382
301.272
301.153
301.053
300.993
300.983
301.017
301.078
301.145
301.207
301.262
301.319
301.387
301.465
301.546
301.62
301.684
301.738
301.779
301.811
301.836
301.854
301.865
301.871
301.872
301.867
301.843
301.809
301.785
301.811
301.938
302.023
302.022
302.628
301.703
301.545
301.513
301.526
301.539
301.496
301.395
301.257
301.115
301.001
300.941
300.941
300.995
301.082
301.177
301.262
301.337
301.413
301.495
301.58
301.663
301.736
301.797
301.845
301.881
301.907
301.925
301.935
301.937
301.933
301.924
301.91
301.884
301.847
301.813
301.815
301.881
301.917
301.968
302.815
301.915
301.762
301.712
301.68
301.606
301.479
301.316
301.142
300.99
300.89
300.859
300.899
300.996
301.126
301.258
301.374
301.472
301.561
301.646
301.728
301.801
301.863
301.912
301.948
301.973
301.989
301.998
302
301.994
301.982
301.966
301.946
301.919
301.885
301.849
301.836
301.861
301.882
301.919
303.076
302.424
302.219
301.99
301.75
301.5
301.25
301.022
300.844
300.736
300.711
300.765
300.885
301.052
301.243
301.415
301.551
301.659
301.743
301.816
301.881
301.935
301.978
302.009
302.03
302.042
302.048
302.048
302.044
302.036
302.022
302.004
301.985
301.96
301.933
301.905
301.897
301.917
301.953
302.153
303.46
303.141
302.17
301.428
300.878
300.504
300.288
300.206
300.238
300.359
300.543
300.761
300.996
301.24
301.491
301.66
301.771
301.849
301.911
301.963
302.006
302.04
302.064
302.079
302.087
302.09
302.089
302.086
302.081
302.075
302.071
302.07
302.072
302.081
302.103
302.139
302.19
302.243
302.28
302.361
292.027
293.116
294.588
296.226
297.751
298.998
299.916
300.553
300.971
301.243
301.457
301.634
301.775
301.875
301.946
301.998
302.04
302.072
302.096
302.111
302.121
302.126
302.128
302.129
302.128
302.127
302.127
302.127
302.128
302.13
302.137
302.149
302.17
302.2
302.238
302.275
302.304
302.328
297.414
297.584
298.119
298.793
299.532
300.219
300.766
301.164
301.442
301.636
301.782
301.892
301.974
302.032
302.073
302.103
302.125
302.14
302.15
302.156
302.159
302.16
302.161
302.161
302.161
302.161
302.161
302.162
302.163
302.165
302.17
302.179
302.193
302.214
302.24
302.269
302.27
302.307
299.297
299.266
299.268
300.049
300.407
300.717
301.028
301.317
301.558
301.742
301.876
301.974
302.046
302.098
302.136
302.162
302.18
302.192
302.201
302.205
302.208
302.209
302.209
302.208
302.207
302.205
302.204
302.202
302.2
302.199
302.197
302.197
302.198
302.2
302.206
302.218
302.234
302.246
302.251
302.294
)
;

boundaryField
{
    floor
    {
        type            wallHeatTransfer;
        Tinf            uniform 305.2;
        alphaWall       uniform 0.24;
        value           nonuniform List<scalar> 
36
(
301.57
302.237
302.12
302.049
302.055
302.08
302.121
302.166
302.211
302.254
302.296
302.335
302.372
302.407
302.441
302.476
302.513
302.547
302.621
302.621
302.489
302.422
302.379
302.394
302.446
302.423
301.57
301.513
301.617
301.76
302.237
301.76
302.236
301.645
301.879
301.58
)
;
    }
    ceiling
    {
        type            wallHeatTransfer;
        Tinf            uniform 303.2;
        alphaWall       uniform 0.24;
        value           nonuniform List<scalar> 
43
(
299.493
299.452
299.446
300.197
300.543
300.841
301.139
301.419
301.653
301.833
301.968
302.068
302.142
302.197
302.238
302.266
302.287
302.302
302.313
302.32
302.325
302.328
302.329
302.328
302.328
302.326
302.324
302.321
302.317
302.313
302.309
302.305
302.302
302.3
302.301
302.308
302.32
302.332
302.342
302.385
303.449
303.144
297.624
)
;
    }
    sWall
    {
        type            wallHeatTransfer;
        Tinf            uniform 315.2;
        alphaWall       uniform 0.36;
        value           uniform 300.47;
    }
    nWall
    {
        type            wallHeatTransfer;
        Tinf            uniform 307.2;
        alphaWall       uniform 0.36;
        value           nonuniform List<scalar> 6(302.945 302.879 302.741 303.002 302.978 303.003);
    }
    sideWalls
    {
        type            empty;
    }
    glass1
    {
        type            wallHeatTransfer;
        Tinf            uniform 315.2;
        alphaWall       uniform 4.3;
        value           nonuniform List<scalar> 9(310.561 309.851 309.409 309.074 308.794 308.541 308.385 308.505 308.799);
    }
    glass2
    {
        type            wallHeatTransfer;
        Tinf            uniform 307.2;
        alphaWall       uniform 4.3;
        value           nonuniform List<scalar> 2(305.183 305.344);
    }
    sun
    {
        type            wallHeatTransfer;
        Tinf            uniform 305.2;
        alphaWall       uniform 0.24;
        value           nonuniform List<scalar> 
14
(
301.945
301.634
301.601
301.574
301.551
301.529
301.508
301.488
301.47
301.456
301.449
301.452
301.469
301.504
)
;
    }
    Table_master
    {
        type            zeroGradient;
    }
    Table_slave
    {
        type            zeroGradient;
    }
    inlet
    {
        type            fixedValue;
        value           uniform 291.15;
    }
    outlet
    {
        type            zeroGradient;
    }
}


// ************************************************************************* //
