/*--------------------------------*- C++ -*----------------------------------*\
  =========                 |
  \\      /  F ield         | OpenFOAM: The Open Source CFD Toolbox
   \\    /   O peration     | Website:  https://openfoam.org
    \\  /    A nd           | Version:  6
     \\/     M anipulation  |
\*---------------------------------------------------------------------------*/
FoamFile
{
    version     2.0;
    format      ascii;
    class       volScalarField;
    location    "600";
    object      alphat;
}
// * * * * * * * * * * * * * * * * * * * * * * * * * * * * * * * * * * * * * //

dimensions      [1 -1 -1 0 0 0 0];

internalField   nonuniform List<scalar> 
458
(
0.00130537
0.001425
0.00145968
0.00153329
0.00160147
0.001666
0.00172994
0.00179728
0.00186059
0.00191269
0.00194428
0.00194326
0.0018954
0.00177027
0.00131175
0.000615525
0.000726779
0.000820695
0.000840517
0.0008201
0.000767065
0.000709911
0.000658696
0.000614143
0.0005753
0.000541273
0.00051149
0.00048499
0.000460792
0.000437796
0.000414684
0.000402181
0.000370978
0.00175899
0.00399253
0.00365285
0.00416502
0.00468347
0.00523196
0.00576261
0.00618967
0.00660852
0.00704025
0.00743584
0.00774037
0.00789908
0.00779323
0.00666277
0.00172179
0.00141027
0.00114431
0.000619498
0.00143873
0.00207804
0.00255624
0.00269242
0.00199771
0.00169442
0.00148688
0.00133264
0.00121371
0.00111871
0.0010348
0.000956003
0.000877904
0.000808556
0.000747839
0.000913408
0.000494443
0.00213809
0.00540834
0.00447945
0.00548092
0.00593727
0.00626345
0.00650268
0.00669879
0.00694818
0.00728083
0.00767596
0.0081121
0.00855079
0.00887989
0.00862374
0.00696633
0.00525313
0.00133322
0.00101413
0.00171119
0.00241099
0.00306761
0.00322136
0.00103774
0.000908378
0.00080175
0.00071573
0.000646425
0.000590291
0.000544693
0.000507771
0.000478939
0.000527295
0.000606711
0.00106527
0.000585983
0.00250174
0.00693618
0.00444498
0.00583837
0.00618129
0.00619693
0.00611924
0.00610845
0.0062418
0.00651188
0.00690258
0.00740929
0.00799638
0.00855465
0.00877106
0.00835145
0.00714547
0.00386974
0.00154524
0.00205352
0.00280209
0.0036229
0.00427768
0.00423265
0.00115724
0.00105673
0.000988718
0.000938491
0.000895637
0.000853539
0.0008134
0.000771058
0.000721666
0.000676447
0.00067211
0.00128026
0.000669206
0.0028728
0.0089881
0.00479593
0.00564564
0.00617217
0.0060434
0.00575304
0.00560644
0.00570717
0.00597347
0.0063694
0.00690114
0.0075205
0.00806746
0.00829046
0.00820581
0.00775283
0.00640726
0.00594375
0.00582954
0.00598926
0.00620492
0.00629693
0.0060976
0.00514456
0.00467851
0.00442476
0.00423736
0.00404134
0.0037756
0.00335855
0.00283726
0.00225699
0.00170343
0.00126968
0.00122903
0.00111404
0.000891032
0.000930581
0.00100455
0.00327134
0.0113201
0.00682129
0.00538519
0.00581667
0.00592214
0.00571382
0.00542846
0.0055232
0.00578901
0.00618151
0.00671213
0.00730909
0.00775857
0.00785269
0.00770628
0.00757733
0.00744759
0.00761147
0.00781519
0.00788772
0.0077682
0.007478
0.00705244
0.00652591
0.0061201
0.00581032
0.00553653
0.00526628
0.00497978
0.00459995
0.00408532
0.00344061
0.00272115
0.00206738
0.00147896
0.00127299
0.00116183
0.0014661
0.00104312
0.00365234
0.0130454
0.0101875
0.00718961
0.00602384
0.00562575
0.00565539
0.00563537
0.00569874
0.00587714
0.00621639
0.00671613
0.00729446
0.0077013
0.00767717
0.00742717
0.00751419
0.00801656
0.00850114
0.00868096
0.00852708
0.00811706
0.00755727
0.00694359
0.00637683
0.00594748
0.00562481
0.0053531
0.00510897
0.00489245
0.0047017
0.00441289
0.00394414
0.00333112
0.00271337
0.00212531
0.00178506
0.00168636
0.00162919
0.00124457
0.0037309
0.0117017
0.0106225
0.00972484
0.00847834
0.00736107
0.00680809
0.00638723
0.00609045
0.00610864
0.00639
0.00686009
0.00742942
0.00781393
0.00770016
0.00746027
0.00785113
0.00832965
0.0085238
0.00837937
0.00793654
0.00730186
0.00660554
0.00596586
0.00546569
0.00511202
0.00485055
0.004642
0.0044806
0.00437728
0.00434461
0.00435624
0.00417294
0.00378478
0.00342714
0.00325405
0.00340793
0.00373207
0.00463004
0.00192391
0.00364338
0.00434759
0.00493932
0.00542773
0.00576889
0.00582982
0.0057565
0.0057175
0.00584772
0.00618378
0.00658518
0.00706777
0.00763906
0.00799192
0.00778521
0.00766585
0.00773306
0.0076829
0.00744505
0.00701224
0.00643076
0.00580813
0.0052493
0.00480715
0.00447608
0.00421648
0.00399122
0.00378543
0.00359958
0.00343607
0.00329169
0.00315629
0.00304383
0.00295449
0.00291032
0.00290027
0.00285054
0.00270747
0.00251971
0.00177068
0.000884583
0.00189731
0.00305269
0.00403552
0.00480333
0.00550193
0.00623132
0.00676672
0.00697081
0.00726953
0.00773854
0.00802231
0.00783245
0.00740004
0.00686636
0.00638046
0.00593143
0.00549955
0.00509036
0.00473198
0.00443811
0.00419735
0.00398581
0.00378227
0.00357722
0.00337484
0.00318913
0.00303865
0.00294163
0.00290159
0.00289253
0.0028977
0.00289798
0.00285304
0.0027068
0.00244141
0.00210328
0.00142548
0.00307222
0.00481816
0.00541419
0.00637539
0.00713106
0.0078139
0.00798448
0.00717129
0.00626529
0.0063151
0.0064357
0.00636859
0.00615473
0.00579355
0.00544898
0.00514546
0.00484646
0.00457762
0.00434155
0.00413634
0.00395663
0.0037945
0.00364326
0.0035008
0.00337009
0.00325638
0.003163
0.00308719
0.00304742
0.00305162
0.00309114
0.00315066
0.00320626
0.00323456
0.00319545
0.00314239
0.00270326
0.00144459
0.00321147
0.00325521
0.00330823
0.00353028
0.00334236
0.0031918
0.00292411
0.0024914
0.00196146
0.00169823
0.00150084
0.00139628
0.00134319
0.00129099
0.00123517
0.00118776
0.00115084
0.00112194
0.00110027
0.00108126
0.00106533
0.00105278
0.00104382
0.00103879
0.00103823
0.00104289
0.00105364
0.00107143
0.00109748
0.00113369
0.00117908
0.00123337
0.00129647
0.00136827
0.00144821
0.0015459
0.00159029
0.00155935
0.00145204
0.00134201
)
;

boundaryField
{
    floor
    {
        type            compressible::alphatWallFunction;
        Prt             0.85;
        value           nonuniform List<scalar> 
36
(
0.000185393
8.66223e-05
0.00010305
0.000116682
0.000119535
0.000116597
0.000108923
0.000100581
9.30371e-05
8.64164e-05
8.05963e-05
7.54578e-05
7.09274e-05
6.68685e-05
6.31379e-05
5.95696e-05
5.59593e-05
5.39957e-05
4.90609e-05
4.90603e-05
6.8321e-05
8.2204e-05
9.45942e-05
0.000126783
0.000132418
0.000142875
0.00018539
0.000240481
0.000198785
0.000162365
8.66213e-05
0.000162363
8.72143e-05
0.00018832
0.000144201
0.000216969
)
;
    }
    ceiling
    {
        type            compressible::alphatWallFunction;
        Prt             0.85;
        value           nonuniform List<scalar> 
43
(
0.000430539
0.000435953
0.000442508
0.000469899
0.000446809
0.000428214
0.0003949
0.000340344
0.000272109
0.000237496
0.00021115
0.000197042
0.000189834
0.000182715
0.000175063
0.000168532
0.000163426
0.000159416
0.000156402
0.000153751
0.000151526
0.000149769
0.000148514
0.000147809
0.000147731
0.000148385
0.00014989
0.000152378
0.000156011
0.000161047
0.000167332
0.000174816
0.000183466
0.00019325
0.000204076
0.000217217
0.000223157
0.00021902
0.000204597
0.000189683
0.00048405
0.000569376
0.000413142
)
;
    }
    sWall
    {
        type            compressible::alphatWallFunction;
        Prt             0.85;
        value           uniform 0.000429226;
    }
    nWall
    {
        type            compressible::alphatWallFunction;
        Prt             0.85;
        value           nonuniform List<scalar> 6(0.000142632 0.000148041 0.000175964 0.000200642 0.000203221 0.000189315);
    }
    sideWalls
    {
        type            empty;
    }
    glass1
    {
        type            compressible::alphatWallFunction;
        Prt             0.85;
        value           nonuniform List<scalar> 9(0.000179504 0.000239471 0.000288425 0.00033461 0.000381084 0.000430356 0.00047693 0.000486627 0.000476269);
    }
    glass2
    {
        type            compressible::alphatWallFunction;
        Prt             0.85;
        value           nonuniform List<scalar> 2(0.000264822 0.000244894);
    }
    sun
    {
        type            compressible::alphatWallFunction;
        Prt             0.85;
        value           nonuniform List<scalar> 
14
(
0.000184536
0.000200774
0.000205458
0.000215357
0.000224481
0.000233075
0.000241556
0.000250449
0.000258778
0.000265608
0.00026974
0.000269606
0.000263343
0.000246888
)
;
    }
    Table_master
    {
        type            compressible::alphatWallFunction;
        Prt             0.85;
        value           nonuniform List<scalar> 9(0.000147721 0.00012944 0.000114142 0.000101623 9.14044e-05 8.30296e-05 7.61542e-05 7.05345e-05 6.61104e-05);
    }
    Table_slave
    {
        type            compressible::alphatWallFunction;
        Prt             0.85;
        value           nonuniform List<scalar> 9(0.000164375 0.000150383 0.000140829 0.000133724 0.000127627 0.000121603 0.000115827 0.000109697 0.000102495);
    }
    inlet
    {
        type            fixedValue;
        value           uniform 1.94e-05;
    }
    outlet
    {
        type            zeroGradient;
    }
}


// ************************************************************************* //
