/*--------------------------------*- C++ -*----------------------------------*\
  =========                 |
  \\      /  F ield         | OpenFOAM: The Open Source CFD Toolbox
   \\    /   O peration     | Website:  https://openfoam.org
    \\  /    A nd           | Version:  6
     \\/     M anipulation  |
\*---------------------------------------------------------------------------*/
FoamFile
{
    version     2.0;
    format      ascii;
    class       volScalarField;
    location    "1400";
    object      alphat;
}
// * * * * * * * * * * * * * * * * * * * * * * * * * * * * * * * * * * * * * //

dimensions      [1 -1 -1 0 0 0 0];

internalField   nonuniform List<scalar> 
458
(
0.000848686
0.00089074
0.000877253
0.000907893
0.000934608
0.000957519
0.000977538
0.000995631
0.00101281
0.00102999
0.00104258
0.00104952
0.00105124
0.00105074
0.00104938
0.000660105
0.000621271
0.000600974
0.000591115
0.000582831
0.00056791
0.000550882
0.000534426
0.000519066
0.000504569
0.000490744
0.000477371
0.000464151
0.00045061
0.000436067
0.000419116
0.000400431
0.000363943
0.00129209
0.00220527
0.00190614
0.00223669
0.0024171
0.0026027
0.00278412
0.00294721
0.00307107
0.00313383
0.00314801
0.00307476
0.00286353
0.00244542
0.00176442
0.00107736
0.000996432
0.000935037
0.000786086
0.00115428
0.00149245
0.00173303
0.00179523
0.00148892
0.00136308
0.00128377
0.0012141
0.00114751
0.00108219
0.00101556
0.000942421
0.000858394
0.000780759
0.00071915
0.000777176
0.000427885
0.00169091
0.00327744
0.00212971
0.00318154
0.00347592
0.00368167
0.00384312
0.00396917
0.00406611
0.00412891
0.0041739
0.00418125
0.00412605
0.00399047
0.00375001
0.00329773
0.00239792
0.00110478
0.000894843
0.00175971
0.00220135
0.00238281
0.00221389
0.000683211
0.000618732
0.000565647
0.000523494
0.000490385
0.000464226
0.000443512
0.000427694
0.000417702
0.000487366
0.000590337
0.000864367
0.000473458
0.00210042
0.00487821
0.00210529
0.00352723
0.00400724
0.00417628
0.00425947
0.00429918
0.00432396
0.00434851
0.00438243
0.00441221
0.00441556
0.00437852
0.00428026
0.00405214
0.00355717
0.00256651
0.00105539
0.00237539
0.00266016
0.00264723
0.00257187
0.00228934
0.000667033
0.000646813
0.000644914
0.000647575
0.000647479
0.000639798
0.000623143
0.0006045
0.000580161
0.00056033
0.000584723
0.000919037
0.000521044
0.0025224
0.00702192
0.00265262
0.00329666
0.00418298
0.00438501
0.00442159
0.00439353
0.0043542
0.00434592
0.00437649
0.00442842
0.00445971
0.00444481
0.00436696
0.00422179
0.00404648
0.00387957
0.003566
0.00326266
0.00295816
0.00269094
0.00253659
0.00245645
0.00231971
0.00238245
0.00247037
0.00253562
0.0025589
0.00252487
0.00239719
0.00212374
0.00175353
0.00134083
0.00102486
0.00097878
0.000755616
0.000603182
0.000639076
0.000663811
0.00296001
0.00936605
0.00467667
0.00304666
0.00375118
0.00421461
0.00440012
0.00443262
0.00437206
0.00429064
0.0043329
0.00441414
0.0044645
0.00445269
0.0043605
0.00420088
0.00404018
0.0039155
0.00371741
0.00337689
0.00297336
0.00263535
0.00248064
0.00247408
0.00256712
0.00271633
0.00285943
0.00297057
0.00303918
0.00305698
0.00301303
0.00282718
0.00249936
0.00204245
0.00158635
0.00124723
0.000974647
0.000979423
0.00144549
0.000880973
0.00338879
0.0112895
0.0082921
0.00485253
0.00364192
0.00344643
0.00373199
0.00408772
0.00435707
0.00427106
0.00434549
0.00442569
0.00446637
0.0044413
0.00433086
0.00415172
0.00397973
0.00385873
0.00371176
0.00341783
0.00296044
0.00260698
0.00247306
0.00248449
0.00257729
0.00271113
0.00285024
0.00297528
0.00307135
0.00313903
0.003178
0.00315564
0.00292701
0.00253375
0.0020964
0.00170529
0.00138165
0.00127399
0.00160676
0.00106133
0.00348877
0.0109796
0.00947816
0.00815974
0.00642799
0.00509576
0.00445618
0.00432197
0.00444117
0.00445609
0.00446235
0.00447609
0.00447075
0.00440955
0.00426525
0.00405817
0.00388472
0.00379949
0.00371941
0.00343699
0.00294537
0.00260594
0.00248102
0.00247728
0.0025329
0.00261727
0.00271065
0.00280392
0.00289465
0.00299002
0.00310069
0.00322811
0.00326036
0.00294724
0.00262965
0.00241442
0.00236593
0.00243462
0.00316654
0.00148261
0.00341029
0.00410248
0.00486213
0.0052162
0.00532061
0.0051157
0.00483279
0.00462351
0.00451504
0.0044671
0.00446754
0.00447171
0.00443657
0.00432532
0.00411956
0.00386526
0.00370854
0.00369531
0.00369399
0.00339481
0.00290899
0.00259946
0.00246427
0.00241999
0.00242007
0.00244052
0.00246646
0.00248939
0.0025044
0.00250698
0.00249011
0.00244383
0.00235837
0.00226108
0.00219663
0.0021872
0.00219272
0.00215723
0.00207971
0.0014636
0.00314215
0.00626001
0.00583129
0.005579
0.00535216
0.00516707
0.0050292
0.0049033
0.00476632
0.00460584
0.00440354
0.00413943
0.00380692
0.00349049
0.00341669
0.00354367
0.00362913
0.00331158
0.00290891
0.00264095
0.00247425
0.00236431
0.00228983
0.00223782
0.00219792
0.00216291
0.00212964
0.00209912
0.00207561
0.00206522
0.00207374
0.00208141
0.00209062
0.00209163
0.00204809
0.00192406
0.00173848
0.00123831
0.00294207
0.00678842
0.00632855
0.00595937
0.00565655
0.00540721
0.00515662
0.00490687
0.00458769
0.00422087
0.00383661
0.00344021
0.00303305
0.00276241
0.00306001
0.00352972
0.00382623
0.00365949
0.00339144
0.00314121
0.00291764
0.0027176
0.00254428
0.00240083
0.00228727
0.00220191
0.00214272
0.00210746
0.00209236
0.00208975
0.00210734
0.00214871
0.00219975
0.00223528
0.00224115
0.00222645
0.00225038
0.00125837
0.00230079
0.0025083
0.00268206
0.00285655
0.00269791
0.00256254
0.00232839
0.00213503
0.00194796
0.00176464
0.00160794
0.00147066
0.00133934
0.00120456
0.00105628
0.000892057
0.000871972
0.0009144
0.000913696
0.000879333
0.000846861
0.000820715
0.000801696
0.000791338
0.000790567
0.000798961
0.000815249
0.000838056
0.000866376
0.000899817
0.000938807
0.000985001
0.00103672
0.00109245
0.00115309
0.00121695
0.00128679
0.00127347
0.00118
0.00109872
)
;

boundaryField
{
    floor
    {
        type            compressible::alphatWallFunction;
        Prt             0.85;
        value           nonuniform List<scalar> 
36
(
0.000149265
9.3353e-05
8.75837e-05
8.4551e-05
8.30737e-05
8.18302e-05
7.95847e-05
7.70129e-05
7.45184e-05
7.21812e-05
6.99674e-05
6.78487e-05
6.57922e-05
6.37519e-05
6.16545e-05
5.9393e-05
5.67448e-05
5.38097e-05
4.80266e-05
4.80259e-05
5.81152e-05
6.51872e-05
7.24804e-05
8.488e-05
9.0231e-05
9.3899e-05
0.000149263
0.000153176
0.000141826
0.000133145
9.33519e-05
0.000133143
0.000111792
0.000156996
0.000127426
0.000150106
)
;
    }
    ceiling
    {
        type            compressible::alphatWallFunction;
        Prt             0.85;
        value           nonuniform List<scalar> 
43
(
0.000315951
0.000342451
0.000364467
0.00038655
0.000366627
0.000349519
0.00031968
0.000294789
0.000270471
0.000246394
0.000225593
0.000207185
0.000189396
0.000170933
0.000150343
0.000127138
0.000124251
0.000130311
0.000130217
0.000125317
0.000120664
0.000116902
0.000114157
0.000112659
0.000112548
0.000113764
0.000116118
0.000119404
0.000123469
0.00012825
0.000133796
0.000140333
0.000147609
0.000155402
0.000163831
0.000172651
0.000182238
0.000180415
0.000167555
0.000156279
0.000455576
0.00053998
0.000396989
)
;
    }
    sWall
    {
        type            compressible::alphatWallFunction;
        Prt             0.85;
        value           uniform 0.000314748;
    }
    nWall
    {
        type            compressible::alphatWallFunction;
        Prt             0.85;
        value           nonuniform List<scalar> 6(9.37162e-05 0.000125249 0.000150732 0.000175271 0.000178022 0.000155963);
    }
    sideWalls
    {
        type            empty;
    }
    glass1
    {
        type            compressible::alphatWallFunction;
        Prt             0.85;
        value           nonuniform List<scalar> 9(0.000117637 0.000178716 0.000231764 0.000284923 0.000338628 0.00039339 0.000446279 0.000458632 0.00044923);
    }
    glass2
    {
        type            compressible::alphatWallFunction;
        Prt             0.85;
        value           nonuniform List<scalar> 2(0.000207316 0.00020481);
    }
    sun
    {
        type            compressible::alphatWallFunction;
        Prt             0.85;
        value           nonuniform List<scalar> 
14
(
0.00012084
0.000126844
0.000124916
0.000129289
0.000133088
0.000136335
0.000139165
0.000141717
0.000144135
0.000146548
0.000148314
0.000149286
0.000149526
0.000149455
)
;
    }
    Table_master
    {
        type            compressible::alphatWallFunction;
        Prt             0.85;
        value           nonuniform List<scalar> 9(9.6845e-05 8.7285e-05 7.93225e-05 7.29337e-05 6.78707e-05 6.384e-05 6.06278e-05 5.8162e-05 5.65984e-05);
    }
    Table_slave
    {
        type            compressible::alphatWallFunction;
        Prt             0.85;
        value           nonuniform List<scalar> 9(9.44571e-05 9.14633e-05 9.11821e-05 9.15774e-05 9.15635e-05 9.04236e-05 8.79453e-05 8.51614e-05 8.15109e-05);
    }
    inlet
    {
        type            fixedValue;
        value           uniform 1.94e-05;
    }
    outlet
    {
        type            zeroGradient;
    }
}


// ************************************************************************* //
