/*--------------------------------*- C++ -*----------------------------------*\
  =========                 |
  \\      /  F ield         | OpenFOAM: The Open Source CFD Toolbox
   \\    /   O peration     | Website:  https://openfoam.org
    \\  /    A nd           | Version:  6
     \\/     M anipulation  |
\*---------------------------------------------------------------------------*/
FoamFile
{
    version     2.0;
    format      ascii;
    class       volScalarField;
    location    "900";
    object      nut;
}
// * * * * * * * * * * * * * * * * * * * * * * * * * * * * * * * * * * * * * //

dimensions      [0 2 -1 0 0 0 0];

internalField   nonuniform List<scalar> 
458
(
0.000697516
0.000710918
0.000628494
0.000648271
0.000672502
0.00069599
0.000718496
0.000740446
0.000762623
0.000786283
0.000807462
0.000825404
0.000840475
0.000854146
0.000865154
0.000333911
0.000366917
0.000382381
0.00032508
0.0002598
0.00022004
0.000213658
0.00022986
0.000256789
0.000287716
0.000317372
0.000338347
0.000347676
0.000363164
0.000387854
0.000416819
0.000434531
0.000380852
0.0012345
0.00219231
0.0014751
0.00206638
0.00225636
0.00242514
0.00259593
0.00275378
0.0028787
0.00294604
0.00296559
0.00289997
0.00270064
0.0022899
0.00161191
0.000949081
0.000906224
0.000658964
0.000458177
0.000927375
0.00105488
0.00100171
0.00062001
0.000321676
0.000340394
0.000470246
0.000665564
0.000876167
0.0010742
0.00123637
0.00136039
0.00149258
0.00168445
0.00159273
0.00162895
0.000465077
0.00171182
0.00382218
0.0016003
0.00287031
0.003476
0.00372491
0.00393282
0.00411618
0.00426475
0.00436508
0.00442188
0.00440895
0.00428288
0.00397926
0.00344488
0.00272228
0.00186174
0.000991131
0.000781017
0.00200346
0.00173148
0.00135768
0.00085999
0.000306083
0.000321375
0.00035781
0.000395191
0.000434287
0.000476589
0.000525203
0.000585281
0.000666541
0.00172558
0.00149414
0.00116483
0.000647021
0.00215842
0.00581895
0.00202554
0.00286394
0.00407939
0.00442727
0.00464165
0.00483021
0.00499805
0.005139
0.00526269
0.00537092
0.00542626
0.00535574
0.00504584
0.00437383
0.00327553
0.00195062
0.00106175
0.0025534
0.00242193
0.00193769
0.00140422
0.000984116
0.000673971
0.000672608
0.000673615
0.00067792
0.000687961
0.000706327
0.000735793
0.000780615
0.000856363
0.00263276
0.00292211
0.0027134
0.000932953
0.00256629
0.00789713
0.00297382
0.00257441
0.0041047
0.00460384
0.00482303
0.00499508
0.00514978
0.00529804
0.00548179
0.0057336
0.0060339
0.00633926
0.00657847
0.00667541
0.00657326
0.00624118
0.00574804
0.00553053
0.00509455
0.00464597
0.00428025
0.00397354
0.00371989
0.00353734
0.00336056
0.0031974
0.00306919
0.00299714
0.00299155
0.00304849
0.0031584
0.00333795
0.00340084
0.00329341
0.0028386
0.00125802
0.00113352
0.00101349
0.002943
0.0096985
0.00468317
0.00270597
0.00352096
0.00418474
0.00452067
0.00472928
0.00485956
0.00495279
0.00514637
0.00545421
0.00587043
0.00637438
0.00690888
0.00739286
0.00773685
0.00784225
0.00766973
0.00732045
0.00689385
0.00648539
0.0061329
0.00582285
0.00552741
0.00521999
0.00488398
0.00452547
0.00417551
0.00388068
0.00367513
0.00355622
0.00348982
0.00343113
0.00334879
0.00322596
0.0029691
0.00247253
0.00191544
0.00102909
0.00328198
0.0109477
0.00734232
0.00423387
0.00317945
0.00339938
0.00391578
0.00431333
0.00447951
0.00454515
0.00469086
0.00492089
0.00526526
0.00575285
0.00636757
0.00703386
0.00763168
0.00802699
0.00814379
0.0080223
0.0077714
0.0074845
0.00721071
0.0069588
0.00671494
0.00645413
0.00614712
0.00576734
0.00531147
0.00482179
0.00437199
0.00400538
0.00371418
0.00345707
0.0031886
0.00286739
0.00246066
0.00201088
0.00158285
0.00100218
0.0033396
0.0106739
0.0087631
0.00710668
0.00528023
0.00427778
0.00412765
0.00433414
0.00442961
0.00444235
0.00447365
0.00455085
0.00470157
0.00496812
0.00539473
0.00598763
0.00666763
0.00728165
0.00768495
0.00783973
0.00782768
0.00772592
0.00759111
0.00745478
0.00732941
0.00721335
0.00708953
0.00691959
0.00665051
0.00625232
0.00576628
0.00523471
0.00469361
0.00415694
0.00363623
0.00311832
0.00258123
0.00216253
0.00186346
0.00119787
0.00321785
0.00378122
0.00602175
0.00645858
0.00597967
0.00533195
0.00485083
0.00456973
0.00440078
0.00431264
0.0042798
0.00428215
0.00431848
0.00440723
0.00458608
0.00490129
0.00536896
0.00592487
0.00644183
0.00682506
0.00705988
0.00717543
0.0072138
0.00721313
0.00720378
0.00720972
0.00724733
0.00731665
0.00738661
0.00738552
0.00725184
0.00701226
0.00674239
0.0065131
0.00621048
0.00559276
0.00460509
0.00358854
0.0034086
0.00135224
0.0111407
0.0120844
0.00800576
0.00650348
0.00567614
0.00515088
0.00479685
0.00454243
0.00435297
0.00421429
0.00411957
0.00407007
0.00407641
0.00415914
0.00434297
0.00463656
0.00500871
0.00539533
0.00573651
0.00600108
0.00618707
0.00631058
0.00639584
0.00646986
0.00655984
0.00668826
0.00685844
0.00702959
0.00716258
0.00720437
0.00713407
0.00696518
0.00666347
0.00611166
0.00531381
0.00432217
0.00360173
0.00132224
0.00489788
0.0110744
0.00818282
0.00671504
0.00582266
0.00521194
0.0047767
0.00446074
0.00420552
0.00400734
0.00386816
0.00378933
0.00377242
0.00382001
0.00393527
0.00411858
0.00436008
0.00462936
0.00488455
0.00510302
0.00527437
0.00539929
0.00548532
0.00554285
0.00558252
0.00561417
0.00564737
0.00569246
0.00574115
0.00577206
0.00575692
0.00566326
0.00533927
0.00479165
0.00400201
0.00304301
0.0025936
0.00120707
0.00182134
0.00254584
0.00375892
0.00351873
0.00307349
0.00269387
0.00238481
0.00213563
0.00193144
0.00176068
0.00162135
0.00150554
0.00140823
0.00132667
0.00125941
0.00120573
0.00116531
0.00113787
0.00112274
0.001119
0.0011244
0.00113376
0.00114325
0.00115067
0.00115526
0.00115718
0.00115712
0.00115603
0.00115504
0.00115534
0.00115641
0.00115593
0.0011494
0.00113052
0.00110595
0.00107265
0.0010225
0.000949312
0.000938612
0.00113213
)
;

boundaryField
{
    floor
    {
        type            nutkWallFunction;
        Cmu             0.09;
        kappa           0.41;
        E               9.8;
        value           nonuniform List<scalar> 
36
(
0.000104728
3.79906e-05
4.24023e-05
4.4451e-05
3.67999e-05
2.78626e-05
2.22729e-05
2.13618e-05
2.36632e-05
2.74409e-05
3.17146e-05
3.57561e-05
3.85848e-05
3.98359e-05
4.19025e-05
4.51739e-05
4.89767e-05
5.12827e-05
4.42463e-05
4.42462e-05
5.5243e-05
7.81987e-05
0.00011281
0.000150694
0.000136335
0.000122322
0.000104728
0.000114717
0.00010963
7.9673e-05
3.79905e-05
7.96729e-05
5.4351e-05
0.000119683
9.46031e-05
0.00012797
)
;
    }
    ceiling
    {
        type            nutkWallFunction;
        Cmu             0.09;
        kappa           0.41;
        E               9.8;
        value           nonuniform List<scalar> 
43
(
0.000214003
0.000292334
0.000418562
0.000393918
0.000347801
0.000307952
0.000275083
0.000248259
0.000226031
0.000207249
0.000191778
0.000178808
0.000167825
0.000158555
0.000150861
0.000144688
0.000140019
0.000136838
0.00013508
0.000134643
0.000135269
0.000136356
0.000137456
0.000138316
0.000138848
0.00013907
0.000139063
0.000138937
0.000138821
0.000138856
0.000138979
0.000138924
0.000138167
0.000135978
0.000133121
0.00012924
0.000123367
0.000114739
0.000113473
0.000136164
0.000362844
0.000420796
0.000533333
)
;
    }
    sWall
    {
        type            nutkWallFunction;
        Cmu             0.09;
        kappa           0.41;
        E               9.8;
        value           uniform 0.000214052;
    }
    nWall
    {
        type            nutkWallFunction;
        Cmu             0.09;
        kappa           0.41;
        E               9.8;
        value           nonuniform List<scalar> 6(0.000122326 0.00012416 0.000120996 0.00015804 0.000144832 0.000136173);
    }
    sideWalls
    {
        type            empty;
    }
    glass1
    {
        type            nutkWallFunction;
        Cmu             0.09;
        kappa           0.41;
        E               9.8;
        value           nonuniform List<scalar> 9(8.43814e-05 0.000148137 0.000202071 0.00025103 0.000294794 0.000334563 0.000369899 0.000375878 0.000363273);
    }
    glass2
    {
        type            nutkWallFunction;
        Cmu             0.09;
        kappa           0.41;
        E               9.8;
        value           nonuniform List<scalar> 2(0.000143807 0.000161497);
    }
    sun
    {
        type            nutkWallFunction;
        Cmu             0.09;
        kappa           0.41;
        E               9.8;
        value           nonuniform List<scalar> 
14
(
8.4419e-05
8.60633e-05
7.58949e-05
7.83487e-05
8.13427e-05
8.42326e-05
8.69908e-05
8.9671e-05
9.23693e-05
9.52378e-05
9.77968e-05
9.99587e-05
0.00010177
0.00010341
)
;
    }
    Table_master
    {
        type            nutkWallFunction;
        Cmu             0.09;
        kappa           0.41;
        E               9.8;
        value           nonuniform List<scalar> 9(3.4238e-05 3.63079e-05 4.11951e-05 4.61435e-05 5.12559e-05 5.67232e-05 6.29327e-05 7.05105e-05 8.0613e-05);
    }
    Table_slave
    {
        type            nutkWallFunction;
        Cmu             0.09;
        kappa           0.41;
        E               9.8;
        value           nonuniform List<scalar> 9(8.15246e-05 8.13565e-05 8.14805e-05 8.20109e-05 8.32464e-05 8.55009e-05 8.91033e-05 9.45505e-05 0.000103674);
    }
    inlet
    {
        type            calculated;
        value           uniform 0.0111407;
    }
    outlet
    {
        type            calculated;
        value           nonuniform List<scalar> 2(0.00182134 0.00254584);
    }
}


// ************************************************************************* //
