/*--------------------------------*- C++ -*----------------------------------*\
  =========                 |
  \\      /  F ield         | OpenFOAM: The Open Source CFD Toolbox
   \\    /   O peration     | Website:  https://openfoam.org
    \\  /    A nd           | Version:  6
     \\/     M anipulation  |
\*---------------------------------------------------------------------------*/
FoamFile
{
    version     2.0;
    format      ascii;
    class       surfaceScalarField;
    location    "900";
    object      phi;
}
// * * * * * * * * * * * * * * * * * * * * * * * * * * * * * * * * * * * * * //

dimensions      [1 0 -1 0 0 0 0];

internalField   nonuniform List<scalar> 
850
(
-0.00232844
0.00238939
-0.00241481
8.65258e-05
-0.00255373
0.000139078
-0.00276241
0.000208835
-0.00297785
0.000215594
-0.00316765
0.00018995
-0.00331172
0.000144219
-0.00339344
8.18662e-05
-0.00339684
3.56079e-06
-0.00330413
-9.25656e-05
-0.00309683
-0.000207149
-0.00275754
-0.000339139
-0.00224869
-0.000508702
-0.00143335
-0.000815187
-0.00143165
-0.000764106
0.000769931
-0.00077476
1.07826e-05
-0.000572823
-0.000201808
-0.000421925
-0.000150765
-0.000239369
-0.000182422
5.79161e-06
-0.000245025
0.000202743
-0.000196816
0.000343542
-0.000140662
0.000457335
-0.000113655
0.000553881
-9.64073e-05
0.000634645
-8.06238e-05
0.000683215
-4.8431e-05
0.000686486
-3.13306e-06
0.000676764
9.85894e-06
0.00068679
-9.89243e-06
0.00074264
-5.57152e-05
0.000751932
-9.1498e-06
0.000757182
-0.00168558
0.00423077
-0.00216024
0.000561345
-0.00246054
0.000439528
-0.00271193
0.000460386
-0.00294341
0.000447228
-0.00314485
0.000391542
-0.00330386
0.000303384
-0.00340833
0.000186484
-0.00344651
4.19008e-05
-0.00340982
-0.000129105
-0.00329168
-0.000325141
-0.00308087
-0.000549801
-0.00276578
-0.00082364
-0.00241837
-0.00116244
-0.00244717
-0.0014027
-0.00113837
-0.00130576
0.000239188
-0.00137432
0.000249633
0.000934521
-0.000150963
0.000770853
0.000174572
0.000322645
0.00024652
2.59638e-05
0.000146036
-0.000223876
6.75414e-05
-0.000156
-0.000312758
-0.000128194
-0.000224478
-0.000124417
-0.000144294
-0.000138025
-9.98996e-05
-0.000167811
-6.6471e-05
-0.000218442
-2.98405e-05
-0.000287901
2.11825e-05
-0.000360123
6.9242e-05
-0.000401576
5.14622e-05
-0.000303956
-0.000107362
-5.47527e-05
-0.000304764
1.42604e-05
-7.80021e-05
0.000784845
-0.00124183
0.00570192
-0.00186652
0.00118619
-0.00223129
0.000804447
-0.00249878
0.000728035
-0.00272805
0.000676653
-0.00292277
0.000586414
-0.00307837
0.000459136
-0.00318823
0.000296497
-0.00324549
9.93154e-05
-0.00324564
-0.000128802
-0.00318964
-0.000380984
-0.00308406
-0.00065523
-0.00295168
-0.000955871
-0.00285249
-0.00126148
-0.00277292
-0.00148213
-0.00247445
-0.00160408
-0.00210019
-0.00174843
-0.00184287
-0.0006147
0.000476959
-0.000707428
0.000267423
-0.000622749
0.000161963
-0.000520613
4.40222e-05
-0.000324906
-0.000128048
-0.000637355
-0.000861519
-0.0010055
-0.00110509
-0.00117124
-0.00120076
-0.00117926
-0.0011097
-0.00105791
-0.000924636
-0.000240471
-0.00121947
-9.74553e-06
-0.00128166
-1.56179e-05
-0.000481759
-0.000921608
0.00691252
-0.00159483
0.00185957
-0.00195001
0.00115978
-0.00220984
0.000988018
-0.00241741
0.000884383
-0.00258337
0.000752533
-0.00271145
0.000587362
-0.00280105
0.000386254
-0.00284937
0.000147792
-0.00285493
-0.000123091
-0.00282773
-0.000408032
-0.00279079
-0.000692019
-0.00277672
-0.000969788
-0.00281734
-0.0012207
-0.00289284
-0.00140647
-0.00297016
-0.00152662
-0.00314544
-0.001573
-0.00371398
-0.00127418
-0.00305094
-0.000653902
-0.00241311
-0.000160737
-0.00217648
3.09332e-05
-0.00204059
2.62214e-05
-0.00196476
-3.16655e-05
-0.00198132
-0.000111332
-0.00185054
-0.000130788
-0.00169503
-0.000155511
-0.00152315
-0.000171884
-0.00134408
-0.000179074
-0.00116192
-0.000182173
-0.000974137
-0.000187791
-0.0007694
-0.000204749
-0.000527537
-0.000241877
-0.000222534
-0.000305019
-1.9342e-05
-0.000443509
0.000383702
-0.000412623
0.0006376
-0.000269337
0.000167207
-0.000684399
0.00793675
-0.00137533
0.00255066
-0.00165484
0.00143944
-0.00188472
0.00121806
-0.00205536
0.00105518
-0.00217069
0.000868022
-0.00224273
0.000659562
-0.00227871
0.000422382
-0.00227945
0.000148691
-0.00224744
-0.00015495
-0.00220391
-0.000451406
-0.00218074
-0.000715034
-0.00220592
-0.000944451
-0.00229175
-0.00113472
-0.00242355
-0.00127452
-0.00259305
-0.00135695
-0.0028269
-0.001339
-0.00299621
-0.00110472
-0.00291941
-0.000730551
-0.00267338
-0.000406616
-0.00241889
-0.000223409
-0.00222641
-0.000166114
-0.00208436
-0.000173563
-0.00198682
-0.000208726
-0.00187879
-0.000238665
-0.00176946
-0.000264691
-0.00165814
-0.000283054
-0.00154356
-0.000293504
-0.00142541
-0.000300174
-0.00130059
-0.000312459
-0.00116004
-0.000345159
-0.000985652
-0.000416113
-0.000748173
-0.000542348
-0.00046621
-0.000725318
3.82851e-05
-0.00091696
0.000820684
-0.00105157
0.00201658
-0.0010285
0.00276172
-0.000737278
0.00232255
0.000447778
0.00236804
-0.000643434
0.00896478
-0.00130292
0.00321029
-0.00133303
0.00146971
-0.00147863
0.00136382
-0.00162377
0.00120048
-0.0016788
0.000923204
-0.00166846
0.000649381
-0.00161944
0.000373516
-0.00153612
6.55311e-05
-0.00143278
-0.000258137
-0.00134848
-0.00053555
-0.00131425
-0.000749098
-0.00134817
-0.000910374
-0.0014515
-0.00103124
-0.00161082
-0.00111504
-0.00181279
-0.00115483
-0.00203423
-0.0011174
-0.00217946
-0.000959337
-0.00219147
-0.000718391
-0.00209796
-0.000499968
-0.00196694
-0.000354274
-0.00184902
-0.000283888
-0.00175784
-0.000264588
-0.00169357
-0.00027284
-0.00164349
-0.000288601
-0.001604
-0.000304022
-0.0015736
-0.000313305
-0.00155213
-0.000314825
-0.00154007
-0.000312079
-0.00153654
-0.000315845
-0.00153647
-0.000345077
-0.00152822
-0.000424216
-0.00149424
-0.000576168
-0.00140767
-0.000811734
-0.00120105
-0.00112342
-0.00075616
-0.0014963
8.1052e-05
-0.00186556
0.00115103
-0.00180709
0.00148428
0.00011469
0.00389566
-0.000891307
0.0102817
-0.00105943
0.00337858
-0.000595945
0.00100639
-0.000647105
0.00141514
-0.000886516
0.00144005
-0.000931354
0.000968204
-0.000833547
0.000551734
-0.000679632
0.000219762
-0.000506396
-0.000107544
-0.000350594
-0.000413779
-0.000251718
-0.000634266
-0.000225158
-0.000775498
-0.000274536
-0.000860836
-0.000394764
-0.000910852
-0.000572951
-0.000936689
-0.000789768
-0.000937853
-0.00101001
-0.000896998
-0.00117633
-0.000792866
-0.00125388
-0.000640677
-0.00125892
-0.000494771
-0.00122692
-0.000386115
-0.00118942
-0.000321235
-0.00116271
-0.000291142
-0.00115261
-0.000282785
-0.00115824
-0.000282815
-0.00118013
-0.000281981
-0.00122102
-0.000272259
-0.00128702
-0.000248675
-0.001387
-0.000211943
-0.00153014
-0.000172557
-0.00172069
-0.000154373
-0.00195305
-0.00019171
-0.00221381
-0.000315255
-0.0024805
-0.000544883
-0.00271574
-0.000888035
-0.00285839
-0.00135349
-0.00281683
-0.00190696
-0.0023517
-0.00227206
-0.000820879
-0.00141597
0.00312682
0.00164715
0.00911106
0.00219226
0.00283362
0.00206162
0.00113719
0.00149569
0.00198124
0.00100725
0.00192866
0.000817746
0.00115787
0.000812204
0.000557443
0.000908916
0.000123216
0.00103512
-0.000233588
0.0011058
-0.000484289
0.00110966
-0.000637967
0.00105589
-0.000721563
0.000952411
-0.000757196
0.000802694
-0.000760973
0.000610213
-0.000744046
0.000385072
-0.000712548
0.000152899
-0.000664664
-4.60851e-05
-0.00059372
-0.000182529
-0.000504072
-0.000261561
-0.000415579
-0.000305144
-0.000342373
-0.000334683
-0.000291536
-0.00036422
-0.000261446
-0.000400902
-0.000245944
-0.000446871
-0.000236686
-0.000503442
-0.000225251
-0.000573131
-0.000202411
-0.000662433
-0.000159214
-0.000784327
-8.98912e-05
-0.000959982
3.25243e-06
-0.00122793
0.000113725
-0.00163422
0.000214737
-0.002197
0.000247679
-0.00288878
0.000147048
-0.00366544
-0.00011122
-0.00455561
-0.000463175
-0.00571096
-0.000751453
-0.00696082
-0.00102205
-0.00643638
-0.00194025
-0.00308053
0.00963448
0.0124589
0.00981966
0.00377654
0.00695217
0.00484889
0.0055522
0.00332879
0.00469235
0.00201788
0.00410878
0.00114118
0.00367807
0.000554087
0.00330854
0.000136105
0.00298642
-0.000162005
0.00271103
-0.000362402
0.00246917
-0.000479546
0.00224615
-0.000534009
0.00202923
-0.000543882
0.00180883
-0.000523482
0.00158105
-0.000484601
0.00135278
-0.000436236
0.00114289
-0.000383662
0.000969805
-0.000330821
0.000836341
-0.000281952
0.000733698
-0.000239567
0.000649462
-0.000207139
0.000573419
-0.000185241
0.000499232
-0.000171596
0.00042453
-0.000161822
0.000349658
-0.000150217
0.000277153
-0.000129744
0.000210902
-9.28002e-05
0.000154771
-3.35966e-05
0.000107937
5.02478e-05
6.65716e-05
0.000155251
2.78711e-05
0.000253596
-1.89705e-05
0.000294678
-0.00010634
0.000234576
-0.000273197
5.57913e-05
-0.00052734
-0.000208881
-0.000890691
-0.000387957
-0.00136152
-0.000551071
-0.00159121
-0.00171042
-0.00442527
0.000159531
0.00310286
0.00246065
0.00254793
0.0037036
0.00208601
0.0040989
0.00162275
0.00418795
0.00105229
0.00416789
0.000574317
0.00407053
0.000233634
0.00391405
-5.35413e-06
0.00371865
-0.000166836
0.00350304
-0.000263764
0.00328036
-0.000311165
0.00305802
-0.000321373
0.00284013
-0.000305423
0.00262897
-0.000273274
0.00242692
-0.000234014
0.00223847
-0.000195047
0.00206895
-0.000161133
0.00191975
-0.000132586
0.00178811
-0.000107755
0.00167068
-8.955e-05
0.00156372
-7.81192e-05
0.00146418
-7.18888e-05
0.0013706
-6.80771e-05
0.00128358
-6.30356e-05
0.00120641
-5.24056e-05
0.00114523
-3.14545e-05
0.00110719
4.60582e-06
0.00110059
5.70208e-05
0.00113214
0.000123861
0.00120215
0.000183755
0.00129983
0.00019716
0.00141378
0.000120788
0.001523
-5.32722e-05
0.00163945
-0.000325167
0.00189144
-0.000639786
0.0023496
-0.00100907
0.00219655
-0.00155722
-0.00216971
-0.000409869
0.00350114
0.00171322
0.000425028
0.00284311
0.000956298
0.00354834
0.000917701
0.0040047
0.000596102
0.00425258
0.000326608
0.00434631
0.000140079
0.00433088
1.02499e-05
0.00422917
-6.49494e-05
0.00407492
-0.000109337
0.00389191
-0.000127988
0.0036978
-0.000127087
0.003505
-0.000112449
0.00332107
-8.91785e-05
0.00314921
-6.19826e-05
0.0029895
-3.5165e-05
0.00284073
-1.21948e-05
0.00270313
5.18819e-06
0.00257934
1.62019e-05
0.00246955
2.04046e-05
0.00237184
1.97472e-05
0.00228383
1.62907e-05
0.00220383
1.20793e-05
0.00213196
9.00534e-06
0.00207086
8.85574e-06
0.00202612
1.34478e-05
0.00200593
2.4962e-05
0.00201589
4.72323e-05
0.00206592
7.4003e-05
0.00215646
9.33796e-05
0.00227143
8.23591e-05
0.00237865
1.37281e-05
0.00244131
-0.000115762
0.00242811
-0.000311808
0.0024049
-0.000616411
0.00255806
-0.00116206
0.00263014
-0.00162914
0.000530225
0.00351021
-0.00258729
0.000897917
0.00130802
0.00224909
0.00315067
0.0037295
0.0040376
0.0041579
0.00414711
0.00405996
0.00392736
0.00377517
0.00362304
0.00348488
0.00336948
0.00328099
0.00321927
0.00318071
0.00315995
0.00315082
0.00314659
0.00314242
0.00313549
0.00312501
0.00311212
0.00309971
0.00309254
0.00309758
0.00312564
0.00318124
0.00325698
0.00332235
0.0033195
0.00318745
0.00285949
0.00222683
0.00104815
-0.000596765
)
;

boundaryField
{
    floor
    {
        type            calculated;
        value           nonuniform List<scalar> 
36
(
0
0
0
0
0
0
0
0
0
0
0
0
0
0
0
0
0
0
0
-5.11093e-06
-1.32706e-05
-1.48709e-05
-1.11886e-05
-7.68875e-06
-8.42484e-06
-9.21723e-06
-1.55687e-06
-2.89758e-06
-3.09423e-06
-4.0902e-06
-5.69895e-06
-6.21179e-06
-1.35027e-05
-7.54364e-06
-1.31003e-05
-8.99388e-06
)
;
    }
    ceiling
    {
        type            calculated;
        value           nonuniform List<scalar> 
43
(
3.70886e-05
2.53016e-05
1.6168e-05
1.51403e-05
1.54348e-05
1.63077e-05
1.7457e-05
1.86958e-05
1.99599e-05
2.1225e-05
2.2383e-05
2.34383e-05
2.4388e-05
2.52152e-05
2.58939e-05
2.63926e-05
2.66797e-05
2.67313e-05
2.65407e-05
2.61167e-05
2.55021e-05
2.47999e-05
2.40814e-05
2.33829e-05
2.27135e-05
2.20659e-05
2.14248e-05
2.07715e-05
2.00852e-05
1.93436e-05
1.85626e-05
1.77992e-05
1.71528e-05
1.67442e-05
1.6457e-05
1.63164e-05
1.64108e-05
1.678e-05
1.59336e-05
1.37437e-05
1.22275e-05
9.358e-06
1.18077e-05
)
;
    }
    sWall
    {
        type            calculated;
        value           uniform -0.000155312;
    }
    nWall
    {
        type            calculated;
        value           nonuniform List<scalar> 6(-3.60975e-05 -4.31757e-05 -5.1864e-05 -5.88512e-05 -6.96359e-05 -8.01342e-05);
    }
    sideWalls
    {
        type            empty;
        value           nonuniform 0();
    }
    glass1
    {
        type            calculated;
        value           nonuniform List<scalar> 9(-6.08031e-05 -0.000155663 -0.000229174 -0.000288845 -0.000339694 -0.000384465 -0.000425488 -0.000476363 -0.000535516);
    }
    glass2
    {
        type            calculated;
        value           nonuniform List<scalar> 2(-0.000228863 -0.000246322);
    }
    sun
    {
        type            calculated;
        value           uniform 0;
    }
    Table_master
    {
        type            calculated;
        value           nonuniform List<scalar> 9(-1.54483e-07 -1.54372e-07 -1.54255e-07 -1.54153e-07 -1.54061e-07 -1.53977e-07 -1.53898e-07 -1.53812e-07 -1.53697e-07);
    }
    Table_slave
    {
        type            calculated;
        value           nonuniform List<scalar> 9(1.5259e-07 1.52634e-07 1.52681e-07 1.52732e-07 1.52784e-07 1.52835e-07 1.52888e-07 1.52949e-07 1.53007e-07);
    }
    inlet
    {
        type            calculated;
        value           uniform 0.00051438;
    }
    outlet
    {
        type            calculated;
        value           nonuniform List<scalar> 2(-0.00339158 0.00607254);
    }
}


// ************************************************************************* //
