/*--------------------------------*- C++ -*----------------------------------*\
  =========                 |
  \\      /  F ield         | OpenFOAM: The Open Source CFD Toolbox
   \\    /   O peration     | Website:  https://openfoam.org
    \\  /    A nd           | Version:  6
     \\/     M anipulation  |
\*---------------------------------------------------------------------------*/
FoamFile
{
    version     2.0;
    format      ascii;
    class       surfaceScalarField;
    location    "1400";
    object      phi;
}
// * * * * * * * * * * * * * * * * * * * * * * * * * * * * * * * * * * * * * //

dimensions      [1 0 -1 0 0 0 0];

internalField   nonuniform List<scalar> 
850
(
-0.00250305
0.00256493
-0.00282122
0.000318204
-0.00323677
0.000415595
-0.00366435
0.000427619
-0.00405155
0.000387249
-0.00437569
0.000324175
-0.00461905
0.000243403
-0.00476278
0.00014377
-0.0047854
2.26638e-05
-0.00466047
-0.000124892
-0.00436108
-0.000299349
-0.00386653
-0.000494516
-0.00313495
-0.000731534
-0.00199051
-0.0011444
-0.00198867
-0.00042522
0.000428648
-0.000174072
-0.000251102
0.000257119
-0.000431146
0.000668017
-0.000410853
0.000927135
-0.00025907
0.000767026
0.000160162
0.000347934
0.000419168
4.29296e-05
0.000305244
-5.01807e-05
9.32062e-05
-8.06657e-05
3.05422e-05
-5.90222e-05
-2.15863e-05
6.82624e-06
-6.57848e-05
0.000106806
-9.9916e-05
0.000240095
-0.000133228
0.000386099
-0.000145943
0.000541078
-0.000154918
0.000603688
-6.25478e-05
0.000608601
-0.00184445
0.00457187
-0.00248664
0.000960431
-0.00305059
0.000979584
-0.003524
0.000901076
-0.00393576
0.000799052
-0.00428298
0.000671432
-0.00455425
0.000514717
-0.00473409
0.000323642
-0.00480509
9.37136e-05
-0.00475351
-0.000176441
-0.00456897
-0.000483848
-0.00423943
-0.000824009
-0.00376021
-0.00121072
-0.00325137
-0.0016532
-0.00333106
-0.00190893
-0.00166087
-0.00166668
0.000133578
-0.00179078
0.000145404
0.000623892
-0.000186494
0.000417454
-4.46197e-05
0.000223342
-0.00023699
0.000379746
-0.000567214
0.000671114
-0.000550393
0.000677541
0.000153786
0.000743966
0.00035281
0.00078908
0.000260226
0.000756123
0.000126247
0.000722613
6.41305e-05
0.000677165
2.39418e-05
0.000634392
-2.29342e-05
0.000610819
-7.62706e-05
0.000605391
-0.000127732
0.000621707
-0.000162195
0.000704375
-0.000237521
0.000575359
6.65338e-05
0.0011954
-0.00137344
0.00618812
-0.0021218
0.00170883
-0.00268788
0.00154571
-0.00313366
0.00134689
-0.00352294
0.00118838
-0.00385868
0.00100721
-0.00413153
0.000787612
-0.0043276
0.000519753
-0.00443131
0.00019746
-0.00442949
-0.000178214
-0.00431534
-0.000597962
-0.00409594
-0.00104336
-0.00381409
-0.00149253
-0.00357508
-0.00189217
-0.00337547
-0.00210851
-0.00287857
-0.00216353
-0.0024165
-0.00225282
-0.00226217
-0.00065852
0.0004832
-0.000718905
1.58056e-05
-0.000581683
-0.000374172
-0.000358757
-0.000790101
0.000274459
-0.00118357
0.00042845
0.000781473
0.00104192
0.00116838
0.00123273
0.00125689
0.00123418
0.00115813
0.00103063
0.000645168
0.000223335
-8.92967e-05
0.000497022
-0.00061707
0.000594371
0.000595887
-0.00103118
0.00752712
-0.00178284
0.00246053
-0.00221412
0.00197703
-0.00257257
0.00170538
-0.00289737
0.00151322
-0.00318755
0.00129743
-0.00343503
0.00103513
-0.00362694
0.0007117
-0.00374589
0.000316449
-0.00377306
-0.000151004
-0.00370337
-0.000667612
-0.00356239
-0.0011843
-0.00340498
-0.0016499
-0.00328888
-0.00200823
-0.0031907
-0.00220664
-0.00307996
-0.00227424
-0.00310556
-0.00222718
-0.00362033
-0.00174736
-0.00267413
-0.000935425
-0.00180633
-0.000384561
-0.00140976
-0.000380724
-0.001141
-0.000642893
-0.0010157
-0.000915371
-0.00120193
-0.000997305
-0.00049129
-0.000710753
0.000100231
-0.000591638
0.000585407
-0.000485293
0.00102417
-0.000438885
0.00144703
-0.000422977
0.00185084
-0.000403927
0.00219364
-0.000342919
0.00238677
-0.000193245
0.00230328
8.33706e-05
0.00204046
0.000486188
0.00159917
0.000938353
0.000934218
0.00125937
0.00154788
-0.000771489
0.00866032
-0.00147663
0.00316571
-0.00166836
0.00216881
-0.00189524
0.00193229
-0.00212466
0.00174268
-0.00233484
0.00150766
-0.00251886
0.00121919
-0.00266865
0.000861533
-0.00276882
0.000416658
-0.00279254
-0.000127237
-0.00273205
-0.000728067
-0.00262802
-0.00128829
-0.00253163
-0.00174626
-0.0024738
-0.00206602
-0.00244556
-0.00223484
-0.0024514
-0.00226836
-0.002533
-0.00214554
-0.00252858
-0.00175175
-0.00222438
-0.00123959
-0.00173556
-0.000873335
-0.00133126
-0.000784992
-0.00107982
-0.000894297
-0.000940917
-0.00105424
-0.000811231
-0.00112696
-0.000447095
-0.00107485
-4.38857e-05
-0.000994812
0.000343957
-0.000873099
0.000710841
-0.000805734
0.00107724
-0.000789344
0.00144372
-0.000770371
0.00179242
-0.000691578
0.00208439
-0.000485181
0.00225472
-8.69329e-05
0.0022757
0.000465241
0.00219406
0.00102003
0.00200979
0.00144367
0.00216246
0.00139525
0.000844363
0.00133522
-0.000775669
0.00163749
-0.000709839
-0.000702254
0.00976995
-0.00131205
0.00377554
-0.00109541
0.00195221
-0.00109323
0.00193015
-0.00122817
0.00187766
-0.00135103
0.00163056
-0.00144131
0.00130951
-0.00150551
0.000925773
-0.00154129
0.000452479
-0.00151877
-0.000149712
-0.001441
-0.000805798
-0.00136166
-0.00136759
-0.0013185
-0.00178939
-0.00132429
-0.00206018
-0.00137105
-0.00218805
-0.00145502
-0.00218435
-0.00155565
-0.00204487
-0.00155464
-0.00175272
-0.00140054
-0.00139365
-0.00115563
-0.00111821
-0.00094098
-0.000999612
-0.000810698
-0.00102454
-0.000735637
-0.00112927
-0.000627259
-0.0012353
-0.000417693
-0.00128439
-0.000182366
-0.0012301
6.11224e-05
-0.00111655
0.000318272
-0.00106285
0.000590584
-0.00106162
0.000885543
-0.0010653
0.00120439
-0.00101039
0.00154045
-0.000821207
0.00186621
-0.000412662
0.00211063
0.000220848
0.00229086
0.000839837
0.00246386
0.00127071
0.00250611
0.00135304
0.00235951
0.00148185
0.002148
0.00184904
0.00149958
-0.000908714
0.0111265
-0.00102968
0.00389655
-0.000201795
0.00112436
7.80633e-05
0.00165033
-2.99135e-05
0.00198567
-0.000140428
0.00174111
-0.000158841
0.00132796
-0.000120569
0.00088754
-3.92006e-05
0.00037115
6.67727e-05
-0.000255646
0.000153008
-0.000891994
0.000181713
-0.00139626
0.000140476
-0.00174811
3.58658e-05
-0.00195554
-0.000114986
-0.00203717
-0.000290961
-0.00200834
-0.000455923
-0.00187987
-0.000547622
-0.00166099
-0.000541788
-0.00139945
-0.000483581
-0.00117638
-0.000437953
-0.00104521
-0.000441888
-0.00102058
-0.000476972
-0.00109415
-0.000481877
-0.00123037
-0.000414367
-0.00135186
-0.000327891
-0.00131654
-0.000243735
-0.00120067
-0.000142208
-0.00116434
-1.52572e-05
-0.00118854
0.000144165
-0.00122468
0.000349769
-0.00121596
0.000626196
-0.0010976
0.000997525
-0.000783959
0.0013955
-0.000177095
0.00174662
0.000488749
0.0020701
0.000947261
0.00232447
0.00109869
0.00262286
0.0011835
0.00264016
0.00183178
0.00420197
0.00204513
0.00958069
0.00252118
0.00342054
0.00273018
0.000915396
0.00252623
0.00185433
0.0021731
0.00233884
0.00193453
0.00197972
0.00183713
0.0014254
0.0018467
0.000878011
0.00194751
0.000270387
0.00205622
-0.000364317
0.00206055
-0.000896288
0.00195389
-0.00128956
0.00175832
-0.0015525
0.00150338
-0.00170056
0.0012155
-0.00174925
0.000920233
-0.00171304
0.000646091
-0.0016057
0.000427297
-0.00144217
0.000279175
-0.0012513
0.000178484
-0.00107566
8.36819e-05
-0.000950375
-3.9833e-05
-0.000897033
-0.00019575
-0.000938206
-0.000338488
-0.0010876
-0.000413022
-0.0012773
-0.000470598
-0.00125893
-0.000547884
-0.00112335
-0.000623225
-0.00108896
-0.000691831
-0.0011199
-0.000750035
-0.00116644
-0.000782358
-0.0011836
-0.0007542
-0.00112573
-0.000594287
-0.00094384
-0.000172655
-0.000598696
0.000311953
4.17116e-06
0.000688143
0.000571103
0.00100409
0.000782773
0.00136084
0.000826788
0.00105064
0.00214201
0.00552537
0.0101274
0.0135396
0.0122023
0.00225272
0.00986357
0.0041931
0.00816095
0.00404149
0.00696199
0.00317872
0.0061178
0.00226962
0.00556881
0.00142704
0.00515419
0.00068504
0.00472997
5.99377e-05
0.00427714
-0.000443417
0.00381052
-0.000822905
0.00333955
-0.0010815
0.00287246
-0.00123344
0.0024191
-0.00129586
0.00199135
-0.00128526
0.00160285
-0.00121717
0.00126803
-0.00110731
0.000992438
-0.000975677
0.000763512
-0.000846705
0.000555849
-0.000742683
0.000340382
-0.000681538
8.84511e-05
-0.000686249
-0.000185702
-0.000813424
-0.000385815
-0.00107716
-0.000565757
-0.00107895
-0.00080163
-0.000887435
-0.00106116
-0.000829396
-0.00134588
-0.000835141
-0.00167013
-0.000842164
-0.00204963
-0.000804064
-0.00249779
-0.000677537
-0.00302088
-0.000420717
-0.00361778
-1.76418e-06
-0.00420863
0.000595051
-0.00494726
0.00130977
-0.00617459
0.00201014
-0.00776608
0.00241831
-0.00742052
0.00179648
-0.0015947
0.00304181
0.00355808
0.00404952
0.0031854
0.00531403
0.00277701
0.00569798
0.0027948
0.00572573
0.0022419
0.00567157
0.00148123
0.00555562
0.000801028
0.00534163
0.000273961
0.00501652
-0.000118284
0.00460046
-0.000406808
0.00412782
-0.000608833
0.00362999
-0.000735578
0.00313242
-0.000798251
0.00265531
-0.000808122
0.00221429
-0.000776123
0.0018203
-0.00071329
0.00147666
-0.000632014
0.00117606
-0.000546076
0.000901784
-0.000468378
0.000630734
-0.000410461
0.000335032
-0.000390521
-1.23698e-05
-0.000465999
-0.000303496
-0.000786004
-0.00055277
-0.000829635
-0.00089186
-0.000548307
-0.00124938
-0.000471842
-0.00162127
-0.000463209
-0.00201385
-0.000449555
-0.00242195
-0.000395926
-0.00282298
-0.000276474
-0.00318153
-6.21395e-05
-0.00347586
0.000292607
-0.00369358
0.000812797
-0.00384574
0.00146197
-0.00393274
0.00209717
-0.00383405
0.00231966
-0.00235685
0.000319301
-0.00387226
-0.000475266
0.00407567
0.00121695
0.00149319
0.00228728
0.0017067
0.00318944
0.00189266
0.0039241
0.00150727
0.00442558
0.000979781
0.00467732
0.000549316
0.00471832
0.000232984
0.00459263
7.43917e-06
0.00433814
-0.000152291
0.00399215
-0.000262813
0.00358995
-0.000333349
0.00316189
-0.000370159
0.00273291
-0.000379117
0.00232261
-0.000365795
0.00194485
-0.000335503
0.00160657
-0.0002937
0.00130658
-0.000246066
0.00103602
-0.00019779
0.000779337
-0.000153746
0.00051378
-0.000124938
0.000205256
-0.000157451
-0.000150922
-0.000429804
-0.000464461
-0.000516059
-0.000789231
-0.000223499
-0.00109376
-0.000167276
-0.00138404
-0.000172889
-0.00166024
-0.000173321
-0.00190868
-0.000147455
-0.0021033
-8.18178e-05
-0.00221132
4.59109e-05
-0.00218569
0.000267016
-0.00198332
0.000610462
-0.00157196
0.00105064
-0.000755889
0.00128114
0.000709445
0.000854361
0.00147667
-0.000447889
-0.00230854
-0.0065041
-0.00869779
-0.0045907
-0.00308484
-0.00137034
0.000527012
0.00203699
0.00301869
0.00356951
0.00380377
0.00381238
0.00366116
0.00339932
0.00306686
0.00269751
0.00231914
0.00195403
0.00161918
0.00132612
0.00108073
0.000883694
0.000730852
0.000607048
0.000451055
2.31312e-05
-0.000491051
-0.000713245
-0.000879662
-0.00105201
-0.00122502
-0.00137233
-0.00145411
-0.00140826
-0.00114137
-0.000531082
0.000519311
0.0018001
0.00265403
0.00220566
)
;

boundaryField
{
    floor
    {
        type            calculated;
        value           nonuniform List<scalar> 
36
(
0
0
0
0
0
0
0
0
0
0
0
0
0
0
0
0
0
0
0
-4.8505e-06
-1.13739e-05
-1.74977e-05
-1.77353e-05
-1.70909e-05
-1.74193e-05
-1.58445e-05
-1.80728e-06
-3.47077e-06
-3.62975e-06
-4.68346e-06
-3.38209e-06
-7.10173e-06
-8.70548e-06
-8.8807e-06
-1.11329e-05
-1.07313e-05
)
;
    }
    ceiling
    {
        type            calculated;
        value           nonuniform List<scalar> 
43
(
-3.46944e-05
-3.30797e-05
-3.14137e-05
-1.26504e-05
-7.78038e-06
-4.67087e-06
-2.67929e-06
-1.89476e-06
-1.47104e-06
-1.24585e-06
-1.14206e-06
-1.04302e-06
-9.4849e-07
-8.60567e-07
-7.81061e-07
-7.12251e-07
-6.57526e-07
-6.22115e-07
-6.13883e-07
-6.43905e-07
-7.26195e-07
-8.75942e-07
-1.1071e-06
-1.43367e-06
-1.85627e-06
-1.84483e-06
-1.2695e-06
-8.22674e-07
-5.03435e-07
-2.77171e-07
-1.15272e-07
2.8913e-09
9.06656e-08
1.56402e-07
2.11883e-07
2.81652e-07
3.81757e-07
4.6491e-07
5.1244e-07
1.25752e-06
1.156e-05
8.34752e-06
-4.23264e-05
)
;
    }
    sWall
    {
        type            calculated;
        value           uniform -0.000238301;
    }
    nWall
    {
        type            calculated;
        value           nonuniform List<scalar> 6(-4.99535e-05 -6.13922e-05 -6.21979e-05 -7.92459e-05 -8.70236e-05 -0.000104097);
    }
    sideWalls
    {
        type            empty;
        value           nonuniform 0();
    }
    glass1
    {
        type            calculated;
        value           nonuniform List<scalar> 9(-6.18333e-05 -0.000162459 -0.000242772 -0.000307782 -0.000361674 -0.000407333 -0.000447814 -0.000499283 -0.000558194);
    }
    glass2
    {
        type            calculated;
        value           nonuniform List<scalar> 2(-0.000272722 -0.000300419);
    }
    sun
    {
        type            calculated;
        value           uniform 0;
    }
    Table_master
    {
        type            calculated;
        value           nonuniform List<scalar> 9(-1.5366e-07 -1.53603e-07 -1.53562e-07 -1.53554e-07 -1.53559e-07 -1.53573e-07 -1.53595e-07 -1.53626e-07 -1.53673e-07);
    }
    Table_slave
    {
        type            calculated;
        value           nonuniform List<scalar> 9(1.53325e-07 1.53528e-07 1.53521e-07 1.53367e-07 1.53218e-07 1.53078e-07 1.52961e-07 1.52898e-07 1.52905e-07);
    }
    inlet
    {
        type            calculated;
        value           uniform -0.00434718;
    }
    outlet
    {
        type            calculated;
        value           nonuniform List<scalar> 2(0.00677711 0.00222679);
    }
}


// ************************************************************************* //
