/*--------------------------------*- C++ -*----------------------------------*\
  =========                 |
  \\      /  F ield         | OpenFOAM: The Open Source CFD Toolbox
   \\    /   O peration     | Website:  https://openfoam.org
    \\  /    A nd           | Version:  6
     \\/     M anipulation  |
\*---------------------------------------------------------------------------*/
FoamFile
{
    version     2.0;
    format      ascii;
    class       volVectorField;
    location    "1400";
    object      U;
}
// * * * * * * * * * * * * * * * * * * * * * * * * * * * * * * * * * * * * * //

dimensions      [0 1 -1 0 0 0 0];

internalField   nonuniform List<vector> 
458
(
(0.087752 0.0693164 0)
(-0.138727 0.00581767 0)
(-0.13003 0.00888345 0)
(-0.14926 0.00850787 0)
(-0.167037 0.00666442 0)
(-0.182534 0.00420387 0)
(-0.194914 0.00125653 0)
(-0.203443 -0.00222699 0)
(-0.207331 -0.00636226 0)
(-0.205532 -0.0113284 0)
(-0.196265 -0.0176198 0)
(-0.176656 -0.0257839 0)
(-0.145245 -0.0375021 0)
(-0.112154 -0.0563091 0)
(-0.11244 -0.0828173 0)
(0.0297195 0.00554261 0)
(-0.0166059 -0.0112485 0)
(-0.000467485 -0.0158631 0)
(0.0187473 -0.0157715 0)
(0.0335697 -0.00970253 0)
(0.0397311 0.000794696 0)
(0.0312097 0.010858 0)
(0.00508014 0.00771196 0)
(-0.00484236 -0.00268998 0)
(-0.00371586 -0.00334492 0)
(-0.00265177 -0.00376116 0)
(-0.00106542 -0.0045024 0)
(0.00295163 -0.00558701 0)
(0.00791191 -0.00692194 0)
(0.0133946 -0.008112 0)
(0.0201217 -0.0100409 0)
(0.0335202 -0.00642378 0)
(-0.0302441 0.0156499 0)
(0.286254 0.150571 0)
(-0.159336 0.0270028 0)
(-0.117505 0.0303846 0)
(-0.142332 0.0294323 0)
(-0.161455 0.0266971 0)
(-0.177963 0.0229481 0)
(-0.191419 0.0182104 0)
(-0.201311 0.0123082 0)
(-0.206956 0.00500358 0)
(-0.207415 -0.00396951 0)
(-0.201876 -0.0145067 0)
(-0.18951 -0.0265662 0)
(-0.17142 -0.041257 0)
(-0.153904 -0.0603644 0)
(-0.141117 -0.0765811 0)
(-0.108326 -0.0597059 0)
(-0.0558486 -0.0632366 0)
(-0.0236271 0.0689758 0)
(0.102276 0.00752818 0)
(0.0246124 0.000447147 0)
(0.00440733 -0.00921377 0)
(0.0092684 -0.0192258 0)
(0.0180298 -0.0177219 0)
(0.0334861 0.00629839 0)
(0.0335646 0.0175269 0)
(0.0308482 0.0146732 0)
(0.0331781 0.00819932 0)
(0.0327524 0.00435455 0)
(0.0304278 0.00165833 0)
(0.0279624 -0.00100813 0)
(0.0266958 -0.00356898 0)
(0.02623 -0.00611186 0)
(0.0266592 -0.00720241 0)
(0.0297827 -0.011498 0)
(0.0420903 -0.00757642 0)
(-0.0666812 0.0339388 0)
(0.45631 0.230493 0)
(-0.203508 0.056746 0)
(-0.0952413 0.0541794 0)
(-0.126077 0.0483566 0)
(-0.14401 0.0425155 0)
(-0.15981 0.0355364 0)
(-0.173053 0.027024 0)
(-0.183342 0.0167102 0)
(-0.190035 0.0044474 0)
(-0.192197 -0.00966621 0)
(-0.189061 -0.0254801 0)
(-0.181145 -0.0426215 0)
(-0.170243 -0.0606673 0)
(-0.159734 -0.0783636 0)
(-0.148763 -0.0897416 0)
(-0.130798 -0.0886643 0)
(-0.117565 -0.0960662 0)
(-0.139141 -0.0953149 0)
(0.0494956 0.0141586 0)
(-0.0366963 0.00186251 0)
(-0.0290953 -0.0122009 0)
(-0.0198271 -0.0301642 0)
(-0.0170752 -0.0425569 0)
(0.0265772 -0.00326552 0)
(0.0304057 0.0103435 0)
(0.0381722 0.00916255 0)
(0.0472202 0.00524774 0)
(0.0523578 0.00237048 0)
(0.0542504 0.000263509 0)
(0.0541217 -0.00159111 0)
(0.0520271 -0.00345139 0)
(0.0471186 -0.00433993 0)
(0.039907 0.00634025 0)
(0.030126 0.0123546 0)
(-0.0166271 0.0232994 0)
(-0.143851 0.0412735 0)
(0.596949 0.297398 0)
(-0.252383 0.0903475 0)
(-0.066148 0.0765789 0)
(-0.103687 0.0661778 0)
(-0.118335 0.0585071 0)
(-0.131703 0.0498286 0)
(-0.143435 0.0392666 0)
(-0.153126 0.0263148 0)
(-0.16011 0.010638 0)
(-0.163318 -0.00773058 0)
(-0.161555 -0.0280515 0)
(-0.1564 -0.0489124 0)
(-0.149715 -0.0685695 0)
(-0.143736 -0.0846932 0)
(-0.138337 -0.0938227 0)
(-0.133131 -0.0952673 0)
(-0.13523 -0.0914378 0)
(-0.14891 -0.0651893 0)
(-0.138105 0.00189532 0)
(-0.0886418 0.0033688 0)
(-0.0737987 -0.00779899 0)
(-0.0539723 -0.0231169 0)
(-0.0468997 -0.0374234 0)
(-0.0476674 -0.0437783 0)
(-0.0391138 -0.0295834 0)
(-0.0121519 -0.0253448 0)
(0.0169888 -0.0207491 0)
(0.034969 -0.0180368 0)
(0.0530933 -0.0164472 0)
(0.0708568 -0.0150919 0)
(0.0870109 -0.0128585 0)
(0.0991736 -0.0085525 0)
(0.104235 -0.00185201 0)
(0.0969016 0.0139318 0)
(0.0820974 0.031016 0)
(0.0689349 0.040685 0)
(-0.0719991 0.0473399 0)
(0.708975 0.352473 0)
(-0.296185 0.12424 0)
(-0.0348982 0.0921497 0)
(-0.0766258 0.0793912 0)
(-0.0871155 0.0706746 0)
(-0.0965565 0.060894 0)
(-0.105177 0.0488924 0)
(-0.11264 0.0339183 0)
(-0.118431 0.0154377 0)
(-0.121238 -0.00656136 0)
(-0.11923 -0.0305821 0)
(-0.11504 -0.053856 0)
(-0.110445 -0.0738231 0)
(-0.10705 -0.0885328 0)
(-0.10513 -0.0967038 0)
(-0.104993 -0.0991487 0)
(-0.108047 -0.0965242 0)
(-0.110632 -0.0824981 0)
(-0.103648 -0.0511747 0)
(-0.0858405 -0.0307816 0)
(-0.0659572 -0.0270469 0)
(-0.0511468 -0.0341843 0)
(-0.0435439 -0.0428002 0)
(-0.0381345 -0.046376 0)
(-0.0277494 -0.0398943 0)
(-0.0116758 -0.0364265 0)
(0.00707228 -0.0313308 0)
(0.0228799 -0.0281434 0)
(0.0384171 -0.0269086 0)
(0.0540749 -0.0256117 0)
(0.0693935 -0.0220021 0)
(0.083307 -0.0134423 0)
(0.0947604 0.00236908 0)
(0.0998349 0.0231914 0)
(0.0980638 0.0442193 0)
(0.101995 0.0598382 0)
(0.063944 0.0644018 0)
(0.104781 0.111661 0)
(0.0443011 0.1347 0)
(-0.337153 0.0499366 0)
(0.781053 0.401299 0)
(-0.33072 0.153176 0)
(-0.0115774 0.0938435 0)
(-0.0435264 0.0878009 0)
(-0.0506464 0.0793024 0)
(-0.0562392 0.0681527 0)
(-0.0607668 0.0550329 0)
(-0.0643986 0.0389346 0)
(-0.0672151 0.0187834 0)
(-0.0672327 -0.00605115 0)
(-0.0632019 -0.0333385 0)
(-0.0592682 -0.0579268 0)
(-0.0565846 -0.0770866 0)
(-0.0559222 -0.0898245 0)
(-0.0573132 -0.0960501 0)
(-0.0605953 -0.0963712 0)
(-0.0653013 -0.0907282 0)
(-0.0681357 -0.0773095 0)
(-0.0648572 -0.058814 0)
(-0.0556947 -0.0448728 0)
(-0.045041 -0.0400342 0)
(-0.0372996 -0.0425977 0)
(-0.0332683 -0.048185 0)
(-0.0297451 -0.0523266 0)
(-0.0229466 -0.0522296 0)
(-0.013238 -0.0493759 0)
(-0.00276064 -0.044457 0)
(0.00833794 -0.0417484 0)
(0.0194401 -0.0413497 0)
(0.0314524 -0.0409742 0)
(0.0443315 -0.0379522 0)
(0.0580944 -0.0290308 0)
(0.0726894 -0.0107754 0)
(0.0874439 0.0161207 0)
(0.0958295 0.0420353 0)
(0.105558 0.0610272 0)
(0.102247 0.0625019 0)
(0.112611 0.0651616 0)
(0.117542 0.0777261 0)
(-0.0950963 0.0271708 0)
(0.802052 0.445448 0)
(-0.343887 0.149037 0)
(0.00590334 0.053985 0)
(0.00946591 0.0869177 0)
(0.0015014 0.0922065 0)
(-0.00555003 0.0751296 0)
(-0.00766365 0.0576258 0)
(-0.00738341 0.0400907 0)
(-0.006525 0.0186611 0)
(0.000223076 -0.0095506 0)
(0.00693357 -0.0386613 0)
(0.0093692 -0.0616932 0)
(0.00859945 -0.078088 0)
(0.00502501 -0.0881287 0)
(-0.000983297 -0.0924477 0)
(-0.00854353 -0.0915574 0)
(-0.0164819 -0.0858115 0)
(-0.022556 -0.0750174 0)
(-0.0245245 -0.0618009 0)
(-0.0227306 -0.0508321 0)
(-0.0198941 -0.0451556 0)
(-0.0186895 -0.0450323 0)
(-0.0197359 -0.0490318 0)
(-0.0210141 -0.0545332 0)
(-0.0196387 -0.0583304 0)
(-0.0161103 -0.0564695 0)
(-0.0122802 -0.0516264 0)
(-0.00825811 -0.049765 0)
(-0.00347431 -0.0504203 0)
(0.00254972 -0.0516393 0)
(0.00984367 -0.0507281 0)
(0.0192437 -0.0446091 0)
(0.031616 -0.0292191 0)
(0.0515109 -0.000778098 0)
(0.0698304 0.0290069 0)
(0.0841803 0.0495111 0)
(0.0934916 0.0547945 0)
(0.106941 0.0565684 0)
(0.144502 0.0750686 0)
(-0.0582603 0.122677 0)
(0.899277 0.462875 0)
(-0.124709 0.130791 0)
(0.0818021 -0.0250827 0)
(0.130947 0.0245737 0)
(0.108434 0.0617945 0)
(0.086143 0.0574341 0)
(0.0781923 0.0407984 0)
(0.0774171 0.0229616 0)
(0.0791993 0.00107633 0)
(0.0875739 -0.0228248 0)
(0.0913062 -0.0441454 0)
(0.0885754 -0.0612112 0)
(0.0813482 -0.0732721 0)
(0.0711187 -0.0803382 0)
(0.059004 -0.0828503 0)
(0.0460536 -0.0813788 0)
(0.0333633 -0.076393 0)
(0.0223062 -0.0683036 0)
(0.0142182 -0.0585685 0)
(0.00911374 -0.0497321 0)
(0.00540845 -0.0438358 0)
(0.00115027 -0.0418563 0)
(-0.00487614 -0.0444948 0)
(-0.0118543 -0.0510755 0)
(-0.0164442 -0.0579098 0)
(-0.0190022 -0.0567827 0)
(-0.0217348 -0.0514904 0)
(-0.0250413 -0.0501207 0)
(-0.0281454 -0.0515671 0)
(-0.0309861 -0.0537542 0)
(-0.0332803 -0.0546824 0)
(-0.0341932 -0.0523573 0)
(-0.0324612 -0.0448109 0)
(-0.0252444 -0.0304766 0)
(0.00972295 -0.00659293 0)
(0.0244093 0.0134758 0)
(0.0360248 0.014757 0)
(0.0542546 0.0106036 0)
(0.133286 0.0705556 0)
(-0.411504 0.225672 0)
(1.03136 0.430092 0)
(0.488108 0.282997 0)
(0.497745 0.197559 0)
(0.486491 0.178065 0)
(0.400295 0.161134 0)
(0.322097 0.129142 0)
(0.275528 0.0927091 0)
(0.248213 0.0585073 0)
(0.231206 0.0273528 0)
(0.214329 -0.00146179 0)
(0.194927 -0.0259506 0)
(0.174827 -0.0444168 0)
(0.154459 -0.0567761 0)
(0.13406 -0.0637932 0)
(0.114 -0.0664109 0)
(0.0947727 -0.065481 0)
(0.0769361 -0.061747 0)
(0.0611188 -0.0559381 0)
(0.0478646 -0.0490708 0)
(0.0371339 -0.0424724 0)
(0.0280594 -0.0373378 0)
(0.0193407 -0.034574 0)
(0.00976328 -0.0352193 0)
(-0.00232966 -0.041379 0)
(-0.0123757 -0.0509749 0)
(-0.0203358 -0.0505428 0)
(-0.0290951 -0.0440011 0)
(-0.0397439 -0.0422827 0)
(-0.0513691 -0.0432477 0)
(-0.0643733 -0.0444176 0)
(-0.0794018 -0.0435851 0)
(-0.0971231 -0.0383884 0)
(-0.11849 -0.0262611 0)
(-0.143848 -0.00527629 0)
(-0.169706 0.0239316 0)
(-0.192954 0.0542565 0)
(-0.23221 0.0842807 0)
(-0.276924 0.112646 0)
(-0.345438 0.136333 0)
(-0.641946 0.150622 0)
(-0.538386 0.00479559 0)
(0.183076 0.142006 0)
(0.249127 0.155524 0)
(0.240833 0.136709 0)
(0.241871 0.105042 0)
(0.244113 0.0699448 0)
(0.242462 0.0379141 0)
(0.236354 0.0117708 0)
(0.224721 -0.00878921 0)
(0.208315 -0.0240904 0)
(0.188798 -0.0347239 0)
(0.167538 -0.0413053 0)
(0.145756 -0.0444477 0)
(0.124464 -0.0447561 0)
(0.104445 -0.0428248 0)
(0.0862806 -0.0392634 0)
(0.0703176 -0.0347753 0)
(0.0565161 -0.0301492 0)
(0.0443544 -0.026107 0)
(0.0329162 -0.0232756 0)
(0.0210132 -0.0225079 0)
(0.0074513 -0.0258998 0)
(-0.0060554 -0.037658 0)
(-0.0186288 -0.0385099 0)
(-0.0310375 -0.0299055 0)
(-0.0458485 -0.0275663 0)
(-0.0615398 -0.0274684 0)
(-0.0780743 -0.0269677 0)
(-0.0955482 -0.0244011 0)
(-0.113358 -0.0184088 0)
(-0.130203 -0.0076012 0)
(-0.143813 0.00957484 0)
(-0.154382 0.0332027 0)
(-0.162344 0.0607132 0)
(-0.166624 0.08134 0)
(-0.156987 0.0732721 0)
(-0.143594 -0.00665882 0)
(-0.284596 -0.200016 0)
(-0.243843 0.186395 0)
(0.115851 0.126714 0)
(0.0891478 0.108987 0)
(0.116231 0.106439 0)
(0.151642 0.0861795 0)
(0.179628 0.0577582 0)
(0.19703 0.0323888 0)
(0.203963 0.0131139 0)
(0.202382 -0.000547621 0)
(0.193938 -0.0101974 0)
(0.180581 -0.0168342 0)
(0.16404 -0.0210324 0)
(0.14577 -0.0231894 0)
(0.12697 -0.0236556 0)
(0.108611 -0.0227615 0)
(0.0914274 -0.0208316 0)
(0.0758904 -0.0182105 0)
(0.0621474 -0.0152487 0)
(0.0499859 -0.0122283 0)
(0.0388571 -0.00935274 0)
(0.0278389 -0.00715261 0)
(0.0158733 -0.00853049 0)
(0.00460297 -0.0238348 0)
(-0.0151806 -0.0279708 0)
(-0.027803 -0.0139955 0)
(-0.0405826 -0.0113992 0)
(-0.0534436 -0.0118099 0)
(-0.065888 -0.0118296 0)
(-0.0776346 -0.0103297 0)
(-0.0875324 -0.00650069 0)
(-0.0936066 0.000836816 0)
(-0.0946512 0.0134469 0)
(-0.0889444 0.0331903 0)
(-0.0755561 0.0584818 0)
(-0.0556917 0.0817619 0)
(-0.0311307 0.0877654 0)
(0.132701 0.0129222 0)
(-0.217009 -0.118682 0)
(-0.00975749 -0.28729 0)
(-0.359804 -0.0927548 0)
(-0.293422 0.0991389 0)
(-0.141953 0.0338755 0)
(-0.0992999 0.042284 0)
(-0.0199239 0.0596339 0)
(0.0584071 0.0475725 0)
(0.107234 0.0298767 0)
(0.141894 0.0154912 0)
(0.160783 0.00509693 0)
(0.166291 -0.00227002 0)
(0.163006 -0.00741745 0)
(0.153594 -0.0110457 0)
(0.140269 -0.0135164 0)
(0.124705 -0.0150485 0)
(0.108212 -0.0158301 0)
(0.0918597 -0.0160572 0)
(0.0765026 -0.0159601 0)
(0.0627744 -0.015844 0)
(0.0510683 -0.0161276 0)
(0.0415301 -0.017357 0)
(0.0340703 -0.0201918 0)
(0.0282771 -0.0254202 0)
(0.0230769 -0.0342973 0)
(0.0170957 -0.0491688 0)
(-0.0145038 -0.0499185 0)
(-0.0278101 -0.0295725 0)
(-0.0341266 -0.0187039 0)
(-0.0415678 -0.0128841 0)
(-0.0495778 -0.00908895 0)
(-0.0572462 -0.00581726 0)
(-0.0625188 -0.00211508 0)
(-0.0623364 0.00295203 0)
(-0.053795 0.0107017 0)
(-0.0342785 0.0228409 0)
(-0.00119746 0.0417102 0)
(0.0458988 0.0563247 0)
(0.0892296 0.04801 0)
(0.16308 0.0156093 0)
(-0.202705 -0.0495944 0)
)
;

boundaryField
{
    floor
    {
        type            noSlip;
    }
    ceiling
    {
        type            noSlip;
    }
    sWall
    {
        type            noSlip;
    }
    nWall
    {
        type            noSlip;
    }
    sideWalls
    {
        type            empty;
    }
    glass1
    {
        type            noSlip;
    }
    glass2
    {
        type            noSlip;
    }
    sun
    {
        type            noSlip;
    }
    Table_master
    {
        type            noSlip;
    }
    Table_slave
    {
        type            noSlip;
    }
    inlet
    {
        type            fixedValue;
        value           uniform (0.212132 -0.212132 0);
    }
    outlet
    {
        type            zeroGradient;
    }
}


// ************************************************************************* //
