/*--------------------------------*- C++ -*----------------------------------*=========                 |
  \      /  F ield         | OpenFOAM: The Open Source CFD Toolbox
   \    /   O peration     | Website:  https://openfoam.org
    \  /    A nd           | Version:  6
     \/     M anipulation  |
\*---------------------------------------------------------------------------*/
FoamFile
{
    version     2.0;
    format      ascii;
    class       volScalarField;
    location    "2900";
    object      PPD;
}
// * * * * * * * * * * * * * * * * * * * * * * * * * * * * * * * * * * * * * //

dimensions      [0 0 0 0 0 0 0];

internalField   nonuniform List<scalar> 
458
(
24.153179010811613
14.473729961378268
13.407337162844115
12.500298518130194
11.908497980492626
11.56086352842756
11.43156656404473
11.561260639054737
11.956067105986676
12.734377798427559
14.056745950571667
16.18015043724732
19.497548554030743
19.924357344581068
21.101672003987716
26.575908890654503
25.81397935049867
25.69480684491468
26.093253283192
26.394338044695203
25.918974361189584
25.28350720917696
25.153013296317965
25.209466234616585
25.325891699244252
25.473028643171688
25.659696699373484
25.888105264381622
26.257724465391803
26.907519893932985
28.02327108079777
28.5758408820207
29.4015980703916
20.50333890294047
15.064024386103043
14.761358586060766
13.812407798648067
13.234343219963662
12.892574614836036
12.752754354448939
12.834815756246115
13.079659216504538
13.52455123897576
14.30728560272992
15.662271060681391
17.85344506846438
19.619995376163445
20.128964484747144
20.421144673304497
20.429980974246163
19.83615347530879
24.393386207967794
25.18199446936771
25.280156079220447
25.177039878007577
24.97207404714223
24.905901186431123
24.91949423612992
25.001660814299413
25.05686228691694
25.087750587270946
25.125691156614764
25.201424666624675
25.293600315042866
25.464948550753505
25.928305406133035
27.084405582391824
27.78308609734094
27.14115640713328
21.37515926131006
14.846009040717476
16.090013379321036
15.542060846468274
15.304452363134203
15.151323124359052
15.090894262450377
15.137274187412103
15.034351603428632
14.734849472905694
14.499652996878126
14.83514425791013
16.11926318136493
18.66980390725807
20.094769059913915
20.455697283375017
20.698615269374073
20.580101479576314
19.37288606337539
21.826644570877292
22.6632461605476
23.46968708046022
24.192696285684377
24.313026969041687
25.30217767749471
26.054837889218447
26.35318487547363
26.423584662378474
26.43297596976079
26.417351585467472
26.30351093272185
25.978524901203016
25.985797262782597
26.885622652763004
26.26168839411322
23.429835894783935
24.281314759390483
14.67831651568136
17.093062984268926
17.454128024051812
18.12178301303186
18.6733834252817
19.044541663076032
19.05226229033505
18.00140491899404
16.136424043231372
14.436201188889967
13.840526704218078
14.673945202012533
16.844134805686906
19.714373621166928
20.855745213069625
20.957354039632932
19.527061422325886
17.287662018254053
18.798104973756722
20.850285639194468
22.775362959190858
24.70124371518716
26.682626719000183
28.262951488148232
28.197179465585407
28.112626991140374
28.2422201995863
28.449781613580583
28.663828505755447
29.067375801234377
29.817612262692265
31.13005555980766
30.222298430099215
28.620676501193373
25.464594653112258
21.70887194224737
28.375512803119932
15.072585395398235
18.03435831067587
19.30785673459414
21.46020354618433
23.9706405358818
25.89360002847765
24.896113958402026
20.946609468657385
16.88571213209694
13.964804827594861
12.938165276510176
13.617210952061441
15.717936911882788
18.70182795656831
21.386894484208113
21.701602348925633
20.602688370179663
20.40154059105309
21.469205101066862
23.450268932651554
25.87974945069297
28.348739869114098
30.78967455446181
32.507761470468765
33.49268536881732
33.727013334901
33.85988633944794
33.8633577711618
33.78458073448432
33.5855948757909
33.4476954130004
33.264820734215775
31.88178416547987
29.555302571022423
25.157532097680573
24.965241591422895
21.924625530791317
21.48412802379677
21.282267057996435
32.981124934124935
16.356962035885275
20.242600709305123
21.42730792026829
24.239025635988156
26.15331644630409
27.80379647900351
26.363476881821356
20.804147707926603
16.19238867159875
13.16559489079404
12.10962027447755
12.909794548491249
15.349553417869927
18.95364976798703
22.657527441250238
24.059360169121717
24.68592193101371
25.30856778706834
26.87942896683323
29.147553046629184
31.023178748428677
32.687215523119335
34.116173530441046
35.269500308964
36.13342458574068
36.76926019478181
37.21935272677091
37.45710518910904
37.52854536199336
37.338155369985515
36.958509246478386
35.640975729493434
33.57358243148707
30.911826208140596
26.877321345494096
26.17608073586466
26.864609780714403
25.587005073866905
22.50746662060267
38.0118154331567
20.108754164294027
28.247983358668463
25.628748829231014
25.200594262151043
26.29566645189908
25.696745845992055
22.664114309096604
18.319312077761424
14.199078546786609
11.680937753281967
11.162357757445733
12.639632139195456
16.037324143647922
21.006355286853577
25.162388303387004
26.8393895248264
28.136280928236047
29.486976241249508
31.023178748428677
32.70967951410387
34.34550656221465
35.78213772802697
36.958509246478386
37.81482895010658
38.38986617241548
38.75090112407268
38.94395738449994
38.99227564941591
38.8715205444827
38.582263640792185
38.054031218468374
37.361933587615106
36.326422404309405
33.33914946164846
29.711661045130754
27.891173088218494
27.31588253490135
24.51901944483268
23.446692160889
45.92006227296987
38.45776997078582
36.22334787261034
29.53930503735488
27.232190542899758
25.86165418623206
23.327031870637043
19.02241112414282
14.265167718489664
10.884087106451915
9.572321531867317
10.326679113065353
13.354272139093922
18.849050592798463
25.319481692110784
28.470858748637937
30.56476487442316
32.038892635707796
33.38689604538128
34.80618347618682
36.22733887743938
37.480912737286815
38.51007302193353
39.234189202969574
39.69528320323765
39.91435102428917
39.987465767106464
39.91435102428917
39.76825953561271
39.525186474872434
39.18576372717947
38.75090112407268
38.10194000089825
37.26685606724414
36.32135248216848
35.24627254310943
34.55248130470429
34.431026149012624
27.110954120223667
21.242666788411313
58.45109647127665
51.65311725756966
43.03657960129332
34.95067569421677
28.60028307855238
23.446021568828
17.538543533816522
11.212330298647558
7.717745127943601
6.746966004106142
7.54123180912859
10.778038543272586
17.57418839108766
24.713861531541113
29.894242615412708
32.86712718440833
34.66770094523888
35.92248273972855
37.10069812834004
38.1978254359083
38.76625941794464
39.04178103101588
39.10206490831318
38.99842584409392
38.76589910849562
38.42939875598019
37.968466836704685
37.411585676382586
36.754895325721876
36.01488494271223
35.18853160713758
34.27338463804546
33.329085269671594
32.38670128032966
31.20589138809953
29.941019099477387
28.922789971812335
28.27081644644265
27.548882184365198
25.95539012576934
100.0
98.98050337536858
85.64855771002799
61.02187298984615
39.16137993582759
20.000040865478084
8.10457907625738
5.0943378940238375
10.118313046794356
17.937633310717644
26.374206013190545
31.21028391747143
32.91855797941295
34.21145460213256
35.22731565498941
36.11914465984436
36.87278452058759
37.38392624836789
37.69230830119144
37.77337016064149
37.68365132042024
37.45731074498664
37.09744522773177
36.65303050141667
36.08680649942751
35.47764533169102
34.85375515679809
34.23738048746921
33.732313057053375
33.36550106655052
33.07380971300627
32.84661466040646
32.61895426496817
32.4618552423902
32.65512251462533
34.06297327955309
38.91495496146447
34.32322684393739
98.94333076802609
80.00595483384274
40.965076916313194
15.408463924453997
5.857451543181469
5.7779859179692465
9.704219943922539
14.662807476936479
19.844128419044452
24.677628088994013
28.587182686174174
31.23258165988257
33.01712181590524
34.23133535184748
35.083275714046465
35.7076542016908
36.13766466646982
36.40624256290405
36.56436654041333
36.57786153246865
36.44504911698905
36.244176286323935
35.95951585349485
35.64921172151897
35.34932544006685
35.02689921719366
34.77239295083207
34.55924369156318
34.48122669794678
34.500139154019934
34.698788513907346
35.126431855659376
35.753611417434755
36.34619832006401
37.131903527224715
40.12878155134367
35.93873683377247
43.29496524286848
73.49560801866215
73.57425512907334
68.2657945918967
25.99745952685639
8.893343020094932
5.00328679702038
7.8216849076408295
13.327577320558646
18.744410428388235
23.174895995960597
26.783896608915654
29.626302880958377
31.713212595584835
33.08072373156622
33.90841712013663
34.36945242768864
34.556009652597936
34.52488886631909
34.32711001128483
34.046657522887486
33.74671448475965
33.444473317307555
33.113245260655916
32.802578291323826
32.51618525909592
32.26444457351691
32.064885570594114
31.96688558668305
31.955484869012608
32.1249814176894
32.48946967132713
33.09830072237102
34.04514970519551
35.66442598252782
38.53668748585236
42.32529423902156
42.69816855358708
35.76795284626685
33.9607323318201
32.68991589341283
)
;

boundaryField
{
    ".*"
    {
        type            zeroGradient;
    }
}


// ************************************************************************* //
