/*--------------------------------*- C++ -*----------------------------------*\
  =========                 |
  \\      /  F ield         | OpenFOAM: The Open Source CFD Toolbox
   \\    /   O peration     | Website:  https://openfoam.org
    \\  /    A nd           | Version:  6
     \\/     M anipulation  |
\*---------------------------------------------------------------------------*/
FoamFile
{
    version     2.0;
    format      ascii;
    class       volScalarField;
    location    "100";
    object      epsilon;
}
// * * * * * * * * * * * * * * * * * * * * * * * * * * * * * * * * * * * * * //

dimensions      [0 2 -3 0 0 0 0];

internalField   nonuniform List<scalar> 
458
(
0.000147123
0.000158576
0.000136816
0.00015443
0.000172335
0.000189291
0.000205295
0.000220671
0.000235959
0.000251991
0.000268551
0.000284005
0.00029891
0.000315305
0.000333923
0.000168185
0.000203244
0.000228482
0.000243116
0.000234008
0.000199194
0.000165026
0.000137972
0.000115842
9.75272e-05
8.22647e-05
6.94735e-05
5.86773e-05
4.94489e-05
4.13839e-05
3.40791e-05
3.00386e-05
2.30407e-05
0.000674579
0.00165115
0.000158031
0.000129817
0.000133663
0.000139632
0.00014693
0.00015672
0.000170169
0.000188357
0.000211381
0.00023834
0.000268119
0.000299091
0.000340954
0.000435032
0.000432143
0.000194202
0.000327327
0.000251732
0.000234118
0.000216276
0.000192925
0.000172077
0.000137893
0.00011332
9.32239e-05
7.62979e-05
6.22611e-05
5.07635e-05
4.14406e-05
3.42074e-05
2.98122e-05
2.80306e-05
8.42581e-05
5.38168e-05
0.0016193
0.00520634
0.000298603
0.000138705
0.000132679
0.000137131
0.000144569
0.000155307
0.000169716
0.000187994
0.000210107
0.000234486
0.000260591
0.000290261
0.000331847
0.00039986
0.000500523
0.000661874
0.00057327
0.000332028
0.000292263
0.000235667
0.000205571
0.000343443
0.000197104
0.000128551
9.31571e-05
7.25102e-05
5.90452e-05
4.96074e-05
4.28593e-05
3.85195e-05
3.29262e-05
3.1959e-05
0.000172192
8.90023e-05
0.0031236
0.0115199
0.00064213
0.000160745
0.000140082
0.000145721
0.000155237
0.000167927
0.000183785
0.000202953
0.000225673
0.000249089
0.000270767
0.000291481
0.00031687
0.000360626
0.000453564
0.000657432
0.000989982
0.000550593
0.000352363
0.000287904
0.000224628
0.000196483
0.000329064
0.000286183
0.000277844
0.0002772
0.000275387
0.000265798
0.00024346
0.000213124
0.000182523
0.000118871
7.96588e-05
0.000258888
0.000137869
0.00524353
0.0204903
0.00138251
0.000198821
0.000146827
0.000154654
0.000169536
0.000189111
0.000213002
0.000240882
0.000271976
0.000301579
0.000323609
0.000335917
0.000338916
0.00033662
0.000337141
0.000346304
0.000347699
0.000310243
0.000297941
0.000292478
0.00025768
0.000216099
0.000210153
0.000203715
0.000205175
0.000210159
0.000212855
0.000207783
0.000191287
0.000166406
0.000146555
0.00012335
9.8756e-05
0.000166004
0.000235003
0.000260853
0.000291611
0.000274113
0.00800459
0.0294749
0.00290363
0.000297823
0.000158616
0.00016247
0.000183414
0.000212801
0.000249434
0.000293248
0.000343274
0.000385828
0.000413036
0.000424495
0.000421311
0.000405546
0.000378439
0.000339834
0.000299283
0.000275758
0.000286329
0.00032135
0.000321254
0.000266478
0.000240405
0.000233459
0.00024023
0.000253363
0.000266501
0.000272128
0.000262255
0.000228255
0.000184678
0.000147672
0.000120242
0.000131057
0.000164362
0.000245009
0.000757022
0.00050361
0.0116837
0.0336984
0.00656794
0.00092342
0.000280451
0.000209079
0.000225945
0.000263841
0.000312796
0.000375728
0.000455719
0.000505554
0.000528767
0.000533504
0.000524314
0.000503211
0.000467489
0.00041361
0.000353202
0.000305104
0.000300353
0.000356887
0.000409119
0.00034072
0.000303126
0.000291944
0.000298762
0.0003169
0.000342236
0.00036746
0.000384984
0.000378519
0.000314444
0.000254821
0.000219814
0.000227334
0.000285003
0.000448977
0.00171138
0.00099755
0.0129544
0.0458475
0.0196939
0.00778117
0.00239462
0.000864405
0.000611091
0.000579227
0.000592187
0.000639546
0.000682349
0.000687464
0.000675228
0.000655688
0.000631987
0.000604212
0.000567914
0.000516963
0.000457646
0.000382634
0.000336993
0.000393367
0.000531276
0.000455402
0.000409558
0.000392455
0.000394467
0.000410545
0.000440628
0.000487626
0.000554273
0.000635851
0.000705752
0.000708342
0.000815423
0.00119045
0.00208286
0.00344897
0.0119435
0.00200657
0.0122992
0.0227285
0.0185264
0.0132015
0.00832023
0.00492244
0.00295672
0.00194086
0.00144483
0.00119336
0.00103517
0.000926921
0.0008485
0.000789913
0.000744199
0.000705657
0.000670273
0.000635403
0.000601474
0.000516107
0.000407073
0.000433139
0.000698712
0.000637733
0.000591229
0.000565844
0.000553078
0.000550086
0.000562617
0.000603343
0.00068846
0.000831784
0.00104176
0.00132268
0.00172527
0.00230634
0.00298156
0.00358125
0.00408163
0.00178969
0.00658559
0.00811862
0.00702919
0.00513201
0.00357953
0.00256346
0.00193818
0.0015499
0.00129472
0.00112717
0.00101434
0.000935381
0.000876956
0.000831245
0.000795448
0.000772201
0.000763029
0.00068721
0.000513876
0.000486278
0.000918132
0.000934963
0.00091867
0.000902096
0.000880417
0.000849888
0.000815784
0.000790676
0.00079566
0.000857379
0.00100143
0.00122608
0.00152361
0.00185719
0.00210705
0.0021066
0.00180221
0.00106846
0.00464571
0.0142909
0.00934737
0.00620931
0.00433613
0.00316814
0.00242565
0.00193332
0.00158438
0.00133036
0.00114239
0.00100187
0.000896871
0.000820265
0.000768976
0.000743245
0.000735743
0.00070327
0.000602153
0.00056269
0.00113888
0.00127139
0.00130369
0.00131494
0.00129182
0.00124495
0.00119166
0.00115073
0.00113985
0.00117429
0.00128139
0.00146717
0.00172286
0.00201215
0.00228295
0.00250533
0.00131894
0.00113147
0.00657162
0.006647
0.00685635
0.0102337
0.00755009
0.00483012
0.00379216
0.00311148
0.00262493
0.00225553
0.00196349
0.00172784
0.00152888
0.0013558
0.00120263
0.00106629
0.000945523
0.000840358
0.000751003
0.000673473
0.000597749
0.000570419
0.00072576
0.000772212
0.000788957
0.000797613
0.000799572
0.000802122
0.00081321
0.000840457
0.000893083
0.000985969
0.0011069
0.00126432
0.00145414
0.0016715
0.00183702
0.00174777
0.00138192
0.00109924
)
;

boundaryField
{
    floor
    {
        Cmu             0.09;
        kappa           0.41;
        E               9.8;
        type            epsilonWallFunction;
        value           nonuniform List<scalar> 
36
(
0.000333923
0.000168185
0.000203244
0.000228482
0.000243116
0.000234008
0.000199194
0.000165026
0.000137972
0.000115842
9.75272e-05
8.22647e-05
6.94735e-05
5.86773e-05
4.94489e-05
4.13839e-05
3.40791e-05
3.00386e-05
2.30407e-05
2.30407e-05
5.38168e-05
8.90023e-05
0.000137869
0.000260853
0.000291611
0.000274113
0.000333923
0.000435032
0.000432143
0.000194202
0.000168185
0.000194202
0.000327327
0.000661874
0.00057327
0.000989982
)
;
    }
    ceiling
    {
        Cmu             0.09;
        kappa           0.41;
        E               9.8;
        type            epsilonWallFunction;
        value           nonuniform List<scalar> 
43
(
0.00657162
0.006647
0.00685635
0.0102337
0.00755009
0.00483012
0.00379216
0.00311148
0.00262493
0.00225553
0.00196349
0.00172784
0.00152888
0.0013558
0.00120263
0.00106629
0.000945523
0.000840358
0.000751003
0.000673473
0.000597749
0.000570419
0.00072576
0.000772212
0.000788957
0.000797613
0.000799572
0.000802122
0.00081321
0.000840457
0.000893083
0.000985969
0.0011069
0.00126432
0.00145414
0.0016715
0.00183702
0.00174777
0.00138192
0.00109924
0.0122992
0.0227285
0.00464571
)
;
    }
    sWall
    {
        Cmu             0.09;
        kappa           0.41;
        E               9.8;
        type            epsilonWallFunction;
        value           uniform 0.00657162;
    }
    nWall
    {
        Cmu             0.09;
        kappa           0.41;
        E               9.8;
        type            epsilonWallFunction;
        value           nonuniform List<scalar> 6(0.000274113 0.00050361 0.00099755 0.00106846 0.00113147 0.00109924);
    }
    sideWalls
    {
        type            empty;
    }
    glass1
    {
        Cmu             0.09;
        kappa           0.41;
        E               9.8;
        type            epsilonWallFunction;
        value           nonuniform List<scalar> 9(0.000147123 0.000674579 0.0016193 0.0031236 0.00524353 0.00800459 0.0116837 0.0129544 0.0122992);
    }
    glass2
    {
        Cmu             0.09;
        kappa           0.41;
        E               9.8;
        type            epsilonWallFunction;
        value           nonuniform List<scalar> 2(0.00200657 0.00178969);
    }
    sun
    {
        Cmu             0.09;
        kappa           0.41;
        E               9.8;
        type            epsilonWallFunction;
        value           nonuniform List<scalar> 
14
(
0.000147123
0.000158576
0.000136816
0.00015443
0.000172335
0.000189291
0.000205295
0.000220671
0.000235959
0.000251991
0.000268551
0.000284005
0.00029891
0.000315305
)
;
    }
    Table_master
    {
        Cmu             0.09;
        kappa           0.41;
        E               9.8;
        type            epsilonWallFunction;
        value           nonuniform List<scalar> 9(0.000343443 0.000197104 0.000128551 9.31571e-05 7.25102e-05 5.90452e-05 4.96074e-05 4.28593e-05 3.85195e-05);
    }
    Table_slave
    {
        Cmu             0.09;
        kappa           0.41;
        E               9.8;
        type            epsilonWallFunction;
        value           nonuniform List<scalar> 9(0.000329064 0.000286183 0.000277844 0.0002772 0.000275387 0.000265798 0.00024346 0.000213124 0.000182523);
    }
    inlet
    {
        type            turbulentMixingLengthDissipationRateInlet;
        mixingLength    0.01;
        phi             phi;
        k               k;
        value           uniform 0.00129426;
    }
    outlet
    {
        type            zeroGradient;
    }
}


// ************************************************************************* //
