/*--------------------------------*- C++ -*----------------------------------*\
  =========                 |
  \\      /  F ield         | OpenFOAM: The Open Source CFD Toolbox
   \\    /   O peration     | Website:  https://openfoam.org
    \\  /    A nd           | Version:  6
     \\/     M anipulation  |
\*---------------------------------------------------------------------------*/
FoamFile
{
    version     2.0;
    format      ascii;
    class       volScalarField;
    location    "2100";
    object      nut;
}
// * * * * * * * * * * * * * * * * * * * * * * * * * * * * * * * * * * * * * //

dimensions      [0 2 -1 0 0 0 0];

internalField   nonuniform List<scalar> 
458
(
0.0011488
0.00126482
0.00129836
0.00136507
0.00142811
0.00148928
0.00155278
0.00160213
0.00163033
0.00163257
0.00160608
0.00154879
0.00145692
0.00131223
0.00103647
0.000504146
0.000606143
0.000706861
0.000745431
0.000734126
0.000684046
0.000629272
0.000580639
0.000538838
0.000502816
0.000471586
0.000444204
0.00042009
0.000398197
0.000377359
0.000355977
0.00033492
0.000299946
0.00153448
0.00394904
0.0038871
0.00455305
0.0052233
0.00585473
0.00631934
0.00672561
0.00706591
0.00731374
0.00744852
0.00745101
0.00729096
0.00687433
0.00566563
0.00137272
0.00112462
0.000880645
0.000502806
0.00131492
0.00198607
0.00247977
0.00259933
0.00182529
0.00151252
0.00130537
0.00115501
0.00104128
0.000952325
0.000881368
0.000814007
0.000743812
0.000677528
0.00062109
0.000671163
0.000353161
0.00185163
0.0053943
0.00490272
0.00598243
0.00655974
0.0069936
0.00731119
0.00762797
0.00795415
0.00826607
0.00853416
0.00872216
0.00876197
0.00858081
0.00799389
0.00648731
0.00488691
0.00116296
0.000853008
0.00157177
0.00236392
0.003068
0.00318444
0.000950922
0.000819644
0.000712621
0.000627123
0.000558841
0.000503999
0.000459654
0.000424364
0.000397686
0.000439475
0.000509897
0.000758946
0.00039168
0.00215331
0.00677102
0.00501293
0.00630285
0.00671171
0.00689346
0.00704935
0.00729062
0.00760144
0.00795766
0.00832344
0.00864241
0.00881168
0.00882314
0.00863969
0.00813655
0.00698624
0.00393661
0.00137783
0.00177847
0.00255976
0.00349206
0.00425512
0.00421029
0.00108251
0.000974884
0.000896131
0.000834189
0.000781213
0.000735055
0.000691446
0.000647086
0.000597978
0.0005507
0.000535317
0.00084125
0.000433837
0.00246178
0.00852216
0.00555947
0.00624229
0.00666633
0.00668347
0.00675781
0.00695076
0.00724683
0.00762871
0.00804278
0.00839782
0.00861765
0.0086767
0.00859739
0.00838886
0.00790738
0.00677731
0.00603248
0.005983
0.00619769
0.00645044
0.00656623
0.00633744
0.00521373
0.00459215
0.00420284
0.00391246
0.00364221
0.00330357
0.00289662
0.0024254
0.00190987
0.00141123
0.00103196
0.000953061
0.000687021
0.000559965
0.000637521
0.000702734
0.00279045
0.0104611
0.00755454
0.00664347
0.00692568
0.00682664
0.0068089
0.00688455
0.00712435
0.00751996
0.00797951
0.00837228
0.00859457
0.00861938
0.00850664
0.00836098
0.00825056
0.00813515
0.0082123
0.0083498
0.00841299
0.00832733
0.00807292
0.00764061
0.00701251
0.00645412
0.00599098
0.0055795
0.00517914
0.00473298
0.00422689
0.00364834
0.00299873
0.00232004
0.00173134
0.00130207
0.000974716
0.000784267
0.00100636
0.00072373
0.00307655
0.0117547
0.0102434
0.00853169
0.00793848
0.00736798
0.00701072
0.00695708
0.00720694
0.00767673
0.00821051
0.00863443
0.00883073
0.00879057
0.00862882
0.00853891
0.0086876
0.00904646
0.00941608
0.00957254
0.00946883
0.00913825
0.00864335
0.0080465
0.00740876
0.00681735
0.00628576
0.00579684
0.00533753
0.00490478
0.00449419
0.00402997
0.00349466
0.0028994
0.00233669
0.00184828
0.00147904
0.00127892
0.00118576
0.00084182
0.00312302
0.0100527
0.00928265
0.00829676
0.00747588
0.00690364
0.00671444
0.00693037
0.00747136
0.00816975
0.00880863
0.00920545
0.00928675
0.00912279
0.00893546
0.00898654
0.00935232
0.00973851
0.00993
0.00984695
0.00949102
0.00892814
0.00823623
0.00749041
0.00676161
0.00610382
0.00552394
0.00501011
0.0045621
0.00419536
0.00392851
0.00374071
0.00345209
0.0030767
0.0027481
0.00252451
0.00245885
0.0024847
0.00290924
0.00131057
0.00303469
0.00355678
0.00383339
0.00398893
0.00438229
0.00511001
0.006119
0.00729476
0.00845526
0.00938358
0.00989776
0.00994907
0.00966148
0.0093238
0.00929944
0.0093991
0.00949571
0.00949661
0.00932604
0.00894879
0.0083808
0.00766385
0.00687624
0.00609809
0.00539006
0.00477442
0.00423798
0.0037643
0.00335141
0.00300281
0.00271411
0.00248655
0.00231644
0.00218416
0.00209861
0.00205374
0.00200826
0.00192686
0.00181612
0.00126883
0.00121553
0.00456314
0.00769098
0.00958297
0.0107513
0.011375
0.0115118
0.0112569
0.0107656
0.0100504
0.00936368
0.00890994
0.00871776
0.00854364
0.00828761
0.00793687
0.00746945
0.00688332
0.00622482
0.00556433
0.00495117
0.00441307
0.00395008
0.00354338
0.00317742
0.00284673
0.00256104
0.00233638
0.0021803
0.00208245
0.00202869
0.00200628
0.00200186
0.001992
0.00194139
0.00183102
0.00167657
0.00111377
0.00199284
0.00817364
0.00999377
0.0105886
0.0106881
0.0104228
0.00986917
0.00917653
0.00847929
0.00782331
0.00727387
0.00684067
0.00647254
0.00612466
0.00579131
0.00545862
0.00511128
0.00475736
0.0044228
0.00412749
0.00387322
0.00364879
0.00343881
0.00323095
0.00302033
0.00281062
0.00261075
0.00243201
0.00228549
0.0021791
0.00211658
0.00209426
0.00209645
0.00209557
0.00206318
0.00205883
0.00224607
0.00115202
0.00176377
0.00191445
0.00202384
0.00222735
0.00217457
0.00213503
0.00207544
0.00196947
0.00182845
0.00166708
0.00150201
0.00135666
0.00124518
0.00116669
0.00111297
0.00107501
0.00104564
0.00101985
0.000994952
0.000970509
0.000947188
0.000925436
0.000905096
0.000885769
0.000867385
0.000850567
0.000836626
0.000827451
0.000824815
0.000829768
0.000842779
0.000863934
0.000893234
0.000930618
0.000975184
0.001025
0.00105552
0.0010345
0.00097929
0.000933177
)
;

boundaryField
{
    floor
    {
        type            nutkWallFunction;
        Cmu             0.09;
        kappa           0.41;
        E               9.8;
        value           nonuniform List<scalar> 
36
(
0.000125028
6.0232e-05
7.31075e-05
8.55634e-05
9.02744e-05
8.8896e-05
8.27601e-05
7.5987e-05
6.99132e-05
6.4643e-05
6.0061e-05
5.60554e-05
5.25162e-05
4.93765e-05
4.65061e-05
4.37554e-05
4.09124e-05
3.8091e-05
3.33526e-05
3.33526e-05
4.05362e-05
4.56476e-05
5.11686e-05
6.73121e-05
7.70115e-05
8.50569e-05
0.000125028
0.000163768
0.00013529
0.000106577
6.02319e-05
0.000106577
6.00617e-05
0.000139737
0.000103278
0.000164353
)
;
    }
    ceiling
    {
        type            nutkWallFunction;
        Cmu             0.09;
        kappa           0.41;
        E               9.8;
        value           nonuniform List<scalar> 
43
(
0.000207426
0.000223978
0.000235908
0.000258025
0.000252366
0.000248108
0.00024166
0.000230133
0.000214684
0.000196841
0.000178391
0.000161957
0.000149219
0.000140174
0.000133945
0.000129522
0.000126088
0.000123064
0.000120136
0.000117254
0.000114496
0.000111917
0.000109498
0.000107195
0.000104998
0.000102983
0.000101309
0.000100206
9.98886e-05
0.000100484
0.000102047
0.000104583
0.000108084
0.000112531
0.000117805
0.000123668
0.000127244
0.000124783
0.00011829
0.000112835
0.000343766
0.000397795
0.000232311
)
;
    }
    sWall
    {
        type            nutkWallFunction;
        Cmu             0.09;
        kappa           0.41;
        E               9.8;
        value           uniform 0.000207482;
    }
    nWall
    {
        type            nutkWallFunction;
        Cmu             0.09;
        kappa           0.41;
        E               9.8;
        value           nonuniform List<scalar> 6(8.50551e-05 8.76265e-05 0.000101931 0.000134047 0.000138487 0.000112839);
    }
    sideWalls
    {
        type            empty;
    }
    glass1
    {
        type            nutkWallFunction;
        Cmu             0.09;
        kappa           0.41;
        E               9.8;
        value           nonuniform List<scalar> 9(0.000138219 0.000182251 0.000217526 0.00025047 0.000283648 0.000318519 0.000348527 0.000353382 0.000344182);
    }
    glass2
    {
        type            nutkWallFunction;
        Cmu             0.09;
        kappa           0.41;
        E               9.8;
        value           nonuniform List<scalar> 2(0.00015675 0.000151975);
    }
    sun
    {
        type            nutkWallFunction;
        Cmu             0.09;
        kappa           0.41;
        E               9.8;
        value           nonuniform List<scalar> 
14
(
0.000138099
0.000151461
0.000155299
0.000162898
0.000170042
0.000176941
0.000184069
0.000189588
0.000192733
0.000192983
0.000190029
0.000183624
0.000173297
0.000156887
)
;
    }
    Table_master
    {
        type            nutkWallFunction;
        Cmu             0.09;
        kappa           0.41;
        E               9.8;
        value           nonuniform List<scalar> 9(0.000114932 9.92621e-05 8.62693e-05 7.57226e-05 6.71749e-05 6.0217e-05 5.45223e-05 4.99413e-05 4.64463e-05);
    }
    Table_slave
    {
        type            nutkWallFunction;
        Cmu             0.09;
        kappa           0.41;
        E               9.8;
        value           nonuniform List<scalar> 9(0.000130389 0.000117764 0.000108424 0.000101011 9.46203e-05 8.90099e-05 8.36708e-05 7.81983e-05 7.20869e-05);
    }
    inlet
    {
        type            calculated;
        value           uniform 0.000100623;
    }
    outlet
    {
        type            calculated;
        value           nonuniform List<scalar> 2(0.00176377 0.00191445);
    }
}


// ************************************************************************* //
