/*--------------------------------*- C++ -*----------------------------------*\
  =========                 |
  \\      /  F ield         | OpenFOAM: The Open Source CFD Toolbox
   \\    /   O peration     | Website:  https://openfoam.org
    \\  /    A nd           | Version:  6
     \\/     M anipulation  |
\*---------------------------------------------------------------------------*/
FoamFile
{
    version     2.0;
    format      ascii;
    class       surfaceScalarField;
    location    "2100";
    object      phi;
}
// * * * * * * * * * * * * * * * * * * * * * * * * * * * * * * * * * * * * * //

dimensions      [1 0 -1 0 0 0 0];

internalField   nonuniform List<scalar> 
850
(
-0.00298632
0.00304061
-0.00412412
0.00113772
-0.00493593
0.000811741
-0.00551312
0.000577115
-0.00582515
0.000311964
-0.00584877
2.35529e-05
-0.00556564
-0.000283209
-0.00498841
-0.000577297
-0.00417728
-0.000811196
-0.00322346
-0.000953899
-0.00222686
-0.00099666
-0.00128716
-0.000939774
-0.000505895
-0.000781332
-1.12001e-05
-0.00049476
-9.85288e-06
-0.00079476
0.00079673
-0.000599131
-0.000195682
6.35997e-06
-0.000605545
0.000604121
-0.000597815
0.00106995
-0.000465884
0.00134095
-0.000271053
0.0014648
-0.000123902
0.00153257
-6.78241e-05
0.00157685
-4.43346e-05
0.00160454
-2.77428e-05
0.00161908
-1.45861e-05
0.00162018
-1.15378e-06
0.00159994
2.01913e-05
0.00153565
6.42405e-05
0.0013883
0.000147304
0.00113162
0.000256623
0.000757174
0.000374405
0.000759677
-0.0021313
0.00531872
-0.00319126
0.00219762
-0.00400338
0.00162378
-0.00456679
0.00114045
-0.00487256
0.000617667
-0.00490071
5.16277e-05
-0.00463546
-0.000548528
-0.00410389
-0.00110894
-0.00338026
-0.00153489
-0.00255653
-0.0017777
-0.00171965
-0.00183362
-0.000945766
-0.00171372
-0.000288747
-0.00143842
0.000224351
-0.00100792
0.000751304
-0.000536867
0.000953881
-0.000200385
0.000742488
0.000213933
0.000750182
8.70349e-05
0.000715697
0.000522001
-0.000630702
0.000871634
-0.000955233
0.00117573
-0.000901966
0.00142402
-0.000714229
0.00148414
-0.000331227
0.00149431
-0.000134125
0.00150609
-7.96575e-05
0.00151589
-5.41848e-05
0.00152194
-3.38473e-05
0.0015253
-1.79904e-05
0.00152563
-1.53888e-06
0.00151944
2.63304e-05
0.00147949
0.000104146
0.00131847
0.000308268
0.00102847
0.000546577
0.000635575
0.000767255
0.00140218
-0.00148629
0.00703032
-0.00237304
0.0030843
-0.00307842
0.00232909
-0.00355283
0.0016148
-0.00380418
0.000868944
-0.0037969
4.42763e-05
-0.00350479
-0.00084071
-0.00298267
-0.00163114
-0.00232733
-0.0021903
-0.00162784
-0.00247727
-0.000949794
-0.00251174
-0.000344103
-0.00231948
0.000165513
-0.0019481
0.000584361
-0.00142683
0.0009036
-0.000856167
0.000992266
-0.000289113
0.000802345
0.000403792
0.00155887
0.00132909
-0.000606035
0.00159082
-0.000892494
0.00163339
-0.000997856
0.00170048
-0.000969107
0.00189436
-0.000908158
0.00156323
0.0014292
0.00134965
0.00129556
0.00126182
0.00124393
0.00124249
0.00126893
0.00137318
0.00117292
0.000508477
0.000904173
0.000815277
0.000524344
0.00114704
0.00193739
-0.00102887
0.00835184
-0.00170507
0.00376042
-0.00215369
0.00277764
-0.00244196
0.001903
-0.00255583
0.000982741
-0.00242612
-8.54981e-05
-0.00205115
-0.00121575
-0.00153348
-0.00214889
-0.000976733
-0.00274713
-0.00044352
-0.00301056
3.37571e-05
-0.00298909
0.00043405
-0.00271984
0.000758058
-0.00227217
0.00103429
-0.00170312
0.00125904
-0.00108097
0.00141789
-0.000448021
0.00163677
0.000184845
0.00259607
0.000599508
0.00256902
3.35881e-05
0.00238118
-0.000418258
0.00221286
-0.000724228
0.00202937
-0.000814426
0.00184975
-0.000789539
0.00158214
-0.000640595
0.00185815
-0.000276212
0.00197895
-0.000120993
0.00204638
-6.76325e-05
0.00208164
-3.54587e-05
0.00208043
1.01953e-06
0.00203167
4.85645e-05
0.00191731
0.000114166
0.00170643
0.000210686
0.00134246
0.000363777
0.00116391
0.000686979
0.000886764
0.00109238
0.000509225
0.00152454
0.00246088
-0.000715696
0.00941765
-0.00120451
0.00424916
-0.00125971
0.00283277
-0.00124875
0.00189197
-0.00108337
0.000817293
-0.00070608
-0.000462856
-0.000226842
-0.00169506
0.000231867
-0.00260768
0.000613845
-0.00312919
0.000907702
-0.0033045
0.00111686
-0.00319832
0.00126379
-0.00286685
0.00136921
-0.00237764
0.00145838
-0.00179235
0.00155102
-0.00117368
0.00168271
-0.000579767
0.00193851
-7.10125e-05
0.00233229
0.000205671
0.00236572
1.02161e-07
0.00225203
-0.00030463
0.00204198
-0.000514226
0.00182088
-0.000593383
0.00160823
-0.000576939
0.00143852
-0.000470928
0.00144361
-0.000281343
0.00147062
-0.000148053
0.00148831
-8.53549e-05
0.00150176
-4.89533e-05
0.00150889
-6.14861e-06
0.00149888
5.8534e-05
0.00145791
0.000155101
0.0013741
0.000294464
0.001246
0.000491841
0.00113655
0.000796382
0.0010316
0.00119729
0.000849422
0.00170668
0.00114078
0.00216948
-0.000825522
0.00197918
-0.00147572
0.000661225
-0.00142184
-0.000613673
0.01043
-0.000917254
0.00455267
-0.000416163
0.00233161
8.74581e-05
0.00138828
0.000713242
0.000191442
0.00138419
-0.00113387
0.00188053
-0.00219149
0.0021716
-0.00289883
0.00229566
-0.00325334
0.00229083
-0.00329975
0.00219032
-0.00309788
0.0020355
-0.0027121
0.00186579
-0.00220799
0.0017149
-0.00164151
0.00160986
-0.00106868
0.00158037
-0.000550329
0.00165443
-0.000145127
0.00179425
6.58046e-05
0.00179372
5.75327e-07
0.00166359
-0.00017455
0.00146659
-0.000317266
0.00125912
-0.000385964
0.00106749
-0.000385355
0.000920599
-0.000324073
0.000858996
-0.000219779
0.000850267
-0.000139361
0.00086478
-9.99046e-05
0.000894455
-7.86628e-05
0.000936939
-4.86665e-05
0.000982304
1.31352e-05
0.00101921
0.000118162
0.00104687
0.000266773
0.00107011
0.00046856
0.00112366
0.000742798
0.00124983
0.00107108
0.00147645
0.00148002
0.00186807
0.00177781
0.00212998
0.00171724
0.00165898
0.00113219
0.000290026
-0.000600149
0.0114735
-0.000382229
0.00433468
0.000969339
0.000979976
0.00213729
0.000220257
0.00314354
-0.000814874
0.00382351
-0.00181391
0.00415047
-0.00251853
0.00416172
-0.00291017
0.0039316
-0.0030233
0.00353833
-0.00290656
0.00305256
-0.00261219
0.00253979
-0.00219938
0.0020557
-0.00172396
0.00163822
-0.00122407
0.00131281
-0.000743317
0.00110104
-0.000338599
0.00100507
-4.91993e-05
0.000987597
8.32331e-05
0.000941607
4.65205e-05
0.000831297
-6.42827e-05
0.000677841
-0.000163852
0.000511951
-0.000220114
0.000357721
-0.000231162
0.000239099
-0.000205488
0.000179252
-0.000159966
0.000168345
-0.000128486
0.000187782
-0.000119373
0.000229441
-0.000120352
0.000294409
-0.000113665
0.000385568
-7.80533e-05
0.000492961
1.07383e-05
0.000612111
0.000147593
0.000754343
0.000326297
0.000942864
0.000554245
0.00120909
0.000804821
0.00159216
0.00109691
0.00212832
0.00124162
0.00277759
0.00106793
0.00287608
0.00103367
0.00322286
0.00275673
0.00921379
0.0036055
0.00348584
0.00457545
9.95548e-06
0.00582202
-0.00102638
0.0065735
-0.00156643
0.00677675
-0.00201724
0.00654403
-0.0022859
0.00597793
-0.00234417
0.00518793
-0.00223339
0.00428091
-0.00199962
0.00334709
-0.00167843
0.00246239
-0.00131472
0.0016848
-0.000946409
0.0010439
-0.000583203
0.000558873
-0.000258319
0.000242251
-2.20103e-05
8.39748e-05
0.000109042
2.89884e-05
0.00013818
-1.41817e-05
8.96515e-05
-8.98554e-05
1.13537e-05
-0.000196479
-5.72636e-05
-0.000315491
-0.000101135
-0.000426823
-0.000119862
-0.000512204
-0.000120137
-0.000558947
-0.000113253
-0.000573522
-0.000113939
-0.000568063
-0.00012486
-0.000548335
-0.000140107
-0.000511234
-0.000150793
-0.000444146
-0.000145168
-0.000329625
-0.00010381
-0.000177233
-4.82636e-06
1.22073e-05
0.000136828
0.000258851
0.000307571
0.000562954
0.000500688
0.000953293
0.000706543
0.00142306
0.000771817
0.00182682
0.000664143
0.00120331
0.00165714
0.00464915
0.00975805
0.0132347
0.0125906
0.000654003
0.0118568
-0.000292684
0.0109077
-0.000617379
0.00970182
-0.000811499
0.00826638
-0.00085055
0.00672468
-0.000802538
0.0051883
-0.000697067
0.00374728
-0.000558644
0.00245804
-0.000389222
0.00136057
-0.00021728
0.000465053
-5.09115e-05
-0.000204002
8.58375e-05
-0.000623639
0.000161295
-0.000831763
0.000186085
-0.000909652
0.000186898
-0.000935038
0.000163532
-0.000960634
0.000115214
-0.00100733
5.80212e-05
-0.00107495
1.03209e-05
-0.0011546
-2.15119e-05
-0.00123348
-4.10108e-05
-0.00130098
-5.26577e-05
-0.00135297
-6.12929e-05
-0.00139623
-7.07034e-05
-0.00144268
-7.84317e-05
-0.00150342
-7.9396e-05
-0.00158891
-6.53197e-05
-0.0017112
-2.29114e-05
-0.0018748
5.97709e-05
-0.00207231
0.000192652
-0.00232848
0.000392969
-0.00270095
0.000680012
-0.00326438
0.00106409
-0.00409765
0.00153979
-0.00533785
0.00201199
-0.00688453
0.00221079
-0.00665168
0.00142426
-0.00175828
0.00348869
0.00193407
0.00298535
0.000210637
0.00323026
-0.000862288
0.00301751
-0.000598736
0.00244556
-0.000278592
0.00168588
-4.28454e-05
0.000853627
0.000135191
4.71261e-05
0.000247861
-0.000639465
0.000297374
-0.00114973
0.000292971
-0.00148791
0.000287253
-0.00167832
0.000276229
-0.00177214
0.00025509
-0.00181255
0.000226471
-0.00182336
0.000197677
-0.00182721
0.000167354
-0.00184398
0.000131955
-0.00188095
9.49708e-05
-0.0019334
6.27474e-05
-0.00199269
3.77538e-05
-0.00205386
2.01381e-05
-0.00211438
7.8348e-06
-0.00217473
-9.6719e-07
-0.00223883
-6.62574e-06
-0.00231142
-5.8589e-06
-0.00239607
5.22524e-06
-0.00249193
3.05195e-05
-0.00259302
7.81535e-05
-0.00269073
0.000157456
-0.00278348
0.000285377
-0.00287204
0.000481501
-0.00295509
0.000763039
-0.0030251
0.00113408
-0.00305107
0.00156572
-0.0030054
0.0019663
-0.00273144
0.0019368
-0.00144979
0.000142595
-0.00314522
-0.000203011
0.00221191
-0.000299387
0.000307079
-0.00113263
-2.90052e-05
-0.00176496
3.36258e-05
-0.00219625
0.000152723
-0.00247596
0.000236878
-0.00263771
0.000296946
-0.0027239
0.000334054
-0.00275982
0.000333293
-0.00276645
0.000299589
-0.00273976
0.000260543
-0.00268822
0.000224666
-0.00262663
0.000193476
-0.00256757
0.000167391
-0.00251719
0.000147277
-0.00248062
0.000130756
-0.0024631
0.000114415
-0.00246588
9.77339e-05
-0.00248559
8.24293e-05
-0.00251781
6.99536e-05
-0.0025586
6.09129e-05
-0.00260566
5.48741e-05
-0.00265776
5.11111e-05
-0.00271387
4.94718e-05
-0.00276914
4.93862e-05
-0.00281655
5.26139e-05
-0.00284956
6.35029e-05
-0.0028581
8.66711e-05
-0.00283002
0.000129358
-0.0027465
0.000201834
-0.00258199
0.000316965
-0.00230959
0.000490614
-0.00190321
0.000727677
-0.00131755
0.000980039
-0.000389491
0.00103821
0.000965941
0.000581346
0.00164084
-0.000532325
-0.00143621
-0.00543392
-0.00824572
-0.00600301
-0.00568622
-0.00571165
-0.00567748
-0.00552642
-0.00529313
-0.00500156
-0.00467463
-0.00435021
-0.00406113
-0.00381254
-0.00360098
-0.00342153
-0.00326887
-0.00313691
-0.00302197
-0.00292385
-0.00284284
-0.00277754
-0.00272507
-0.00268199
-0.00264528
-0.00261265
-0.00258196
-0.00255161
-0.00251822
-0.00247402
-0.00240658
-0.00229627
-0.00211317
-0.00181451
-0.00134169
-0.000631258
0.00033207
0.00135379
0.00191827
0.00136826
)
;

boundaryField
{
    floor
    {
        type            calculated;
        value           nonuniform List<scalar> 
36
(
0
0
0
0
0
0
0
0
0
0
0
0
0
0
0
0
0
0
0
-2.54779e-06
-6.97164e-06
-1.09119e-05
-1.43007e-05
-1.29177e-05
-1.10514e-05
-1.03111e-05
-1.39647e-06
-2.25361e-06
-2.60464e-06
-3.07418e-06
-2.02347e-06
-4.68766e-06
-6.05369e-06
-6.40824e-06
-7.40438e-06
-6.59885e-06
)
;
    }
    ceiling
    {
        type            calculated;
        value           nonuniform List<scalar> 
43
(
-3.32948e-05
-3.21202e-05
-3.07657e-05
-9.6913e-06
-3.5611e-06
-5.29329e-07
1.66838e-06
3.59135e-06
5.37111e-06
7.11645e-06
8.85724e-06
1.05005e-05
1.19318e-05
1.30945e-05
1.40035e-05
1.47158e-05
1.52974e-05
1.58049e-05
1.62724e-05
1.67085e-05
1.71096e-05
1.74763e-05
1.78174e-05
1.81442e-05
1.84615e-05
1.87614e-05
1.90212e-05
1.92052e-05
1.92781e-05
1.92199e-05
1.90263e-05
1.87071e-05
1.82807e-05
1.77724e-05
1.72244e-05
1.66875e-05
1.64717e-05
1.68465e-05
1.76562e-05
1.92584e-05
1.21703e-05
9.14549e-06
-7.47786e-05
)
;
    }
    sWall
    {
        type            calculated;
        value           uniform -0.000259451;
    }
    nWall
    {
        type            calculated;
        value           nonuniform List<scalar> 6(-4.3604e-05 -5.29214e-05 -5.67857e-05 -6.28692e-05 -6.81943e-05 -8.7228e-05);
    }
    sideWalls
    {
        type            empty;
        value           nonuniform 0();
    }
    glass1
    {
        type            calculated;
        value           nonuniform List<scalar> 9(-5.43543e-05 -0.000146886 -0.000225383 -0.000292722 -0.00035018 -0.000398756 -0.000443433 -0.000497057 -0.000556485);
    }
    glass2
    {
        type            calculated;
        value           nonuniform List<scalar> 2(-0.000223006 -0.000244281);
    }
    sun
    {
        type            calculated;
        value           uniform 0;
    }
    Table_master
    {
        type            calculated;
        value           nonuniform List<scalar> 9(-1.52509e-07 -1.52665e-07 -1.52712e-07 -1.52737e-07 -1.52751e-07 -1.52757e-07 -1.52756e-07 -1.5274e-07 -1.52697e-07);
    }
    Table_slave
    {
        type            calculated;
        value           nonuniform List<scalar> 9(1.52387e-07 1.52404e-07 1.52377e-07 1.52361e-07 1.52356e-07 1.52354e-07 1.52369e-07 1.52409e-07 1.52483e-07);
    }
    inlet
    {
        type            calculated;
        value           uniform -0.00476877;
    }
    outlet
    {
        type            calculated;
        value           nonuniform List<scalar> 2(0.0057267 0.00284396);
    }
}


// ************************************************************************* //
