/*--------------------------------*- C++ -*----------------------------------*\
  =========                 |
  \\      /  F ield         | OpenFOAM: The Open Source CFD Toolbox
   \\    /   O peration     | Website:  https://openfoam.org
    \\  /    A nd           | Version:  6
     \\/     M anipulation  |
\*---------------------------------------------------------------------------*/
FoamFile
{
    version     2.0;
    format      ascii;
    class       volScalarField;
    location    "1600";
    object      T;
}
// * * * * * * * * * * * * * * * * * * * * * * * * * * * * * * * * * * * * * //

dimensions      [0 0 0 1 0 0 0];

internalField   nonuniform List<scalar> 
458
(
303.572
303.245
303.233
303.232
303.231
303.23
303.229
303.228
303.226
303.225
303.221
303.215
303.206
303.194
303.18
302.866
302.849
302.833
302.784
302.706
302.647
302.613
302.593
302.58
302.572
302.572
302.582
302.606
302.641
302.681
302.681
302.642
302.631
303.806
303.303
303.271
303.276
303.282
303.288
303.292
303.296
303.297
303.297
303.291
303.279
303.257
303.225
303.183
303.144
303.103
303.098
302.862
302.843
302.825
302.797
302.74
302.676
302.637
302.608
302.584
302.568
302.56
302.568
302.604
302.68
302.765
302.728
302.668
302.631
304.025
303.378
303.321
303.334
303.352
303.369
303.384
303.396
303.405
303.408
303.405
303.389
303.357
303.31
303.247
303.177
303.112
303.068
302.87
302.861
302.855
302.849
302.828
302.714
302.683
302.664
302.645
302.625
302.602
302.578
302.594
302.706
302.895
302.821
302.754
302.764
304.226
303.464
303.374
303.394
303.424
303.456
303.486
303.512
303.533
303.546
303.549
303.535
303.501
303.445
303.367
303.273
303.169
303.065
302.993
302.957
302.988
303.013
303.031
303.042
303.049
303.051
303.051
303.048
303.043
303.034
303.023
303.009
302.997
302.98
302.95
302.912
302.898
304.41
303.557
303.429
303.446
303.488
303.533
303.578
303.621
303.659
303.687
303.702
303.7
303.676
303.628
303.557
303.467
303.367
303.269
303.19
303.14
303.136
303.147
303.153
303.152
303.148
303.14
303.129
303.112
303.093
303.072
303.052
303.033
303.016
303
302.979
302.95
302.922
302.915
302.915
302.981
304.569
303.66
303.494
303.49
303.536
303.588
303.642
303.697
303.749
303.795
303.826
303.84
303.834
303.805
303.752
303.678
303.589
303.497
303.417
303.359
303.324
303.304
303.29
303.276
303.26
303.239
303.212
303.179
303.142
303.107
303.079
303.058
303.043
303.032
303.023
303.014
302.995
302.953
302.923
302.929
304.692
303.812
303.63
303.563
303.582
303.628
303.681
303.736
303.792
303.851
303.898
303.93
303.945
303.94
303.913
303.865
303.797
303.719
303.641
303.574
303.522
303.485
303.455
303.429
303.4
303.366
303.321
303.266
303.207
303.155
303.119
303.1
303.096
303.103
303.116
303.133
303.147
303.138
303
302.963
304.903
304.21
304.018
303.848
303.752
303.733
303.757
303.796
303.842
303.903
303.951
303.985
304.008
304.02
304.018
304
303.963
303.909
303.845
303.781
303.725
303.678
303.638
303.602
303.566
303.523
303.466
303.391
303.307
303.233
303.186
303.17
303.181
303.211
303.248
303.285
303.318
303.344
303.363
303.368
305.189
304.901
304.727
304.518
304.328
304.197
304.117
304.073
304.057
304.05
304.054
304.063
304.073
304.08
304.082
304.077
304.062
304.035
303.998
303.953
303.907
303.862
303.82
303.78
303.74
303.698
303.647
303.578
303.483
303.384
303.317
303.278
303.264
303.27
303.29
303.323
303.365
303.415
303.475
303.586
303.968
304.312
304.312
304.265
304.223
304.194
304.178
304.168
304.16
304.155
304.15
304.146
304.141
304.134
304.124
304.109
304.09
304.064
304.035
304.002
303.968
303.933
303.897
303.859
303.818
303.77
303.708
303.636
303.56
303.488
303.428
303.384
303.359
303.352
303.363
303.39
303.431
303.496
304.007
304.275
304.288
304.273
304.254
304.239
304.227
304.219
304.211
304.204
304.197
304.189
304.181
304.172
304.162
304.15
304.137
304.121
304.103
304.082
304.059
304.034
304.007
303.978
303.946
303.909
303.866
303.815
303.756
303.693
303.631
303.574
303.529
303.497
303.481
303.481
303.495
303.537
304.111
304.04
304.039
304.237
304.257
304.256
304.249
304.242
304.235
304.228
304.221
304.214
304.206
304.198
304.189
304.18
304.169
304.158
304.146
304.133
304.119
304.104
304.088
304.071
304.053
304.033
304.013
303.991
303.966
303.938
303.905
303.869
303.829
303.789
303.751
303.717
303.683
303.65
303.614
303.594
)
;

boundaryField
{
    floor
    {
        type            wallHeatTransfer;
        Tinf            uniform 305.2;
        alphaWall       uniform 0.24;
        value           nonuniform List<scalar> 
36
(
303.432
303.327
303.277
303.342
303.395
303.408
303.4
303.384
303.366
303.345
303.322
303.291
303.248
303.198
303.154
303.12
303.085
303.063
303.117
303.117
303.101
303.115
303.163
303.151
303.173
303.237
303.432
303.387
303.366
303.417
303.327
303.417
303.272
303.329
303.19
303.256
)
;
    }
    ceiling
    {
        type            wallHeatTransfer;
        Tinf            uniform 303.2;
        alphaWall       uniform 0.24;
        value           nonuniform List<scalar> 
43
(
304.049
303.989
303.993
304.182
304.195
304.189
304.178
304.167
304.156
304.146
304.135
304.125
304.114
304.103
304.091
304.079
304.066
304.053
304.039
304.025
304.011
303.997
303.982
303.967
303.951
303.935
303.918
303.9
303.879
303.857
303.83
303.801
303.768
303.734
303.701
303.67
303.639
303.608
303.575
303.554
305.099
304.835
303.968
)
;
    }
    sWall
    {
        type            wallHeatTransfer;
        Tinf            uniform 315.2;
        alphaWall       uniform 0.36;
        value           uniform 305.206;
    }
    nWall
    {
        type            wallHeatTransfer;
        Tinf            uniform 307.2;
        alphaWall       uniform 0.36;
        value           nonuniform List<scalar> 6(303.673 303.56 303.553 303.917 303.981 304.111);
    }
    sideWalls
    {
        type            empty;
    }
    glass1
    {
        type            wallHeatTransfer;
        Tinf            uniform 315.2;
        alphaWall       uniform 4.3;
        value           nonuniform List<scalar> 9(312.437 311.444 310.817 310.36 310.027 309.773 309.562 309.61 309.825);
    }
    glass2
    {
        type            wallHeatTransfer;
        Tinf            uniform 307.2;
        alphaWall       uniform 4.3;
        value           nonuniform List<scalar> 2(305.791 305.782);
    }
    sun
    {
        type            wallHeatTransfer;
        Tinf            uniform 305.2;
        alphaWall       uniform 0.24;
        value           nonuniform List<scalar> 
14
(
303.814
303.53
303.535
303.526
303.518
303.51
303.503
303.496
303.489
303.482
303.474
303.465
303.455
303.444
)
;
    }
    Table_master
    {
        type            zeroGradient;
    }
    Table_slave
    {
        type            zeroGradient;
    }
    inlet
    {
        type            fixedValue;
        value           uniform 299.15;
    }
    outlet
    {
        type            zeroGradient;
    }
}


// ************************************************************************* //
