/*--------------------------------*- C++ -*----------------------------------*\
  =========                 |
  \\      /  F ield         | OpenFOAM: The Open Source CFD Toolbox
   \\    /   O peration     | Website:  https://openfoam.org
    \\  /    A nd           | Version:  6
     \\/     M anipulation  |
\*---------------------------------------------------------------------------*/
FoamFile
{
    version     2.0;
    format      ascii;
    class       volScalarField;
    location    "700";
    object      alphat;
}
// * * * * * * * * * * * * * * * * * * * * * * * * * * * * * * * * * * * * * //

dimensions      [1 -1 -1 0 0 0 0];

internalField   nonuniform List<scalar> 
458
(
0.000791461
0.00081392
0.000771325
0.000802198
0.00083231
0.000859693
0.000884744
0.000908229
0.000931106
0.000954666
0.000975801
0.000992681
0.0010051
0.0010143
0.00101964
0.000673105
0.000877349
0.000902726
0.00087868
0.000834825
0.000768807
0.000713441
0.000662553
0.000613286
0.000564464
0.000516259
0.000469665
0.000426015
0.000386555
0.000352245
0.00032664
0.000394829
0.000349843
0.00132892
0.00205699
0.0015332
0.00193487
0.00208655
0.00224745
0.00241153
0.00256688
0.00269739
0.00278137
0.00282229
0.00278798
0.0026323
0.00228462
0.00169254
0.00108661
0.00103522
0.000806165
0.000777164
0.00290894
0.00292416
0.00243522
0.00196158
0.00168706
0.00154364
0.00138886
0.00122081
0.0010623
0.000924414
0.000809821
0.000717441
0.000645212
0.000605873
0.00059942
0.00107324
0.000531141
0.00181941
0.00343733
0.0016152
0.00279932
0.00310404
0.00330292
0.00347804
0.00362826
0.00374995
0.00383635
0.00388885
0.00387642
0.0037605
0.00349271
0.0030462
0.00247017
0.00179541
0.001105
0.00112403
0.00337347
0.00284687
0.0020759
0.00145091
0.000612601
0.000530372
0.000513108
0.000481138
0.000448186
0.000420027
0.000396128
0.000376758
0.000365941
0.000552347
0.000673182
0.00157043
0.000643583
0.00230372
0.00537413
0.00176745
0.00312251
0.00375899
0.00398715
0.00415702
0.00429614
0.0044094
0.00449675
0.00456468
0.00460513
0.00459063
0.00446659
0.00414955
0.00356174
0.00270578
0.00178714
0.00121275
0.0021576
0.0027151
0.00221962
0.00168766
0.00124711
0.000922297
0.000940302
0.000963415
0.000974438
0.000974976
0.000976991
0.000970751
0.00094668
0.000900942
0.000941072
0.000985194
0.00147643
0.000849267
0.00277045
0.00767123
0.00245788
0.00291054
0.00405025
0.00435742
0.00452923
0.00465754
0.0047584
0.00484233
0.00491617
0.00502061
0.00515653
0.00529349
0.00536835
0.00530464
0.00504635
0.00457667
0.00393852
0.0033258
0.00304251
0.00273895
0.00258681
0.00256905
0.00267001
0.00286408
0.00311569
0.00338665
0.00349953
0.00354053
0.00352216
0.00342156
0.00318058
0.00268962
0.00218263
0.00178728
0.00149139
0.000967507
0.000938941
0.000903436
0.0032228
0.00991477
0.004234
0.00265187
0.00374115
0.00432341
0.00461033
0.00477852
0.00486479
0.00489706
0.00489981
0.00498978
0.00516336
0.00540243
0.00566513
0.0058744
0.00591574
0.00565305
0.00504559
0.00426201
0.00355798
0.00308532
0.0028016
0.00262305
0.00256265
0.00264905
0.00289141
0.00323676
0.0035084
0.00364995
0.00373356
0.00376527
0.00372942
0.00348576
0.00305463
0.00249223
0.00200018
0.00180936
0.00222521
0.00110126
0.00365575
0.011686
0.00753194
0.00400452
0.00300493
0.00333966
0.00398555
0.00449286
0.00478633
0.00483953
0.00473288
0.00475833
0.00486672
0.00505113
0.00530538
0.00559503
0.00582299
0.00582935
0.00550149
0.00489549
0.00421624
0.00363698
0.00316664
0.00274997
0.00242272
0.00230144
0.00246917
0.00285049
0.00319599
0.00340734
0.00356799
0.00370735
0.00384919
0.00392738
0.00368621
0.00324918
0.00277919
0.00248546
0.00271075
0.0013563
0.00375595
0.0117659
0.00948805
0.00755827
0.00551612
0.0041948
0.00383075
0.00407481
0.00446667
0.0046057
0.00454819
0.00450801
0.00452092
0.00458697
0.00470595
0.00488032
0.00508747
0.00523666
0.00520479
0.00495423
0.00457819
0.0041627
0.00372254
0.00319619
0.00259104
0.0021541
0.00216973
0.00258476
0.00304365
0.00328804
0.00344543
0.00361701
0.00386405
0.00422442
0.00459602
0.00442982
0.00438342
0.00422263
0.00478914
0.00176387
0.00365531
0.00439321
0.00487609
0.00513927
0.00505703
0.00467748
0.00429226
0.00405303
0.00396414
0.003946
0.00396865
0.00400904
0.00405147
0.00408854
0.00412166
0.00416066
0.00421597
0.0042777
0.00430637
0.00426846
0.00418242
0.00409912
0.00400593
0.00374731
0.00305313
0.00219403
0.00191865
0.00232385
0.00294899
0.00324596
0.00332355
0.00334363
0.00335928
0.00336362
0.00333517
0.00327386
0.00313203
0.00290237
0.0026854
0.00171675
0.00304461
0.00485946
0.00500151
0.0048577
0.00461812
0.00439029
0.00421322
0.00408019
0.00397621
0.0038901
0.00380951
0.00372593
0.00363708
0.00354728
0.00346571
0.00340138
0.00335774
0.00333629
0.00335227
0.00344226
0.00361549
0.00374224
0.00354507
0.0024321
0.00165045
0.00193567
0.0026988
0.00316362
0.00327012
0.00324335
0.00319451
0.00315691
0.00311253
0.00298749
0.00275399
0.00240851
0.00201896
0.00138894
0.00283366
0.00528214
0.00533276
0.00511019
0.00486111
0.0046003
0.00434839
0.00411681
0.00390351
0.00366801
0.00342224
0.00318138
0.00295521
0.00275071
0.00257395
0.00243112
0.00232866
0.00227392
0.00227887
0.00236419
0.00254013
0.00271823
0.00270793
0.00213236
0.00132816
0.00142005
0.0020426
0.00253527
0.00280141
0.00299133
0.00313099
0.0032486
0.00333043
0.00331651
0.00319483
0.00301183
0.00240646
0.00140269
0.00229845
0.00246396
0.00260726
0.00273854
0.00261018
0.00242868
0.00224957
0.00209253
0.00194945
0.00181845
0.00169766
0.00159198
0.00149667
0.00140788
0.00132366
0.00124325
0.00116671
0.00109471
0.00102831
0.000968725
0.000917238
0.000875258
0.00084431
0.000826804
0.000812093
0.000785346
0.000762889
0.000825971
0.000977142
0.00103488
0.00109282
0.00115871
0.00124063
0.00133647
0.00143907
0.00154005
0.00162232
0.00159312
0.00146135
0.00134256
)
;

boundaryField
{
    floor
    {
        type            compressible::alphatWallFunction;
        Prt             0.85;
        value           nonuniform List<scalar> 
36
(
0.000145023
9.51908e-05
0.000124851
0.000128495
0.000125073
0.000118788
0.000109242
0.000101158
9.36619e-05
8.6337e-05
7.90067e-05
7.16924e-05
6.45422e-05
5.77633e-05
5.15597e-05
4.60998e-05
4.19771e-05
5.28083e-05
4.56839e-05
4.56833e-05
7.39234e-05
9.0826e-05
0.000120758
0.00013762
0.000133584
0.000128547
0.000145022
0.000154398
0.000147217
0.00011463
9.51897e-05
0.000114628
0.000110429
0.000156972
0.00015962
0.000171903
)
;
    }
    ceiling
    {
        type            compressible::alphatWallFunction;
        Prt             0.85;
        value           nonuniform List<scalar> 
43
(
0.000315737
0.000336898
0.000355099
0.000371731
0.000355537
0.000332475
0.000309534
0.000289256
0.000270636
0.000253457
0.000237497
0.00022343
0.000210654
0.000198671
0.000187225
0.000176219
0.000165667
0.000155669
0.00014638
0.000137987
0.000130685
0.000124697
0.000120263
0.000117748
0.000115617
0.00011174
0.000108491
0.000117746
0.000139179
0.000147294
0.000155394
0.000164546
0.000175844
0.000188948
0.00020286
0.000216443
0.000227442
0.000223545
0.000205861
0.000189766
0.000485572
0.000574922
0.000383587
)
;
    }
    sWall
    {
        type            compressible::alphatWallFunction;
        Prt             0.85;
        value           uniform 0.000314577;
    }
    nWall
    {
        type            compressible::alphatWallFunction;
        Prt             0.85;
        value           nonuniform List<scalar> 6(0.000128314 0.000156169 0.000191248 0.000195705 0.000197566 0.000189401);
    }
    sideWalls
    {
        type            empty;
    }
    glass1
    {
        type            compressible::alphatWallFunction;
        Prt             0.85;
        value           nonuniform List<scalar> 9(0.000109193 0.0001832 0.000247988 0.000310253 0.000369056 0.000425134 0.000478093 0.000490399 0.00047841);
    }
    glass2
    {
        type            compressible::alphatWallFunction;
        Prt             0.85;
        value           nonuniform List<scalar> 2(0.000244 0.00023787);
    }
    sun
    {
        type            compressible::alphatWallFunction;
        Prt             0.85;
        value           nonuniform List<scalar> 
14
(
0.000112518
0.000115743
0.00010958
0.000114053
0.000118395
0.000122328
0.000125913
0.000129263
0.000132516
0.000135856
0.000138845
0.000141226
0.000142976
0.000144271
)
;
    }
    Table_master
    {
        type            compressible::alphatWallFunction;
        Prt             0.85;
        value           nonuniform List<scalar> 9(8.644e-05 7.40201e-05 7.13762e-05 6.64708e-05 6.13793e-05 5.69862e-05 5.32282e-05 5.0161e-05 4.84367e-05);
    }
    Table_slave
    {
        type            compressible::alphatWallFunction;
        Prt             0.85;
        value           nonuniform List<scalar> 9(0.00013144 0.000133995 0.00013726 0.000138791 0.000138865 0.000139147 0.00013826 0.000134845 0.000128345);
    }
    inlet
    {
        type            fixedValue;
        value           uniform 1.94e-05;
    }
    outlet
    {
        type            zeroGradient;
    }
}


// ************************************************************************* //
