/*--------------------------------*- C++ -*----------------------------------*\
  =========                 |
  \\      /  F ield         | OpenFOAM: The Open Source CFD Toolbox
   \\    /   O peration     | Website:  https://openfoam.org
    \\  /    A nd           | Version:  6
     \\/     M anipulation  |
\*---------------------------------------------------------------------------*/
FoamFile
{
    version     2.0;
    format      ascii;
    class       volScalarField;
    location    "700";
    object      epsilon;
}
// * * * * * * * * * * * * * * * * * * * * * * * * * * * * * * * * * * * * * //

dimensions      [0 2 -3 0 0 0 0];

internalField   nonuniform List<scalar> 
458
(
0.000111537
0.00012089
0.000102886
0.000115748
0.000129284
0.000142474
0.000155299
0.000168
0.000181018
0.00019511
0.000208357
0.000219352
0.000227678
0.000233981
0.000237687
6.82079e-05
0.000151061
0.000164661
0.000151907
0.000130297
0.000101753
8.1302e-05
6.51057e-05
5.16255e-05
4.02436e-05
3.07826e-05
2.31739e-05
1.72927e-05
1.29181e-05
9.77427e-06
7.79154e-06
1.37066e-05
9.55102e-06
0.000529306
0.00129806
0.000119761
9.07365e-05
9.37482e-05
9.8676e-05
0.000104492
0.000111977
0.000122035
0.000135568
0.000151601
0.000168992
0.000186242
0.000201819
0.000222752
0.000287601
0.000248675
0.000117423
0.00010505
0.000229641
0.000152008
0.00012854
0.000114476
7.3866e-05
6.00323e-05
4.94466e-05
3.91141e-05
2.97744e-05
2.21679e-05
1.64334e-05
1.23241e-05
9.52457e-06
8.0633e-06
9.92426e-06
7.52068e-05
3.3437e-05
0.00136156
0.00444897
0.000267638
0.000100566
9.62081e-05
0.000101624
0.000109072
0.000118688
0.000130834
0.000145644
0.000162405
0.000178732
0.000192742
0.000203702
0.000214392
0.000232138
0.000257036
0.000302406
0.000317955
0.000284947
0.000163461
0.000126177
0.000110933
5.15535e-05
3.34101e-05
3.02309e-05
2.49186e-05
2.01449e-05
1.65799e-05
1.39065e-05
1.19636e-05
1.09595e-05
1.95971e-05
2.83549e-05
0.000247261
5.95525e-05
0.00277005
0.0102441
0.000667504
0.000127271
0.000106214
0.000113781
0.000124772
0.000138052
0.000153763
0.00017201
0.000192653
0.000211139
0.00022475
0.000233208
0.000238367
0.000245241
0.000264657
0.000314296
0.000399658
0.000250756
0.000141363
9.93845e-05
9.75553e-05
0.000121218
0.00017561
0.000186057
0.000200026
0.000206779
0.000207098
0.000208356
0.000204346
0.000189464
0.000163296
0.000127729
0.00010346
0.000221498
0.000136576
0.00482752
0.0183336
0.00160136
0.000186992
0.000118583
0.000126022
0.000141897
0.000162138
0.000186721
0.000215642
0.000248089
0.000274873
0.000291785
0.000299464
0.000298576
0.000288555
0.000268684
0.000236643
0.000185442
0.00011634
7.82148e-05
6.92917e-05
7.27897e-05
8.35434e-05
0.000100201
0.000118371
0.000138732
0.000155257
0.000159127
0.000164191
0.000164985
0.000155132
0.000132695
0.000111269
9.6474e-05
0.000126769
0.000171121
0.000202132
0.000184791
0.000164714
0.00761243
0.0260935
0.00368475
0.000412951
0.000166331
0.000151413
0.000165987
0.000191915
0.000227398
0.000274072
0.000328001
0.000363714
0.000379625
0.000383296
0.000380361
0.000371177
0.000348195
0.000296725
0.000216543
0.000138061
9.18727e-05
7.65776e-05
7.46855e-05
7.72942e-05
8.45028e-05
9.79311e-05
0.00011777
0.000139643
0.000158155
0.000179127
0.000199994
0.000209998
0.000197395
0.000154926
0.000121171
0.000110217
0.000118233
0.000139754
0.000411246
0.000298464
0.0111263
0.029983
0.0084255
0.00191798
0.000646792
0.000357427
0.000294076
0.000297473
0.000330683
0.000398131
0.000469542
0.000493834
0.000486503
0.000465668
0.000442421
0.000421336
0.000396965
0.000352068
0.000277786
0.000193767
0.000132738
0.000103864
9.32612e-05
8.79333e-05
8.568e-05
9.1253e-05
0.000110203
0.000137952
0.000165926
0.000202281
0.000248683
0.000293117
0.000323644
0.00029283
0.00022926
0.000204332
0.000218689
0.000274071
0.000855257
0.000557727
0.0120942
0.0372329
0.0179448
0.0103588
0.0052408
0.0024833
0.00135683
0.000949605
0.000810575
0.000789333
0.000752649
0.000691576
0.00062191
0.000554347
0.000494212
0.000443823
0.000401555
0.000357916
0.00030162
0.000235377
0.000176786
0.000139592
0.000124353
0.000116145
0.000105046
9.68761e-05
0.000112229
0.000148866
0.000192708
0.000245945
0.000313864
0.000399905
0.000505181
0.000627863
0.000672146
0.00085167
0.00130401
0.00177335
0.00536085
0.00122922
0.011183
0.0193559
0.015428
0.0114726
0.00816562
0.0055077
0.00366798
0.00251772
0.00183883
0.00140996
0.00111205
0.00089932
0.000741812
0.000620724
0.000524658
0.000446934
0.00038315
0.000328676
0.000278665
0.000231535
0.000190737
0.000162216
0.000149814
0.000151837
0.000144539
0.000112909
0.000116622
0.000162076
0.000226714
0.000298826
0.000382171
0.000490598
0.000634004
0.000815197
0.0010327
0.00129265
0.0016261
0.00194291
0.00224389
0.00113507
0.00699073
0.00927512
0.00689948
0.0050503
0.00364722
0.00264921
0.00196863
0.00150272
0.00117363
0.000934381
0.000755835
0.000618658
0.000510278
0.000422767
0.000351235
0.000292472
0.000244159
0.000204956
0.00017505
0.000156698
0.000154292
0.000171629
0.000193676
0.000139715
0.000115814
0.000165851
0.000244435
0.000328294
0.000404484
0.000483789
0.000583612
0.000715184
0.000880242
0.00104519
0.00117332
0.00119224
0.00108303
0.000600706
0.00501285
0.00755142
0.00571083
0.00428714
0.00323586
0.00244187
0.00185535
0.00142812
0.00111496
0.000882146
0.000705386
0.000568199
0.000459599
0.000372459
0.000302302
0.000246335
0.000202678
0.00016987
0.000146764
0.000132647
0.000126791
0.000126254
0.000121156
9.78087e-05
9.39019e-05
0.000156341
0.000231562
0.000273383
0.000327778
0.000408879
0.000522313
0.000677302
0.000866916
0.00105777
0.00121103
0.00131813
0.000766313
0.000618643
0.00270146
0.00332631
0.00394097
0.00460213
0.00399676
0.00322539
0.00256473
0.00206477
0.00166973
0.0013553
0.00110277
0.000909374
0.000755621
0.000628952
0.000522684
0.000433074
0.00035789
0.000295617
0.000245003
0.000204819
0.000173854
0.000151054
0.000135593
0.000127337
0.000120606
0.000109029
9.99458e-05
0.000127137
0.000209184
0.000248404
0.000292487
0.000348634
0.000427931
0.000534899
0.000667722
0.000818322
0.000956702
0.000906015
0.000699279
0.00054242
)
;

boundaryField
{
    floor
    {
        Cmu             0.09;
        kappa           0.41;
        E               9.8;
        type            epsilonWallFunction;
        value           nonuniform List<scalar> 
36
(
0.000237687
6.82079e-05
0.000151061
0.000164661
0.000151907
0.000130297
0.000101753
8.1302e-05
6.51057e-05
5.16255e-05
4.02436e-05
3.07826e-05
2.31739e-05
1.72927e-05
1.29181e-05
9.77427e-06
7.79154e-06
1.37066e-05
9.55102e-06
9.55102e-06
3.3437e-05
5.95525e-05
0.000136576
0.000202132
0.000184791
0.000164714
0.000237687
0.000287601
0.000248675
0.000117423
6.82079e-05
0.000117423
0.00010505
0.000302406
0.000317955
0.000399658
)
;
    }
    ceiling
    {
        Cmu             0.09;
        kappa           0.41;
        E               9.8;
        type            epsilonWallFunction;
        value           nonuniform List<scalar> 
43
(
0.00270146
0.00332631
0.00394097
0.00460213
0.00399676
0.00322539
0.00256473
0.00206477
0.00166973
0.0013553
0.00110277
0.000909374
0.000755621
0.000628952
0.000522684
0.000433074
0.00035789
0.000295617
0.000245003
0.000204819
0.000173854
0.000151054
0.000135593
0.000127337
0.000120606
0.000109029
9.99458e-05
0.000127137
0.000209184
0.000248404
0.000292487
0.000348634
0.000427931
0.000534899
0.000667722
0.000818322
0.000956702
0.000906015
0.000699279
0.00054242
0.011183
0.0193559
0.00501285
)
;
    }
    sWall
    {
        Cmu             0.09;
        kappa           0.41;
        E               9.8;
        type            epsilonWallFunction;
        value           uniform 0.00270146;
    }
    nWall
    {
        Cmu             0.09;
        kappa           0.41;
        E               9.8;
        type            epsilonWallFunction;
        value           nonuniform List<scalar> 6(0.000164714 0.000298464 0.000557727 0.000600706 0.000618643 0.00054242);
    }
    sideWalls
    {
        type            empty;
    }
    glass1
    {
        Cmu             0.09;
        kappa           0.41;
        E               9.8;
        type            epsilonWallFunction;
        value           nonuniform List<scalar> 9(0.000111537 0.000529306 0.00136156 0.00277005 0.00482752 0.00761243 0.0111263 0.0120942 0.011183);
    }
    glass2
    {
        Cmu             0.09;
        kappa           0.41;
        E               9.8;
        type            epsilonWallFunction;
        value           nonuniform List<scalar> 2(0.00122922 0.00113507);
    }
    sun
    {
        Cmu             0.09;
        kappa           0.41;
        E               9.8;
        type            epsilonWallFunction;
        value           nonuniform List<scalar> 
14
(
0.000111537
0.00012089
0.000102886
0.000115748
0.000129284
0.000142474
0.000155299
0.000168
0.000181018
0.00019511
0.000208357
0.000219352
0.000227678
0.000233981
)
;
    }
    Table_master
    {
        Cmu             0.09;
        kappa           0.41;
        E               9.8;
        type            epsilonWallFunction;
        value           nonuniform List<scalar> 9(5.15535e-05 3.34101e-05 3.02309e-05 2.49186e-05 2.01449e-05 1.65799e-05 1.39065e-05 1.19636e-05 1.09595e-05);
    }
    Table_slave
    {
        Cmu             0.09;
        kappa           0.41;
        E               9.8;
        type            epsilonWallFunction;
        value           nonuniform List<scalar> 9(0.00017561 0.000186057 0.000200026 0.000206779 0.000207098 0.000208356 0.000204346 0.000189464 0.000163296);
    }
    inlet
    {
        type            turbulentMixingLengthDissipationRateInlet;
        mixingLength    0.01;
        phi             phi;
        k               k;
        value           uniform 0.000471672;
    }
    outlet
    {
        type            zeroGradient;
    }
}


// ************************************************************************* //
