/*--------------------------------*- C++ -*----------------------------------*=========                 |
  \      /  F ield         | OpenFOAM: The Open Source CFD Toolbox
   \    /   O peration     | Website:  https://openfoam.org
    \  /    A nd           | Version:  6
     \/     M anipulation  |
\*---------------------------------------------------------------------------*/
FoamFile
{
    version     2.0;
    format      ascii;
    class       volScalarField;
    location    "700";
    object      PMV;
}
// * * * * * * * * * * * * * * * * * * * * * * * * * * * * * * * * * * * * * //

dimensions      [0 0 0 0 0 0 0];

internalField   nonuniform List<scalar> 
458
(
1.67177746614597
1.4879333227679252
1.5021318404361694
1.4873242134530222
1.4743075050450287
1.4639369365833643
1.4555188207325582
1.449730373149449
1.4473339404760497
1.4488581852526845
1.4546206941694013
1.4667402526060673
1.4880244947663397
1.5074374413803904
1.4878053933205846
1.4715698172031861
1.4596109947235976
1.4596109947235976
1.4600893636665317
1.45769750573406
1.4418038405495288
1.440298492105741
1.4481297466759715
1.445259318083517
1.4423888435262058
1.4390398988905402
1.434734022507654
1.429471148066193
1.4227727298477522
1.4136816422510408
1.401719038993189
1.386884423411164
1.386884423411164
1.6735196488904713
1.48463626148119
1.5203899851349643
1.5015078471464531
1.490749517714574
1.4827081341283244
1.4766421543106039
1.4724758225247687
1.4708171687512375
1.470960658407155
1.4733366542052246
1.4766108593570741
1.4796883469355617
1.476897698333304
1.4674572773092354
1.4938590921507413
1.5380467212475815
1.545823507275188
1.3967506378237367
1.4605677312845395
1.4634379090813199
1.4648729799660956
1.4591326244573417
1.4466945381461112
1.4385614731885275
1.432341825379071
1.4275573386398968
1.423251196176545
1.4189449559440535
1.4136816422510408
1.4079396830981068
1.401719038993189
1.394062597353604
1.3835345242320687
1.372048754684847
1.2982814157492713
1.7482867790148524
1.4784799108370845
1.5504877576734264
1.5293614271814668
1.524844377031799
1.5220453805091596
1.5207892494338304
1.5203773297362377
1.5202668685342817
1.5206070506655804
1.519977852777588
1.5161436385852258
1.5061679448291663
1.487601196288159
1.4638256685494515
1.446906326102954
1.4267671326287885
1.3949121023325892
1.4710914804928905
1.4710914804928905
1.4753964616908322
1.4550392050718266
1.4270079207244168
1.4332987079479251
1.4213373236342286
1.4165525584140528
1.4127246607627706
1.4079396830981068
1.4036331040125063
1.3988479072759747
1.394062597353604
1.3892771756931177
1.386405869661599
1.3806631397129001
1.3734845094115509
1.220110510011053
1.8418929068299492
1.4861231904121703
1.5788648087347048
1.5592589311169633
1.5633976199914692
1.5690543167022681
1.575384511171349
1.5812783145034213
1.5861415777695913
1.5889672614458417
1.589592523621432
1.5833130156792203
1.567464132421964
1.540501929799097
1.5052904923433632
1.4646211814657126
1.41694197271393
1.368556902520426
1.3485363868139002
1.38688892851781
1.4053323153479633
1.4220498264142736
1.402778222522742
1.3780446474614922
1.390270830656663
1.4385665905115386
1.453392078609334
1.4462161327379455
1.4433456734653378
1.3957229768364654
1.3608415982697164
1.3368505231476946
1.3245052186906294
1.3257276737191481
1.3396968870711827
1.3253646843770177
1.305623994762816
1.9385789528011714
1.5102791822226216
1.6008671318006442
1.5863698322204172
1.599964209164785
1.6149465094086557
1.630706817649662
1.6456487712254368
1.6588965083718095
1.6681900460499746
1.6728381626780526
1.6690644212560415
1.6546673117670034
1.6296729163288632
1.5951897067669798
1.5526411849851829
1.5045444899443245
1.4610226332739702
1.4375602806079728
1.4362755481284935
1.4521282804150422
1.4553232061684938
1.4394204620574946
1.4224758831957984
1.4245857354570521
1.43678913028942
1.4502746618420232
1.4572191301899786
1.4529136912815763
1.4328498124800257
1.401492775449457
1.3756386879731393
1.3547008324559626
1.3397894705827353
1.3306707912498326
1.2984239704846638
1.3183362859914722
1.2549862553663151
1.2275386888024449
1.2145343058249347
2.026968260843167
1.5511077772234503
1.632586901101476
1.6127031621017032
1.630474966151354
1.6543393245811948
1.6806960955887449
1.7072225878492109
1.731455449536866
1.7506660203574855
1.7616362357076072
1.7595999759729433
1.7469587932850057
1.726214724190476
1.698774170784529
1.6646350780898949
1.626302920498802
1.5905853930109888
1.5641986778589287
1.5506012060037115
1.5426991534468433
1.5257947977043034
1.498286780349748
1.4705390245196954
1.4500432575732611
1.4334078546202043
1.4202537925712058
1.4207303597254062
1.4355734207010853
1.4385175000840205
1.4315384243410905
1.4192255178443474
1.4004018188521503
1.369914246125665
1.3435161380934457
1.3086773459672365
1.3003287608560592
1.3096507894850873
1.2942252521454172
1.2314268604795662
2.100925706827996
1.6400013844087202
1.7569228205520766
1.6703019665128673
1.660121883090683
1.6900723729893694
1.7284945750440284
1.7639878750361417
1.784026378989318
1.8054909929424967
1.8250427583336506
1.8364854598862843
1.8200846081397068
1.802834212862448
1.7850521343187296
1.7649951658475318
1.7437069341008762
1.7235172026644714
1.7069921189419834
1.687610862320324
1.6608651650842399
1.6317545932576216
1.5853377491714553
1.5368762038775872
1.4903154506946075
1.4474451723418618
1.410443567414891
1.3946620490739483
1.4089013653944187
1.4229388433053842
1.4356844434596399
1.4514495913814436
1.4543488493540782
1.4445811396774622
1.3918435046027366
1.347682472634661
1.3240484864430102
1.318187695692957
1.2605248248438514
1.2255878144437211
2.2295138710991704
1.9565238515647785
1.9510037570247019
1.819429928920599
1.7640717487712565
1.7570536297359456
1.7724032542308452
1.7911957660387703
1.8045371276210658
1.8067750647159806
1.808132149548593
1.8093002499216337
1.8088272259922282
1.8065307924478349
1.8048158663660094
1.8030538924771182
1.8020665788875962
1.7959518439945912
1.7735305934141763
1.7496718852448587
1.7238975061296824
1.694773734504531
1.6637310937040979
1.6298129010896465
1.5541806663143989
1.4826190016337655
1.421022320597407
1.3851007082040776
1.3968189110125495
1.4095170154553338
1.4191696807621785
1.4304667103650262
1.4494573671664794
1.45769750573406
1.441910426654475
1.4337771473751542
1.428514245800124
1.4261219687493962
1.2868702352716708
1.1668692072460176
2.412796145337233
2.2683707588385404
2.147171813590921
2.0218382369495536
1.916730829766887
1.8462088052716115
1.8035604822190054
1.7805143858851893
1.7703193123778136
1.7676596927972508
1.766812858767986
1.766148846433
1.7664697962973257
1.7670073587522797
1.7691905584851775
1.771684841985161
1.7758597053227194
1.779141925193363
1.780508318309436
1.7778207331588527
1.7678050862251673
1.7463311632910279
1.720078485063787
1.6871333198622005
1.640801594290425
1.5476091236957494
1.4585059707387753
1.393443030818867
1.4017261204600067
1.4089736114178635
1.4019281937964496
1.3884642102897085
1.3698074442808477
1.3468731059196233
1.324414219177256
1.306167289846324
1.286058333564829
1.27228745190656
1.257049673258449
1.213140545278843
0.1087486771467119
1.2045585675768893
1.5482568597601851
1.672802474481477
1.7138806274629614
1.7255332653791904
1.7269842267335516
1.7258482661499681
1.725916748529789
1.7253866738752879
1.7261479043846888
1.727506683742551
1.730220622212796
1.7338895502486604
1.7380022400299764
1.7418825201452248
1.7437661643584985
1.743642228266764
1.7408953041117483
1.7356358906183074
1.729648219713819
1.724460304179494
1.6976387434249076
1.649400706766016
1.5397086234259885
1.4288913360970923
1.4339477278647885
1.4364979706172596
1.4123930812131074
1.3892235038220682
1.3717326242520314
1.3601822755996458
1.350604603686943
1.3429292007073192
1.3420181909625446
1.3611019358096472
1.3921333337980184
1.2865579221085544
0.4250584448599845
1.2278310711996563
1.5192565478662448
1.6307936807291339
1.6724221058521587
1.6842551984056366
1.6847822128218275
1.6833883461940373
1.6832326279030503
1.684690641329746
1.6876005938914913
1.6919050335302297
1.6970796751930584
1.7025693344959223
1.7077703564368907
1.7125472031155586
1.7158035848450834
1.717121434735145
1.7164121616750572
1.712986723255657
1.7071564272158297
1.6990959889374075
1.6941074786756238
1.7074361778337837
1.6629689979998579
1.4796669814999714
1.4689903901614003
1.480651438413366
1.4485977055378076
1.4282274842267657
1.418141831041983
1.4156032871491435
1.4179305547069598
1.4204783753217762
1.4206042963480898
1.4331490991487688
1.4193404115654322
1.3319880620944586
0.895414493494166
0.8259636731619804
0.8616921936804647
1.3740800328820733
1.590074698177624
1.728313514829758
1.7164295753107193
1.686997249333371
1.6681957654929656
1.6582107855972301
1.654256991665503
1.65516691055874
1.6582627581529532
1.663492388092544
1.6694741919087421
1.675395799200322
1.6809398205687502
1.6843278111059725
1.6859323340445176
1.6849117312394457
1.6813013616953685
1.6759707648024105
1.6684545909844704
1.660449273728298
1.649381511980586
1.635246008393479
1.6074272988617664
1.4751151323665699
1.332866099335356
1.344563246578305
1.3542192969365756
1.3669482806419007
1.3882213123577825
1.4233672902954508
1.4863743979625155
1.5050499085039257
1.5107886418910887
1.4410036947266265
1.360705382041018
1.3651779554963221
)
;

boundaryField
{
    ".*"
    {
        type            zeroGradient;
    }
}


// ************************************************************************* //
