/*--------------------------------*- C++ -*----------------------------------*\
  =========                 |
  \\      /  F ield         | OpenFOAM: The Open Source CFD Toolbox
   \\    /   O peration     | Website:  https://openfoam.org
    \\  /    A nd           | Version:  6
     \\/     M anipulation  |
\*---------------------------------------------------------------------------*/
FoamFile
{
    version     2.0;
    format      ascii;
    class       volVectorField;
    location    "2200";
    object      U;
}
// * * * * * * * * * * * * * * * * * * * * * * * * * * * * * * * * * * * * * //

dimensions      [0 1 -1 0 0 0 0];

internalField   nonuniform List<vector> 
458
(
(0.0258236 0.0873603 0)
(-0.170908 0.0271927 0)
(-0.198401 0.0168581 0)
(-0.22787 0.00948662 0)
(-0.246042 0.00158684 0)
(-0.251599 -0.00661394 0)
(-0.242879 -0.0150274 0)
(-0.22117 -0.0232613 0)
(-0.18835 -0.029988 0)
(-0.148169 -0.0342293 0)
(-0.105069 -0.0355344 0)
(-0.0636052 -0.0335939 0)
(-0.0278737 -0.0276533 0)
(0.00131488 -0.0130087 0)
(-0.00488998 0.00932455 0)
(-0.0147591 0.00994934 0)
(-0.0324595 -0.0157053 0)
(-0.0111646 -0.0281746 0)
(0.0174386 -0.0250072 0)
(0.0369108 -0.0181992 0)
(0.0518916 -0.0100865 0)
(0.0611293 -0.00573096 0)
(0.0654946 -0.00413184 0)
(0.0674314 -0.00351387 0)
(0.0685813 -0.00311982 0)
(0.0693699 -0.0027974 0)
(0.0697524 -0.00247294 0)
(0.06949 -0.00194183 0)
(0.0680159 -0.000824279 0)
(0.0641206 0.00140017 0)
(0.0563795 0.00427751 0)
(0.0457834 0.00810184 0)
(0.0017753 0.0226164 0)
(0.193962 0.178568 0)
(-0.155688 0.0723746 0)
(-0.158257 0.0527906 0)
(-0.188417 0.0372368 0)
(-0.206482 0.0197379 0)
(-0.212386 0.000464606 0)
(-0.20427 -0.0200231 0)
(-0.184207 -0.0390845 0)
(-0.154711 -0.0536593 0)
(-0.119697 -0.0619862 0)
(-0.0831268 -0.0637592 0)
(-0.0485998 -0.0591618 0)
(-0.0187378 -0.0481966 0)
(0.00734707 -0.0287965 0)
(0.0252762 -0.007412 0)
(0.0434157 0.00810885 0)
(0.0482064 0.029735 0)
(-0.0107229 0.0592704 0)
(0.042917 0.0389307 0)
(0.0177783 -0.02137 0)
(0.0304331 -0.036785 0)
(0.0441369 -0.0352344 0)
(0.0562757 -0.0273562 0)
(0.0626401 -0.0125593 0)
(0.0643723 -0.00345087 0)
(0.0644746 -4.59335e-05 0)
(0.0646599 0.00117837 0)
(0.0650074 0.00184503 0)
(0.065263 0.00232657 0)
(0.0653789 0.0028714 0)
(0.0653017 0.00382796 0)
(0.0645501 0.00603139 0)
(0.0609795 0.0117164 0)
(0.052014 0.017608 0)
(0.0437196 0.0241421 0)
(-0.0320214 0.0477958 0)
(0.348239 0.266433 0)
(-0.167105 0.113512 0)
(-0.11829 0.0843369 0)
(-0.146864 0.0576224 0)
(-0.162743 0.0288603 0)
(-0.167136 -0.00253218 0)
(-0.157291 -0.0351212 0)
(-0.136903 -0.064282 0)
(-0.109651 -0.0850946 0)
(-0.079523 -0.0955695 0)
(-0.0496722 -0.0961007 0)
(-0.0225258 -0.0876315 0)
(0.000803619 -0.0710734 0)
(0.0203102 -0.04808 0)
(0.0356505 -0.0250095 0)
(0.0452619 -0.00635422 0)
(0.0465981 0.0170985 0)
(-0.00283142 0.0579095 0)
(0.0985744 -0.0138743 0)
(0.0691338 -0.0365724 0)
(0.0664647 -0.0443031 0)
(0.0701658 -0.0427738 0)
(0.0747925 -0.0383698 0)
(0.0757513 -0.0286875 0)
(0.066042 -0.0184834 0)
(0.0585398 -0.0130171 0)
(0.0554182 -0.00999851 0)
(0.0542139 -0.00807381 0)
(0.0534729 -0.00677601 0)
(0.0530222 -0.00579515 0)
(0.053435 -0.00455772 0)
(0.0558611 -0.000899501 0)
(0.0550768 0.0156757 0)
(0.0450288 0.0281556 0)
(0.0449576 0.0397151 0)
(-0.0641898 0.0732318 0)
(0.487902 0.336742 0)
(-0.196278 0.149178 0)
(-0.0770728 0.110964 0)
(-0.102618 0.0749012 0)
(-0.113067 0.0368074 0)
(-0.111461 -0.00607556 0)
(-0.0964675 -0.050969 0)
(-0.0747814 -0.0887618 0)
(-0.0508672 -0.113374 0)
(-0.0275444 -0.124003 0)
(-0.00631856 -0.122299 0)
(0.01206 -0.109622 0)
(0.0266438 -0.0893728 0)
(0.0391348 -0.0637333 0)
(0.0497657 -0.0366518 0)
(0.0584804 -0.0105835 0)
(0.0693627 0.0171298 0)
(0.0744602 0.0493194 0)
(0.112125 0.0441091 0)
(0.110496 -0.00833649 0)
(0.0962461 -0.0317259 0)
(0.0868838 -0.0391284 0)
(0.0796785 -0.0388107 0)
(0.0718547 -0.0334785 0)
(0.0700254 -0.0196635 0)
(0.0788169 -0.0124275 0)
(0.0856048 -0.00858103 0)
(0.0885195 -0.00628171 0)
(0.0893075 -0.00447658 0)
(0.0883302 -0.00261804 0)
(0.0850589 -0.000381008 0)
(0.0782549 0.00269646 0)
(0.0658373 0.00724833 0)
(0.0520664 0.0246337 0)
(0.0404784 0.0408908 0)
(0.0505022 0.0566737 0)
(-0.0872043 0.0957467 0)
(0.608498 0.390758 0)
(-0.233921 0.177486 0)
(-0.0376536 0.125648 0)
(-0.0564104 0.0841049 0)
(-0.0577159 0.0390078 0)
(-0.0413754 -0.0148801 0)
(-0.0187903 -0.069772 0)
(0.00258041 -0.111453 0)
(0.0198793 -0.1348 0)
(0.0330799 -0.142106 0)
(0.0427978 -0.136894 0)
(0.0495441 -0.121678 0)
(0.0542943 -0.0992645 0)
(0.0581776 -0.0724263 0)
(0.0620399 -0.0444232 0)
(0.0668295 -0.0177148 0)
(0.075412 0.00633477 0)
(0.0880511 0.0184868 0)
(0.100014 -0.00121656 0)
(0.0983028 -0.0202098 0)
(0.0900351 -0.0289676 0)
(0.0800204 -0.031584 0)
(0.0704396 -0.0301808 0)
(0.0620763 -0.0244367 0)
(0.0584155 -0.0127086 0)
(0.0596476 -0.00568861 0)
(0.0614318 -0.00261971 0)
(0.0624591 -0.000944129 0)
(0.0631301 0.000895024 0)
(0.0634933 0.00352865 0)
(0.0628377 0.00735313 0)
(0.0605687 0.0128525 0)
(0.056154 0.0208192 0)
(0.050505 0.0345678 0)
(0.0431975 0.050829 0)
(0.0628146 0.0705003 0)
(0.0048155 0.102118 0)
(0.0567544 0.129922 0)
(-0.0701698 0.053443 0)
(-0.259878 -0.00756217 0)
(0.696654 0.435002 0)
(-0.271272 0.195196 0)
(-0.00730898 0.119155 0)
(-0.00676555 0.0804381 0)
(0.0089822 0.0269889 0)
(0.0481137 -0.0387065 0)
(0.0732335 -0.0910454 0)
(0.0888231 -0.1261 0)
(0.095953 -0.144169 0)
(0.096632 -0.14747 0)
(0.0927604 -0.138905 0)
(0.0860896 -0.12147 0)
(0.0784409 -0.0981565 0)
(0.0713508 -0.0716174 0)
(0.0660317 -0.0448421 0)
(0.0635162 -0.0206069 0)
(0.0653702 -0.00151925 0)
(0.0712857 0.00700455 0)
(0.075187 -0.000227614 0)
(0.0725638 -0.0104191 0)
(0.0650942 -0.0178475 0)
(0.0558825 -0.0212501 0)
(0.0469297 -0.0210161 0)
(0.0393203 -0.0173507 0)
(0.0347526 -0.0108672 0)
(0.0335715 -0.00643146 0)
(0.0340537 -0.00439265 0)
(0.0352602 -0.00323359 0)
(0.0370578 -0.00165007 0)
(0.039596 0.00130398 0)
(0.0420326 0.0061056 0)
(0.0440167 0.0130403 0)
(0.0455746 0.0225085 0)
(0.0475693 0.0354458 0)
(0.0489482 0.0509627 0)
(0.0682324 0.0708567 0)
(0.0607912 0.0870751 0)
(0.0931634 0.089996 0)
(0.109303 0.0547278 0)
(-0.125488 -0.0203686 0)
(0.757481 0.475114 0)
(-0.287888 0.177889 0)
(0.028483 0.0581667 0)
(0.068532 0.0347866 0)
(0.119418 -0.0167583 0)
(0.155906 -0.070084 0)
(0.175496 -0.109592 0)
(0.180214 -0.133009 0)
(0.172733 -0.141816 0)
(0.156683 -0.138489 0)
(0.135658 -0.12583 0)
(0.112784 -0.106801 0)
(0.090696 -0.0840321 0)
(0.0712178 -0.0594554 0)
(0.0557313 -0.0356385 0)
(0.0450553 -0.0153198 0)
(0.0396533 -0.000793171 0)
(0.0393078 0.00525261 0)
(0.0392048 0.00182003 0)
(0.0364375 -0.00488669 0)
(0.0306013 -0.0104722 0)
(0.0233257 -0.0133497 0)
(0.0160016 -0.0135748 0)
(0.00971013 -0.0115897 0)
(0.00568041 -0.0083039 0)
(0.0042702 -0.00605896 0)
(0.00461901 -0.00527875 0)
(0.00607771 -0.00509691 0)
(0.00851011 -0.00449643 0)
(0.0120172 -0.00242387 0)
(0.0174219 0.00217681 0)
(0.0232672 0.00913267 0)
(0.029648 0.0181225 0)
(0.0375888 0.0292816 0)
(0.0463466 0.041896 0)
(0.0648995 0.0575134 0)
(0.0790876 0.0656171 0)
(0.108976 0.0600328 0)
(0.149453 0.0499219 0)
(-0.0273064 0.0896583 0)
(0.865216 0.470961 0)
(-0.0436316 0.152346 0)
(0.1262 -0.0443111 0)
(0.239627 -0.0887642 0)
(0.282469 -0.103046 0)
(0.295057 -0.115656 0)
(0.289823 -0.124456 0)
(0.269405 -0.126556 0)
(0.23703 -0.121652 0)
(0.197555 -0.110573 0)
(0.155725 -0.0946942 0)
(0.115363 -0.0759716 0)
(0.0792013 -0.0560937 0)
(0.0485919 -0.0358325 0)
(0.025329 -0.017302 0)
(0.00955464 -0.00316237 0)
(0.00142975 0.00489926 0)
(-0.000227546 0.00684766 0)
(-0.00107006 0.0037667 0)
(-0.00322287 -0.0010479 0)
(-0.00732256 -0.00500134 0)
(-0.0126443 -0.00720047 0)
(-0.0180939 -0.00776327 0)
(-0.0227475 -0.00718401 0)
(-0.0258144 -0.00623024 0)
(-0.0271819 -0.00592393 0)
(-0.0273833 -0.00643689 0)
(-0.026859 -0.00733885 0)
(-0.025705 -0.00806152 0)
(-0.0237106 -0.00796093 0)
(-0.0201937 -0.00624832 0)
(-0.0131181 -0.00221091 0)
(-0.00453015 0.00369178 0)
(0.00616046 0.0106912 0)
(0.0175499 0.0166713 0)
(0.0342131 0.0228875 0)
(0.0510435 0.0195167 0)
(0.0749835 0.00481984 0)
(0.137373 0.0432691 0)
(-0.384122 0.192836 0)
(1.01701 0.418394 0)
(0.477513 0.273174 0)
(0.504719 0.166322 0)
(0.533843 0.0766785 0)
(0.506168 0.014548 0)
(0.449528 -0.0276987 0)
(0.385744 -0.0525044 0)
(0.318723 -0.0630249 0)
(0.250061 -0.0630236 0)
(0.183727 -0.0558756 0)
(0.123399 -0.0441873 0)
(0.0716807 -0.030533 0)
(0.0290075 -0.0166914 0)
(-0.00595167 -0.0037056 0)
(-0.0263353 0.00416795 0)
(-0.0361074 0.00784883 0)
(-0.0396314 0.00888529 0)
(-0.0403351 0.00786666 0)
(-0.040849 0.00513957 0)
(-0.0424587 0.00185911 0)
(-0.0450764 -0.00088838 0)
(-0.0486832 -0.00268691 0)
(-0.0525444 -0.00370521 0)
(-0.0560472 -0.00428587 0)
(-0.0588495 -0.00482357 0)
(-0.0610659 -0.00565778 0)
(-0.0631749 -0.00673365 0)
(-0.0657011 -0.00770807 0)
(-0.0691211 -0.00807926 0)
(-0.0739276 -0.00716751 0)
(-0.0807838 -0.0041079 0)
(-0.0898498 0.00179123 0)
(-0.100168 0.0105718 0)
(-0.113869 0.0225425 0)
(-0.135105 0.0380726 0)
(-0.166428 0.0567116 0)
(-0.209712 0.0755353 0)
(-0.25871 0.0915593 0)
(-0.327994 0.103051 0)
(-0.591776 0.108762 0)
(-0.203873 -0.107621 0)
(0.0933829 -0.0972581 0)
(0.156773 -0.0807272 0)
(0.138798 -0.0576356 0)
(0.113987 -0.036093 0)
(0.084923 -0.0189898 0)
(0.0484097 -0.00582928 0)
(0.0107838 0.00333004 0)
(-0.0234147 0.00941113 0)
(-0.0472321 0.0126997 0)
(-0.0632701 0.0145263 0)
(-0.071894 0.014687 0)
(-0.0760458 0.0138021 0)
(-0.0775238 0.0128389 0)
(-0.0775915 0.0119779 0)
(-0.0772643 0.0109808 0)
(-0.0775045 0.00975086 0)
(-0.0788166 0.00864572 0)
(-0.0810689 0.00810517 0)
(-0.0837885 0.00821585 0)
(-0.0866687 0.00878189 0)
(-0.0894869 0.00950455 0)
(-0.0921989 0.0100762 0)
(-0.0949935 0.0102734 0)
(-0.098135 0.010152 0)
(-0.101822 0.00995889 0)
(-0.106165 0.00992776 0)
(-0.110998 0.010646 0)
(-0.115818 0.0127834 0)
(-0.120172 0.0172518 0)
(-0.124111 0.0252854 0)
(-0.127577 0.037628 0)
(-0.131042 0.0540063 0)
(-0.134737 0.0720336 0)
(-0.135551 0.0838262 0)
(-0.120432 0.0696152 0)
(-0.0913559 -0.0109427 0)
(-0.259596 -0.18586 0)
(0.0766273 0.129116 0)
(0.00289894 0.027405 0)
(-0.0366706 -0.0114774 0)
(-0.0693987 -0.00624193 0)
(-0.0923264 0.00245718 0)
(-0.107324 0.00788248 0)
(-0.114603 0.0104127 0)
(-0.119257 0.0103491 0)
(-0.121515 0.00776113 0)
(-0.121489 0.00374094 0)
(-0.119793 -0.000173365 0)
(-0.116829 -0.00387542 0)
(-0.113478 -0.00756787 0)
(-0.110298 -0.0111102 0)
(-0.10753 -0.0145356 0)
(-0.105376 -0.0182245 0)
(-0.104115 -0.0225248 0)
(-0.103895 -0.0273837 0)
(-0.104595 -0.0324183 0)
(-0.105939 -0.0371962 0)
(-0.107662 -0.0414111 0)
(-0.109585 -0.0448539 0)
(-0.111634 -0.0473273 0)
(-0.113789 -0.0485836 0)
(-0.115992 -0.0483613 0)
(-0.118054 -0.0463714 0)
(-0.119674 -0.0422383 0)
(-0.120535 -0.0358595 0)
(-0.120139 -0.0271505 0)
(-0.117683 -0.0159623 0)
(-0.111996 -0.00200266 0)
(-0.101761 0.015086 0)
(-0.0861119 0.0349556 0)
(-0.0652249 0.0548094 0)
(-0.0410759 0.0684662 0)
(-0.00585029 0.0586605 0)
(0.142185 -0.0124418 0)
(-0.19533 -0.098056 0)
(0.0743863 -0.255025 0)
(-0.351979 -0.120837 0)
(-0.276747 0.0222525 0)
(-0.267157 -0.00554193 0)
(-0.250137 0.000574737 0)
(-0.247385 0.0113412 0)
(-0.242012 0.0204623 0)
(-0.233008 0.028426 0)
(-0.220638 0.0360104 0)
(-0.206349 0.0431969 0)
(-0.191737 0.0497803 0)
(-0.178249 0.0559471 0)
(-0.166498 0.0618968 0)
(-0.156509 0.0675755 0)
(-0.148112 0.0731359 0)
(-0.140965 0.0788897 0)
(-0.134691 0.0851049 0)
(-0.129066 0.0919571 0)
(-0.124062 0.0994448 0)
(-0.119726 0.107297 0)
(-0.11606 0.115025 0)
(-0.112999 0.122115 0)
(-0.110443 0.128171 0)
(-0.108299 0.13292 0)
(-0.106504 0.136125 0)
(-0.105019 0.137506 0)
(-0.103804 0.136791 0)
(-0.102773 0.13378 0)
(-0.101702 0.128453 0)
(-0.10012 0.121308 0)
(-0.0971526 0.113229 0)
(-0.0912676 0.105405 0)
(-0.0802705 0.0992168 0)
(-0.0621262 0.0961115 0)
(-0.036392 0.0971617 0)
(0.000628426 0.10168 0)
(0.04213 0.103549 0)
(0.0791512 0.0949281 0)
(0.156761 0.0756044 0)
(-0.265398 0.0374435 0)
)
;

boundaryField
{
    floor
    {
        type            noSlip;
    }
    ceiling
    {
        type            noSlip;
    }
    sWall
    {
        type            noSlip;
    }
    nWall
    {
        type            noSlip;
    }
    sideWalls
    {
        type            empty;
    }
    glass1
    {
        type            noSlip;
    }
    glass2
    {
        type            noSlip;
    }
    sun
    {
        type            noSlip;
    }
    Table_master
    {
        type            noSlip;
    }
    Table_slave
    {
        type            noSlip;
    }
    inlet
    {
        type            fixedValue;
        value           uniform (0.212132 -0.212132 0);
    }
    outlet
    {
        type            zeroGradient;
    }
}


// ************************************************************************* //
