/*--------------------------------*- C++ -*----------------------------------*\
  =========                 |
  \\      /  F ield         | OpenFOAM: The Open Source CFD Toolbox
   \\    /   O peration     | Website:  https://openfoam.org
    \\  /    A nd           | Version:  6
     \\/     M anipulation  |
\*---------------------------------------------------------------------------*/
FoamFile
{
    version     2.0;
    format      ascii;
    class       volScalarField;
    location    "500";
    object      T;
}
// * * * * * * * * * * * * * * * * * * * * * * * * * * * * * * * * * * * * * //

dimensions      [0 0 0 1 0 0 0];

internalField   nonuniform List<scalar> 
458
(
304.118
303.812
303.809
303.821
303.834
303.846
303.857
303.867
303.877
303.885
303.892
303.896
303.898
303.898
303.895
302.562
302.568
302.586
302.58
302.571
302.578
302.57
302.562
302.559
302.561
302.568
302.575
302.582
302.6
302.634
302.697
302.698
302.693
304.355
303.922
303.888
303.903
303.921
303.937
303.953
303.966
303.978
303.987
303.992
303.991
303.982
303.963
303.929
303.892
303.846
303.759
302.663
302.667
302.671
302.671
302.652
302.681
302.692
302.702
302.718
302.741
302.776
302.834
302.902
302.969
303.034
302.997
302.874
302.754
304.568
304.044
303.978
303.987
304.011
304.035
304.058
304.078
304.095
304.108
304.116
304.114
304.101
304.071
304.024
303.961
303.889
303.824
303.071
303.02
303.005
303.021
303.023
302.837
302.9
302.97
303.037
303.104
303.174
303.248
303.339
303.458
303.599
303.592
303.595
303.617
304.762
304.177
304.081
304.078
304.106
304.138
304.169
304.199
304.224
304.245
304.259
304.262
304.251
304.222
304.171
304.096
303.994
303.865
303.744
303.649
303.707
303.813
303.928
304.014
304.065
304.077
304.088
304.098
304.11
304.121
304.132
304.14
304.139
304.113
304.138
304.174
304.202
304.943
304.326
304.215
304.192
304.215
304.25
304.289
304.328
304.363
304.393
304.415
304.426
304.425
304.408
304.374
304.324
304.261
304.192
304.132
304.093
304.093
304.12
304.151
304.172
304.185
304.194
304.204
304.218
304.234
304.255
304.279
304.305
304.331
304.356
304.392
304.43
304.472
304.492
304.461
304.441
305.108
304.5
304.412
304.378
304.373
304.397
304.436
304.478
304.52
304.556
304.583
304.6
304.605
304.597
304.574
304.536
304.485
304.429
304.376
304.336
304.314
304.304
304.301
304.298
304.296
304.296
304.299
304.306
304.319
304.34
304.367
304.399
304.435
304.472
304.507
304.538
304.559
304.564
304.502
304.448
305.26
304.728
304.714
304.694
304.651
304.638
304.656
304.685
304.721
304.751
304.775
304.791
304.799
304.797
304.782
304.754
304.712
304.662
304.609
304.563
304.525
304.495
304.472
304.452
304.435
304.42
304.407
304.4
304.399
304.407
304.426
304.454
304.49
304.527
304.562
304.59
304.608
304.607
304.574
304.454
305.475
305.104
305.203
305.196
305.109
305.04
305.01
305
304.997
305.004
305.014
305.02
305.022
305.019
305.009
304.988
304.954
304.91
304.86
304.81
304.764
304.721
304.683
304.649
304.616
304.585
304.555
304.529
304.506
304.491
304.487
304.497
304.519
304.55
304.586
304.622
304.655
304.684
304.709
304.74
305.764
305.638
306.022
305.961
305.747
305.578
305.474
305.412
305.376
305.35
305.328
305.314
305.302
305.289
305.272
305.249
305.219
305.18
305.134
305.084
305.033
304.983
304.935
304.889
304.844
304.8
304.755
304.712
304.669
304.631
304.601
304.58
304.571
304.574
304.587
304.608
304.631
304.653
304.68
304.767
309.206
306.803
306.132
305.912
305.809
305.753
305.721
305.7
305.684
305.666
305.645
305.621
305.593
305.561
305.523
305.48
305.432
305.38
305.325
305.27
305.215
305.16
305.106
305.052
304.997
304.942
304.887
304.832
304.781
304.736
304.7
304.678
304.672
304.676
304.687
304.698
304.704
304.712
308.593
307.237
306.761
306.488
306.335
306.246
306.187
306.143
306.105
306.068
306.03
305.988
305.944
305.896
305.845
305.791
305.734
305.675
305.615
305.553
305.491
305.43
305.369
305.308
305.247
305.186
305.125
305.063
305.003
304.944
304.891
304.851
304.823
304.805
304.796
304.787
304.759
304.735
308.622
308.574
308.496
308.015
307.624
307.341
307.147
307.001
306.882
306.78
306.687
306.599
306.516
306.436
306.358
306.282
306.208
306.137
306.067
305.998
305.93
305.863
305.797
305.732
305.668
305.604
305.54
305.475
305.411
305.347
305.282
305.218
305.155
305.096
305.04
304.987
304.936
304.88
304.781
304.646
)
;

boundaryField
{
    floor
    {
        type            wallHeatTransfer;
        Tinf            uniform 305.2;
        alphaWall       uniform 0.24;
        value           nonuniform List<scalar> 
36
(
304.075
303.209
303.174
303.169
303.228
303.324
303.386
303.368
303.326
303.28
303.241
303.215
303.204
303.204
303.209
303.223
303.244
303.248
303.277
303.277
303.271
303.849
304.317
304.559
304.539
304.53
304.075
304.058
304.024
303.991
303.209
303.991
303.17
303.992
303.37
303.909
)
;
    }
    ceiling
    {
        type            wallHeatTransfer;
        Tinf            uniform 303.2;
        alphaWall       uniform 0.24;
        value           nonuniform List<scalar> 
43
(
308.201
308.263
308.33
307.851
307.447
307.149
306.938
306.778
306.645
306.531
306.43
306.337
306.251
306.171
306.096
306.025
305.957
305.892
305.828
305.765
305.704
305.642
305.581
305.521
305.461
305.401
305.341
305.281
305.221
305.161
305.101
305.041
304.982
304.926
304.873
304.821
304.77
304.711
304.616
304.507
305.652
305.544
308.467
)
;
    }
    sWall
    {
        type            wallHeatTransfer;
        Tinf            uniform 315.2;
        alphaWall       uniform 0.36;
        value           uniform 309.36;
    }
    nWall
    {
        type            wallHeatTransfer;
        Tinf            uniform 307.2;
        alphaWall       uniform 0.36;
        value           nonuniform List<scalar> 6(304.9 304.902 304.906 305.008 305.035 304.998);
    }
    sideWalls
    {
        type            empty;
    }
    glass1
    {
        type            wallHeatTransfer;
        Tinf            uniform 315.2;
        alphaWall       uniform 4.3;
        value           nonuniform List<scalar> 9(312.513 311.391 310.714 310.269 309.974 309.767 309.64 309.758 310.024);
    }
    glass2
    {
        type            wallHeatTransfer;
        Tinf            uniform 307.2;
        alphaWall       uniform 4.3;
        value           nonuniform List<scalar> 2(306.284 306.253);
    }
    sun
    {
        type            wallHeatTransfer;
        Tinf            uniform 305.2;
        alphaWall       uniform 0.24;
        value           nonuniform List<scalar> 
14
(
304.276
304.012
304.046
304.058
304.064
304.069
304.073
304.077
304.08
304.083
304.084
304.084
304.083
304.079
)
;
    }
    Table_master
    {
        type            zeroGradient;
    }
    Table_slave
    {
        type            zeroGradient;
    }
    inlet
    {
        type            fixedValue;
        value           uniform 293.15;
    }
    outlet
    {
        type            zeroGradient;
    }
}


// ************************************************************************* //
