/*--------------------------------*- C++ -*----------------------------------*\
  =========                 |
  \\      /  F ield         | OpenFOAM: The Open Source CFD Toolbox
   \\    /   O peration     | Website:  https://openfoam.org
    \\  /    A nd           | Version:  6
     \\/     M anipulation  |
\*---------------------------------------------------------------------------*/
FoamFile
{
    version     2.0;
    format      ascii;
    class       surfaceScalarField;
    location    "900";
    object      phi;
}
// * * * * * * * * * * * * * * * * * * * * * * * * * * * * * * * * * * * * * //

dimensions      [1 0 -1 0 0 0 0];

internalField   nonuniform List<scalar> 
850
(
-0.00326376
0.00332663
-0.00459457
0.00133079
-0.00564818
0.00105359
-0.00644109
0.000792892
-0.00691736
0.000476252
-0.00701409
9.67214e-05
-0.00665454
-0.000359577
-0.0057638
-0.000890751
-0.00432889
-0.00143493
-0.00244742
-0.00188149
-0.000359534
-0.0020879
0.00133646
-0.001696
0.0019767
-0.00064026
0.00166846
0.000308232
0.00167101
-0.000963226
0.000967136
-0.000613113
-0.000350131
0.000180227
-0.000793357
0.000910969
-0.00073076
0.00145885
-0.000547895
0.00175538
-0.000296552
0.00187583
-0.00012047
0.00193209
-5.62706e-05
0.00196214
-3.00686e-05
0.00197359
-1.1466e-05
0.00197037
3.19743e-06
0.0019527
1.76508e-05
0.00191107
4.16177e-05
0.00181863
9.24211e-05
0.00163021
0.000188402
0.00132383
0.000306357
0.000913336
0.000410476
0.000918107
-0.00243589
0.00593403
-0.00376758
0.00266246
-0.00489648
0.00218247
-0.00573982
0.00163621
-0.00626899
0.0010054
-0.00643105
0.000258772
-0.00616071
-0.000629941
-0.005401
-0.00165048
-0.00416992
-0.00266602
-0.00263652
-0.00341491
-0.00109434
-0.0036301
0.000284268
-0.00307462
0.00123664
-0.00159265
0.0017944
-0.000249542
0.00273967
0.000725722
0.00207904
0.000665181
0.00132039
0.00076368
0.00133467
8.1672e-05
0.000897385
0.000550051
-0.000818526
0.000990665
-0.00123399
0.00139818
-0.00113829
0.00172661
-0.000876341
0.00180095
-0.000370911
0.00181095
-0.000130489
0.00182264
-6.79831e-05
0.00183254
-3.99876e-05
0.00183813
-1.70659e-05
0.00183996
1.34289e-06
0.00183763
1.99627e-05
0.00182736
5.18743e-05
0.00177565
0.000144109
0.00157029
0.000393748
0.00121511
0.000661521
0.000758286
0.000867278
0.00168905
-0.00177405
0.00797306
-0.00295098
0.00383938
-0.00403717
0.00326864
-0.00485905
0.00245808
-0.00541687
0.00156319
-0.00565386
0.000495744
-0.00548983
-0.000793989
-0.00486286
-0.00227747
-0.00381668
-0.00371221
-0.00254829
-0.00468331
-0.00130773
-0.00487068
-0.000240624
-0.00414174
0.000654336
-0.00248762
0.00129883
-0.000894055
0.00177162
0.000252923
0.00162825
0.000808528
0.00110711
0.0012848
0.00245539
0.00145331
-0.000540034
0.00168006
-0.0010453
0.00169047
-0.00124442
0.00180016
-0.00124799
0.00210898
-0.00118518
0.0017382
0.00160785
0.00154
0.00150015
0.00148322
0.0014847
0.0015048
0.00155681
0.00170106
0.00143057
0.000664221
0.00109003
0.00100204
0.000620614
0.00133667
0.00232907
-0.00125565
0.00957505
-0.00219003
0.00477374
-0.00305482
0.00413342
-0.00374786
0.00315111
-0.00428084
0.00209615
-0.00457372
0.000788608
-0.0045117
-0.000856032
-0.00400652
-0.00278267
-0.0031431
-0.00457565
-0.0021355
-0.00569093
-0.00118073
-0.00582546
-0.000384348
-0.00493813
0.00031475
-0.00318673
0.000828118
-0.00140743
0.00121752
-0.000136492
0.00138105
0.000644977
0.00148381
0.00118202
0.00250898
0.00143021
0.00214891
0.000375578
0.00202812
-0.000419263
0.0019685
-0.00098569
0.00188056
-0.00115649
0.00176344
-0.00113089
0.00150594
-0.000927689
0.00193966
-0.000433897
0.00217281
-0.000233326
0.00234117
-0.000168527
0.00246872
-0.000127722
0.00254481
-7.62735e-05
0.00254428
3.59945e-07
0.00243622
0.000107886
0.00218004
0.000256008
0.00170434
0.000475518
0.00148298
0.000885567
0.00113401
0.00135099
0.000647207
0.00182345
0.00300128
-0.000832413
0.0108245
-0.00149737
0.00543868
-0.00193276
0.00456878
-0.00237707
0.0035954
-0.00280389
0.00252296
-0.00310639
0.00109109
-0.00311276
-0.00084968
-0.0027013
-0.00319415
-0.00204716
-0.00522981
-0.00134987
-0.00638823
-0.000730887
-0.00644446
-0.000229813
-0.00543921
0.000210712
-0.00362726
0.000555489
-0.00175222
0.000856718
-0.000437737
0.00114811
0.000353571
0.00152515
0.000804963
0.00205373
0.000901605
0.00213559
0.000293705
0.00210532
-0.000389006
0.00191528
-0.000795667
0.00170288
-0.000944112
0.0014994
-0.000927431
0.00135266
-0.000780965
0.00144484
-0.0005261
0.00156741
-0.000355918
0.00168016
-0.000281303
0.00178566
-0.000233245
0.00187469
-0.000165318
0.00192506
-5.00355e-05
0.00191075
0.000122169
0.00181775
0.000348985
0.00165934
0.000633901
0.00152886
0.00101602
0.00142691
0.00145293
0.00130249
0.00194784
0.00223364
0.00207011
0.00157517
0.000682956
0.00166797
-6.96144e-05
0.00175373
-0.000622417
0.0119244
-0.000964855
0.0057811
-0.000696369
0.00430028
-0.000780494
0.00367951
-0.00104655
0.00278901
-0.00129951
0.00134403
-0.00127998
-0.000869228
-0.000941084
-0.00353306
-0.000545374
-0.00562554
-0.000218636
-0.00671499
6.37612e-07
-0.00666375
0.000145712
-0.0055843
0.000268358
-0.00374991
0.000357113
-0.00184099
0.000480761
-0.000561402
0.00070305
0.000131263
0.00102791
0.000480082
0.00142807
0.000501427
0.00160469
0.000117072
0.00152672
-0.000311052
0.00132569
-0.000594663
0.00110154
-0.000719974
0.000900588
-0.000726502
0.000768397
-0.000648796
0.000762527
-0.000520252
0.00083546
-0.000428875
0.000939524
-0.000385391
0.00105716
-0.000350904
0.00117995
-0.000288137
0.0012975
-0.000167614
0.00138577
3.38727e-05
0.00143464
0.000300092
0.00146726
0.000601259
0.00153942
0.000943842
0.00171116
0.00128116
0.00201366
0.00164531
0.00234934
0.00173442
0.00192173
0.00111054
0.00107566
0.000776426
0.00289415
-0.000773855
0.0132275
-0.000417231
0.00542445
0.000853873
0.00302916
0.000985301
0.00354806
0.00081466
0.00295963
0.000781666
0.00137701
0.000979668
-0.00106724
0.00121
-0.00376341
0.00129552
-0.00571108
0.00119693
-0.00661643
0.000947496
-0.00641434
0.000645507
-0.00528232
0.000357518
-0.00346193
0.000103866
-0.00158735
2.93131e-05
-0.000486869
0.000144324
1.62307e-05
0.000385722
0.000238663
0.0006532
0.00023393
0.000752342
1.79104e-05
0.000674267
-0.000232996
0.000501923
-0.00042234
0.000303259
-0.000521332
0.00012572
-0.000548986
8.84913e-06
-0.000531949
-1.63404e-05
-0.000495088
2.93517e-05
-0.000474593
0.000111781
-0.000467847
0.000215114
-0.000454263
0.000338904
-0.000411954
0.000489169
-0.000317907
0.000666697
-0.000143682
0.000851939
0.000114823
0.00104377
0.0004094
0.00127991
0.000707677
0.00158656
0.000974489
0.00198148
0.00125036
0.00242538
0.0012905
0.00262815
0.000907744
0.00200328
0.00140127
0.00496227
0.00315613
0.0106602
0.00395545
0.00462512
0.00386961
0.00311498
0.003414
0.00400366
0.00315129
0.00322233
0.00331402
0.00121426
0.00365889
-0.00141212
0.00368505
-0.00378959
0.0033689
-0.00539495
0.0027576
-0.00600514
0.00194474
-0.0056015
0.00108442
-0.00442201
0.00027441
-0.00265193
-0.000299633
-0.00101332
-0.000501468
-0.000285056
-0.000481689
-3.57086e-06
-0.000350549
0.0001075
-0.000214492
9.78519e-05
-0.000182078
-1.45251e-05
-0.000257912
-0.000157185
-0.000402066
-0.00027821
-0.000564732
-0.000358691
-0.000707569
-0.000406174
-0.00080626
-0.000433286
-0.000850462
-0.000450913
-0.000855898
-0.000469185
-0.000839518
-0.000484255
-0.000807633
-0.000486175
-0.000755586
-0.000464029
-0.000666383
-0.000407138
-0.000506287
-0.000303805
-0.000259465
-0.000132027
3.94905e-05
0.000110418
0.000374449
0.000372693
0.00073208
0.000616833
0.00111399
0.000868423
0.00145197
0.000952504
0.00155432
0.000805362
0.000772345
0.00218323
0.00603499
0.0113105
0.015935
0.0130177
0.00603229
0.0108022
0.00621916
0.00941687
0.00460764
0.00841245
0.00221865
0.00747425
-0.000473935
0.00651364
-0.00282898
0.00537852
-0.00425985
0.00405484
-0.00468148
0.00255191
-0.00409859
0.001067
-0.00293712
-0.000241051
-0.00134389
-0.000906384
-0.000348011
-0.00112719
-6.42726e-05
-0.00116298
3.21904e-05
-0.00112061
6.5102e-05
-0.00107597
5.31875e-05
-0.00108642
-4.09843e-06
-0.00115942
-8.42067e-05
-0.00127527
-0.00016239
-0.00140554
-0.000228444
-0.00152971
-0.00028203
-0.00163833
-0.000324696
-0.00173152
-0.000357752
-0.00181883
-0.000381906
-0.00190971
-0.000393398
-0.00201131
-0.000384599
-0.00213095
-0.000344423
-0.00227923
-0.000258881
-0.00247099
-0.000112072
-0.00271041
0.000107364
-0.00300533
0.000405314
-0.0034335
0.000800841
-0.00412342
0.00130673
-0.00515999
0.00190497
-0.00667468
0.00246717
-0.0085701
0.00270076
-0.00825503
0.00186814
-0.00188962
0.0170435
0.0120525
0.0137685
0.00949417
0.0117445
0.00663157
0.0103295
0.00363369
0.00895364
0.000901927
0.00751741
-0.00139276
0.00577794
-0.0025204
0.00393408
-0.00283763
0.00190587
-0.0020704
-5.59682e-05
-0.000975295
-0.00128663
-0.000113246
-0.00169293
5.82571e-05
-0.00182185
6.46174e-05
-0.00184892
5.92382e-05
-0.00184164
5.77922e-05
-0.0018371
4.86241e-05
-0.001862
2.07736e-05
-0.00192517
-2.10658e-05
-0.00201493
-7.26594e-05
-0.00212056
-0.000122838
-0.00223657
-0.00016605
-0.00236232
-0.000198978
-0.00249954
-0.000220555
-0.00265105
-0.000230432
-0.00281784
-0.000226628
-0.00299769
-0.000204781
-0.00318414
-0.000157994
-0.00336512
-7.79253e-05
-0.00352078
4.35617e-05
-0.00364542
0.00023198
-0.00375152
0.000511387
-0.00385759
0.000906888
-0.00397978
0.00142889
-0.00410844
0.00203359
-0.00420155
0.00256026
-0.00409506
0.00259424
-0.00251386
0.000286923
-0.00431708
-0.000142768
0.0122395
0.0022149
0.0071365
0.0035304
0.00531607
0.00373503
0.00342907
0.00350022
0.00113674
0.00325681
-0.00114941
0.00215058
-0.00141422
0.000499956
-0.00118705
-0.00114856
-0.00042191
-0.00217143
4.75473e-05
-0.00242859
0.000143882
-0.00246939
9.90304e-05
-0.00246397
5.91639e-05
-0.00244736
4.25993e-05
-0.002426
3.64124e-05
-0.00240729
2.98848e-05
-0.00240357
1.70179e-05
-0.00242098
-3.68248e-06
-0.00246068
-3.2992e-05
-0.00252266
-6.08813e-05
-0.00260484
-8.38979e-05
-0.00270371
-0.000100138
-0.00281514
-0.000109153
-0.00293471
-0.000110888
-0.00305701
-0.000104356
-0.00317458
-8.72421e-05
-0.00327682
-5.57807e-05
-0.00335105
-3.72504e-06
-0.00337884
7.13311e-05
-0.00333127
0.000184385
-0.00317616
0.000356254
-0.00287724
0.000607939
-0.00241809
0.000969713
-0.00180429
0.00141977
-0.00083931
0.00159526
0.000793271
0.000961638
0.00157739
-0.00049722
-0.00264438
-0.0229553
-0.0284025
-0.0161302
-0.00896909
-0.00362855
-0.000174488
0.000989756
-0.000131072
-0.00153011
-0.00270615
-0.00311824
-0.00306127
-0.00290808
-0.00279972
-0.00273114
-0.00267903
-0.00263298
-0.00259328
-0.00256626
-0.0025598
-0.00258257
-0.00263322
-0.00270693
-0.00279697
-0.00289614
-0.00299719
-0.00309189
-0.00316966
-0.00321618
-0.00321088
-0.00313078
-0.00293791
-0.00257347
-0.00195766
-0.000980403
0.000446535
0.00204854
0.00301685
0.00252661
)
;

boundaryField
{
    floor
    {
        type            calculated;
        value           nonuniform List<scalar> 
36
(
0
0
0
0
0
0
0
0
0
0
0
0
0
0
0
0
0
0
0
-4.78977e-06
-1.26753e-05
-1.94218e-05
-2.50301e-05
-2.45055e-05
-2.32031e-05
-2.27401e-05
-2.56614e-06
-4.57046e-06
-5.04302e-06
-5.68766e-06
-3.92633e-06
-8.60839e-06
-1.19383e-05
-1.36217e-05
-1.59061e-05
-1.55233e-05
)
;
    }
    ceiling
    {
        type            calculated;
        value           nonuniform List<scalar> 
43
(
-3.31564e-05
-3.29537e-05
-3.27684e-05
-2.46447e-05
-2.44691e-05
-2.50009e-05
-2.75412e-05
-2.88322e-05
-1.52565e-05
-1.10312e-05
-9.84971e-06
-9.45744e-06
-9.33737e-06
-9.36401e-06
-9.44029e-06
-9.54044e-06
-9.67396e-06
-9.84352e-06
-1.0026e-05
-1.01743e-05
-1.02502e-05
-1.02615e-05
-1.02177e-05
-1.01304e-05
-1.00091e-05
-9.86032e-06
-9.68851e-06
-9.49641e-06
-9.28485e-06
-9.05207e-06
-8.79101e-06
-8.51145e-06
-8.21438e-06
-7.89979e-06
-7.56556e-06
-7.18862e-06
-6.77351e-06
-6.69767e-06
-7.00261e-06
-6.63303e-06
3.10763e-06
5.73505e-07
-4.41828e-05
)
;
    }
    sWall
    {
        type            calculated;
        value           uniform -0.000188605;
    }
    nWall
    {
        type            calculated;
        value           nonuniform List<scalar> 6(-6.30417e-05 -6.47777e-05 -6.48631e-05 -8.64276e-05 -9.53404e-05 -0.000111161);
    }
    sideWalls
    {
        type            empty;
        value           nonuniform 0();
    }
    glass1
    {
        type            calculated;
        value           nonuniform List<scalar> 9(-6.28794e-05 -0.00017153 -0.000264993 -0.000346356 -0.000417012 -0.000477534 -0.000529278 -0.000588791 -0.000653458);
    }
    glass2
    {
        type            calculated;
        value           nonuniform List<scalar> 2(-0.000300392 -0.000330443);
    }
    sun
    {
        type            calculated;
        value           uniform 0;
    }
    Table_master
    {
        type            calculated;
        value           nonuniform List<scalar> 9(-1.53786e-07 -1.53958e-07 -1.5401e-07 -1.5404e-07 -1.54057e-07 -1.54066e-07 -1.54061e-07 -1.54045e-07 -1.53997e-07);
    }
    Table_slave
    {
        type            calculated;
        value           nonuniform List<scalar> 9(1.53662e-07 1.53617e-07 1.53545e-07 1.53488e-07 1.53452e-07 1.53447e-07 1.53447e-07 1.53486e-07 1.53579e-07);
    }
    inlet
    {
        type            calculated;
        value           uniform -0.0230637;
    }
    outlet
    {
        type            calculated;
        value           nonuniform List<scalar> 2(0.0231771 0.00548013);
    }
}


// ************************************************************************* //
