/*--------------------------------*- C++ -*----------------------------------*\
  =========                 |
  \\      /  F ield         | OpenFOAM: The Open Source CFD Toolbox
   \\    /   O peration     | Website:  https://openfoam.org
    \\  /    A nd           | Version:  6
     \\/     M anipulation  |
\*---------------------------------------------------------------------------*/
FoamFile
{
    version     2.0;
    format      ascii;
    class       volScalarField;
    location    "1600";
    object      k;
}
// * * * * * * * * * * * * * * * * * * * * * * * * * * * * * * * * * * * * * //

dimensions      [0 2 -2 0 0 0 0];

internalField   nonuniform List<scalar> 
458
(
0.000994331
0.00108165
0.00103656
0.00110882
0.00117408
0.00123135
0.00128214
0.00132845
0.00137264
0.00141781
0.00145283
0.00147367
0.0014811
0.00148241
0.00147999
0.000596354
0.000528485
0.000492725
0.000476771
0.000461184
0.000431783
0.000399443
0.000370052
0.000343228
0.000318573
0.000295778
0.000274544
0.000254526
0.000235237
0.00021602
0.000195681
0.000178854
0.000147677
0.00239612
0.00451176
0.00151832
0.00152479
0.00157398
0.00163493
0.00170167
0.00177714
0.00186316
0.00195761
0.00204308
0.0020903
0.00207045
0.00195798
0.00175002
0.00155967
0.00136338
0.00121705
0.000860371
0.000794125
0.000792362
0.000788356
0.000745976
0.000657674
0.000583512
0.000523347
0.000470265
0.000421741
0.000377399
0.000336717
0.000298809
0.000264024
0.000240272
0.000228013
0.000372658
0.000230979
0.00419287
0.00999747
0.00210789
0.00188074
0.00193036
0.00202238
0.00212462
0.00224028
0.00237065
0.00250869
0.00263732
0.00271844
0.00272072
0.00264243
0.00251154
0.00230858
0.00194393
0.00167687
0.00114324
0.00101633
0.000969007
0.000897737
0.000810376
0.000634849
0.000498378
0.000404208
0.000339163
0.000293061
0.00025916
0.000233502
0.000214224
0.000201548
0.00019702
0.000208518
0.000531206
0.000304352
0.00656087
0.0188636
0.00316488
0.00214217
0.00216609
0.00229098
0.00242317
0.00256554
0.002726
0.00290631
0.00308636
0.00320687
0.0032256
0.00313664
0.0029483
0.00265711
0.00229932
0.00199219
0.00159773
0.00158756
0.00118074
0.00096637
0.000832923
0.000742351
0.000568347
0.000529231
0.00052822
0.000536303
0.000539305
0.000527733
0.000497569
0.000465396
0.000425567
0.00033728
0.00028203
0.000705993
0.000385894
0.0095347
0.0310857
0.00571484
0.0024435
0.00231744
0.00244643
0.0026026
0.0027813
0.00299904
0.00327066
0.00354588
0.00372172
0.00375221
0.00364135
0.00340293
0.00306195
0.00270314
0.00242925
0.00212791
0.00158234
0.0012158
0.000957772
0.000820782
0.000774199
0.000787751
0.000843462
0.000905467
0.000953966
0.000973772
0.000951424
0.000880643
0.000780795
0.000673945
0.000542735
0.00042079
0.000595524
0.000645356
0.00070668
0.000881982
0.00104173
0.0131724
0.0438994
0.0125128
0.00368627
0.00272147
0.00267843
0.00280065
0.00299583
0.00327091
0.00370051
0.00409442
0.00429711
0.00429935
0.00413363
0.0038265
0.00341284
0.00296391
0.00253527
0.00210484
0.00166749
0.00127559
0.00099891
0.000870148
0.000849065
0.000904602
0.00100017
0.0011011
0.00118923
0.00124673
0.00125276
0.00118661
0.0010374
0.000874812
0.000710097
0.000572559
0.000570641
0.000639626
0.000702101
0.00128488
0.00109237
0.0172966
0.0526661
0.0264314
0.0102885
0.00573509
0.00411221
0.00371002
0.00375471
0.00400894
0.00457429
0.00492499
0.00500895
0.00488804
0.00461387
0.00421652
0.00372656
0.00319656
0.00268425
0.00222361
0.00181792
0.00138778
0.00109242
0.000969969
0.000961011
0.00101984
0.00111921
0.00123629
0.00135793
0.00146614
0.00153971
0.00155484
0.00143118
0.00123208
0.00102548
0.000876377
0.000822431
0.000880181
0.00105752
0.00150137
0.00136671
0.0183608
0.0569672
0.038486
0.0287441
0.0191609
0.012463
0.00894441
0.00731801
0.00672034
0.006507
0.00625157
0.00592411
0.00552768
0.00506431
0.00453501
0.00395088
0.00334936
0.00280333
0.00236444
0.00199595
0.00153718
0.00123115
0.00111233
0.00110212
0.00115234
0.00124041
0.00135334
0.00148449
0.00163014
0.00178805
0.00195638
0.00212301
0.00211903
0.00203416
0.00210126
0.0024591
0.00329567
0.0045743
0.00930326
0.00362257
0.0175624
0.0253627
0.0262929
0.0237587
0.0205517
0.01687
0.0136633
0.0112824
0.0096892
0.00846316
0.00751989
0.00673946
0.00603881
0.00536525
0.00468986
0.00400671
0.00334729
0.00281177
0.0024493
0.00215152
0.00169941
0.00141291
0.00129493
0.00126567
0.00128546
0.00133865
0.00141938
0.00152627
0.00166039
0.00182352
0.00201688
0.00224021
0.00249169
0.00279252
0.00323269
0.00379293
0.00435845
0.00476105
0.00496963
0.00333985
0.0148882
0.0293717
0.0221545
0.0180424
0.0149718
0.0125993
0.0107828
0.00933043
0.008106
0.0070577
0.00613736
0.0053037
0.00452556
0.00378736
0.00311962
0.00269086
0.00251395
0.00233771
0.00195653
0.00171939
0.00159423
0.00152221
0.00148011
0.00146232
0.00146955
0.00150483
0.00157303
0.00168084
0.00183654
0.00205007
0.00232802
0.00266163
0.0030544
0.00345686
0.00374702
0.00379938
0.00362849
0.00243873
0.0125003
0.0269399
0.0208125
0.01715
0.0144257
0.0122687
0.0104429
0.00891373
0.00760602
0.00646459
0.00548147
0.00462937
0.00387754
0.00320117
0.00263688
0.00260038
0.00290972
0.00306185
0.00286255
0.00268643
0.0025322
0.00238421
0.00224248
0.00211601
0.00201538
0.00194886
0.00192284
0.00194367
0.00201823
0.00215071
0.00236351
0.00266046
0.00302007
0.00338887
0.00364544
0.00397725
0.00408703
0.00254453
0.00776794
0.00921898
0.0105409
0.0120953
0.0107699
0.00966883
0.00803568
0.00679879
0.00571915
0.00476931
0.0039923
0.00337783
0.00285081
0.00237457
0.00192822
0.00149827
0.00108965
0.000853098
0.000935313
0.000978495
0.000948263
0.000909284
0.000875381
0.000850923
0.000840133
0.000846419
0.000871568
0.000916083
0.000980277
0.00106561
0.00117644
0.00132325
0.0014984
0.00169932
0.00192963
0.00220626
0.00234953
0.00226509
0.00200489
0.0017703
)
;

boundaryField
{
    floor
    {
        type            kqRWallFunction;
        value           nonuniform List<scalar> 
36
(
0.00147999
0.000596354
0.000528485
0.000492725
0.000476771
0.000461184
0.000431783
0.000399443
0.000370052
0.000343228
0.000318573
0.000295778
0.000274544
0.000254526
0.000235237
0.00021602
0.000195681
0.000178854
0.000147677
0.000147677
0.000230979
0.000304352
0.000385894
0.00070668
0.000881982
0.00104173
0.00147999
0.00155967
0.00136338
0.00121705
0.000596354
0.00121705
0.000860371
0.00167687
0.00114324
0.00159773
)
;
    }
    ceiling
    {
        type            kqRWallFunction;
        value           nonuniform List<scalar> 
43
(
0.00776794
0.00921898
0.0105409
0.0120953
0.0107699
0.00966883
0.00803568
0.00679879
0.00571915
0.00476931
0.0039923
0.00337783
0.00285081
0.00237457
0.00192822
0.00149827
0.00108965
0.000853098
0.000935313
0.000978495
0.000948263
0.000909284
0.000875381
0.000850923
0.000840133
0.000846419
0.000871568
0.000916083
0.000980277
0.00106561
0.00117644
0.00132325
0.0014984
0.00169932
0.00192963
0.00220626
0.00234953
0.00226509
0.00200489
0.0017703
0.0175624
0.0253627
0.0125003
)
;
    }
    sWall
    {
        type            kqRWallFunction;
        value           uniform 0.00776794;
    }
    nWall
    {
        type            kqRWallFunction;
        value           nonuniform List<scalar> 6(0.00104173 0.00109237 0.00136671 0.00243873 0.00254453 0.0017703);
    }
    sideWalls
    {
        type            empty;
    }
    glass1
    {
        type            kqRWallFunction;
        value           nonuniform List<scalar> 9(0.000994331 0.00239612 0.00419287 0.00656087 0.0095347 0.0131724 0.0172966 0.0183608 0.0175624);
    }
    glass2
    {
        type            kqRWallFunction;
        value           nonuniform List<scalar> 2(0.00362257 0.00333985);
    }
    sun
    {
        type            kqRWallFunction;
        value           nonuniform List<scalar> 
14
(
0.000994331
0.00108165
0.00103656
0.00110882
0.00117408
0.00123135
0.00128214
0.00132845
0.00137264
0.00141781
0.00145283
0.00147367
0.0014811
0.00148241
)
;
    }
    Table_master
    {
        type            kqRWallFunction;
        value           nonuniform List<scalar> 9(0.000634849 0.000498378 0.000404208 0.000339163 0.000293061 0.00025916 0.000233502 0.000214224 0.000201548);
    }
    Table_slave
    {
        type            kqRWallFunction;
        value           nonuniform List<scalar> 9(0.000568347 0.000529231 0.00052822 0.000536303 0.000539305 0.000527733 0.000497569 0.000465396 0.000425567);
    }
    inlet
    {
        type            turbulentIntensityKineticEnergyInlet;
        intensity       0.05;
        value           uniform 0.0003375;
    }
    outlet
    {
        type            zeroGradient;
    }
}


// ************************************************************************* //
