/*--------------------------------*- C++ -*----------------------------------*\
  =========                 |
  \\      /  F ield         | OpenFOAM: The Open Source CFD Toolbox
   \\    /   O peration     | Website:  https://openfoam.org
    \\  /    A nd           | Version:  6
     \\/     M anipulation  |
\*---------------------------------------------------------------------------*/
FoamFile
{
    version     2.0;
    format      ascii;
    class       volScalarField;
    location    "300";
    object      alphat;
}
// * * * * * * * * * * * * * * * * * * * * * * * * * * * * * * * * * * * * * //

dimensions      [1 -1 -1 0 0 0 0];

internalField   nonuniform List<scalar> 
458
(
0.000836341
0.000866356
0.000844964
0.000874306
0.000899884
0.000921529
0.000940021
0.000956241
0.000971093
0.000985621
0.000998414
0.00100798
0.00101491
0.00102167
0.00102919
0.000867931
0.000819419
0.000790692
0.000776025
0.00076392
0.000743114
0.000719533
0.000697163
0.000675982
0.000655772
0.00063635
0.0006175
0.000598893
0.000579975
0.000559946
0.000537154
0.000514352
0.000468879
0.00132149
0.00198582
0.00160013
0.00187715
0.00198401
0.0021
0.00221667
0.00232426
0.00240948
0.00245529
0.00246375
0.00240888
0.00225677
0.00196097
0.00150184
0.00107074
0.0010275
0.00100629
0.0010064
0.00154448
0.00202265
0.00237926
0.00246649
0.00204936
0.00187898
0.00175482
0.0016456
0.0015438
0.00144659
0.00135017
0.00124753
0.0011323
0.00102511
0.000937245
0.00103763
0.000561461
0.00175728
0.00306903
0.00172862
0.00267574
0.00287239
0.00301968
0.003145
0.00324924
0.00333227
0.00338859
0.00341684
0.00340656
0.00333575
0.00318413
0.00293856
0.00256436
0.00193189
0.00113903
0.00112398
0.00248941
0.00314733
0.00340508
0.00311078
0.000918778
0.000819515
0.000742
0.00068258
0.000636805
0.000600948
0.000572584
0.000550815
0.000536912
0.000628819
0.000762089
0.00116831
0.000629237
0.00220238
0.00472696
0.00171701
0.00304965
0.003414
0.00355167
0.00363592
0.00368869
0.00372313
0.00374715
0.00376385
0.0037697
0.00374871
0.00367938
0.00352654
0.00323214
0.00272242
0.00198989
0.00116223
0.00313533
0.00350855
0.00366736
0.00367041
0.00326307
0.00090992
0.000870128
0.000857591
0.00085207
0.000843658
0.00082631
0.000799183
0.000770192
0.000734374
0.000710298
0.000750949
0.00126051
0.000696404
0.00265169
0.00691013
0.00215746
0.0029311
0.00367358
0.00382988
0.00388033
0.00388734
0.00387673
0.00387087
0.00387431
0.00389168
0.00390794
0.00389309
0.00380749
0.00361719
0.00333852
0.00308554
0.00306261
0.00337582
0.00365522
0.00371087
0.00368177
0.00359744
0.00331501
0.00332461
0.00337299
0.00339734
0.00337387
0.00328512
0.00307889
0.00270287
0.00221645
0.00168678
0.00129061
0.00126475
0.00102185
0.000823393
0.00089658
0.000895238
0.00310619
0.00923548
0.00377275
0.00254801
0.00350672
0.00386915
0.00398754
0.00400956
0.00397218
0.00391912
0.00387745
0.00390281
0.0039483
0.00397379
0.00393436
0.00377778
0.00346421
0.0030264
0.00277747
0.00334367
0.00369544
0.00370835
0.00365939
0.00364198
0.00368415
0.00378639
0.00388403
0.00394741
0.00396823
0.00394082
0.00385214
0.00359041
0.00315319
0.00255761
0.00197547
0.00153244
0.00122627
0.00133386
0.00199307
0.0011103
0.00356576
0.0111636
0.00715105
0.00361568
0.00272348
0.00299868
0.00348358
0.00383927
0.00402334
0.00396096
0.00384239
0.00387542
0.00393274
0.00398338
0.00399115
0.00389723
0.00361071
0.00304317
0.00253667
0.00331588
0.00377432
0.0037635
0.00368228
0.0036509
0.00368498
0.00376048
0.00384068
0.00390614
0.00395317
0.00398669
0.00400667
0.00394924
0.00364434
0.00313306
0.00257194
0.00206663
0.00168233
0.00161174
0.00210591
0.00134993
0.00368476
0.0113135
0.00914195
0.00708751
0.00506912
0.00377684
0.00332598
0.00343202
0.00374614
0.00385568
0.00383814
0.00384393
0.00388285
0.00393416
0.00396425
0.00392526
0.0037142
0.00311477
0.00234802
0.00327907
0.00390096
0.00387832
0.00375694
0.00368539
0.00366076
0.00366008
0.0036674
0.00368175
0.00371308
0.00377863
0.00389102
0.00403431
0.00401793
0.00360054
0.00317568
0.00291235
0.00292204
0.00317285
0.00436122
0.00182528
0.00361352
0.0043983
0.00476028
0.00498796
0.0048642
0.0044556
0.00403635
0.00376329
0.00365637
0.00362272
0.00364441
0.00370345
0.00377903
0.00384774
0.00388612
0.0038647
0.00368564
0.00308613
0.00218647
0.00320559
0.00407128
0.00404765
0.0038802
0.00375675
0.00365453
0.00355244
0.00344593
0.00333921
0.0032399
0.00315276
0.0030725
0.00298222
0.00286436
0.00274472
0.00268071
0.00269285
0.00271321
0.00265604
0.00252692
0.00175662
0.00203752
0.0034331
0.00416343
0.00432133
0.00422682
0.00407882
0.00396
0.00388276
0.00384082
0.00382504
0.00381317
0.00378699
0.0037371
0.003655
0.00344896
0.00282513
0.00194047
0.00308659
0.00426302
0.00424051
0.0040539
0.00392674
0.0037903
0.00362388
0.00343451
0.00323373
0.00303599
0.00285891
0.00272187
0.00264249
0.00261599
0.00260406
0.00259859
0.00257224
0.00246669
0.0022353
0.00191247
0.00142227
0.00257211
0.00427232
0.00488052
0.00485905
0.00469954
0.00450693
0.00430985
0.00412503
0.00394332
0.00370548
0.00344605
0.00318934
0.00295435
0.00275136
0.00254076
0.00214804
0.00160632
0.00274784
0.00377932
0.00371601
0.00358222
0.00349101
0.00338442
0.00326505
0.00315306
0.00306203
0.00299595
0.00294967
0.00291006
0.00288012
0.00288081
0.00290296
0.00292838
0.00292564
0.0028826
0.00282199
0.00227487
0.00143537
0.00246261
0.00253956
0.00260701
0.00279243
0.0027212
0.00254384
0.00234105
0.00218325
0.00204039
0.00190959
0.00178942
0.00168686
0.00159375
0.0015061
0.00142221
0.00134183
0.00126512
0.00119002
0.00109776
0.00109633
0.00112839
0.00112572
0.0011224
0.00112358
0.00112845
0.00113775
0.0011522
0.00117212
0.00119779
0.00122997
0.00127044
0.0013193
0.00137473
0.00143667
0.00150459
0.0015766
0.00165678
0.00163645
0.0015122
0.00140063
)
;

boundaryField
{
    floor
    {
        type            compressible::alphatWallFunction;
        Prt             0.85;
        value           nonuniform List<scalar> 
36
(
0.000146308
0.00012346
0.000116491
0.000112341
0.000110216
0.000108458
0.000105428
0.000101982
9.87004e-05
9.55814e-05
9.25942e-05
8.97129e-05
8.69063e-05
8.41254e-05
8.12873e-05
7.82699e-05
7.48202e-05
7.13505e-05
6.43738e-05
6.4373e-05
7.84962e-05
8.86506e-05
9.85827e-05
0.000117057
0.000127547
0.000127359
0.000146306
0.000152125
0.000146071
0.00014309
0.000123458
0.000143088
0.000143106
0.00016163
0.000159543
0.000164846
)
;
    }
    ceiling
    {
        type            compressible::alphatWallFunction;
        Prt             0.85;
        value           nonuniform List<scalar> 
43
(
0.00033655
0.000346333
0.000354887
0.000378359
0.00036943
0.000347015
0.000321167
0.000300883
0.000282383
0.00026532
0.000249531
0.000235963
0.000223567
0.000211825
0.000200515
0.000189607
0.000179129
0.000168801
0.000156016
0.000155819
0.000160282
0.000159913
0.000159451
0.000159615
0.000160292
0.000161583
0.000163586
0.000166343
0.000169888
0.000174319
0.000179875
0.000186554
0.000194099
0.000202488
0.000211643
0.000221298
0.000231991
0.000229287
0.000212667
0.000197617
0.000480414
0.000575482
0.000350368
)
;
    }
    sWall
    {
        type            compressible::alphatWallFunction;
        Prt             0.85;
        value           uniform 0.000335291;
    }
    nWall
    {
        type            compressible::alphatWallFunction;
        Prt             0.85;
        value           nonuniform List<scalar> 6(0.00012711 0.000157379 0.000190325 0.000200164 0.000201933 0.000197233);
    }
    sideWalls
    {
        type            empty;
    }
    glass1
    {
        type            compressible::alphatWallFunction;
        Prt             0.85;
        value           nonuniform List<scalar> 9(0.000115266 0.000181842 0.000239482 0.000296896 0.000353716 0.000410247 0.000466589 0.000481208 0.000472796);
    }
    glass2
    {
        type            compressible::alphatWallFunction;
        Prt             0.85;
        value           nonuniform List<scalar> 2(0.00025173 0.000242823);
    }
    sun
    {
        type            compressible::alphatWallFunction;
        Prt             0.85;
        value           nonuniform List<scalar> 
14
(
0.000118946
0.000123233
0.000120163
0.000124369
0.000128022
0.000131103
0.000133729
0.000136027
0.000138128
0.000140178
0.000141982
0.000143327
0.000144302
0.000145252
)
;
    }
    Table_master
    {
        type            compressible::alphatWallFunction;
        Prt             0.85;
        value           nonuniform List<scalar> 9(0.000130926 0.000116711 0.000105468 9.67537e-05 8.99781e-05 8.4629e-05 8.03696e-05 7.7083e-05 7.49756e-05);
    }
    Table_slave
    {
        type            compressible::alphatWallFunction;
        Prt             0.85;
        value           nonuniform List<scalar> 9(0.000129666 0.000123984 0.000122187 0.000121395 0.000120187 0.000117691 0.000113776 0.000109574 0.000104356);
    }
    inlet
    {
        type            fixedValue;
        value           uniform 1.94e-05;
    }
    outlet
    {
        type            zeroGradient;
    }
}


// ************************************************************************* //
