/*--------------------------------*- C++ -*----------------------------------*\
  =========                 |
  \\      /  F ield         | OpenFOAM: The Open Source CFD Toolbox
   \\    /   O peration     | Website:  https://openfoam.org
    \\  /    A nd           | Version:  6
     \\/     M anipulation  |
\*---------------------------------------------------------------------------*/
FoamFile
{
    version     2.0;
    format      ascii;
    class       volScalarField;
    location    "300";
    object      epsilon;
}
// * * * * * * * * * * * * * * * * * * * * * * * * * * * * * * * * * * * * * //

dimensions      [0 2 -3 0 0 0 0];

internalField   nonuniform List<scalar> 
458
(
0.00013042
0.00014445
0.000133994
0.000148444
0.000161856
0.000173818
0.000184493
0.000194208
0.000203398
0.000212662
0.000221048
0.000227456
0.000232175
0.000236837
0.000242098
0.00014522
0.000122195
0.000109784
0.000103784
9.89984e-05
9.1125e-05
8.27197e-05
7.52396e-05
6.8586e-05
6.2614e-05
5.72117e-05
5.22746e-05
4.7688e-05
4.33084e-05
3.89728e-05
3.44033e-05
3.02037e-05
2.28823e-05
0.00051583
0.00120483
0.000137192
0.000116603
0.000115285
0.000115749
0.000117408
0.000121166
0.000127986
0.000138783
0.000152352
0.000166739
0.000180794
0.000195059
0.000219301
0.000272595
0.000240883
0.000226276
0.000226382
0.000122233
9.2881e-05
8.20778e-05
7.53785e-05
7.34233e-05
6.56805e-05
5.90591e-05
5.30649e-05
4.74346e-05
4.22036e-05
3.73665e-05
3.28784e-05
2.89206e-05
2.68506e-05
2.69513e-05
5.18605e-05
3.92842e-05
0.00121599
0.00390703
0.000240714
0.000121901
0.000115793
0.00011824
0.000123304
0.000131241
0.000142261
0.000156159
0.000171741
0.000185597
0.000195178
0.000201286
0.000209658
0.000221752
0.000228567
0.000328131
0.000315374
0.000118046
9.14202e-05
8.28807e-05
8.11822e-05
0.000172214
0.000122193
9.06839e-05
7.05873e-05
5.7311e-05
4.81597e-05
4.1653e-05
3.70774e-05
3.43379e-05
2.80686e-05
2.63949e-05
8.18701e-05
5.52942e-05
0.00239942
0.00917321
0.000540419
0.000139587
0.000123551
0.000129775
0.000139061
0.000151105
0.000166357
0.000185155
0.00020666
0.000224393
0.000232867
0.000231025
0.000221283
0.000207773
0.00020182
0.000244877
0.000348618
0.000176824
0.000111346
8.9914e-05
7.88849e-05
7.6207e-05
0.000167297
0.000146283
0.000140042
0.000137347
0.000133312
0.000125249
0.000113306
0.00010141
8.7902e-05
5.7504e-05
4.03885e-05
0.000114721
7.49575e-05
0.00419709
0.0171868
0.00132322
0.000181166
0.000130237
0.000137553
0.000151164
0.000169336
0.000193238
0.000224207
0.00026078
0.000288674
0.000298929
0.000291514
0.00026931
0.000237433
0.000205873
0.000189632
0.000202594
0.000155692
0.000125843
9.9648e-05
8.65469e-05
8.15075e-05
8.81046e-05
9.39613e-05
9.95725e-05
0.000102999
0.000102473
9.67739e-05
8.65928e-05
7.7577e-05
7.01004e-05
5.8985e-05
4.75345e-05
8.18594e-05
0.00010821
0.000123885
0.000159945
0.00015932
0.00675896
0.0255884
0.00339645
0.000367831
0.000163556
0.000151946
0.000163022
0.000184649
0.000218373
0.000271418
0.000338486
0.000378918
0.00038743
0.000371711
0.000338294
0.000293507
0.000243358
0.000193698
0.000169418
0.000177104
0.00014879
0.000118819
0.000103674
9.91573e-05
0.000103732
0.000113334
0.000124101
0.000133063
0.000137147
0.000133155
0.000118702
9.79827e-05
7.99007e-05
6.4787e-05
5.42701e-05
6.38028e-05
8.1505e-05
0.000137185
0.00050278
0.000303928
0.0102393
0.0302096
0.0086367
0.00179748
0.000585194
0.000323451
0.000260356
0.000257456
0.000285718
0.00037477
0.000477342
0.000512436
0.000502953
0.000469301
0.000421285
0.000365143
0.000302064
0.000228167
0.000178589
0.000208483
0.000182989
0.000148756
0.000131284
0.000126585
0.000130844
0.00014172
0.000156524
0.000172848
0.000186596
0.000193906
0.000188309
0.000158499
0.000128481
0.000104146
9.0488e-05
9.42439e-05
0.000116793
0.000196142
0.000916051
0.000546226
0.0113273
0.0378285
0.0185767
0.0104452
0.00524001
0.00248571
0.00132604
0.000889444
0.00074911
0.000763692
0.000755892
0.000711724
0.000649238
0.000581263
0.000512975
0.000445537
0.000373694
0.000279757
0.000197851
0.000246291
0.000233592
0.00019599
0.000174317
0.000167498
0.000170234
0.000180231
0.000196097
0.000217216
0.000243229
0.000273566
0.000305405
0.00032952
0.000320026
0.000323247
0.000364561
0.000507845
0.000890022
0.00161604
0.00663462
0.00135319
0.0107199
0.0192631
0.0148388
0.0111977
0.00809377
0.0055195
0.00369568
0.00254991
0.0018862
0.00146015
0.00116568
0.000958961
0.000809347
0.000695486
0.000603319
0.00052437
0.000444573
0.000335281
0.000225879
0.000291736
0.000311724
0.000273868
0.000245107
0.000232393
0.000228524
0.000231218
0.000240422
0.000257408
0.000284736
0.000325939
0.000384859
0.00046509
0.000568961
0.000718272
0.000960894
0.00131853
0.0017656
0.0022016
0.00255667
0.00120853
0.00486912
0.00631215
0.00588846
0.00475488
0.00360946
0.00270763
0.00206671
0.00162005
0.00130404
0.00107711
0.000908062
0.000776407
0.000670231
0.000583228
0.000495744
0.000371482
0.000250827
0.000347924
0.000441085
0.000411182
0.000375138
0.000357017
0.000344013
0.000333294
0.000325725
0.000322809
0.000327122
0.000342908
0.000376583
0.000437419
0.000533411
0.00067017
0.000855684
0.00107516
0.00126368
0.00131268
0.00116501
0.000641054
0.00362817
0.00666774
0.00604352
0.00474495
0.00364401
0.00279795
0.00215917
0.00168489
0.00133032
0.00106016
0.000853388
0.000694874
0.000574064
0.000483118
0.00041217
0.000351491
0.000272503
0.000399292
0.000526301
0.00052087
0.000496298
0.000473532
0.000450324
0.000428896
0.000413683
0.000408349
0.000415514
0.00043734
0.000476289
0.000536402
0.000625531
0.000750902
0.000914817
0.00110185
0.00128502
0.00145623
0.000795692
0.000658847
0.00323463
0.00354573
0.00383569
0.00476846
0.00443902
0.00363922
0.00284166
0.00230658
0.00188351
0.0015443
0.00127086
0.00106474
0.000898058
0.000757967
0.000638295
0.000536124
0.000449379
0.000374064
0.000293948
0.000293165
0.000319703
0.000317458
0.000314663
0.000315659
0.000319788
0.000327763
0.000340417
0.000358382
0.00038245
0.000414109
0.000456358
0.000511065
0.00057825
0.000660005
0.000758163
0.000872409
0.0010126
0.000975888
0.00077005
0.000612113
)
;

boundaryField
{
    floor
    {
        Cmu             0.09;
        kappa           0.41;
        E               9.8;
        type            epsilonWallFunction;
        value           nonuniform List<scalar> 
36
(
0.000242098
0.00014522
0.000122195
0.000109784
0.000103784
9.89984e-05
9.1125e-05
8.27197e-05
7.52396e-05
6.8586e-05
6.2614e-05
5.72117e-05
5.22746e-05
4.7688e-05
4.33084e-05
3.89728e-05
3.44033e-05
3.02037e-05
2.28823e-05
2.28823e-05
3.92842e-05
5.52942e-05
7.49575e-05
0.000123885
0.000159945
0.00015932
0.000242098
0.000272595
0.000240883
0.000226276
0.00014522
0.000226276
0.000226382
0.000328131
0.000315374
0.000348618
)
;
    }
    ceiling
    {
        Cmu             0.09;
        kappa           0.41;
        E               9.8;
        type            epsilonWallFunction;
        value           nonuniform List<scalar> 
43
(
0.00323463
0.00354573
0.00383569
0.00476846
0.00443902
0.00363922
0.00284166
0.00230658
0.00188351
0.0015443
0.00127086
0.00106474
0.000898058
0.000757967
0.000638295
0.000536124
0.000449379
0.000374064
0.000293948
0.000293165
0.000319703
0.000317458
0.000314663
0.000315659
0.000319788
0.000327763
0.000340417
0.000358382
0.00038245
0.000414109
0.000456358
0.000511065
0.00057825
0.000660005
0.000758163
0.000872409
0.0010126
0.000975888
0.00077005
0.000612113
0.0107199
0.0192631
0.00362817
)
;
    }
    sWall
    {
        Cmu             0.09;
        kappa           0.41;
        E               9.8;
        type            epsilonWallFunction;
        value           uniform 0.00323463;
    }
    nWall
    {
        Cmu             0.09;
        kappa           0.41;
        E               9.8;
        type            epsilonWallFunction;
        value           nonuniform List<scalar> 6(0.00015932 0.000303928 0.000546226 0.000641054 0.000658847 0.000612113);
    }
    sideWalls
    {
        type            empty;
    }
    glass1
    {
        Cmu             0.09;
        kappa           0.41;
        E               9.8;
        type            epsilonWallFunction;
        value           nonuniform List<scalar> 9(0.00013042 0.00051583 0.00121599 0.00239942 0.00419709 0.00675896 0.0102393 0.0113273 0.0107199);
    }
    glass2
    {
        Cmu             0.09;
        kappa           0.41;
        E               9.8;
        type            epsilonWallFunction;
        value           nonuniform List<scalar> 2(0.00135319 0.00120853);
    }
    sun
    {
        Cmu             0.09;
        kappa           0.41;
        E               9.8;
        type            epsilonWallFunction;
        value           nonuniform List<scalar> 
14
(
0.00013042
0.00014445
0.000133994
0.000148444
0.000161856
0.000173818
0.000184493
0.000194208
0.000203398
0.000212662
0.000221048
0.000227456
0.000232175
0.000236837
)
;
    }
    Table_master
    {
        Cmu             0.09;
        kappa           0.41;
        E               9.8;
        type            epsilonWallFunction;
        value           nonuniform List<scalar> 9(0.000172214 0.000122193 9.06839e-05 7.05873e-05 5.7311e-05 4.81597e-05 4.1653e-05 3.70774e-05 3.43379e-05);
    }
    Table_slave
    {
        Cmu             0.09;
        kappa           0.41;
        E               9.8;
        type            epsilonWallFunction;
        value           nonuniform List<scalar> 9(0.000167297 0.000146283 0.000140042 0.000137347 0.000133312 0.000125249 0.000113306 0.00010141 8.7902e-05);
    }
    inlet
    {
        type            turbulentMixingLengthDissipationRateInlet;
        mixingLength    0.01;
        phi             phi;
        k               k;
        value           uniform 0.000471669;
    }
    outlet
    {
        type            zeroGradient;
    }
}


// ************************************************************************* //
