/*--------------------------------*- C++ -*----------------------------------*=========                 |
  \      /  F ield         | OpenFOAM: The Open Source CFD Toolbox
   \    /   O peration     | Website:  https://openfoam.org
    \  /    A nd           | Version:  6
     \/     M anipulation  |
\*---------------------------------------------------------------------------*/
FoamFile
{
    version     2.0;
    format      ascii;
    class       volScalarField;
    location    "300";
    object      PMV;
}
// * * * * * * * * * * * * * * * * * * * * * * * * * * * * * * * * * * * * * //

dimensions      [0 0 0 0 0 0 0];

internalField   nonuniform List<scalar> 
458
(
1.4060054971396299
1.1938007094005725
1.1932232109335337
1.1675149250511039
1.1464430632156506
1.1296180257032322
1.116414076871208
1.1077961286691271
1.1028705655829025
1.102701327035846
1.1089339779530676
1.1245028384232454
1.1522118730074178
1.176245836071693
1.1474558274913225
1.24667647769343
1.2936264244734814
1.2643693262171705
1.2325958497896612
1.2131040721475483
1.2017419866623615
1.1973435066937
1.1974146350648713
1.198168601772461
1.199037406855239
1.1996375907274865
1.2013007089118586
1.2041418549099696
1.2091062402587638
1.219721183616902
1.240612378959097
1.2717229592427859
1.281244977945442
1.3781877537387943
1.1770845358054274
1.200773929677922
1.1698199016881188
1.1494289965822457
1.133685280335787
1.1220389014732326
1.1137143589779706
1.1087178671352325
1.1079381434031734
1.110840531095084
1.1168817138680296
1.1246447180824224
1.1262109543060814
1.1195454819449158
1.1525995052734703
1.2191035404129542
1.1950253259874617
1.21726450979208
1.2965071411746132
1.292691685604021
1.2639043799540122
1.2401381484759955
1.225411475773503
1.2198147612652148
1.2174505466911463
1.2145095716263012
1.2108647302872115
1.2077225587500497
1.2043613046637642
1.202224542569386
1.2012673685295836
1.206764748072596
1.2250086945667253
1.241652409615826
1.2408714516522843
1.4449440106327638
1.1536204985301586
1.2214175374147855
1.1917472947813426
1.1785652698593463
1.1686452745350202
1.1620417415623312
1.1575436151894036
1.1556566924386178
1.155140363555264
1.156487521282575
1.1573335663805535
1.1545918255110956
1.1461278922967775
1.1396251728764708
1.1551148010341512
1.1690280901594123
1.1401786938885792
1.2221370843914845
1.2974609960416341
1.2941224881894495
1.2907839363026472
1.2763696659448736
1.2566630486158439
1.2618104459855461
1.2661402436443787
1.2617290853483
1.2531179897115545
1.2442423765846204
1.235408995810913
1.2245693675512097
1.2094639852344935
1.2000213590413886
1.209338568930753
1.1983930764589075
1.1562320255777303
1.540062728588794
1.1434322859721013
1.2393495855232668
1.2163953725802137
1.2154902522775823
1.2154549520796447
1.2165610304385401
1.2189742861311206
1.2213366846685618
1.2235355728158637
1.224660555134463
1.2207079671667973
1.2091360109036096
1.19076728173141
1.1742240840615499
1.1646506908856902
1.154580515138945
1.1553518218829204
1.2580532374995819
1.2423232922449603
1.2938752329031686
1.2984148472775223
1.2955532826869525
1.2922147496176029
1.2879222856887316
1.2828235857493522
1.2472821479791154
1.2207455004210663
1.2014063362151597
1.1879600118799207
1.181555812085925
1.1859770322982726
1.2035487030910659
1.2098976997074202
1.1983449130507313
1.1566950291856053
1.1051275756220416
1.6424605017072105
1.1542669781197268
1.2524500695695149
1.2400976762222737
1.2521757080301223
1.2644470299926904
1.2774135131872504
1.2904999389027147
1.301267028698844
1.3082617966915355
1.3099180542450315
1.300116148163739
1.2779921324917827
1.2476000322747063
1.2154703543261527
1.1860282106854891
1.1586695809028442
1.1483045987630587
1.1808151071519803
1.227919377122544
1.2760209150083226
1.3036609637022554
1.300799459412745
1.2974609960416341
1.294599420589051
1.2912608749656298
1.2888761727678366
1.264220266548957
1.2435148349065852
1.2273573394376958
1.2157119716622649
1.2114408752092134
1.2116534292446237
1.2030747254824394
1.181315944038224
1.1217857025021183
1.1277004044949388
1.069269557590186
1.054641940766788
1.040572413039544
1.7384208157451164
1.18838908707556
1.2808755349826266
1.2625314247468622
1.281794513917937
1.3075048355472527
1.336463435250021
1.3676300703796198
1.3960728246131378
1.4145611303543142
1.414615580068775
1.3878251634248973
1.3479784721852632
1.3029481363376654
1.2577473749582104
1.2137569563091033
1.1743969906878706
1.1490678388918305
1.1544237603418492
1.2175720947246897
1.2681291041542537
1.2968895208027689
1.3065224346993878
1.3036609637022554
1.300799459412745
1.297937922114136
1.2950763520886277
1.2917378127376786
1.2879222856887316
1.2831527975888435
1.2683453102361533
1.251410278486234
1.2350059096896695
1.2108554948231856
1.180249384871588
1.1266449206601925
1.1292214961174334
1.1556059168254913
1.1280887297985875
1.0564999639184252
1.816389471656544
1.2822475045649173
1.4185871758575483
1.3156603071492916
1.3002680178877275
1.3334165213679106
1.379225493968122
1.419044009417516
1.4366792000373896
1.458124957677748
1.4748030490361448
1.4389829472858462
1.386866629376541
1.3362716252746691
1.2859286009888005
1.2373736822440302
1.1913333628601968
1.150866790782626
1.139392188603094
1.2144890267088675
1.268605373287108
1.2952838950313215
1.3117683774494915
1.3093838721200335
1.3074762509177256
1.3050917033801006
1.302230215701306
1.2984148472775223
1.2936455548912527
1.2879222856887316
1.2807680208717827
1.272659619685582
1.2655049460185441
1.2464117810976822
1.2059616077044506
1.1555908706276075
1.139152742590347
1.1426593476503504
1.0793346321195938
1.0654194361545317
1.9551647969390844
1.6675230497428508
1.6492940642395533
1.4821876235643012
1.4080724583607962
1.390259813201577
1.4025274215395858
1.4228024510018116
1.4385632356373126
1.4285665838436539
1.4148117118734072
1.3927994290353722
1.361977162210641
1.3259600297729934
1.2876324940460546
1.2484388091061738
1.2074014565555171
1.1596488159935396
1.1337174498576517
1.220206503724829
1.2785899767857953
1.3011141670505748
1.31042922958541
1.314078818378753
1.3141528590984324
1.3122452756790053
1.3098607750724136
1.3065224346993878
1.302230215701306
1.2965071411746132
1.289353114981396
1.2807680208717827
1.2717056740357542
1.265027961150949
1.2602580675400359
1.2564420943979069
1.2435120495852328
1.2389209153462903
1.1023760041259978
1.0070334628585165
2.156922153112716
1.9999193249721547
1.8448913025006757
1.6828274839780513
1.5518665916208072
1.465367789812229
1.4148687015815578
1.3873524553505339
1.3748871688158713
1.3675025334617734
1.348361727746735
1.3235122649977007
1.298285729689886
1.2756050335571598
1.2557719760995467
1.2377086798898977
1.215828538240092
1.1760404052828288
1.1422117173163933
1.2398651272135663
1.303081938873544
1.312969265028752
1.308570403419014
1.2993513889385786
1.2881805883345667
1.2757113159868885
1.262958169250439
1.250596517943753
1.238918501349955
1.227605322363413
1.2164985146266352
1.2049282270709356
1.1946711146230087
1.184545509581676
1.1686321409992828
1.1511377995341208
1.1360550034650176
1.1269035011493016
1.1140755449044208
1.0758724646918598
-0.97899569738165
-0.08870274218913315
0.6243683023542829
0.9584246881469788
1.1028508884842136
1.164164966045439
1.1871786901023536
1.1913032062059008
1.1934169948620046
1.1932254894066945
1.1930641755121243
1.1952840777598235
1.2012366975201714
1.2127628959255583
1.2275689391958835
1.215108455231363
1.1735232521272576
1.3027715232423642
1.3298898320934247
1.331797271073063
1.3124686382937703
1.2917760801014948
1.272450630747539
1.2540151035451967
1.2364802255868108
1.220535769820112
1.2066653363867927
1.1949984820176651
1.187171829186047
1.1831072816747987
1.1823554419693088
1.1838083908868078
1.1856037697056268
1.188250490890514
1.1974294710603512
1.2267670801263741
1.2696507672617658
1.153519645810696
-1.090798000752635
-0.017452112431778175
0.5960852477251365
0.8654234492160895
0.9920968278585052
1.0450580186679181
1.064429560293801
1.0721522583419743
1.0800103304124462
1.0909979228986648
1.1046263288068683
1.1212923695910535
1.1429996779037959
1.1703446104018749
1.2094457304577535
1.2403577586793815
1.2023111154573702
1.3370426452103668
1.3273712763003467
1.302064363236224
1.281758293727413
1.2633327376961891
1.247850799733482
1.2359927837641294
1.2254123433713495
1.2172115917215587
1.2103990914942122
1.2052128768381858
1.202820231858131
1.204216807297497
1.2107839722887994
1.2233016939035148
1.241263924114197
1.256767573860441
1.2700507119457982
1.2955688459964079
1.2944246697464508
1.2031922332708902
-0.5090986030605328
-0.538893685831044
-0.4554664732432337
0.27153483067311934
0.7298757314420165
1.051751166126376
1.1090087231680665
1.0453429086692898
1.0140497936107138
0.9987605065610852
0.9919350006029128
0.9927870376609409
0.9978930245512154
1.0046843251358624
1.012013076971577
1.016896828940536
1.018268152865324
1.015812559886344
1.0628342470276062
1.1384642482354654
1.1495222961239657
1.1505022173558002
1.149225534466337
1.1481156899799752
1.147451502613612
1.1474745458610942
1.1484486904572768
1.1502025542489882
1.154308134198349
1.1605138217479336
1.1710311828864164
1.1862079637166398
1.208858135685281
1.2461403436875473
1.313401823158804
1.3818615357786024
1.3918729191745691
1.307893614433349
1.2180069616810558
1.2307626764292583
)
;

boundaryField
{
    ".*"
    {
        type            zeroGradient;
    }
}


// ************************************************************************* //
