/*--------------------------------*- C++ -*----------------------------------*\
  =========                 |
  \\      /  F ield         | OpenFOAM: The Open Source CFD Toolbox
   \\    /   O peration     | Website:  https://openfoam.org
    \\  /    A nd           | Version:  6
     \\/     M anipulation  |
\*---------------------------------------------------------------------------*/
FoamFile
{
    version     2.0;
    format      ascii;
    class       volScalarField;
    location    "400";
    object      nut;
}
// * * * * * * * * * * * * * * * * * * * * * * * * * * * * * * * * * * * * * //

dimensions      [0 2 -1 0 0 0 0];

internalField   nonuniform List<scalar> 
458
(
0.000759747
0.000800011
0.00078913
0.00081869
0.000844955
0.000867888
0.000888302
0.000907082
0.000925179
0.000943651
0.000957921
0.000966841
0.000970462
0.00097125
0.000970623
0.000571998
0.000528526
0.000483212
0.000439932
0.000402616
0.000366765
0.000329796
0.000287837
0.000241746
0.000212415
0.000209061
0.000217046
0.000222368
0.00021897
0.000211166
0.000219434
0.000366514
0.00029401
0.00115286
0.00205241
0.00178845
0.00209729
0.00227528
0.00245733
0.00263631
0.00280003
0.0029289
0.00299739
0.00302405
0.00296874
0.00277801
0.0023773
0.00170317
0.00100262
0.000919063
0.000849648
0.000693973
0.00103839
0.00118167
0.00122678
0.00115455
0.000935295
0.000764989
0.000654666
0.000614853
0.000629673
0.000672261
0.000719586
0.000755685
0.000784011
0.000788804
0.000698149
0.000998199
0.000436087
0.00150457
0.003038
0.00203432
0.00301216
0.00330648
0.00350809
0.00366435
0.00378587
0.00388032
0.00394509
0.00399585
0.00401536
0.00397916
0.00387009
0.00366989
0.0032747
0.00240839
0.00102453
0.000799017
0.00169174
0.00202495
0.00211551
0.00183587
0.000504227
0.000443478
0.000405404
0.000381501
0.000365743
0.000354152
0.00034479
0.000336778
0.000331309
0.000399882
0.000483939
0.000932798
0.000543329
0.00186428
0.00448487
0.00205064
0.00335597
0.0038498
0.00402206
0.00409875
0.00412792
0.0041412
0.00415664
0.00418442
0.00421263
0.00421945
0.00419203
0.00411904
0.0039477
0.00355066
0.00268562
0.000955598
0.00196325
0.00268693
0.00291084
0.00286778
0.00232002
0.000496272
0.0004915
0.000563149
0.000639739
0.000707919
0.000760958
0.000792508
0.000793765
0.000756659
0.000759171
0.000757448
0.00105591
0.000628732
0.00223655
0.0064308
0.00267311
0.00315232
0.00402235
0.00425939
0.00430109
0.00426175
0.00420215
0.00417026
0.00418135
0.00421932
0.00424024
0.00421626
0.00413579
0.00400443
0.00385868
0.00373439
0.00343722
0.00333523
0.00345378
0.003527
0.00348475
0.00318283
0.00263175
0.00286085
0.00311273
0.00334652
0.00352901
0.00363893
0.00366068
0.00358013
0.00333663
0.0027727
0.00219212
0.00172248
0.00131863
0.000773824
0.000776543
0.00075086
0.00262583
0.00859053
0.00481655
0.00317835
0.00355681
0.00400748
0.00424273
0.00430281
0.00424676
0.00414533
0.00415573
0.00421658
0.00424973
0.0042178
0.00410478
0.00393864
0.00379853
0.00373309
0.00365453
0.00360432
0.00372559
0.00387849
0.00389141
0.0037454
0.00367087
0.00382918
0.00403163
0.00420718
0.00431932
0.00436301
0.00434428
0.0042787
0.00416771
0.00387916
0.0033771
0.00279553
0.00231945
0.00213352
0.00240552
0.000974684
0.00299387
0.0103279
0.00821601
0.00544348
0.0041208
0.00360907
0.00365327
0.00391332
0.0041621
0.00413308
0.00418477
0.00424602
0.00426819
0.00421758
0.00407348
0.0038733
0.00371254
0.00363986
0.00360401
0.00363085
0.00384473
0.00405997
0.00408357
0.00399049
0.00400944
0.00413356
0.00426633
0.00436216
0.00440565
0.00439868
0.0043615
0.00432597
0.00433803
0.0043771
0.00420548
0.00382427
0.00343956
0.00321304
0.00317459
0.00122542
0.00307035
0.0097088
0.00882928
0.00822112
0.00682963
0.00548048
0.0046654
0.00434606
0.00435663
0.00434499
0.00432257
0.00431406
0.00428913
0.00419871
0.00400995
0.00377263
0.00360537
0.00355353
0.0035442
0.00360503
0.00389409
0.00411669
0.00410481
0.00403253
0.00406034
0.00414811
0.00422397
0.00426114
0.00425281
0.00420865
0.00415656
0.00414253
0.00422686
0.0044533
0.00476687
0.00492721
0.00493267
0.00471219
0.00479425
0.00148336
0.00299559
0.00356236
0.00400239
0.00443731
0.00480921
0.00483659
0.00466796
0.00448581
0.00437881
0.00431925
0.00431034
0.00430771
0.00426017
0.00411672
0.00385334
0.00357043
0.0034314
0.00345025
0.00347216
0.00355043
0.00382452
0.00398933
0.00397866
0.00394968
0.00398134
0.00404317
0.0040903
0.0040992
0.00406062
0.00397139
0.00384101
0.00369209
0.0035464
0.00341407
0.00329248
0.00316354
0.00294682
0.00265071
0.00240125
0.00142525
0.00233574
0.00479726
0.00486269
0.004932
0.00490635
0.00482925
0.00474823
0.00466381
0.00455561
0.00440981
0.00420222
0.00390051
0.003495
0.00318303
0.00316588
0.00334479
0.00338836
0.00339305
0.00352846
0.00362431
0.00367067
0.00371965
0.00379429
0.00388475
0.00397227
0.0040296
0.00404212
0.00400253
0.00391144
0.00378991
0.00365675
0.00352134
0.00335452
0.0031272
0.00281897
0.00244652
0.00205482
0.00120785
0.00235632
0.00539477
0.00538888
0.00535428
0.00526086
0.005097
0.00488861
0.00465383
0.00436722
0.00399857
0.00359038
0.00314155
0.00264648
0.00248566
0.00288426
0.00342973
0.00357037
0.00342114
0.00328298
0.0032328
0.00324562
0.00331416
0.00342992
0.00357947
0.00374852
0.00391572
0.00403791
0.00407118
0.0040397
0.00398302
0.00387872
0.00374962
0.00362154
0.003459
0.00320988
0.00291497
0.00276889
0.00124157
0.00180388
0.00198379
0.00212806
0.0022893
0.00233392
0.00228982
0.00215573
0.00196606
0.0017959
0.00162778
0.00147208
0.001341
0.00121681
0.00108702
0.000935715
0.00076866
0.000796679
0.000823049
0.000799203
0.000771125
0.000757305
0.000755614
0.000764049
0.000779909
0.000800729
0.000824179
0.000847741
0.000868736
0.000884856
0.000899517
0.000915375
0.00093616
0.000985244
0.00106294
0.00116418
0.00124039
0.0012609
0.00121152
0.00112817
0.0010346
)
;

boundaryField
{
    floor
    {
        type            nutkWallFunction;
        Cmu             0.09;
        kappa           0.41;
        E               9.8;
        value           nonuniform List<scalar> 
36
(
0.000117259
6.88289e-05
6.33321e-05
5.75429e-05
5.19514e-05
4.70773e-05
4.2341e-05
3.73942e-05
3.169e-05
2.5298e-05
2.11545e-05
2.06827e-05
2.18264e-05
2.25811e-05
2.20957e-05
2.09794e-05
2.21533e-05
4.22948e-05
3.25357e-05
3.25356e-05
5.14624e-05
6.52159e-05
7.59348e-05
9.37446e-05
9.40725e-05
9.09504e-05
0.000117259
0.00012103
0.000111152
0.000102867
6.88288e-05
0.000102867
8.3985e-05
0.000123605
9.67792e-05
0.000115493
)
;
    }
    ceiling
    {
        type            nutkWallFunction;
        Cmu             0.09;
        kappa           0.41;
        E               9.8;
        value           nonuniform List<scalar> 
43
(
0.000211882
0.000231588
0.000247254
0.000264679
0.00026949
0.000264775
0.000250338
0.000229741
0.000211076
0.000192446
0.000175003
0.000160161
0.00014595
0.000130922
0.000113142
9.31039e-05
9.64841e-05
9.96701e-05
9.68007e-05
9.3401e-05
9.17226e-05
9.15165e-05
9.25411e-05
9.44648e-05
9.69835e-05
9.98118e-05
0.000102645
0.000105163
0.000107093
0.00010884
0.00011073
0.000113199
0.000119004
0.000128123
0.000139895
0.000148673
0.000151024
0.000145347
0.000135714
0.000124798
0.000339702
0.000398392
0.000271657
)
;
    }
    sWall
    {
        type            nutkWallFunction;
        Cmu             0.09;
        kappa           0.41;
        E               9.8;
        value           uniform 0.000211937;
    }
    nWall
    {
        type            nutkWallFunction;
        Cmu             0.09;
        kappa           0.41;
        E               9.8;
        value           nonuniform List<scalar> 6(9.09497e-05 0.000117761 0.000146965 0.000144939 0.000148818 0.000124805);
    }
    sideWalls
    {
        type            empty;
    }
    glass1
    {
        type            nutkWallFunction;
        Cmu             0.09;
        kappa           0.41;
        E               9.8;
        value           nonuniform List<scalar> 9(9.20028e-05 0.000138694 0.000178893 0.00021893 0.000259485 0.000301127 0.000339902 0.000347905 0.000340105);
    }
    glass2
    {
        type            nutkWallFunction;
        Cmu             0.09;
        kappa           0.41;
        E               9.8;
        value           nonuniform List<scalar> 2(0.000176351 0.000169789);
    }
    sun
    {
        type            nutkWallFunction;
        Cmu             0.09;
        kappa           0.41;
        E               9.8;
        value           nonuniform List<scalar> 
14
(
9.20152e-05
9.68927e-05
9.55765e-05
9.91446e-05
0.000102302
0.00010505
0.000107489
0.000109726
0.000111878
0.000114069
0.000115758
0.000116812
0.00011724
0.000117333
)
;
    }
    Table_master
    {
        type            nutkWallFunction;
        Cmu             0.09;
        kappa           0.41;
        E               9.8;
        value           nonuniform List<scalar> 9(6.02544e-05 5.24368e-05 4.74699e-05 4.43218e-05 4.2232e-05 4.06869e-05 3.94338e-05 3.83575e-05 3.76199e-05);
    }
    Table_slave
    {
        type            nutkWallFunction;
        Cmu             0.09;
        kappa           0.41;
        E               9.8;
        value           nonuniform List<scalar> 9(5.92245e-05 5.86277e-05 6.77308e-05 7.73019e-05 8.57065e-05 9.21784e-05 9.60029e-05 9.61556e-05 9.16561e-05);
    }
    inlet
    {
        type            calculated;
        value           uniform 0.000268328;
    }
    outlet
    {
        type            calculated;
        value           nonuniform List<scalar> 2(0.00180388 0.00198379);
    }
}


// ************************************************************************* //
