/*--------------------------------*- C++ -*----------------------------------*\
  =========                 |
  \\      /  F ield         | OpenFOAM: The Open Source CFD Toolbox
   \\    /   O peration     | Website:  https://openfoam.org
    \\  /    A nd           | Version:  6
     \\/     M anipulation  |
\*---------------------------------------------------------------------------*/
FoamFile
{
    version     2.0;
    format      ascii;
    class       volScalarField;
    location    "400";
    object      T;
}
// * * * * * * * * * * * * * * * * * * * * * * * * * * * * * * * * * * * * * //

dimensions      [0 0 0 1 0 0 0];

internalField   nonuniform List<scalar> 
458
(
303.975
303.693
303.682
303.679
303.676
303.674
303.672
303.669
303.667
303.664
303.66
303.655
303.648
303.64
303.632
303.631
303.629
303.628
303.623
303.614
303.599
303.567
303.493
303.355
303.235
303.189
303.18
303.175
303.163
303.15
303.141
303.143
303.143
304.172
303.722
303.696
303.697
303.698
303.7
303.7
303.7
303.699
303.697
303.691
303.68
303.665
303.645
303.624
303.611
303.603
303.602
303.612
303.616
303.619
303.62
303.616
303.604
303.581
303.539
303.485
303.438
303.402
303.369
303.335
303.3
303.265
303.229
303.197
303.159
304.368
303.764
303.717
303.721
303.73
303.738
303.746
303.752
303.756
303.755
303.749
303.734
303.709
303.676
303.643
303.615
303.596
303.588
303.602
303.612
303.622
303.627
303.628
303.619
303.602
303.579
303.555
303.532
303.51
303.487
303.463
303.435
303.407
303.366
303.32
303.219
304.556
303.821
303.739
303.745
303.76
303.777
303.794
303.809
303.82
303.825
303.819
303.799
303.764
303.717
303.668
303.626
303.596
303.582
303.584
303.593
303.611
303.626
303.637
303.645
303.661
303.676
303.686
303.693
303.697
303.7
303.702
303.702
303.698
303.636
303.553
303.458
303.337
304.73
303.898
303.771
303.765
303.783
303.807
303.832
303.857
303.879
303.892
303.889
303.866
303.82
303.759
303.694
303.637
303.597
303.578
303.579
303.593
303.613
303.632
303.647
303.66
303.674
303.686
303.695
303.701
303.705
303.707
303.707
303.705
303.7
303.679
303.63
303.552
303.443
303.446
303.45
303.485
304.879
304.002
303.845
303.802
303.807
303.828
303.855
303.886
303.917
303.941
303.945
303.918
303.863
303.79
303.712
303.643
303.595
303.573
303.576
303.594
303.617
303.64
303.657
303.671
303.684
303.694
303.702
303.707
303.709
303.71
303.709
303.706
303.7
303.688
303.66
303.609
303.544
303.523
303.509
303.51
305.005
304.174
304.031
303.947
303.9
303.883
303.89
303.911
303.94
303.973
303.978
303.945
303.881
303.799
303.714
303.64
303.589
303.568
303.574
303.596
303.624
303.648
303.666
303.68
303.692
303.7
303.707
303.71
303.711
303.711
303.708
303.704
303.698
303.687
303.668
303.636
303.596
303.572
303.55
303.537
305.211
304.602
304.457
304.312
304.175
304.081
304.029
304.01
304.011
304.017
303.996
303.942
303.865
303.776
303.689
303.617
303.572
303.559
303.573
303.602
303.633
303.656
303.673
303.687
303.697
303.705
303.709
303.712
303.712
303.71
303.708
303.703
303.697
303.689
303.674
303.652
303.627
303.612
303.596
303.662
305.501
305.232
304.911
304.675
304.482
304.333
304.228
304.156
304.109
304.058
303.978
303.886
303.792
303.704
303.626
303.57
303.542
303.547
303.576
303.615
303.644
303.664
303.679
303.691
303.7
303.707
303.71
303.712
303.712
303.711
303.709
303.707
303.705
303.703
303.703
303.705
303.711
303.724
303.738
303.782
294.458
300.41
302.305
303.082
303.436
303.594
303.655
303.666
303.66
303.637
303.603
303.562
303.523
303.503
303.509
303.542
303.592
303.631
303.655
303.671
303.683
303.693
303.701
303.706
303.709
303.711
303.712
303.713
303.714
303.714
303.715
303.717
303.719
303.722
303.73
303.742
303.757
303.779
298.856
300.719
302.182
302.812
303.141
303.311
303.391
303.423
303.438
303.445
303.444
303.437
303.43
303.455
303.502
303.566
303.617
303.646
303.663
303.675
303.685
303.692
303.698
303.702
303.705
303.707
303.709
303.71
303.712
303.714
303.716
303.718
303.72
303.723
303.728
303.736
303.736
303.764
301.506
301.418
301.413
302.226
302.606
302.9
303.126
303.244
303.292
303.315
303.327
303.339
303.35
303.36
303.375
303.478
303.574
303.613
303.636
303.651
303.661
303.669
303.676
303.681
303.685
303.688
303.69
303.692
303.693
303.695
303.697
303.7
303.704
303.708
303.713
303.716
303.719
303.721
303.722
303.757
)
;

boundaryField
{
    floor
    {
        type            wallHeatTransfer;
        Tinf            uniform 305.2;
        alphaWall       uniform 0.24;
        value           nonuniform List<scalar> 
36
(
303.812
303.894
303.906
303.922
303.937
303.949
303.957
303.957
303.934
303.881
303.835
303.808
303.79
303.778
303.775
303.778
303.759
303.603
303.668
303.668
303.567
303.561
303.629
303.683
303.686
303.722
303.812
303.788
303.793
303.804
303.894
303.804
303.844
303.765
303.813
303.771
)
;
    }
    ceiling
    {
        type            wallHeatTransfer;
        Tinf            uniform 303.2;
        alphaWall       uniform 0.24;
        value           nonuniform List<scalar> 
43
(
301.626
301.534
301.523
302.283
302.64
302.917
303.131
303.241
303.285
303.306
303.317
303.327
303.335
303.343
303.355
303.44
303.524
303.56
303.579
303.59
303.598
303.605
303.611
303.617
303.621
303.625
303.628
303.631
303.633
303.635
303.637
303.641
303.647
303.654
303.662
303.667
303.671
303.671
303.669
303.696
305.393
305.15
299.101
)
;
    }
    sWall
    {
        type            wallHeatTransfer;
        Tinf            uniform 315.2;
        alphaWall       uniform 0.36;
        value           uniform 302.909;
    }
    nWall
    {
        type            wallHeatTransfer;
        Tinf            uniform 307.2;
        alphaWall       uniform 0.36;
        value           nonuniform List<scalar> 6(304.205 304.108 304.041 304.255 304.232 304.292);
    }
    sideWalls
    {
        type            empty;
    }
    glass1
    {
        type            wallHeatTransfer;
        Tinf            uniform 315.2;
        alphaWall       uniform 4.3;
        value           nonuniform List<scalar> 9(312.329 311.58 311.08 310.678 310.343 310.051 309.821 309.876 310.084);
    }
    glass2
    {
        type            wallHeatTransfer;
        Tinf            uniform 307.2;
        alphaWall       uniform 4.3;
        value           nonuniform List<scalar> 2(305.852 305.926);
    }
    sun
    {
        type            wallHeatTransfer;
        Tinf            uniform 305.2;
        alphaWall       uniform 0.24;
        value           nonuniform List<scalar> 
14
(
304.143
303.892
303.884
303.876
303.87
303.864
303.859
303.854
303.849
303.844
303.838
303.832
303.826
303.819
)
;
    }
    Table_master
    {
        type            zeroGradient;
    }
    Table_slave
    {
        type            zeroGradient;
    }
    inlet
    {
        type            fixedValue;
        value           uniform 292.15;
    }
    outlet
    {
        type            zeroGradient;
    }
}


// ************************************************************************* //
