/*--------------------------------*- C++ -*----------------------------------*\
  =========                 |
  \\      /  F ield         | OpenFOAM: The Open Source CFD Toolbox
   \\    /   O peration     | Website:  https://openfoam.org
    \\  /    A nd           | Version:  6
     \\/     M anipulation  |
\*---------------------------------------------------------------------------*/
FoamFile
{
    version     2.0;
    format      ascii;
    class       surfaceScalarField;
    location    "800";
    object      phi;
}
// * * * * * * * * * * * * * * * * * * * * * * * * * * * * * * * * * * * * * //

dimensions      [1 0 -1 0 0 0 0];

internalField   nonuniform List<scalar> 
850
(
-0.00328993
0.00335183
-0.00467302
0.00138307
-0.00575604
0.001083
-0.00657093
0.00081487
-0.00706822
0.000497279
-0.0071894
0.000121161
-0.00686107
-0.000328346
-0.00600757
-0.000853517
-0.00460965
-0.00139794
-0.00275478
-0.00185488
-0.000672406
-0.00208239
0.00112022
-0.00179265
0.00186176
-0.000741564
0.0016385
0.000223247
0.00164085
-0.000994666
0.000998207
-0.00069659
-0.000298117
8.71223e-05
-0.000783751
0.000846255
-0.000759172
0.00142545
-0.000579236
0.00174501
-0.000319603
0.00187952
-0.000134548
0.00194643
-6.69533e-05
0.00198596
-3.95666e-05
0.00200621
-2.02913e-05
0.00201129
-5.13285e-06
0.00200114
1.01111e-05
0.00196586
3.5231e-05
0.00187786
8.79579e-05
0.0016903
0.000187516
0.00137655
0.000313693
0.000934556
0.000441949
0.000938824
-0.00244847
0.00596952
-0.00380261
0.0027372
-0.00494272
0.00222309
-0.00579704
0.00166917
-0.00633963
0.00103985
-0.00652119
0.000302704
-0.00627788
-0.000571675
-0.00555156
-0.00157985
-0.00435209
-0.00259743
-0.00283239
-0.0033746
-0.00126388
-0.00365092
0.000156234
-0.00321278
0.0011768
-0.00176215
0.00180593
-0.000405911
0.00281381
0.000632954
0.00216856
0.000649359
0.00135613
0.000816985
0.0013692
1.63417e-05
0.000992786
0.000501968
-0.000783783
0.000968567
-0.00125039
0.00138841
-0.00117905
0.00172734
-0.000918201
0.00180712
-0.000399418
0.00181907
-0.000146538
0.00183239
-8.03168e-05
0.00184358
-5.07985e-05
0.00185021
-2.69609e-05
0.00185315
-8.12246e-06
0.00185194
1.12801e-05
0.0018423
4.48227e-05
0.00179088
0.000139338
0.00158627
0.000392078
0.00123125
0.000668661
0.000766689
0.000906461
0.00171711
-0.00177175
0.00800304
-0.00294764
0.00391307
-0.00402541
0.00330084
-0.00484286
0.00248661
-0.00540162
0.00159859
-0.00564847
0.000549545
-0.00550486
-0.000715305
-0.00490527
-0.00217946
-0.00388332
-0.0036194
-0.00262052
-0.00463742
-0.00135936
-0.00491209
-0.000260515
-0.00431164
0.000680172
-0.00270286
0.00139144
-0.00111721
0.00191861
0.00010576
0.00179827
0.000769674
0.00125416
0.00136107
0.0026356
0.00145581
-0.000448111
0.00172009
-0.0010481
0.00175519
-0.00128552
0.0018694
-0.0012933
0.00217455
-0.00122339
0.00177525
0.00162883
0.00154862
0.00149794
0.00147109
0.00146308
0.00147447
0.0015194
0.00165884
0.00139524
0.000655635
0.00106641
0.000997441
0.000615417
0.0013574
0.0023505
-0.00124243
0.00958801
-0.00215665
0.00482727
-0.00299474
0.00413892
-0.00366491
0.00315675
-0.00418086
0.00211452
-0.00446918
0.00083785
-0.00441769
-0.00076681
-0.00393212
-0.00266504
-0.0030873
-0.00446424
-0.00208514
-0.0056396
-0.0011239
-0.00587335
-0.000302817
-0.00513275
0.000434566
-0.00344026
0.00100412
-0.00168678
0.00143286
-0.000323005
0.00162273
0.000579774
0.00176692
0.00121686
0.00286685
0.00153564
0.00242177
0.000458879
0.00232455
-0.00035092
0.00221383
-0.000937411
0.00207436
-0.00114609
0.00191563
-0.0011346
0.00161932
-0.00092711
0.00203519
-0.000416068
0.00223736
-0.000202357
0.00236882
-0.000131662
0.00245763
-8.90065e-05
0.00249573
-3.82958e-05
0.00246382
3.17134e-05
0.00233568
0.00012794
0.00207133
0.00026415
0.00160009
0.00047104
0.00139025
0.000865425
0.00106673
0.00132091
0.000625916
0.00179817
0.00299972
-0.000817114
0.0108179
-0.00145019
0.00546032
-0.00184738
0.0045361
-0.00225115
0.0035605
-0.00263927
0.00250263
-0.00291618
0.00111473
-0.00291525
-0.000767757
-0.00251192
-0.00306839
-0.00187248
-0.0051037
-0.00118487
-0.00632722
-0.000572657
-0.00648557
-6.85537e-05
-0.00563687
0.000408464
-0.0039173
0.000787678
-0.00206602
0.00110293
-0.000638285
0.0013992
0.000283477
0.00178411
0.000831918
0.00232819
0.000991533
0.00239436
0.000392673
0.00234586
-0.000302449
0.00213679
-0.000728371
0.00188853
-0.000897859
0.00164345
-0.000889558
0.00145353
-0.000737224
0.00150382
-0.000466405
0.00158327
-0.000281851
0.00165179
-0.000200222
0.00171576
-0.000153023
0.00177031
-9.28981e-05
0.00179477
7.20484e-06
0.00176571
0.00015695
0.0016713
0.000358514
0.00152217
0.000620119
0.00140672
0.000980817
0.0013268
0.00140078
0.001238
0.00188692
0.00219102
0.00204665
0.00153966
0.000674222
0.00160922
-4.79573e-05
0.00169118
-0.000612048
0.0119029
-0.000922211
0.00577046
-0.000622697
0.00423656
-0.000654505
0.00359229
-0.000863051
0.00271116
-0.00106046
0.00131213
-0.0010008
-0.000827442
-0.00065511
-0.00341409
-0.00026928
-0.00548955
4.03502e-05
-0.00663686
0.000245214
-0.00669045
0.00037118
-0.00576286
0.000503531
-0.00404968
0.000591711
-0.00215423
0.000696401
-0.000743004
0.000897904
8.1942e-05
0.00121088
0.000518905
0.00160973
0.000592657
0.00178389
0.00021848
0.00169932
-0.00021792
0.00148377
-0.000512854
0.0012322
-0.000646325
0.000995158
-0.00065256
0.000822223
-0.000564332
0.000774276
-0.000418503
0.000806629
-0.000314252
0.000873368
-0.000267011
0.000958689
-0.000238395
0.00105559
-0.000189849
0.00115369
-9.09478e-05
0.0012333
7.72899e-05
0.00128672
0.000305035
0.00133105
0.000575732
0.00141728
0.000894534
0.00160317
0.00121484
0.00191837
0.00157167
0.00227958
0.00168539
0.00187594
0.00107781
0.00105281
0.000775119
0.00280591
-0.000734076
0.0131618
-0.000372337
0.0054087
0.000901218
0.00296299
0.0010848
0.00340869
0.000984544
0.0028114
0.00103652
0.00126013
0.00130926
-0.00110019
0.00156796
-0.00367281
0.0016473
-0.0055689
0.00152303
-0.0065126
0.00125088
-0.00641832
0.000918145
-0.00543014
0.000600092
-0.00373165
0.000303977
-0.00185814
0.000163644
-0.000602705
0.000238335
7.21496e-06
0.000465966
0.000291237
0.000737169
0.000321417
0.000843112
0.0001125
0.00076521
-0.000140057
0.000582926
-0.000330611
0.000364351
-0.000427794
0.000159548
-0.000447804
1.2354e-05
-0.000417186
-4.124e-05
-0.00036496
-1.9378e-05
-0.000336167
4.44844e-05
-0.000330927
0.000134095
-0.000328061
0.00024845
-0.000304261
0.000393809
-0.000236363
0.000566259
-9.52165e-05
0.000749193
0.000122045
0.000946631
0.000378239
0.00118943
0.000651678
0.00150069
0.000903536
0.00189879
0.00117351
0.00235548
0.00122864
0.0025656
0.000867639
0.00196588
0.00137479
0.0048336
0.00318051
0.0105654
0.00399677
0.00459243
0.00393923
0.00302051
0.00354501
0.00380288
0.0033681
0.00298829
0.00362897
0.000999236
0.00404208
-0.00151333
0.0040968
-0.00372754
0.0037656
-0.0052377
0.00311675
-0.00586377
0.00226434
-0.00556593
0.00136109
-0.00452691
0.00049437
-0.00286496
-0.000191222
-0.00117258
-0.000477671
-0.000316296
-0.000491832
2.13343e-05
-0.000364634
0.000163998
-0.000217233
0.000173974
-0.000174478
6.97014e-05
-0.000248476
-6.61046e-05
-0.000398181
-0.000180954
-0.000572036
-0.000253989
-0.000728421
-0.000291471
-0.000838441
-0.000307221
-0.000887666
-0.000315791
-0.000892073
-0.000331818
-0.000870851
-0.000352208
-0.000832749
-0.000366222
-0.000774784
-0.000362285
-0.000681916
-0.00032929
-0.000522284
-0.000254907
-0.000283811
-0.000116486
5.96572e-06
8.84045e-05
0.000333772
0.000323815
0.000683117
0.000554135
0.00105812
0.000798451
0.00139916
0.000887549
0.00151013
0.000756613
0.000767006
0.00211786
0.00588647
0.0112107
0.0158022
0.0130119
0.00581081
0.0109258
0.00588897
0.00968098
0.00423305
0.00882153
0.00185867
0.00798724
-0.000679052
0.00701281
-0.00275312
0.00581017
-0.00403508
0.0043989
-0.0044525
0.00282558
-0.00399263
0.00129675
-0.0029981
-0.000125933
-0.00144232
-0.000930462
-0.000368098
-0.00120661
-4.01933e-05
-0.00126114
7.58219e-05
-0.00121839
0.000121192
-0.00116416
0.000119699
-0.00116428
6.97714e-05
-0.00123014
-2.94932e-07
-0.00134272
-6.84315e-05
-0.00147159
-0.000125172
-0.00159231
-0.000170809
-0.00169164
-0.000207952
-0.00176823
-0.000239259
-0.00183395
-0.000266157
-0.00190174
-0.000284484
-0.00198163
-0.000286387
-0.00208294
-0.000261034
-0.00221771
-0.000194586
-0.00240124
-7.14348e-05
-0.00263582
0.000118042
-0.00293129
0.00038381
-0.00335569
0.000748163
-0.00402565
0.00122404
-0.00502326
0.001796
-0.00648078
0.00234502
-0.00831313
0.00258891
-0.00800524
0.00180992
-0.00180498
0.0171692
0.0117082
0.0139836
0.00907461
0.0120612
0.00615543
0.0108151
0.00310482
0.00959141
0.000544625
0.0080201
-0.00118181
0.00613542
-0.0021504
0.00414614
-0.00246322
0.00201542
-0.00186194
-8.48138e-06
-0.00097424
-0.00137053
-8.03093e-05
-0.00184692
0.00010824
-0.00199972
0.00011255
-0.00203265
0.000108705
-0.00202391
0.000112399
-0.00201323
0.000108965
-0.00203037
8.68582e-05
-0.0020812
5.0472e-05
-0.00215917
9.4848e-06
-0.00225312
-3.12826e-05
-0.00235228
-7.17175e-05
-0.00245323
-0.000107064
-0.00255814
-0.000134406
-0.00267228
-0.000152078
-0.00279945
-0.000157375
-0.00294015
-0.000145756
-0.00309075
-0.000110493
-0.00324221
-4.31847e-05
-0.00337976
6.60547e-05
-0.00349787
0.000236094
-0.00360578
0.000491669
-0.00371574
0.000858069
-0.00383741
0.00134565
-0.003956
0.00191453
-0.00403406
0.00242301
-0.00391438
0.00246918
-0.00236588
0.000261359
-0.00408922
-0.000160709
0.0119134
0.00209145
0.00682246
0.00333859
0.00490829
0.00370703
0.00273638
0.00360285
0.000648799
0.00303166
-0.000610636
0.00186357
-0.00098233
0.000208951
-0.000808627
-0.00141915
-0.000233885
-0.00243431
4.08766e-05
-0.00267682
0.00016215
-0.00270736
0.000138719
-0.00270276
0.000107901
-0.00268835
9.42339e-05
-0.0026681
9.20867e-05
-0.00264903
8.98356e-05
-0.00264104
7.88062e-05
-0.00264864
5.80066e-05
-0.00267027
3.10514e-05
-0.00270358
1.96662e-06
-0.00274985
-2.55103e-05
-0.00280932
-4.76629e-05
-0.00288052
-6.32659e-05
-0.00296082
-7.18439e-05
-0.00304586
-7.23967e-05
-0.00312886
-6.28091e-05
-0.00319986
-3.9552e-05
-0.00324611
3.00113e-06
-0.00325115
7.10316e-05
-0.00319257
0.000177454
-0.00303843
0.000337474
-0.00275313
0.000572717
-0.00231701
0.000909478
-0.00172247
0.00131993
-0.000779629
0.00148012
0.000796899
0.000892591
0.0015632
-0.000505004
-0.00243601
-0.0225982
-0.02806
-0.0161143
-0.00926781
-0.00433626
-0.00157741
-0.000908837
-0.00150687
-0.00248166
-0.00328547
-0.00351607
-0.00347256
-0.00330804
-0.00316715
-0.00305719
-0.00296097
-0.00286692
-0.00277513
-0.0026943
-0.00263416
-0.00260085
-0.00259647
-0.00261942
-0.00266439
-0.00272484
-0.00279377
-0.00286318
-0.00292294
-0.00295939
-0.00295327
-0.00287911
-0.00269853
-0.00235797
-0.00178224
-0.000869829
0.00045289
0.00193556
0.00283055
0.0023279
)
;

boundaryField
{
    floor
    {
        type            calculated;
        value           nonuniform List<scalar> 
36
(
0
0
0
0
0
0
0
0
0
0
0
0
0
0
0
0
0
0
0
-4.31892e-06
-1.16446e-05
-1.80234e-05
-2.33629e-05
-2.29069e-05
-2.16644e-05
-2.11141e-05
-2.38008e-06
-4.13489e-06
-4.58216e-06
-5.20632e-06
-3.58252e-06
-7.88635e-06
-1.09648e-05
-1.22619e-05
-1.49546e-05
-1.38285e-05
)
;
    }
    ceiling
    {
        type            calculated;
        value           nonuniform List<scalar> 
43
(
-3.2737e-05
-3.2512e-05
-3.23117e-05
-2.40196e-05
-2.33e-05
-2.25364e-05
-1.99183e-05
-1.26849e-05
-7.59776e-06
-4.8695e-06
-3.33487e-06
-2.69777e-06
-2.421e-06
-2.23682e-06
-2.12061e-06
-2.04906e-06
-2.01635e-06
-2.02612e-06
-2.085e-06
-2.1909e-06
-2.32814e-06
-2.47727e-06
-2.62402e-06
-2.75769e-06
-2.87435e-06
-2.97257e-06
-3.05216e-06
-3.11351e-06
-3.15723e-06
-3.18365e-06
-3.19183e-06
-3.17886e-06
-3.14293e-06
-3.08111e-06
-2.98795e-06
-2.84274e-06
-2.60668e-06
-2.45591e-06
-2.41665e-06
-1.64812e-06
3.45337e-06
9.04327e-07
-4.45024e-05
)
;
    }
    sWall
    {
        type            calculated;
        value           uniform -0.000187741;
    }
    nWall
    {
        type            calculated;
        value           nonuniform List<scalar> 6(-6.08976e-05 -6.19761e-05 -6.18718e-05 -8.1689e-05 -9.00667e-05 -0.000106525);
    }
    sideWalls
    {
        type            empty;
        value           nonuniform 0();
    }
    glass1
    {
        type            calculated;
        value           nonuniform List<scalar> 9(-6.19188e-05 -0.000169234 -0.000261787 -0.000342549 -0.000412795 -0.000472973 -0.000524787 -0.000584151 -0.000648763);
    }
    glass2
    {
        type            calculated;
        value           nonuniform List<scalar> 2(-0.000285914 -0.000313847);
    }
    sun
    {
        type            calculated;
        value           uniform 0;
    }
    Table_master
    {
        type            calculated;
        value           nonuniform List<scalar> 9(-1.53596e-07 -1.53778e-07 -1.53832e-07 -1.53862e-07 -1.53879e-07 -1.53887e-07 -1.53883e-07 -1.53864e-07 -1.53812e-07);
    }
    Table_slave
    {
        type            calculated;
        value           nonuniform List<scalar> 9(1.5344e-07 1.53405e-07 1.53341e-07 1.53293e-07 1.53266e-07 1.53257e-07 1.53263e-07 1.53305e-07 1.53397e-07);
    }
    inlet
    {
        type            calculated;
        value           uniform -0.0230666;
    }
    outlet
    {
        type            calculated;
        value           nonuniform List<scalar> 2(0.0228186 0.00549432);
    }
}


// ************************************************************************* //
