/*--------------------------------*- C++ -*----------------------------------*\
  =========                 |
  \\      /  F ield         | OpenFOAM: The Open Source CFD Toolbox
   \\    /   O peration     | Website:  https://openfoam.org
    \\  /    A nd           | Version:  6
     \\/     M anipulation  |
\*---------------------------------------------------------------------------*/
FoamFile
{
    version     2.0;
    format      ascii;
    class       volScalarField;
    location    "900";
    object      k;
}
// * * * * * * * * * * * * * * * * * * * * * * * * * * * * * * * * * * * * * //

dimensions      [0 2 -2 0 0 0 0];

internalField   nonuniform List<scalar> 
458
(
0.00290018
0.00346869
0.00356495
0.0039262
0.00428624
0.00464254
0.00500899
0.00539722
0.0057135
0.00591636
0.00595909
0.00580026
0.0054208
0.0048425
0.0041294
0.000713691
0.00104391
0.00131979
0.00132834
0.00124796
0.00109749
0.000949264
0.000824244
0.000721627
0.000637238
0.000567397
0.000509234
0.00046016
0.000417625
0.000379238
0.00034274
0.000325231
0.000277523
0.0055062
0.0104966
0.00591547
0.00626266
0.00686806
0.00755208
0.00828679
0.00905074
0.00979298
0.0103997
0.0107393
0.0106921
0.0101815
0.00920519
0.00789672
0.00459937
0.00310374
0.0019183
0.000802133
0.00173378
0.00213317
0.00228591
0.00221032
0.00188428
0.00155941
0.0012933
0.00108378
0.000918887
0.000788017
0.00068232
0.000594829
0.000521995
0.000468935
0.000438928
0.000827056
0.000482467
0.00828313
0.0193967
0.00762875
0.00729268
0.00787076
0.00863351
0.00948852
0.0104101
0.0112986
0.0120221
0.0124643
0.0125118
0.0120776
0.0111442
0.00986421
0.0081677
0.00649339
0.00302952
0.00276073
0.00292465
0.00297045
0.002938
0.00275726
0.00210103
0.00159798
0.00124583
0.000996946
0.000817233
0.000684389
0.000584309
0.000508462
0.000452848
0.000417165
0.00043008
0.00132043
0.000671215
0.0114491
0.0315641
0.0100847
0.00793669
0.00835219
0.00919736
0.0102177
0.0113393
0.0123239
0.013069
0.0135467
0.0136623
0.0132956
0.0123869
0.0110909
0.0096707
0.00826204
0.00710255
0.00513605
0.00466307
0.00431067
0.00403656
0.00375275
0.00339953
0.00262212
0.00215322
0.00186174
0.00165711
0.00148901
0.00133539
0.00119471
0.00105425
0.000901773
0.000663775
0.000571858
0.00201976
0.000848312
0.0151644
0.0471979
0.0155773
0.00936029
0.00925774
0.0101758
0.0115179
0.0128592
0.013798
0.0144114
0.0148276
0.0149396
0.0145303
0.0134911
0.0119625
0.0102625
0.00868644
0.00754347
0.0067711
0.00605508
0.00545235
0.00491406
0.00441239
0.00393585
0.00349579
0.00319152
0.00297678
0.00278445
0.00257512
0.00232085
0.00202722
0.00171547
0.00140057
0.00106484
0.000826875
0.0014906
0.00181679
0.00146316
0.00153493
0.0017818
0.0195909
0.0631855
0.0277509
0.014759
0.0130132
0.0135888
0.0150062
0.0158748
0.0162442
0.016446
0.0166476
0.0166792
0.0161723
0.0148774
0.0128939
0.0106607
0.00873176
0.0074852
0.00685046
0.0064065
0.00588473
0.0052837
0.00468797
0.00416737
0.00378813
0.00356508
0.0034089
0.00325052
0.00305892
0.00281391
0.00248913
0.00213178
0.00176983
0.00141495
0.00116083
0.00127958
0.00162514
0.00167017
0.00235165
0.00194802
0.0237351
0.0721871
0.0450039
0.0299884
0.0253659
0.0235524
0.0222016
0.0208696
0.0198378
0.0193103
0.0192117
0.0191006
0.018376
0.0166588
0.0140597
0.0111882
0.00885439
0.00748645
0.00685564
0.00640587
0.00584851
0.00520427
0.00458869
0.00410796
0.0038067
0.00364925
0.00355228
0.00346397
0.00336843
0.00324879
0.00305772
0.00276021
0.00242382
0.00207938
0.00183701
0.00181102
0.00207238
0.0025459
0.00344923
0.00297342
0.0242007
0.0649663
0.0480796
0.0412923
0.0372264
0.0329632
0.0287673
0.0254781
0.0234877
0.0227213
0.0226488
0.0224152
0.0212174
0.0187094
0.0151832
0.0115209
0.00882408
0.00733815
0.00661994
0.00604402
0.00541756
0.00479846
0.0042818
0.00391817
0.00370508
0.00359953
0.0035545
0.00355374
0.00360582
0.00372408
0.00390768
0.00407235
0.00412046
0.00418237
0.00446146
0.00548796
0.00775307
0.0110873
0.0218924
0.00648309
0.0226478
0.0303234
0.0268406
0.0236449
0.0214552
0.0205395
0.0209601
0.0224858
0.024629
0.026704
0.0278053
0.0271251
0.0244359
0.0201783
0.0152249
0.0107609
0.00829466
0.00698788
0.00620013
0.00555988
0.00497766
0.00449047
0.00413064
0.00389011
0.00373575
0.00363213
0.00356089
0.00352986
0.00356706
0.00370578
0.00396811
0.00435399
0.00485761
0.00551764
0.00636764
0.00732543
0.00814607
0.00856775
0.00869707
0.00538353
0.00338142
0.00875117
0.018407
0.0303687
0.040026
0.0448922
0.0446273
0.0405417
0.0345953
0.0278266
0.0216859
0.0165222
0.0124859
0.0096912
0.00805627
0.00709457
0.00644308
0.00592613
0.00551891
0.00522363
0.00501822
0.00486596
0.00473041
0.00458306
0.00440959
0.00421866
0.00404916
0.00396898
0.00405849
0.00433528
0.00479607
0.00541208
0.00610806
0.0066971
0.00689284
0.00646014
0.00534858
0.00363997
0.0302393
0.049392
0.0432363
0.0409667
0.0394099
0.0367823
0.0326639
0.0277236
0.0227613
0.0182823
0.0146911
0.0120535
0.0102911
0.00923271
0.00866331
0.00833985
0.00806898
0.00774027
0.00743306
0.007194
0.00700874
0.00684994
0.00669128
0.00651163
0.00629942
0.00605667
0.00580109
0.00556327
0.00542235
0.00546708
0.00572277
0.00617273
0.00675414
0.0073979
0.00788046
0.00807642
0.00574771
0.00377982
0.0154317
0.0175342
0.0194621
0.0181751
0.0171776
0.0165639
0.0156186
0.0141479
0.0122682
0.0102772
0.00842392
0.0068505
0.00562942
0.00474543
0.00413553
0.00372232
0.00343394
0.00321388
0.00303856
0.00292027
0.00283559
0.00277291
0.00272505
0.00268557
0.00265114
0.00262229
0.00260375
0.00260471
0.00263925
0.00272812
0.00287273
0.00307773
0.00334552
0.00368174
0.00408929
0.0046626
0.00484321
0.00464122
0.00403169
0.00344257
)
;

boundaryField
{
    floor
    {
        type            kqRWallFunction;
        value           nonuniform List<scalar> 
36
(
0.0041294
0.000713691
0.00104391
0.00131979
0.00132834
0.00124796
0.00109749
0.000949264
0.000824244
0.000721627
0.000637238
0.000567397
0.000509234
0.00046016
0.000417625
0.000379238
0.00034274
0.000325231
0.000277523
0.000277523
0.000482467
0.000671215
0.000848312
0.00146316
0.00153493
0.0017818
0.0041294
0.00459937
0.00310374
0.0019183
0.000713691
0.0019183
0.000802133
0.00302952
0.00276073
0.00513605
)
;
    }
    ceiling
    {
        type            kqRWallFunction;
        value           nonuniform List<scalar> 
43
(
0.0154317
0.0175342
0.0194621
0.0181751
0.0171776
0.0165639
0.0156186
0.0141479
0.0122682
0.0102772
0.00842392
0.0068505
0.00562942
0.00474543
0.00413553
0.00372232
0.00343394
0.00321388
0.00303856
0.00292027
0.00283559
0.00277291
0.00272505
0.00268557
0.00265114
0.00262229
0.00260375
0.00260471
0.00263925
0.00272812
0.00287273
0.00307773
0.00334552
0.00368174
0.00408929
0.0046626
0.00484321
0.00464122
0.00403169
0.00344257
0.0226478
0.0303234
0.0302393
)
;
    }
    sWall
    {
        type            kqRWallFunction;
        value           uniform 0.0154317;
    }
    nWall
    {
        type            kqRWallFunction;
        value           nonuniform List<scalar> 6(0.0017818 0.00194802 0.00297342 0.00363997 0.00377982 0.00344257);
    }
    sideWalls
    {
        type            empty;
    }
    glass1
    {
        type            kqRWallFunction;
        value           nonuniform List<scalar> 9(0.00290018 0.0055062 0.00828313 0.0114491 0.0151644 0.0195909 0.0237351 0.0242007 0.0226478);
    }
    glass2
    {
        type            kqRWallFunction;
        value           nonuniform List<scalar> 2(0.00648309 0.00538353);
    }
    sun
    {
        type            kqRWallFunction;
        value           nonuniform List<scalar> 
14
(
0.00290018
0.00346869
0.00356495
0.0039262
0.00428624
0.00464254
0.00500899
0.00539722
0.0057135
0.00591636
0.00595909
0.00580026
0.0054208
0.0048425
)
;
    }
    Table_master
    {
        type            kqRWallFunction;
        value           nonuniform List<scalar> 9(0.00210103 0.00159798 0.00124583 0.000996946 0.000817233 0.000684389 0.000584309 0.000508462 0.000452848);
    }
    Table_slave
    {
        type            kqRWallFunction;
        value           nonuniform List<scalar> 9(0.00262212 0.00215322 0.00186174 0.00165711 0.00148901 0.00133539 0.00119471 0.00105425 0.000901773);
    }
    inlet
    {
        type            turbulentIntensityKineticEnergyInlet;
        intensity       0.05;
        value           uniform 0.0024;
    }
    outlet
    {
        type            zeroGradient;
    }
}


// ************************************************************************* //
