/*--------------------------------*- C++ -*----------------------------------*\
  =========                 |
  \\      /  F ield         | OpenFOAM: The Open Source CFD Toolbox
   \\    /   O peration     | Website:  https://openfoam.org
    \\  /    A nd           | Version:  6
     \\/     M anipulation  |
\*---------------------------------------------------------------------------*/
FoamFile
{
    version     2.0;
    format      ascii;
    class       volScalarField;
    location    "2900";
    object      epsilon;
}
// * * * * * * * * * * * * * * * * * * * * * * * * * * * * * * * * * * * * * //

dimensions      [0 2 -3 0 0 0 0];

internalField   nonuniform List<scalar> 
458
(
0.000443862
0.000584492
0.000619723
0.000716097
0.000813897
0.000912812
0.00101657
0.00112734
0.00121218
0.00125558
0.00124491
0.00117619
0.00105692
0.000907667
0.000755664
3.54217e-05
6.90082e-05
9.92676e-05
9.67393e-05
8.61383e-05
7.00788e-05
5.57238e-05
4.46509e-05
3.62766e-05
2.98826e-05
2.49326e-05
2.10684e-05
1.79828e-05
1.54338e-05
1.32234e-05
1.1161e-05
9.53091e-06
6.92238e-06
0.00112487
0.0015885
0.000558534
0.000545151
0.000575319
0.000619903
0.000680934
0.0007601
0.000834491
0.000883684
0.000891002
0.000850552
0.000768085
0.000667244
0.000622609
0.000911861
0.000381242
0.000126646
4.62031e-05
0.000118515
0.000121933
0.000109175
9.34273e-05
8.44716e-05
6.56348e-05
4.99282e-05
3.821e-05
2.96021e-05
2.32561e-05
1.8557e-05
1.50448e-05
1.24804e-05
1.09155e-05
1.0171e-05
1.89172e-05
1.37883e-05
0.0020512
0.00386462
0.000706938
0.000529763
0.00056039
0.000633351
0.000735323
0.000858969
0.000970833
0.0010415
0.00105465
0.00101072
0.000918929
0.000797824
0.000690354
0.000609317
0.000457011
0.000566411
0.000378181
0.000262237
0.000195637
0.000149996
0.000122446
0.000205942
0.000136667
9.37652e-05
6.67728e-05
4.92854e-05
3.75926e-05
2.9554e-05
2.39205e-05
1.99769e-05
1.50795e-05
1.23353e-05
3.0471e-05
2.02317e-05
0.00332125
0.00798708
0.00115285
0.000560768
0.000571227
0.00068025
0.000846879
0.00104034
0.00118916
0.00126518
0.00126557
0.00120319
0.00109106
0.000940653
0.000796072
0.000669881
0.000562388
0.00056793
0.00109356
0.000599152
0.000359771
0.000240646
0.000173124
0.000139038
0.000288486
0.000210123
0.000163966
0.000133924
0.000112043
9.47047e-05
8.03056e-05
6.72549e-05
5.43503e-05
3.22769e-05
2.02096e-05
4.28964e-05
2.74948e-05
0.00507486
0.0141484
0.00233781
0.000742126
0.000655035
0.000806026
0.00110812
0.00138375
0.00153431
0.00157704
0.00153883
0.00143909
0.00128876
0.00110203
0.000904729
0.000719166
0.000562173
0.000456376
0.000409613
0.000333868
0.000262152
0.000203235
0.000157471
0.000124536
0.000111588
9.82624e-05
8.76573e-05
7.87133e-05
7.04428e-05
6.24295e-05
5.47852e-05
4.76332e-05
4.10828e-05
3.25993e-05
2.43691e-05
3.39586e-05
4.21177e-05
6.06863e-05
9.02771e-05
0.000119906
0.00751016
0.0208986
0.00529755
0.00162354
0.00119963
0.00139275
0.00186212
0.00205677
0.0020863
0.00202782
0.00191735
0.00175861
0.00154999
0.00130039
0.00103439
0.000783533
0.000576994
0.000433
0.000345641
0.000284193
0.000231095
0.00018388
0.000144866
0.000115651
9.80138e-05
8.86914e-05
8.33226e-05
7.88988e-05
7.38998e-05
6.74032e-05
5.90712e-05
5.03227e-05
4.2178e-05
3.48026e-05
2.9131e-05
3.0377e-05
3.86394e-05
5.03662e-05
0.000133108
0.000129626
0.0102074
0.0248748
0.0107816
0.00522507
0.00391531
0.00379309
0.00354058
0.00323674
0.00294401
0.00268585
0.00244552
0.00218724
0.00188489
0.0015413
0.00118635
0.000861418
0.000603806
0.000430291
0.000326198
0.0002596
0.000208257
0.000165584
0.000132318
0.000109431
9.69972e-05
9.23774e-05
9.13528e-05
9.12822e-05
9.08509e-05
8.88163e-05
8.30283e-05
7.37077e-05
6.41887e-05
5.58334e-05
5.11223e-05
5.25901e-05
6.47085e-05
9.27162e-05
0.000186003
0.000196355
0.0107091
0.0260394
0.0153086
0.0113258
0.00905542
0.00713266
0.00568343
0.00467476
0.0039985
0.00352886
0.00314344
0.00274719
0.00229529
0.00180408
0.00132348
0.000906719
0.000596156
0.000402403
0.000293058
0.0002261
0.000180576
0.000147228
0.000124208
0.000110451
0.000104368
0.000103644
0.000106101
0.000110846
0.000117853
0.000127141
0.000138178
0.000146647
0.000152897
0.000166149
0.000194224
0.000269644
0.000440652
0.000736245
0.00236243
0.00077281
0.00980762
0.0159059
0.0130167
0.0100158
0.00790709
0.00657445
0.00576015
0.00526751
0.00492166
0.00456349
0.00408227
0.00344355
0.00269236
0.00194768
0.00130301
0.00080209
0.000481438
0.000326749
0.000246366
0.000198459
0.000166842
0.000145601
0.000132203
0.00012453
0.000120883
0.00012019
0.000122238
0.000127749
0.000138003
0.000154507
0.000179004
0.000213751
0.000262694
0.000335809
0.000445272
0.000598466
0.00078479
0.000968799
0.00112455
0.000706355
0.00252539
0.00653393
0.00770798
0.00813933
0.00823173
0.00787505
0.00703478
0.00584032
0.00449253
0.00318449
0.002011
0.00124469
0.000770585
0.000491138
0.000341054
0.000266723
0.000228378
0.000206744
0.000193521
0.000185252
0.000179412
0.000173031
0.000164951
0.000155363
0.000145766
0.000138661
0.000136998
0.000143701
0.000160573
0.000189579
0.000233961
0.000298452
0.000387203
0.000496715
0.000605392
0.000675753
0.000690902
0.000485701
0.00253557
0.00754638
0.00768566
0.00682691
0.0062846
0.00556558
0.00461372
0.00358234
0.00261898
0.00181189
0.00119695
0.000800188
0.000567706
0.000444291
0.000388585
0.000370584
0.000370877
0.000379084
0.00038924
0.000397055
0.00039922
0.000393618
0.00037871
0.000354964
0.000325053
0.000293459
0.000265237
0.000244524
0.000234801
0.000239103
0.000259829
0.000299734
0.000359305
0.000432263
0.00049977
0.00057746
0.000708435
0.00053658
0.00184122
0.00235096
0.00276718
0.0037725
0.00378186
0.00378113
0.00364861
0.00330193
0.002806
0.0022497
0.00171372
0.00125718
0.000907399
0.000666405
0.000512328
0.000417347
0.000359353
0.000323504
0.000300359
0.000284098
0.0002711
0.00025911
0.000246748
0.000233402
0.00021961
0.00020664
0.000196139
0.000189685
0.000188431
0.000193101
0.000203969
0.000221306
0.000246049
0.00027948
0.000322587
0.000375867
0.000409975
0.000386678
0.000329314
0.00028491
)
;

boundaryField
{
    floor
    {
        Cmu             0.09;
        kappa           0.41;
        E               9.8;
        type            epsilonWallFunction;
        value           nonuniform List<scalar> 
36
(
0.000755664
3.54217e-05
6.90082e-05
9.92676e-05
9.67393e-05
8.61383e-05
7.00788e-05
5.57238e-05
4.46509e-05
3.62766e-05
2.98826e-05
2.49326e-05
2.10684e-05
1.79828e-05
1.54338e-05
1.32234e-05
1.1161e-05
9.53091e-06
6.92238e-06
6.92238e-06
1.37883e-05
2.02317e-05
2.74948e-05
6.06863e-05
9.02771e-05
0.000119906
0.000755664
0.000911861
0.000381242
0.000126646
3.54217e-05
0.000126646
4.62031e-05
0.000566411
0.000378181
0.00109356
)
;
    }
    ceiling
    {
        Cmu             0.09;
        kappa           0.41;
        E               9.8;
        type            epsilonWallFunction;
        value           nonuniform List<scalar> 
43
(
0.00184122
0.00235096
0.00276718
0.0037725
0.00378186
0.00378113
0.00364861
0.00330193
0.002806
0.0022497
0.00171372
0.00125718
0.000907399
0.000666405
0.000512328
0.000417347
0.000359353
0.000323504
0.000300359
0.000284098
0.0002711
0.00025911
0.000246748
0.000233402
0.00021961
0.00020664
0.000196139
0.000189685
0.000188431
0.000193101
0.000203969
0.000221306
0.000246049
0.00027948
0.000322587
0.000375867
0.000409975
0.000386678
0.000329314
0.00028491
0.00980762
0.0159059
0.00253557
)
;
    }
    sWall
    {
        Cmu             0.09;
        kappa           0.41;
        E               9.8;
        type            epsilonWallFunction;
        value           uniform 0.00184122;
    }
    nWall
    {
        Cmu             0.09;
        kappa           0.41;
        E               9.8;
        type            epsilonWallFunction;
        value           nonuniform List<scalar> 6(0.000119906 0.000129626 0.000196355 0.000485701 0.00053658 0.00028491);
    }
    sideWalls
    {
        type            empty;
    }
    glass1
    {
        Cmu             0.09;
        kappa           0.41;
        E               9.8;
        type            epsilonWallFunction;
        value           nonuniform List<scalar> 9(0.000443862 0.00112487 0.0020512 0.00332125 0.00507486 0.00751016 0.0102074 0.0107091 0.00980762);
    }
    glass2
    {
        Cmu             0.09;
        kappa           0.41;
        E               9.8;
        type            epsilonWallFunction;
        value           nonuniform List<scalar> 2(0.00077281 0.000706355);
    }
    sun
    {
        Cmu             0.09;
        kappa           0.41;
        E               9.8;
        type            epsilonWallFunction;
        value           nonuniform List<scalar> 
14
(
0.000443862
0.000584492
0.000619723
0.000716097
0.000813897
0.000912812
0.00101657
0.00112734
0.00121218
0.00125558
0.00124491
0.00117619
0.00105692
0.000907667
)
;
    }
    Table_master
    {
        Cmu             0.09;
        kappa           0.41;
        E               9.8;
        type            epsilonWallFunction;
        value           nonuniform List<scalar> 9(0.000205942 0.000136667 9.37652e-05 6.67728e-05 4.92854e-05 3.75926e-05 2.9554e-05 2.39205e-05 1.99769e-05);
    }
    Table_slave
    {
        Cmu             0.09;
        kappa           0.41;
        E               9.8;
        type            epsilonWallFunction;
        value           nonuniform List<scalar> 9(0.000288486 0.000210123 0.000163966 0.000133924 0.000112043 9.47047e-05 8.03056e-05 6.72549e-05 5.43503e-05);
    }
    inlet
    {
        type            turbulentMixingLengthDissipationRateInlet;
        mixingLength    0.01;
        phi             phi;
        k               k;
        value           uniform 0.000101881;
    }
    outlet
    {
        type            zeroGradient;
    }
}


// ************************************************************************* //
