/*--------------------------------*- C++ -*----------------------------------*\
  =========                 |
  \\      /  F ield         | OpenFOAM: The Open Source CFD Toolbox
   \\    /   O peration     | Website:  https://openfoam.org
    \\  /    A nd           | Version:  6
     \\/     M anipulation  |
\*---------------------------------------------------------------------------*/
FoamFile
{
    version     2.0;
    format      ascii;
    class       volScalarField;
    location    "2100";
    object      alphat;
}
// * * * * * * * * * * * * * * * * * * * * * * * * * * * * * * * * * * * * * //

dimensions      [1 -1 -1 0 0 0 0];

internalField   nonuniform List<scalar> 
458
(
0.000857732
0.000913333
0.000860545
0.000834749
0.000806766
0.000781864
0.000762251
0.000744629
0.000730533
0.000723032
0.000723696
0.000732229
0.000747871
0.000771262
0.000802112
0.000439883
0.000432334
0.000353115
0.000320205
0.000308978
0.000302546
0.000315994
0.000335002
0.000353752
0.000369574
0.000381658
0.000388037
0.000381809
0.000378649
0.000389613
0.000412349
0.000491133
0.000432213
0.0013137
0.00358832
0.00354055
0.0035078
0.00335009
0.0034624
0.00366672
0.00372967
0.00358871
0.00335188
0.00309671
0.00283939
0.00255156
0.00216681
0.00157844
0.000907036
0.000877296
0.000703154
0.000612596
0.00166345
0.00135799
0.00100624
0.000770886
0.000649508
0.000761022
0.000919328
0.00106483
0.00117788
0.00125029
0.00127388
0.00123359
0.00122844
0.00146913
0.00150979
0.0018459
0.000711648
0.00139267
0.00309188
0.00369064
0.00451647
0.00459875
0.00420438
0.00450353
0.00509287
0.00526865
0.00513261
0.00489165
0.00463584
0.00436778
0.00402728
0.00352253
0.00282626
0.00191102
0.000933055
0.000825648
0.00205529
0.00153312
0.001017
0.000658535
0.000396487
0.000427326
0.000465271
0.000505977
0.000551776
0.00060631
0.000675026
0.000766689
0.000898411
0.00208754
0.00230487
0.00278804
0.00100623
0.00246599
0.0025509
0.00277177
0.00340495
0.00415789
0.00443772
0.00456505
0.0053694
0.00602094
0.00616532
0.00608806
0.00594458
0.00576873
0.00550628
0.00504009
0.00426532
0.00317524
0.00194628
0.00098835
0.00215505
0.00239524
0.00184295
0.00138868
0.00105347
0.000821234
0.000832249
0.00084442
0.000859297
0.000880205
0.000910742
0.000955219
0.00101939
0.00111201
0.00248667
0.00244341
0.00215334
0.0013671
0.00334239
0.0030912
0.00281967
0.00300993
0.00372017
0.00440337
0.00456866
0.00523174
0.00618813
0.00664188
0.0068285
0.0069313
0.00701372
0.00707589
0.0070731
0.00695326
0.00668518
0.00626548
0.0057901
0.00553817
0.00523201
0.00498421
0.00484496
0.00475674
0.00465777
0.00457963
0.00447711
0.0043503
0.00420173
0.00403751
0.00386822
0.00370878
0.00357338
0.0034624
0.0032304
0.00296378
0.00258219
0.00182005
0.00184804
0.00175972
0.00389959
0.00399187
0.00327229
0.00298759
0.00351546
0.0043494
0.00470088
0.00516608
0.00598703
0.00654301
0.0069429
0.00728536
0.00759964
0.00789222
0.00813956
0.00830474
0.00835663
0.00827048
0.0080456
0.00775805
0.00749197
0.00728462
0.00714752
0.00704587
0.00693852
0.00682237
0.00669571
0.00655757
0.00640821
0.00624846
0.00607923
0.00590264
0.00572495
0.00555972
0.00543033
0.00539892
0.0055261
0.00575288
0.00560747
0.00218907
0.00448558
0.00474594
0.00378333
0.00304771
0.00349434
0.00451578
0.00502947
0.00522107
0.00559866
0.00593343
0.00639646
0.00690134
0.00743309
0.00796525
0.00845036
0.00884023
0.00911713
0.00925217
0.00923181
0.00909893
0.00892561
0.00875464
0.00859896
0.00845568
0.00831458
0.00816898
0.00801538
0.00785212
0.00767997
0.00750172
0.00732149
0.00714511
0.00698158
0.00684393
0.00674684
0.00670567
0.00674835
0.00712871
0.00824363
0.0025974
0.00519092
0.00594548
0.00511634
0.00312817
0.00383247
0.00499843
0.00551651
0.00535589
0.00514682
0.00517987
0.00559304
0.00616934
0.00681357
0.00749039
0.00815623
0.00877703
0.00926929
0.00960881
0.00978764
0.00982625
0.00977393
0.00967162
0.00954549
0.00940913
0.00926584
0.00911274
0.00894566
0.00876146
0.00855916
0.00834002
0.00810748
0.00786803
0.00763318
0.00742264
0.00726776
0.00722169
0.00730149
0.00755806
0.00918962
0.00301332
0.00620042
0.00786142
0.0126073
0.00395416
0.00378831
0.00543027
0.00571488
0.00518383
0.00499012
0.00521267
0.00567039
0.00622689
0.0068357
0.00746646
0.0080805
0.00866204
0.00918614
0.00961966
0.00992742
0.0101065
0.0101828
0.0101811
0.0101281
0.0100428
0.00993532
0.00980789
0.00965917
0.00948744
0.00929162
0.00907158
0.00882843
0.00856542
0.00828953
0.00801454
0.00776693
0.00759652
0.00758229
0.00781752
0.00887261
0.00299575
0.0220718
0.0119229
0.00395111
0.00542055
0.00593592
0.00579965
0.00598347
0.00640916
0.00700511
0.00767084
0.00831684
0.00887404
0.00931736
0.009668
0.00995976
0.0102086
0.0104148
0.0105736
0.0106822
0.0107343
0.010742
0.0107136
0.0106529
0.0105622
0.0104438
0.0103001
0.0101324
0.00994094
0.0097256
0.00948615
0.00922371
0.00894283
0.00865492
0.00838196
0.00815511
0.0079721
0.0073206
0.00205929
0.00909097
0.012102
0.00819153
0.00657636
0.00596562
0.00586589
0.00614746
0.00673914
0.00755954
0.00848022
0.00934653
0.0100026
0.010424
0.0106714
0.0108161
0.0109089
0.010977
0.0110315
0.0110758
0.0111094
0.0111321
0.011141
0.011121
0.0110701
0.0109935
0.0108964
0.0107821
0.0106523
0.0105071
0.0103457
0.0101676
0.00997271
0.00976115
0.00953162
0.00927129
0.00891908
0.00758475
0.00225705
0.000981847
0.00171032
0.00509571
0.00477345
0.00431442
0.00386789
0.00349941
0.00319521
0.00295001
0.00276392
0.00263834
0.00257084
0.00255073
0.00256445
0.00258975
0.00261036
0.00262055
0.00262115
0.00261498
0.00260475
0.00259237
0.00257918
0.00256552
0.00255156
0.00253848
0.00252563
0.00251216
0.00249775
0.00248238
0.00246614
0.00244913
0.00243145
0.00241322
0.00239465
0.00237607
0.00235791
0.00234113
0.00232683
0.0022086
0.00195596
)
;

boundaryField
{
    floor
    {
        type            compressible::alphatWallFunction;
        Prt             0.85;
        value           nonuniform List<scalar> 
36
(
0.000114386
6.01196e-05
5.894e-05
4.64202e-05
4.11158e-05
3.92923e-05
3.82437e-05
4.0437e-05
4.35148e-05
4.65278e-05
4.90533e-05
5.0972e-05
5.19803e-05
5.09915e-05
5.04886e-05
5.22251e-05
5.58068e-05
6.80363e-05
5.89225e-05
5.89218e-05
0.000101121
0.000143455
0.000193393
0.000253941
0.000257622
0.000245985
0.000114385
0.000129447
0.000125196
9.99305e-05
6.01188e-05
9.99294e-05
8.64433e-05
0.000133144
0.00011771
0.000140965
)
;
    }
    ceiling
    {
        type            compressible::alphatWallFunction;
        Prt             0.85;
        value           nonuniform List<scalar> 
43
(
0.00014058
0.000239939
0.000659377
0.000621117
0.000566169
0.000512161
0.000467118
0.000429566
0.000399027
0.000375673
0.000359816
0.000351256
0.000348693
0.000350423
0.000353621
0.000356219
0.000357498
0.000357562
0.00035677
0.000355464
0.000353887
0.000352205
0.000350464
0.000348684
0.000347015
0.000345375
0.000343655
0.000341815
0.000339851
0.000337776
0.000335601
0.00033334
0.000331006
0.000328628
0.000326246
0.000323916
0.00032176
0.000319918
0.000304708
0.000271911
0.000788559
0.000978987
0.00111757
)
;
    }
    sWall
    {
        type            compressible::alphatWallFunction;
        Prt             0.85;
        value           uniform 0.000139979;
    }
    nWall
    {
        type            compressible::alphatWallFunction;
        Prt             0.85;
        value           nonuniform List<scalar> 6(0.000245932 0.000301972 0.00035417 0.000285193 0.000310768 0.000271747);
    }
    sideWalls
    {
        type            empty;
    }
    glass1
    {
        type            compressible::alphatWallFunction;
        Prt             0.85;
        value           nonuniform List<scalar> 9(0.000120235 0.000183357 0.000194123 0.000335161 0.000445756 0.000513952 0.000584553 0.000668331 0.000786351);
    }
    glass2
    {
        type            compressible::alphatWallFunction;
        Prt             0.85;
        value           nonuniform List<scalar> 2(0.000407934 0.000405767);
    }
    sun
    {
        type            compressible::alphatWallFunction;
        Prt             0.85;
        value           nonuniform List<scalar> 
14
(
0.000122386
0.000130325
0.000122784
0.000119081
0.000115051
0.000111451
0.000108604
0.000106038
0.000103979
0.000102882
0.00010298
0.000104228
0.000106512
0.000109916
)
;
    }
    Table_master
    {
        type            compressible::alphatWallFunction;
        Prt             0.85;
        value           nonuniform List<scalar> 9(5.32628e-05 5.8104e-05 6.40001e-05 7.02579e-05 7.72235e-05 8.54247e-05 9.56313e-05 0.000109053 0.000128011);
    }
    Table_slave
    {
        type            compressible::alphatWallFunction;
        Prt             0.85;
        value           nonuniform List<scalar> 9(0.000116953 0.000118539 0.000120288 0.000122422 0.000125414 0.00012977 0.000136084 0.000145135 0.000158083);
    }
    inlet
    {
        type            fixedValue;
        value           uniform 1.94e-05;
    }
    outlet
    {
        type            zeroGradient;
    }
}


// ************************************************************************* //
