/*--------------------------------*- C++ -*----------------------------------*\
  =========                 |
  \\      /  F ield         | OpenFOAM: The Open Source CFD Toolbox
   \\    /   O peration     | Website:  https://openfoam.org
    \\  /    A nd           | Version:  6
     \\/     M anipulation  |
\*---------------------------------------------------------------------------*/
FoamFile
{
    version     2.0;
    format      ascii;
    class       volScalarField;
    location    "700";
    object      alphat;
}
// * * * * * * * * * * * * * * * * * * * * * * * * * * * * * * * * * * * * * //

dimensions      [1 -1 -1 0 0 0 0];

internalField   nonuniform List<scalar> 
458
(
0.001437
0.00158389
0.00165061
0.00173663
0.00181624
0.00189432
0.00197718
0.00205898
0.00213312
0.00218934
0.00221319
0.00215363
0.00194084
0.00168659
0.00145737
0.000648254
0.00075739
0.000888683
0.000971876
0.000979641
0.000921734
0.000854285
0.000794099
0.00074238
0.000697825
0.000659252
0.000625516
0.000595648
0.000568522
0.000542575
0.000515691
0.000487394
0.000441369
0.00181732
0.00407876
0.00379754
0.00429149
0.00482194
0.00534946
0.00575888
0.00617296
0.00663237
0.00709111
0.00752289
0.00790337
0.00781043
0.00660368
0.00423234
0.00171467
0.00149556
0.0012465
0.000627016
0.00152298
0.00244594
0.00317063
0.00339785
0.00236501
0.00197485
0.00171837
0.00153363
0.00139501
0.00128758
0.00120298
0.00112691
0.00103986
0.000950992
0.000871
0.000905208
0.000495218
0.00212674
0.00544085
0.00461381
0.00515359
0.00539896
0.00556256
0.00570652
0.00594348
0.00630748
0.00680583
0.00746384
0.00827111
0.00893534
0.00858143
0.00712541
0.00502153
0.0036585
0.00138727
0.000774567
0.00161894
0.00266895
0.00371004
0.00400682
0.00121407
0.00105958
0.000928647
0.000821592
0.000734685
0.000663996
0.000606252
0.000560222
0.000527758
0.00060633
0.00071956
0.00102693
0.000535145
0.00241339
0.00662313
0.00461246
0.00521212
0.00512507
0.00496587
0.0049327
0.0050919
0.00541943
0.00596513
0.00676036
0.00773022
0.0085749
0.00865313
0.00810043
0.00681475
0.00528806
0.00285724
0.00146755
0.001731
0.00255508
0.00378836
0.00496585
0.00517657
0.00138494
0.00126873
0.00118255
0.00111336
0.00105297
0.000998885
0.000945726
0.000889411
0.000825078
0.000763336
0.000744642
0.00113002
0.000589616
0.00269936
0.00818618
0.00459339
0.00505799
0.00483414
0.00449339
0.0043884
0.00455453
0.00488436
0.00547886
0.00634693
0.0073215
0.00801995
0.00818801
0.00799644
0.00741353
0.00643134
0.00498733
0.00450888
0.00501342
0.00585956
0.00679011
0.00747948
0.00762772
0.00658957
0.00597241
0.00558951
0.00529366
0.00497743
0.00454184
0.00399296
0.00334069
0.0026186
0.00193732
0.00143263
0.00129678
0.000929978
0.000702391
0.000733891
0.000741013
0.00300836
0.0100817
0.00560919
0.00483309
0.00474564
0.00436999
0.00417513
0.00435253
0.00468264
0.00531363
0.00620936
0.00710909
0.00765083
0.00774411
0.00768176
0.007604
0.00737419
0.00701152
0.00730009
0.00815357
0.00891768
0.00940842
0.00955181
0.00935174
0.00884757
0.00837353
0.00796496
0.00756074
0.00709824
0.00652764
0.00584548
0.00504661
0.004148
0.00322519
0.00243606
0.00184854
0.00137912
0.00139067
0.00193746
0.00098588
0.00333093
0.0115394
0.0079342
0.0052533
0.00448635
0.00439254
0.00431416
0.00444026
0.00474246
0.00534878
0.0062288
0.00707326
0.00750135
0.00753977
0.00774238
0.00830433
0.00871062
0.00907606
0.00978946
0.0105293
0.01088
0.0108692
0.0105649
0.010068
0.00949421
0.00895814
0.008461
0.00796804
0.00745196
0.00690355
0.0063234
0.00566336
0.00492701
0.00412349
0.00336476
0.00269807
0.00216085
0.00197929
0.00230339
0.00122631
0.00342542
0.0105844
0.00898398
0.00721996
0.00578276
0.0051886
0.00489343
0.0047518
0.00495893
0.00555145
0.00641842
0.00718723
0.00748755
0.00761055
0.00852239
0.00950703
0.0100614
0.0105675
0.0111283
0.0114735
0.0113884
0.0109655
0.0103178
0.00956037
0.00880076
0.00811561
0.00750581
0.00693961
0.00640504
0.00592054
0.0055178
0.00520378
0.00486194
0.00438727
0.00395847
0.00365554
0.00354844
0.00353199
0.00421048
0.00164861
0.00338097
0.00413098
0.00497439
0.00530029
0.00519679
0.00502662
0.00484915
0.00484238
0.00519222
0.00587754
0.0067481
0.00736347
0.0074605
0.00806806
0.00924187
0.0100418
0.0104572
0.0107728
0.010949
0.0108411
0.01039
0.00966449
0.00878082
0.00785493
0.00699389
0.00625175
0.00561484
0.0050536
0.00455666
0.00412441
0.00375299
0.00344233
0.00320651
0.00302936
0.00290241
0.00281851
0.00273062
0.00259829
0.00244903
0.00159464
0.00131909
0.0023708
0.00313999
0.00362997
0.00409585
0.00483747
0.00562092
0.0064304
0.00719456
0.00735301
0.00743296
0.00816671
0.00896054
0.00929274
0.00943544
0.00943216
0.00920693
0.008712
0.00798666
0.00712788
0.0062402
0.00542228
0.00473294
0.00417104
0.00371421
0.00334806
0.00306648
0.00286726
0.00274299
0.0026781
0.00264661
0.00263402
0.00262241
0.00258182
0.00246758
0.00225096
0.00196139
0.00128633
0.0025342
0.00460339
0.00510415
0.00605908
0.00721574
0.00722707
0.00689509
0.00698678
0.00727337
0.00674579
0.00656471
0.00668297
0.0067109
0.00668635
0.00661386
0.00642868
0.0060804
0.00557788
0.00499131
0.00440995
0.00389816
0.00348085
0.00315035
0.0028938
0.00270011
0.00256207
0.00247465
0.0024305
0.00242408
0.00244999
0.00250216
0.00257166
0.00263877
0.00266799
0.00263894
0.00256009
0.00244311
0.00130689
0.00333132
0.00333678
0.00336442
0.00392742
0.00355391
0.0031547
0.00253646
0.0020158
0.00180952
0.00164871
0.00148444
0.00133686
0.00124556
0.00118743
0.00115468
0.00113082
0.00110577
0.00107385
0.00103394
0.000989521
0.000946555
0.000910259
0.000883363
0.000866373
0.000858634
0.000859532
0.000868647
0.000885731
0.000910629
0.00094314
0.00098319
0.00103081
0.00108618
0.00114957
0.00122064
0.00129603
0.00136698
0.00134105
0.00123266
0.00113686
)
;

boundaryField
{
    floor
    {
        type            compressible::alphatWallFunction;
        Prt             0.85;
        value           nonuniform List<scalar> 
36
(
0.000205206
9.15579e-05
0.000107583
0.000126503
0.00013832
0.000139419
0.000131216
0.000121585
0.000112914
0.000105401
9.88787e-05
9.31911e-05
8.81836e-05
8.37226e-05
7.96475e-05
7.5727e-05
7.16402e-05
6.73097e-05
6.01976e-05
6.01968e-05
6.851e-05
7.46002e-05
8.28202e-05
9.95542e-05
0.000104169
0.000105214
0.000205204
0.000239601
0.000210356
0.000176522
9.15568e-05
0.00017652
8.84014e-05
0.000195732
0.00011007
0.000206593
)
;
    }
    ceiling
    {
        type            compressible::alphatWallFunction;
        Prt             0.85;
        value           nonuniform List<scalar> 
43
(
0.000445439
0.000446112
0.000449522
0.00051844
0.000472908
0.000423698
0.00034616
0.000279294
0.00025231
0.000231034
0.000209057
0.000189074
0.000176588
0.000168586
0.000164058
0.000160749
0.000157267
0.000152817
0.00014723
0.000140983
0.000134908
0.000129751
0.000125913
0.000123481
0.00012237
0.000122497
0.000123801
0.000126243
0.000129792
0.000134409
0.000140073
0.000146772
0.000154517
0.000163329
0.000173142
0.000183482
0.000193155
0.000189628
0.0001748
0.000161572
0.000451858
0.00054331
0.000345625
)
;
    }
    sWall
    {
        type            compressible::alphatWallFunction;
        Prt             0.85;
        value           uniform 0.000444164;
    }
    nWall
    {
        type            compressible::alphatWallFunction;
        Prt             0.85;
        value           nonuniform List<scalar> 6(0.000105018 0.000140105 0.000173566 0.000181843 0.000184651 0.000161252);
    }
    sideWalls
    {
        type            empty;
    }
    glass1
    {
        type            compressible::alphatWallFunction;
        Prt             0.85;
        value           nonuniform List<scalar> 9(0.000197331 0.000247329 0.00028726 0.00032377 0.000359792 0.000398302 0.000438096 0.000449811 0.000444611);
    }
    glass2
    {
        type            compressible::alphatWallFunction;
        Prt             0.85;
        value           nonuniform List<scalar> 2(0.000229305 0.000222216);
    }
    sun
    {
        type            compressible::alphatWallFunction;
        Prt             0.85;
        value           nonuniform List<scalar> 
14
(
0.000202455
0.000222176
0.000231073
0.000242485
0.00025299
0.000263246
0.00027408
0.000284726
0.000294337
0.000301601
0.00030468
0.000296999
0.00026935
0.00023587
)
;
    }
    Table_master
    {
        type            compressible::alphatWallFunction;
        Prt             0.85;
        value           nonuniform List<scalar> 9(0.000172226 0.000150785 0.000132328 0.00011701 0.000104399 9.40094e-05 8.54221e-05 7.85048e-05 7.35838e-05);
    }
    Table_slave
    {
        type            compressible::alphatWallFunction;
        Prt             0.85;
        value           nonuniform List<scalar> 9(0.000195585 0.000179739 0.000167881 0.00015829 0.000149862 0.000142266 0.000134754 0.000126741 0.000117514);
    }
    inlet
    {
        type            fixedValue;
        value           uniform 1.94e-05;
    }
    outlet
    {
        type            zeroGradient;
    }
}


// ************************************************************************* //
