/*--------------------------------*- C++ -*----------------------------------*\
  =========                 |
  \\      /  F ield         | OpenFOAM: The Open Source CFD Toolbox
   \\    /   O peration     | Website:  https://openfoam.org
    \\  /    A nd           | Version:  6
     \\/     M anipulation  |
\*---------------------------------------------------------------------------*/
FoamFile
{
    version     2.0;
    format      ascii;
    class       volScalarField;
    location    "700";
    object      epsilon;
}
// * * * * * * * * * * * * * * * * * * * * * * * * * * * * * * * * * * * * * //

dimensions      [0 2 -3 0 0 0 0];

internalField   nonuniform List<scalar> 
458
(
0.000664355
0.000887252
0.00100404
0.00116928
0.00133751
0.00151749
0.00172543
0.00194855
0.0021668
0.00234304
0.00242134
0.00223312
0.00163552
0.00107359
0.000692842
6.13532e-05
9.78012e-05
0.000157934
0.000206576
0.000211612
0.000176291
0.000140376
0.000112768
9.21546e-05
7.6552e-05
6.45583e-05
5.51563e-05
4.76356e-05
4.14278e-05
3.60182e-05
3.09324e-05
2.61222e-05
1.94089e-05
0.00134592
0.00183545
0.000830645
0.00082753
0.00085713
0.000929115
0.0010623
0.00124985
0.00145956
0.00162456
0.00168001
0.00161065
0.00128573
0.000978341
0.000731116
0.00112907
0.000749322
0.000433972
5.55296e-05
8.91218e-05
0.000144209
0.000166009
0.000174602
0.000186866
0.000147598
0.000112345
8.62202e-05
6.71959e-05
5.33196e-05
4.30498e-05
3.52734e-05
2.92841e-05
2.54051e-05
2.36549e-05
3.3393e-05
2.74121e-05
0.00216094
0.0036796
0.000820822
0.000710396
0.000721862
0.000793987
0.00092987
0.00112541
0.00134451
0.00152087
0.00160677
0.00160239
0.001365
0.00105773
0.000798673
0.000679585
0.000570083
0.0005984
0.000104591
0.00016186
0.000185763
0.000192004
0.000197735
0.000402755
0.000267779
0.000180301
0.00012488
8.93122e-05
6.59466e-05
5.02055e-05
3.96254e-05
3.3136e-05
2.582e-05
2.23881e-05
4.58467e-05
3.45924e-05
0.00316389
0.00695072
0.000970542
0.000633941
0.000625503
0.000694414
0.000839277
0.00106765
0.00131676
0.00152096
0.00164246
0.00164335
0.00139483
0.00104726
0.000778865
0.000604619
0.000505484
0.000496505
0.000708846
0.000474755
0.000351037
0.000290444
0.000256761
0.00024523
0.000598527
0.000460351
0.000372904
0.000311299
0.000263413
0.000224925
0.000190934
0.000158849
0.000126835
7.44451e-05
4.42677e-05
6.96018e-05
4.62725e-05
0.00443609
0.0122381
0.00151306
0.000595711
0.000538591
0.000608859
0.000796691
0.00112299
0.00142922
0.00167246
0.00181786
0.00177912
0.00145125
0.00101917
0.000710884
0.000540714
0.000452566
0.000442341
0.000491398
0.000432423
0.000379737
0.000341621
0.000304425
0.000264679
0.000246509
0.000223108
0.000205426
0.000189487
0.00017282
0.000155109
0.000135934
0.000115937
9.61944e-05
7.31624e-05
5.27897e-05
5.87533e-05
6.55628e-05
7.82488e-05
8.9284e-05
9.19824e-05
0.00615261
0.0188274
0.00321727
0.000764952
0.000511928
0.000534601
0.000836604
0.00133675
0.00169636
0.00197093
0.00211447
0.00200605
0.0015594
0.000994255
0.000611685
0.000440532
0.000389335
0.000407222
0.000440041
0.000441555
0.000425148
0.00038997
0.000338714
0.000280605
0.000233848
0.000206851
0.000192017
0.000179702
0.000165761
0.000149193
0.000130327
0.000110703
9.20406e-05
7.47857e-05
6.10731e-05
5.62773e-05
5.93481e-05
9.04273e-05
0.000348877
0.000216653
0.00836639
0.0231643
0.00727482
0.00244126
0.00117217
0.000862512
0.00132865
0.00183446
0.00217444
0.00242871
0.00253035
0.00231886
0.00170503
0.000969691
0.000508799
0.000345183
0.000338563
0.000389184
0.0004408
0.00046032
0.000440435
0.000392203
0.000329685
0.000267713
0.000222097
0.000199018
0.00018904
0.000182343
0.000175008
0.000165479
0.000152735
0.000138367
0.000123825
0.000110554
0.000102023
0.00010178
0.000114286
0.000166502
0.00060941
0.000416978
0.00912123
0.0268611
0.0149234
0.00854823
0.00473603
0.00307239
0.00281945
0.00284843
0.00298116
0.00311853
0.00309241
0.0026916
0.00182759
0.000885098
0.000404846
0.000304481
0.000324773
0.000380626
0.000425982
0.000431298
0.000395785
0.000339173
0.00028015
0.000232264
0.00020291
0.000190873
0.000188999
0.000192004
0.000198392
0.000208546
0.000222404
0.000237161
0.000254005
0.000281479
0.000329992
0.000446659
0.000705955
0.00110501
0.00378426
0.00101466
0.00880168
0.0159986
0.0140508
0.0108717
0.00800927
0.00611524
0.00487811
0.0042936
0.00413685
0.0040532
0.00376059
0.00301643
0.00175206
0.000656197
0.000348869
0.000297094
0.000314534
0.000344858
0.000359101
0.000344909
0.000309279
0.000264492
0.000224045
0.000195486
0.000180699
0.000177282
0.000181671
0.000192146
0.000209178
0.000234639
0.000271235
0.000322977
0.000396276
0.00050245
0.000657624
0.000873922
0.00114168
0.00141697
0.00167135
0.000919814
0.00568316
0.00653172
0.00645289
0.00601819
0.00567841
0.00576664
0.00564182
0.00517283
0.00430573
0.00288175
0.00104372
0.000431759
0.00029831
0.000277193
0.000280906
0.000283264
0.000272883
0.000249044
0.000219144
0.000190632
0.000168195
0.000153558
0.00014595
0.00014379
0.000146177
0.000153377
0.000166558
0.000187607
0.000219342
0.000265727
0.000331579
0.000423263
0.000545505
0.000691834
0.000829971
0.000901218
0.000870231
0.000483454
0.00350841
0.0262884
0.0180684
0.0156096
0.0143704
0.0108561
0.00768272
0.00532129
0.0028896
0.0013036
0.000556187
0.000346051
0.000288819
0.000272365
0.000265559
0.000258356
0.00024707
0.000231658
0.000214323
0.000197391
0.000182535
0.000170684
0.000162225
0.000157403
0.000156598
0.000160452
0.000169961
0.000186575
0.000212441
0.00025069
0.000305716
0.000382699
0.000484146
0.000601447
0.000716222
0.000806852
0.000694627
0.000506941
0.00805689
0.00809521
0.00829767
0.0132985
0.00990258
0.00696725
0.00365284
0.00184639
0.00133995
0.00101549
0.000742053
0.0005423
0.000438732
0.000380207
0.000349655
0.000328457
0.000307138
0.00028133
0.000251128
0.000220143
0.000192695
0.000171362
0.000156607
0.000147732
0.000143794
0.000144229
0.000148848
0.000157783
0.000171442
0.000190441
0.000215717
0.000248569
0.00029078
0.000344684
0.00041261
0.000493856
0.000579569
0.000547285
0.000425101
0.000333681
)
;

boundaryField
{
    floor
    {
        Cmu             0.09;
        kappa           0.41;
        E               9.8;
        type            epsilonWallFunction;
        value           nonuniform List<scalar> 
36
(
0.000692842
6.13532e-05
9.78012e-05
0.000157934
0.000206576
0.000211612
0.000176291
0.000140376
0.000112768
9.21546e-05
7.6552e-05
6.45583e-05
5.51563e-05
4.76356e-05
4.14278e-05
3.60182e-05
3.09324e-05
2.61222e-05
1.94089e-05
1.94089e-05
2.74121e-05
3.45924e-05
4.62725e-05
7.82488e-05
8.9284e-05
9.19824e-05
0.000692842
0.00112907
0.000749322
0.000433972
6.13532e-05
0.000433972
5.55296e-05
0.0005984
0.000104591
0.000708846
)
;
    }
    ceiling
    {
        Cmu             0.09;
        kappa           0.41;
        E               9.8;
        type            epsilonWallFunction;
        value           nonuniform List<scalar> 
43
(
0.00805689
0.00809521
0.00829767
0.0132985
0.00990258
0.00696725
0.00365284
0.00184639
0.00133995
0.00101549
0.000742053
0.0005423
0.000438732
0.000380207
0.000349655
0.000328457
0.000307138
0.00028133
0.000251128
0.000220143
0.000192695
0.000171362
0.000156607
0.000147732
0.000143794
0.000144229
0.000148848
0.000157783
0.000171442
0.000190441
0.000215717
0.000248569
0.00029078
0.000344684
0.00041261
0.000493856
0.000579569
0.000547285
0.000425101
0.000333681
0.00880168
0.0159986
0.00350841
)
;
    }
    sWall
    {
        Cmu             0.09;
        kappa           0.41;
        E               9.8;
        type            epsilonWallFunction;
        value           uniform 0.00805689;
    }
    nWall
    {
        Cmu             0.09;
        kappa           0.41;
        E               9.8;
        type            epsilonWallFunction;
        value           nonuniform List<scalar> 6(9.19824e-05 0.000216653 0.000416978 0.000483454 0.000506941 0.000333681);
    }
    sideWalls
    {
        type            empty;
    }
    glass1
    {
        Cmu             0.09;
        kappa           0.41;
        E               9.8;
        type            epsilonWallFunction;
        value           nonuniform List<scalar> 9(0.000664355 0.00134592 0.00216094 0.00316389 0.00443609 0.00615261 0.00836639 0.00912123 0.00880168);
    }
    glass2
    {
        Cmu             0.09;
        kappa           0.41;
        E               9.8;
        type            epsilonWallFunction;
        value           nonuniform List<scalar> 2(0.00101466 0.000919814);
    }
    sun
    {
        Cmu             0.09;
        kappa           0.41;
        E               9.8;
        type            epsilonWallFunction;
        value           nonuniform List<scalar> 
14
(
0.000664355
0.000887252
0.00100404
0.00116928
0.00133751
0.00151749
0.00172543
0.00194855
0.0021668
0.00234304
0.00242134
0.00223312
0.00163552
0.00107359
)
;
    }
    Table_master
    {
        Cmu             0.09;
        kappa           0.41;
        E               9.8;
        type            epsilonWallFunction;
        value           nonuniform List<scalar> 9(0.000402755 0.000267779 0.000180301 0.00012488 8.93122e-05 6.59466e-05 5.02055e-05 3.96254e-05 3.3136e-05);
    }
    Table_slave
    {
        Cmu             0.09;
        kappa           0.41;
        E               9.8;
        type            epsilonWallFunction;
        value           nonuniform List<scalar> 9(0.000598527 0.000460351 0.000372904 0.000311299 0.000263413 0.000224925 0.000190934 0.000158849 0.000126835);
    }
    inlet
    {
        type            turbulentMixingLengthDissipationRateInlet;
        mixingLength    0.01;
        phi             phi;
        k               k;
        value           uniform 0.00377336;
    }
    outlet
    {
        type            zeroGradient;
    }
}


// ************************************************************************* //
