/*--------------------------------*- C++ -*----------------------------------*=========                 |
  \      /  F ield         | OpenFOAM: The Open Source CFD Toolbox
   \    /   O peration     | Website:  https://openfoam.org
    \  /    A nd           | Version:  6
     \/     M anipulation  |
\*---------------------------------------------------------------------------*/
FoamFile
{
    version     2.0;
    format      ascii;
    class       volScalarField;
    location    "600";
    object      PPD;
}
// * * * * * * * * * * * * * * * * * * * * * * * * * * * * * * * * * * * * * //

dimensions      [0 0 0 0 0 0 0];

internalField   nonuniform List<scalar> 
458
(
70.13248086637414
61.203060138405206
62.04119099778387
61.554852609616646
61.116146842223394
60.73183365231784
60.476646055382666
60.306952621036494
60.289293618925136
60.446183205981285
60.75176125933887
61.323325447758755
62.26732417305414
63.10739651210635
62.134785298539654
32.064031346933106
32.064031346933106
32.3793466181819
31.683113151919372
31.171228318438054
31.4600603229014
31.727814417798427
31.104758363553614
30.70739561460799
30.487725264415616
30.465801194680893
30.575499763622375
30.7954817736381
31.326592978520765
32.469702765147716
33.54009672467541
33.448382282641916
33.35678141775152
70.88612117695654
61.77460227618898
63.52183541586396
62.898264900908764
62.64198242515248
62.47141225126832
62.37777263924635
62.35780840895094
62.38827157878092
62.48217516977523
62.62838419690531
62.744909721951224
62.77218767308093
62.378761062909525
61.48018212802509
62.10745109895525
63.46082275993745
62.50337533665173
30.42426743182706
35.53868347713359
36.05787247483303
36.43740914031025
35.65640595578611
33.51715748728019
33.47130026026227
33.37967096518497
33.21959391305991
33.288155534049835
33.63192435985698
34.393770648757794
36.128911960550546
38.33436050885269
40.76136339328986
40.291585378845724
37.297195722075884
31.040879213396494
74.59304635230954
62.06663489552567
65.32156202012249
64.63812668964094
64.69661444266828
64.86148984148252
65.08999444106647
65.31718609980594
65.54066875032868
65.73903597808479
65.86067948748081
65.74349994980126
65.23896211852244
64.18919297561234
62.708226795019726
61.32395903740697
59.488797596186174
56.990951538613636
46.2901047913151
45.11364089483967
45.266699604153196
46.36706163000019
47.189551217910385
40.045068324652064
35.32719502742745
36.55634506426232
37.99549189046132
39.333120380977356
40.68706801082299
42.13109259116552
43.767218668258906
46.03377890095854
48.324877888616854
44.32485213005472
42.0310716160187
34.14941263943899
78.73446006027734
62.912046209469764
66.91967702742042
66.28962268471767
66.76682462232665
67.34754310158357
67.95818588121509
68.56345999428373
69.08233793522629
69.49231694146931
69.71594148674119
69.61926271532111
68.99217844285062
67.76840868015785
65.98300495642135
63.671879349272814
60.588070934748195
56.77662205578072
54.32199396051015
53.973309212669925
55.59150106633383
58.498040964125785
60.82745393346349
62.26138273068755
63.60520902708681
64.53233534307603
65.47698889433455
65.5770050394858
65.72688166686594
65.90151114932141
66.10078446003035
66.2748792016276
65.82670003371332
63.1056585319182
60.67451979776529
58.42558409950455
58.11411882762576
82.60052150654958
64.35385949744823
68.09590841372541
67.672852467193
68.55200924048283
69.54142728719336
70.56779175149622
71.57177782387426
72.47012792698348
73.19533144472733
73.64395206191513
73.70303567650805
73.26203422085302
72.27831947886273
70.80499058089902
68.89750430467964
66.60880528634202
64.41531877162984
63.06403173639675
62.50071514858791
62.963612216327604
63.762366011845366
64.43533950126269
64.904028141785
65.32757371332761
65.80785538083293
66.38326643262405
67.07281315265638
67.41241461261315
67.65814691638559
67.95226021081686
68.22111620325249
68.34308317903736
68.09899853407629
67.82981550750259
67.51077638071973
65.09366862518758
63.07904974859721
61.632103011432484
63.11735479040058
85.79199033308385
66.36251435755419
69.40330115251632
68.84221744084003
69.97265807751728
71.33164340338497
72.75938721909267
74.16045464866887
75.44908278918557
76.56977944100456
77.2309310168612
77.39040097015487
77.1158247205309
76.4314676808555
75.34890012215298
73.85953502956508
72.07534012817253
70.31343104382852
68.9652837539698
68.13515915955425
67.74742341056594
67.64413514711859
67.5462744412283
67.42845001178321
67.35520862508682
67.37304815290219
67.47991805411218
67.71791634698809
68.07061816865803
68.49264548147283
68.92656901219213
69.31681756099118
69.6647016690317
69.97013112614468
70.40686951483086
70.81020900465279
70.42058700170026
69.92071338466717
66.85215092247125
63.2060993234608
88.14836371344273
70.31382226595113
73.73078682743429
71.05273771256273
71.49846635745317
73.13389590964162
74.94993117587674
76.71528998174732
77.8021928119099
78.94608315733778
79.83935902203815
80.17059780624456
79.88408352996943
79.52088760170072
78.95246644549289
78.09942224827643
76.95952478404936
75.7122990433038
74.54062080665179
73.56792784214335
72.77989470332791
72.11998636400398
71.38668849041194
70.74884293315216
70.20142226928996
69.74646897062556
69.36061028996608
69.04171521114625
68.85048330668795
68.73687713306678
68.66920183843075
68.53436583662918
68.36150952724881
68.15576778346882
67.89849843189201
67.65792218162711
67.39510217832523
67.62782639665598
71.52771347103202
60.04332206083123
91.55212606351589
82.47783366439447
82.25903864277342
77.50656190594292
76.20133112006107
76.85505696706083
77.1871804050226
77.86535267028871
78.781563238893
78.98504267046386
79.30505270000155
79.62410029992965
79.86375399610098
80.02584310008069
80.11187050690839
80.0931068230039
79.92953184958168
79.47631366581042
78.30501483439052
77.05893496942095
75.88962484761413
74.82809045505364
73.88287222806915
73.01504858882132
72.20555272541324
71.45723406335551
70.81997251268741
70.32073885649955
70.12975009954299
70.27303283430629
69.53179212442717
68.7128134232004
67.87218715969988
66.98544531616915
66.18776829295037
65.52730499730092
65.0327262515186
64.76314708695233
63.850129698559385
61.05599971989672
95.13630899276298
92.18836076519419
89.55069537292415
86.0623087476946
82.79814782101215
80.55397245566758
79.22515122715808
78.5595309250013
78.3704501663915
78.3992812245003
78.55778161610453
78.79308360572797
79.02141603400516
79.26264545374507
79.48698900331243
79.66366473587749
79.78305603785475
79.80506086031679
79.68460882162543
79.39518637568267
78.42983742732181
77.4426455235317
76.45598840727827
75.49394158640236
74.55955804068716
73.63287111155964
72.71549707636461
71.87910919149076
71.19824541877837
70.81997251268741
70.72511892629178
70.81997251268741
71.03297704428647
71.26896619079392
71.5746628593209
70.19787962255464
69.04764382130081
68.43729537426665
66.68193410620697
62.88097097255747
53.84952289327813
75.98903563276701
79.47015744960275
79.98644420105431
79.70120194266593
79.29787938614479
79.03847047090319
78.87382348978785
78.79677443109786
78.77138146011409
78.79360680097453
78.83616051254717
78.9366372505086
79.02162507288907
79.10417629096901
79.13031807331899
79.06402768612757
78.87065589466249
78.567145346335
78.14070660136568
77.64683954175669
77.14346604752973
76.62246501594174
75.93340981468074
74.96189048554025
73.97353343634195
73.08398543152312
72.27531073572844
71.66847277872546
71.29252524124952
71.12745941430181
70.89464817596837
70.7959301423558
70.8692006486932
70.66149030078387
70.06584527482649
66.45057633895212
64.31211347739394
57.933617404177305
75.8324099554278
79.10190851010384
79.72798325693834
79.49967766229278
79.11977716782009
78.82025119796955
78.59978887365264
78.45756496902973
78.40065974439429
78.3884459771335
78.40427951811128
78.45335066915976
78.49543188730668
78.51260377691399
78.48786554185222
78.4090465766965
78.25107542067612
78.02170533844918
77.69238303720896
77.3013391954588
76.86256987781886
76.35747914059758
75.80403978837167
75.18830438211403
74.52333335661218
73.74700297173538
72.83981941405484
71.80673879068813
70.70748776371913
69.65779898994906
68.75874659925992
68.08696560389788
67.61963932612005
67.43221965371983
67.57776788064048
65.7704326322793
64.52471341875264
66.42268703912792
63.77708369944271
64.25242811744701
77.72590723927789
80.80051646871947
80.3384744535553
79.46752945044966
78.76562412722026
78.33628698641249
78.06726918541298
77.9257308133516
77.90523653604457
77.90141911064224
77.93131698629952
77.94504583391101
77.91524596703991
77.81748050975663
77.6587962332394
77.39377027330144
77.05983711645032
76.70382491108585
76.30388553155123
75.92389210788463
75.53217154606149
75.14915585267705
74.7458887611854
74.31479589082781
73.82034805633386
73.24386468198458
72.57135299738383
71.72543162454743
70.74245170187643
69.70807198704335
68.73546789960912
67.91810962875718
67.3535198298679
67.12761024006318
67.37430198551752
66.24045753491112
64.76251258780674
)
;

boundaryField
{
    ".*"
    {
        type            zeroGradient;
    }
}


// ************************************************************************* //
