/*--------------------------------*- C++ -*----------------------------------*\
  =========                 |
  \\      /  F ield         | OpenFOAM: The Open Source CFD Toolbox
   \\    /   O peration     | Website:  https://openfoam.org
    \\  /    A nd           | Version:  6
     \\/     M anipulation  |
\*---------------------------------------------------------------------------*/
FoamFile
{
    version     2.0;
    format      ascii;
    class       volScalarField;
    location    "1900";
    object      alphat;
}
// * * * * * * * * * * * * * * * * * * * * * * * * * * * * * * * * * * * * * //

dimensions      [1 -1 -1 0 0 0 0];

internalField   nonuniform List<scalar> 
458
(
0.000783875
0.000801173
0.000686257
0.000696285
0.000713372
0.000730534
0.000747898
0.000766231
0.000785342
0.000803463
0.000820214
0.00083528
0.000848989
0.000862471
0.000873566
0.00031706
0.000354402
0.000370126
0.000335672
0.000282052
0.000248593
0.000251181
0.000268484
0.000290367
0.000310822
0.00032205
0.000321482
0.000320828
0.00032368
0.000333926
0.000342391
0.000325622
0.000294303
0.00141343
0.00276908
0.00191773
0.00285421
0.00318667
0.00335214
0.00346822
0.00354068
0.0035805
0.00358332
0.00353109
0.00339216
0.00311164
0.0025949
0.00176479
0.000963767
0.000912497
0.000625458
0.000487715
0.000827117
0.000922006
0.000871951
0.000683585
0.000490447
0.00058503
0.000750172
0.000909835
0.0010362
0.0010976
0.00110548
0.00109821
0.00115836
0.00140128
0.00119863
0.000858671
0.000364224
0.00199865
0.00520794
0.00250689
0.00359023
0.00469017
0.00511516
0.00533739
0.00546451
0.00552101
0.00553501
0.00550008
0.00539329
0.00516924
0.00474949
0.00405726
0.00313327
0.0020516
0.000990264
0.000722268
0.00182219
0.00146862
0.00103524
0.000650094
0.00032834
0.000346709
0.00037512
0.000404311
0.000435169
0.000470462
0.000514386
0.000576569
0.000678815
0.00217642
0.0022961
0.00195069
0.000595926
0.00255515
0.00832675
0.00435323
0.00393485
0.0049914
0.00567953
0.00610931
0.00639306
0.00656397
0.00667201
0.00674614
0.00677987
0.00673729
0.00653756
0.00605353
0.0051567
0.00377923
0.00213258
0.00103704
0.00259091
0.00259573
0.0020461
0.00153345
0.00110036
0.00076244
0.000760009
0.000761218
0.000766105
0.000776557
0.000795036
0.000824932
0.000872059
0.000951121
0.00298396
0.00318661
0.00276435
0.000866823
0.00305958
0.0115902
0.00764932
0.00575625
0.00552835
0.00574801
0.00611687
0.00649611
0.00681737
0.00706273
0.00729385
0.00753378
0.00777456
0.00797138
0.00804796
0.00794003
0.00762131
0.00709954
0.00647863
0.0062348
0.00574259
0.0053119
0.00496793
0.00467892
0.00443668
0.00428765
0.004145
0.0040011
0.00386259
0.00374572
0.00367235
0.00366122
0.00372232
0.00388282
0.00382295
0.00366955
0.00312834
0.00128026
0.00110827
0.000956978
0.00350492
0.0142348
0.0115063
0.00890381
0.00745974
0.00664655
0.00633308
0.00635397
0.00655148
0.00682639
0.00712815
0.00750422
0.00795706
0.00844516
0.00887724
0.00917239
0.00927985
0.00915308
0.00878999
0.00830657
0.00779621
0.00735929
0.00701695
0.006747
0.00651803
0.00630722
0.00609268
0.00585689
0.00558681
0.00528412
0.00497486
0.00469911
0.00447698
0.00428873
0.00409322
0.00386395
0.0035279
0.00291748
0.00212827
0.00100299
0.0038443
0.0150042
0.0132112
0.0112189
0.00963287
0.00826933
0.00731109
0.00672338
0.00642897
0.00637677
0.00654773
0.00686955
0.0073655
0.00802767
0.00871776
0.00929299
0.00967238
0.00979173
0.00963791
0.00928837
0.00886173
0.00845409
0.00810836
0.00782729
0.0075961
0.00739989
0.00722575
0.00705267
0.00684547
0.00656055
0.00617482
0.00572139
0.00526624
0.00484164
0.0044329
0.00399945
0.00348469
0.00284461
0.00213643
0.00101767
0.00380982
0.0120028
0.0113106
0.011439
0.0106085
0.00936155
0.00822363
0.00732578
0.00668121
0.00627798
0.00610086
0.0061576
0.00647897
0.00704455
0.0077782
0.00852546
0.00913101
0.00948979
0.00956739
0.0094129
0.00912949
0.00880844
0.00850531
0.00824349
0.00802815
0.00786066
0.00774425
0.00767857
0.00764851
0.00760812
0.0074769
0.00719033
0.00675868
0.00622527
0.00562614
0.00497342
0.00432062
0.0036605
0.00311096
0.0016204
0.00360874
0.00410787
0.0126903
0.0132262
0.0115619
0.00986192
0.00850243
0.0074919
0.00677259
0.00628976
0.00600809
0.00591182
0.0060052
0.00630806
0.00680939
0.00741419
0.00799624
0.00844235
0.00868566
0.00873244
0.00863916
0.00847092
0.00827789
0.00809067
0.00792558
0.00779338
0.0077055
0.00767595
0.00771925
0.0078398
0.00800349
0.0081393
0.00821174
0.00821311
0.00820797
0.00823291
0.00795952
0.00714962
0.00653528
0.00179927
0.0260442
0.0221071
0.0132526
0.0102313
0.00874672
0.00776781
0.00709258
0.0066441
0.00637791
0.0062599
0.00625845
0.00634633
0.00650481
0.006726
0.00699354
0.00726857
0.00749564
0.00765022
0.00772764
0.00774048
0.00770871
0.00765186
0.00758565
0.00752245
0.00747344
0.0074508
0.00746912
0.00754324
0.00766934
0.00784978
0.00807246
0.00828454
0.00839558
0.00826366
0.00782703
0.0070499
0.00577665
0.00180893
0.00822504
0.0149542
0.0102897
0.00849674
0.0076121
0.00704994
0.00667835
0.00645045
0.00633964
0.00631988
0.00636375
0.00644826
0.00655874
0.00668776
0.00682937
0.006975
0.00711269
0.00722987
0.00731828
0.00737657
0.0074087
0.00742081
0.00741873
0.00740686
0.00738794
0.00736345
0.00733458
0.0073039
0.00727681
0.00726308
0.00727512
0.00730089
0.00719361
0.00692317
0.00642213
0.00562672
0.00483091
0.00185448
0.00217707
0.00341738
0.00578408
0.00453238
0.00334025
0.00253545
0.00223234
0.00205539
0.0019222
0.0018184
0.00173969
0.00168298
0.00164491
0.00162188
0.00161041
0.00160732
0.00161001
0.00161622
0.00162403
0.00163135
0.00163683
0.00163982
0.00164038
0.00163894
0.00163611
0.00163247
0.00162842
0.00162417
0.00161974
0.00161495
0.00160968
0.00160273
0.00159181
0.0015736
0.00155493
0.00153022
0.00149106
0.00142445
0.00138267
0.00145808
)
;

boundaryField
{
    floor
    {
        type            compressible::alphatWallFunction;
        Prt             0.85;
        value           nonuniform List<scalar> 
36
(
0.000124463
4.04895e-05
4.65118e-05
4.90229e-05
4.35022e-05
3.4756e-05
2.91921e-05
2.96277e-05
3.25147e-05
3.613e-05
3.94763e-05
4.13012e-05
4.12098e-05
4.11045e-05
4.15679e-05
4.32259e-05
4.45895e-05
4.18852e-05
3.6783e-05
3.67824e-05
4.80887e-05
8.38526e-05
0.000123499
0.000181322
0.000157584
0.00013635
0.000124462
0.000137295
0.000130017
8.82715e-05
4.04889e-05
8.82704e-05
6.73972e-05
0.000141031
0.000102534
0.000147605
)
;
    }
    ceiling
    {
        type            compressible::alphatWallFunction;
        Prt             0.85;
        value           nonuniform List<scalar> 
43
(
0.000300449
0.000456524
0.000739612
0.000591713
0.000446963
0.000346276
0.000307522
0.000284636
0.000267267
0.00025364
0.00024325
0.000235731
0.000230668
0.000227598
0.000226066
0.000225653
0.00022601
0.000226837
0.000227877
0.000228852
0.00022958
0.000229977
0.000230049
0.000229856
0.000229478
0.000228991
0.00022845
0.000227882
0.000227289
0.000226649
0.000225945
0.000225014
0.000223554
0.000221119
0.000218619
0.000215304
0.00021004
0.000201051
0.000195387
0.000205593
0.000480015
0.000540715
0.00101965
)
;
    }
    sWall
    {
        type            compressible::alphatWallFunction;
        Prt             0.85;
        value           uniform 0.000299464;
    }
    nWall
    {
        type            compressible::alphatWallFunction;
        Prt             0.85;
        value           nonuniform List<scalar> 6(0.000136187 0.00014268 0.000144745 0.000252047 0.000258034 0.000205302);
    }
    sideWalls
    {
        type            empty;
    }
    glass1
    {
        type            compressible::alphatWallFunction;
        Prt             0.85;
        value           nonuniform List<scalar> 9(0.000108777 0.000195453 0.000272303 0.000343275 0.000406299 0.000461113 0.000502459 0.000498427 0.000474195);
    }
    glass2
    {
        type            compressible::alphatWallFunction;
        Prt             0.85;
        value           nonuniform List<scalar> 2(0.000226416 0.000250072);
    }
    sun
    {
        type            compressible::alphatWallFunction;
        Prt             0.85;
        value           nonuniform List<scalar> 
14
(
0.000111554
0.000114043
9.72802e-05
9.87572e-05
0.000101267
0.00010378
0.000106316
0.000108985
0.000111759
0.000114383
0.000116801
0.000118971
0.000120941
0.000122875
)
;
    }
    Table_master
    {
        type            compressible::alphatWallFunction;
        Prt             0.85;
        value           nonuniform List<scalar> 9(4.23829e-05 4.53441e-05 4.98828e-05 5.44997e-05 5.93341e-05 6.48099e-05 7.15529e-05 8.09768e-05 9.62053e-05);
    }
    Table_slave
    {
        type            compressible::alphatWallFunction;
        Prt             0.85;
        value           nonuniform List<scalar> 9(0.000108447 0.000108095 0.000108271 0.000108982 0.000110501 0.00011318 0.000117498 0.000124266 0.000135525);
    }
    inlet
    {
        type            fixedValue;
        value           uniform 1.94e-05;
    }
    outlet
    {
        type            zeroGradient;
    }
}


// ************************************************************************* //
