/*--------------------------------*- C++ -*----------------------------------*\
  =========                 |
  \\      /  F ield         | OpenFOAM: The Open Source CFD Toolbox
   \\    /   O peration     | Website:  https://openfoam.org
    \\  /    A nd           | Version:  6
     \\/     M anipulation  |
\*---------------------------------------------------------------------------*/
FoamFile
{
    version     2.0;
    format      ascii;
    class       volScalarField;
    location    "1900";
    object      k;
}
// * * * * * * * * * * * * * * * * * * * * * * * * * * * * * * * * * * * * * //

dimensions      [0 2 -2 0 0 0 0];

internalField   nonuniform List<scalar> 
458
(
0.000914852
0.000954032
0.000699987
0.000720637
0.000756476
0.000793344
0.000831533
0.000872823
0.000916932
0.000959753
0.00100019
0.00103727
0.00107158
0.00110585
0.00113443
0.000148312
0.000185341
0.000202184
0.000166271
0.000117359
9.11704e-05
9.30842e-05
0.000106354
0.000124401
0.000142551
0.000153045
0.00015251
0.000151897
0.000154625
0.0001646
0.00017308
0.000156546
0.000127881
0.00297854
0.00619068
0.00162131
0.00130301
0.0013304
0.00138907
0.00145083
0.00151256
0.00157725
0.00164075
0.00170049
0.00175013
0.00177321
0.00172997
0.00156472
0.00138074
0.00123745
0.000581032
0.000351369
0.000469969
0.000429747
0.000337771
0.000234095
0.000157268
0.000197443
0.000268893
0.000343246
0.000404653
0.000441624
0.000460013
0.000468095
0.000491934
0.000534501
0.000469993
0.000397132
0.000196002
0.00596312
0.0160982
0.00362995
0.00201209
0.00190096
0.00194099
0.0020018
0.00206442
0.00212823
0.00219377
0.00225866
0.00231911
0.00236294
0.00236059
0.0022746
0.00210515
0.00182613
0.00145717
0.000772352
0.0011173
0.0007729
0.000558327
0.000381784
0.000159438
0.000177821
0.000208214
0.000241944
0.000280362
0.000327775
0.000391966
0.000492669
0.000683268
0.0010812
0.00109672
0.00100869
0.00052708
0.00975775
0.0304375
0.00862091
0.00359932
0.00283439
0.00269433
0.00267424
0.00268814
0.00271783
0.0027636
0.00282171
0.00289118
0.00296351
0.00300992
0.00297956
0.00282543
0.00250932
0.00201383
0.00159742
0.0014528
0.00122814
0.00105474
0.000954961
0.000890697
0.000864504
0.000859046
0.000861827
0.000872975
0.000897012
0.000940264
0.00101236
0.00113136
0.00134574
0.00180391
0.00195452
0.00186424
0.00111746
0.0140067
0.0466102
0.0181815
0.00804733
0.00526006
0.00427727
0.00383787
0.00361252
0.00348506
0.00343179
0.00343529
0.0034905
0.00359152
0.00371433
0.00381018
0.00382811
0.00372899
0.00346762
0.00301134
0.00248631
0.00214065
0.00195612
0.0018638
0.00181188
0.00177428
0.00174348
0.00172715
0.00172943
0.00175733
0.00182101
0.00193266
0.00210276
0.00233137
0.00258983
0.00285293
0.00311343
0.00319568
0.00244132
0.00182929
0.00136389
0.018401
0.059575
0.032073
0.0174601
0.0113424
0.00815784
0.00635998
0.00534981
0.00472996
0.00433988
0.00413683
0.0040722
0.00412405
0.00426527
0.00444219
0.00458691
0.00462709
0.00447634
0.00410053
0.00362562
0.00321974
0.00293523
0.0027554
0.0026399
0.00255551
0.00248851
0.00244038
0.00241329
0.00241256
0.00244877
0.00253796
0.00269676
0.00292983
0.00321951
0.00353605
0.00383047
0.0039787
0.00367069
0.00246637
0.00149829
0.0221602
0.0623401
0.0453448
0.031953
0.0225085
0.0158639
0.0115549
0.00880324
0.00701947
0.00586033
0.00511994
0.00472074
0.00456677
0.00461286
0.00479317
0.00501324
0.00517626
0.00517435
0.00495696
0.00459826
0.00422293
0.00390952
0.00367743
0.00351147
0.00338881
0.00329642
0.00323145
0.00319409
0.00318725
0.00321826
0.00330088
0.00345239
0.00367627
0.00394932
0.00422396
0.0044266
0.00443117
0.00408953
0.00337301
0.00154262
0.0217942
0.0547859
0.052558
0.0451747
0.0348871
0.025292
0.0182603
0.0134143
0.010137
0.00795195
0.00652031
0.0055951
0.00506751
0.00486716
0.00491158
0.00511009
0.00535258
0.00551286
0.00549818
0.00531918
0.00506427
0.00480778
0.00458801
0.00441341
0.00427793
0.00417594
0.00410692
0.00407395
0.00408396
0.00414929
0.00429069
0.00453603
0.00488294
0.0052855
0.00564771
0.00587685
0.00599104
0.00601773
0.00607253
0.00391489
0.0195902
0.0253663
0.0926841
0.0783818
0.0536101
0.0358409
0.0244103
0.0171805
0.0125823
0.00961772
0.00768515
0.00643071
0.00565058
0.00522519
0.00509132
0.00518519
0.00540721
0.00564449
0.00580108
0.0058382
0.00577794
0.00566409
0.00553403
0.00540989
0.00530113
0.00521167
0.00514483
0.0051055
0.00510236
0.00515048
0.00527619
0.0055009
0.00584327
0.00634108
0.00703775
0.00795218
0.00867474
0.00884288
0.011831
0.00482695
0.225064
0.168691
0.0605217
0.0333207
0.0224899
0.0163267
0.0124461
0.00991623
0.0082538
0.00717834
0.00651473
0.00614835
0.00600221
0.00601747
0.00615612
0.00636993
0.00660336
0.00679779
0.00692607
0.006989
0.00700205
0.0069836
0.00694847
0.00690663
0.00686462
0.00682729
0.00680016
0.00679171
0.00681831
0.00688466
0.00701646
0.00722299
0.00745049
0.00762439
0.00759751
0.00729052
0.00730246
0.00487745
0.101256
0.0915557
0.0396576
0.0233506
0.0168743
0.0133782
0.011239
0.00990546
0.00912099
0.0087258
0.00859951
0.00864959
0.00881027
0.00903995
0.00930516
0.00957411
0.00981227
0.0100016
0.0101347
0.0102165
0.0102591
0.0102747
0.0102723
0.0102554
0.0102224
0.0101665
0.010078
0.00994806
0.00976304
0.00953046
0.00929538
0.00912541
0.00893216
0.00867243
0.00823991
0.0074421
0.0075887
0.00512631
0.00714131
0.0175556
0.050095
0.0307611
0.0167076
0.00962736
0.00746367
0.00632714
0.00553322
0.00495123
0.00453139
0.0042403
0.00405019
0.00393711
0.00388119
0.0038659
0.00387839
0.00390791
0.00394529
0.00398043
0.00400664
0.00402074
0.00402284
0.00401514
0.00400065
0.00398216
0.00396173
0.00394039
0.00391817
0.0038943
0.0038682
0.00383408
0.00378128
0.00369464
0.00360687
0.00349257
0.00331556
0.00302542
0.0028498
0.00316837
)
;

boundaryField
{
    floor
    {
        type            kqRWallFunction;
        value           nonuniform List<scalar> 
36
(
0.00113443
0.000148312
0.000185341
0.000202184
0.000166271
0.000117359
9.11704e-05
9.30842e-05
0.000106354
0.000124401
0.000142551
0.000153045
0.00015251
0.000151897
0.000154625
0.0001646
0.00017308
0.000156546
0.000127881
0.000127881
0.000196002
0.00052708
0.00111746
0.00244132
0.00182929
0.00136389
0.00113443
0.00138074
0.00123745
0.000581032
0.000148312
0.000581032
0.000351369
0.00145717
0.000772352
0.00159742
)
;
    }
    ceiling
    {
        type            kqRWallFunction;
        value           nonuniform List<scalar> 
43
(
0.00714131
0.0175556
0.050095
0.0307611
0.0167076
0.00962736
0.00746367
0.00632714
0.00553322
0.00495123
0.00453139
0.0042403
0.00405019
0.00393711
0.00388119
0.0038659
0.00387839
0.00390791
0.00394529
0.00398043
0.00400664
0.00402074
0.00402284
0.00401514
0.00400065
0.00398216
0.00396173
0.00394039
0.00391817
0.0038943
0.0038682
0.00383408
0.00378128
0.00369464
0.00360687
0.00349257
0.00331556
0.00302542
0.0028498
0.00316837
0.0195902
0.0253663
0.101256
)
;
    }
    sWall
    {
        type            kqRWallFunction;
        value           uniform 0.00714131;
    }
    nWall
    {
        type            kqRWallFunction;
        value           nonuniform List<scalar> 6(0.00136389 0.00149829 0.00154262 0.00487745 0.00512631 0.00316837);
    }
    sideWalls
    {
        type            empty;
    }
    glass1
    {
        type            kqRWallFunction;
        value           nonuniform List<scalar> 9(0.000914852 0.00297854 0.00596312 0.00975775 0.0140067 0.018401 0.0221602 0.0217942 0.0195902);
    }
    glass2
    {
        type            kqRWallFunction;
        value           nonuniform List<scalar> 2(0.00391489 0.00482695);
    }
    sun
    {
        type            kqRWallFunction;
        value           nonuniform List<scalar> 
14
(
0.000914852
0.000954032
0.000699987
0.000720637
0.000756476
0.000793344
0.000831533
0.000872823
0.000916932
0.000959753
0.00100019
0.00103727
0.00107158
0.00110585
)
;
    }
    Table_master
    {
        type            kqRWallFunction;
        value           nonuniform List<scalar> 9(0.000159438 0.000177821 0.000208214 0.000241944 0.000280362 0.000327775 0.000391966 0.000492669 0.000683268);
    }
    Table_slave
    {
        type            kqRWallFunction;
        value           nonuniform List<scalar> 9(0.000864504 0.000859046 0.000861827 0.000872975 0.000897012 0.000940264 0.00101236 0.00113136 0.00134574);
    }
    inlet
    {
        type            turbulentIntensityKineticEnergyInlet;
        intensity       0.05;
        value           uniform 3.75e-05;
    }
    outlet
    {
        type            zeroGradient;
    }
}


// ************************************************************************* //
