/*--------------------------------*- C++ -*----------------------------------*\
  =========                 |
  \\      /  F ield         | OpenFOAM: The Open Source CFD Toolbox
   \\    /   O peration     | Website:  https://openfoam.org
    \\  /    A nd           | Version:  6
     \\/     M anipulation  |
\*---------------------------------------------------------------------------*/
FoamFile
{
    version     2.0;
    format      ascii;
    class       volScalarField;
    location    "1900";
    object      nut;
}
// * * * * * * * * * * * * * * * * * * * * * * * * * * * * * * * * * * * * * //

dimensions      [0 2 -1 0 0 0 0];

internalField   nonuniform List<scalar> 
458
(
0.000679248
0.000693641
0.000594139
0.000602834
0.000617638
0.000632507
0.000647549
0.000663429
0.000679983
0.000695677
0.000710181
0.000723222
0.000735085
0.000746746
0.000756335
0.000273485
0.000305718
0.000319305
0.000289572
0.000243305
0.000214439
0.000216669
0.000231592
0.00025047
0.000268118
0.000277809
0.000277319
0.00027676
0.00027923
0.000288092
0.000295427
0.000280957
0.000253932
0.00122563
0.0023982
0.00166073
0.00247178
0.00275978
0.00290316
0.00300375
0.00306656
0.00310108
0.00310352
0.00305826
0.00293785
0.00269478
0.00224711
0.0015281
0.000834416
0.000789936
0.000541284
0.000420959
0.000713877
0.000795736
0.000752479
0.000589891
0.000423252
0.000504889
0.000647422
0.000785246
0.000894364
0.000947465
0.000954414
0.000948261
0.00100035
0.00121032
0.00103516
0.000741374
0.000314391
0.00173418
0.00451205
0.00217153
0.00310997
0.00406295
0.00443129
0.00462397
0.00473422
0.00478326
0.00479543
0.00476513
0.00467246
0.0044781
0.00411409
0.00351398
0.00271326
0.00177624
0.000857207
0.000624092
0.00157444
0.00126892
0.000894508
0.000561684
0.000283545
0.00029944
0.000324019
0.000349277
0.000375983
0.000406529
0.000444554
0.000498399
0.000586949
0.00188259
0.00198599
0.00168719
0.000515535
0.00221836
0.00721737
0.0037723
0.0034096
0.00432524
0.00492174
0.00529439
0.0055405
0.00568878
0.00578251
0.00584677
0.00587586
0.00583862
0.00566497
0.00524476
0.00446686
0.00327281
0.00184622
0.00089752
0.00224185
0.00224645
0.00177117
0.00132765
0.000952806
0.000660265
0.000658172
0.000659233
0.000663478
0.000672546
0.000688565
0.000714471
0.000755293
0.00082375
0.00258408
0.00275959
0.00239397
0.00075066
0.0026578
0.0100515
0.00663231
0.00499052
0.00479275
0.00498316
0.005303
0.00563191
0.00591057
0.00612342
0.00632386
0.0065318
0.00674026
0.00691034
0.00697589
0.00688128
0.00660387
0.00615061
0.0056118
0.00540003
0.00497369
0.00460086
0.00430309
0.00405285
0.00384307
0.00371401
0.0035905
0.00346591
0.00334602
0.0032449
0.00318147
0.00317197
0.00322504
0.00336421
0.00331252
0.00317978
0.00271094
0.00110951
0.000960425
0.000829301
0.00304629
0.0123529
0.00998438
0.0077258
0.00647205
0.00576588
0.00549352
0.0055114
0.0056826
0.00592099
0.00618271
0.00650883
0.00690135
0.00732421
0.00769815
0.00795303
0.00804494
0.00793374
0.0076179
0.00719814
0.00675543
0.00637661
0.00607983
0.00584581
0.00564731
0.00546459
0.00527868
0.00507443
0.0048405
0.0045784
0.00431064
0.00407194
0.0038797
0.00371682
0.0035476
0.00334907
0.00305792
0.00252885
0.00184458
0.000869221
0.00334299
0.0130306
0.0114764
0.00974539
0.00836579
0.00718004
0.00634688
0.00583584
0.00557971
0.00553396
0.00568196
0.00596097
0.00639105
0.00696516
0.00756321
0.0080613
0.00838923
0.00849145
0.00835682
0.00805271
0.00768206
0.00732811
0.00702798
0.00678399
0.0065833
0.00641298
0.00626185
0.00611171
0.00593209
0.00568522
0.0053511
0.00495841
0.00456424
0.00419654
0.00384249
0.00346695
0.00302081
0.00246594
0.00185193
0.000881987
0.00331526
0.0104356
0.00983497
0.00994539
0.00922128
0.00813528
0.00714474
0.00636337
0.00580247
0.00545153
0.00529716
0.0053459
0.0056244
0.00611487
0.00675107
0.00739885
0.00792338
0.00823356
0.00829968
0.00816456
0.0079178
0.00763857
0.00737504
0.00714744
0.00696021
0.00681452
0.00671318
0.00665586
0.00662948
0.00659425
0.00648042
0.00623212
0.00585821
0.00539616
0.00487714
0.00431158
0.00374586
0.0031737
0.00269736
0.00140507
0.00314314
0.00357662
0.0110428
0.0115062
0.0100554
0.00857466
0.00739081
0.00651098
0.00588474
0.00546437
0.005219
0.00513483
0.00521544
0.00547793
0.00591267
0.00643713
0.00694167
0.00732803
0.00753825
0.00757788
0.00749603
0.00734922
0.007181
0.0070179
0.00687407
0.0067588
0.00668201
0.00665582
0.00669284
0.00679685
0.00693836
0.00705581
0.00711847
0.00711967
0.00711533
0.00713711
0.00690029
0.00619834
0.00566594
0.00156019
0.0226234
0.0192209
0.0115231
0.0088952
0.0076035
0.00675161
0.00616392
0.00577349
0.00554161
0.00543858
0.00543687
0.00551277
0.00564997
0.00584157
0.00607334
0.00631153
0.00650799
0.00664145
0.00670792
0.00671833
0.00669005
0.00664002
0.0065819
0.00652642
0.00648327
0.006463
0.00647826
0.00654192
0.00665068
0.0068066
0.00699922
0.00718278
0.00727888
0.00716448
0.00678594
0.0061122
0.0050083
0.00156836
0.00714595
0.0129979
0.00894391
0.00738572
0.00661654
0.00612751
0.0058041
0.00560561
0.0055089
0.00549134
0.00552909
0.00560215
0.00569774
0.00580943
0.005932
0.00605802
0.00617709
0.00627829
0.00635447
0.00640447
0.00643174
0.00644161
0.00643918
0.00642825
0.00641119
0.00638931
0.00636363
0.00633638
0.00631225
0.00629971
0.00630959
0.00633146
0.0062381
0.00600334
0.00556871
0.00487885
0.00418863
0.0016079
0.00189768
0.00297536
0.00502624
0.00393865
0.00290272
0.00220337
0.00194002
0.00178622
0.00167041
0.00158014
0.00151167
0.00146232
0.00142917
0.00140909
0.00139905
0.0013963
0.00139855
0.00140387
0.00141056
0.00141683
0.00142149
0.00142399
0.00142436
0.001423
0.00142043
0.00141714
0.0014135
0.00140969
0.00140571
0.00140142
0.00139672
0.00139055
0.00138094
0.00136502
0.00134871
0.00132717
0.00129311
0.00123524
0.00119885
0.00126405
)
;

boundaryField
{
    floor
    {
        type            nutkWallFunction;
        Cmu             0.09;
        kappa           0.41;
        E               9.8;
        value           nonuniform List<scalar> 
36
(
9.16069e-05
2.97226e-05
3.41427e-05
3.59869e-05
3.19355e-05
2.55171e-05
2.14339e-05
2.17534e-05
2.38718e-05
2.65247e-05
2.89803e-05
3.03196e-05
3.02526e-05
3.01756e-05
3.05165e-05
3.1735e-05
3.27381e-05
3.07535e-05
2.70089e-05
2.70089e-05
3.53171e-05
6.16792e-05
9.09159e-05
0.000133568
0.000116077
0.000100435
9.16069e-05
0.000101049
9.5683e-05
6.49478e-05
2.97225e-05
6.49478e-05
4.94871e-05
0.000103784
7.53422e-05
0.000108602
)
;
    }
    ceiling
    {
        type            nutkWallFunction;
        Cmu             0.09;
        kappa           0.41;
        E               9.8;
        value           nonuniform List<scalar> 
43
(
0.000222426
0.000337682
0.000546156
0.000436927
0.000330013
0.000255647
0.000227027
0.000210121
0.000197286
0.000187213
0.000179532
0.000173972
0.000170225
0.000167949
0.000166811
0.000166497
0.000166752
0.000167354
0.000168113
0.000168822
0.000169349
0.000169631
0.000169673
0.000169518
0.000169226
0.000168854
0.000168441
0.000168008
0.000167557
0.00016707
0.000166536
0.000165835
0.000164743
0.000162935
0.000161079
0.000158624
0.000154732
0.000148095
0.000143905
0.000151406
0.000355192
0.000399994
0.000752843
)
;
    }
    sWall
    {
        type            nutkWallFunction;
        Cmu             0.09;
        kappa           0.41;
        E               9.8;
        value           uniform 0.000222476;
    }
    nWall
    {
        type            nutkWallFunction;
        Cmu             0.09;
        kappa           0.41;
        E               9.8;
        value           nonuniform List<scalar> 6(0.000100436 0.000105225 0.000106752 0.000185882 0.0001903 0.000151415);
    }
    sideWalls
    {
        type            empty;
    }
    glass1
    {
        type            nutkWallFunction;
        Cmu             0.09;
        kappa           0.41;
        E               9.8;
        value           nonuniform List<scalar> 9(8.21233e-05 0.000147117 0.000204568 0.000257539 0.000304545 0.000345424 0.000376283 0.000373424 0.000355564);
    }
    glass2
    {
        type            nutkWallFunction;
        Cmu             0.09;
        kappa           0.41;
        E               9.8;
        value           nonuniform List<scalar> 2(0.00016752 0.000185002);
    }
    sun
    {
        type            nutkWallFunction;
        Cmu             0.09;
        kappa           0.41;
        E               9.8;
        value           nonuniform List<scalar> 
14
(
8.21646e-05
8.39366e-05
7.15989e-05
7.26872e-05
7.45353e-05
7.63859e-05
7.82528e-05
8.0218e-05
8.22606e-05
8.41917e-05
8.59716e-05
8.75683e-05
8.90177e-05
9.04396e-05
)
;
    }
    Table_master
    {
        type            nutkWallFunction;
        Cmu             0.09;
        kappa           0.41;
        E               9.8;
        value           nonuniform List<scalar> 9(3.11109e-05 3.32881e-05 3.66247e-05 4.00196e-05 4.35751e-05 4.76029e-05 5.25638e-05 5.94991e-05 7.07085e-05);
    }
    Table_slave
    {
        type            nutkWallFunction;
        Cmu             0.09;
        kappa           0.41;
        E               9.8;
        value           nonuniform List<scalar> 9(7.98262e-05 7.95681e-05 7.96997e-05 8.02249e-05 8.13449e-05 8.33187e-05 8.6499e-05 9.14823e-05 9.97682e-05);
    }
    inlet
    {
        type            calculated;
        value           uniform 3.3541e-05;
    }
    outlet
    {
        type            calculated;
        value           nonuniform List<scalar> 2(0.00189768 0.00297536);
    }
}


// ************************************************************************* //
