/*--------------------------------*- C++ -*----------------------------------*\
  =========                 |
  \\      /  F ield         | OpenFOAM: The Open Source CFD Toolbox
   \\    /   O peration     | Website:  https://openfoam.org
    \\  /    A nd           | Version:  6
     \\/     M anipulation  |
\*---------------------------------------------------------------------------*/
FoamFile
{
    version     2.0;
    format      ascii;
    class       volScalarField;
    location    "1100";
    object      alphat;
}
// * * * * * * * * * * * * * * * * * * * * * * * * * * * * * * * * * * * * * //

dimensions      [1 -1 -1 0 0 0 0];

internalField   nonuniform List<scalar> 
458
(
0.00154714
0.00172615
0.00179394
0.00189301
0.00199154
0.00208354
0.00213186
0.0021308
0.00208368
0.00199682
0.00187759
0.00169252
0.00151996
0.00131001
0.00112298
0.000587064
0.000694537
0.000826057
0.000909126
0.000918895
0.000857818
0.000788789
0.000728507
0.000677664
0.000634541
0.000597675
0.00056574
0.000537605
0.000512173
0.000487874
0.000462639
0.00043477
0.000392026
0.00199424
0.00563289
0.00587245
0.00689106
0.00781804
0.0084189
0.00885151
0.00910696
0.00918346
0.00908559
0.00879946
0.00835125
0.00775635
0.00680409
0.00474618
0.00148767
0.00127012
0.00102545
0.000566267
0.00150065
0.00243092
0.00316238
0.00335842
0.00224986
0.00184099
0.00157652
0.00139045
0.00125505
0.00115369
0.00107633
0.00100966
0.000931168
0.000848925
0.000772834
0.000766966
0.000428123
0.0023605
0.00795653
0.00769351
0.00859952
0.00918301
0.00957657
0.00992368
0.0102233
0.0104395
0.0105365
0.0104501
0.0102049
0.00980018
0.00914966
0.00794606
0.00596459
0.00442988
0.00128782
0.000762204
0.00165812
0.00275206
0.00380995
0.00405251
0.00116135
0.00100008
0.000865251
0.000756036
0.000668242
0.000597761
0.000541105
0.000496572
0.000466096
0.000538446
0.000636673
0.000849269
0.000451523
0.0027121
0.0100207
0.00882634
0.0093013
0.0093877
0.00946717
0.00965487
0.0099545
0.0102673
0.0105113
0.0106238
0.0105685
0.0103373
0.0099184
0.00924073
0.0081774
0.00669461
0.00365483
0.00147488
0.00179098
0.00269809
0.00401472
0.00523017
0.00534558
0.00135162
0.00122906
0.00113601
0.00105972
0.00099554
0.000936608
0.00087836
0.000817295
0.000748878
0.000673566
0.000640616
0.000917755
0.000484785
0.00305618
0.0121745
0.0109607
0.0103927
0.00968249
0.00933777
0.0093311
0.00959058
0.0099803
0.0103542
0.0105962
0.0106412
0.0104831
0.0101536
0.00968186
0.00904392
0.00814938
0.00669993
0.00585605
0.00622633
0.00691949
0.00765751
0.00816422
0.00813569
0.00685108
0.00608449
0.00557403
0.00517997
0.00471407
0.00418139
0.00358542
0.00293077
0.00224255
0.00161
0.00115427
0.0010579
0.000716127
0.000600545
0.000700208
0.000779779
0.00327366
0.0131123
0.0125041
0.0107138
0.00955511
0.00902654
0.00903054
0.00940183
0.00994345
0.0104623
0.0108067
0.0108988
0.010749
0.0104343
0.0100688
0.00972008
0.00941245
0.00912376
0.00924251
0.00974351
0.010173
0.0103981
0.0103525
0.0100036
0.00932871
0.00866243
0.00805744
0.00743356
0.00675859
0.0060258
0.00522938
0.00436958
0.00346826
0.00260051
0.00190262
0.00144931
0.0010609
0.000855459
0.00110999
0.000803451
0.00325643
0.00908133
0.00865871
0.00811224
0.00789289
0.00811047
0.00870828
0.0095404
0.0104087
0.0111151
0.0115174
0.0115729
0.0113587
0.0110596
0.0108473
0.0108211
0.0109641
0.011223
0.0116258
0.0119901
0.0120587
0.0118587
0.0114296
0.0108319
0.0101427
0.00946107
0.0087786
0.00807493
0.00734553
0.00658813
0.00580448
0.00500019
0.00418713
0.00339075
0.00268999
0.00212435
0.00168499
0.00144662
0.00132534
0.000939578
0.00320548
0.00470298
0.0051109
0.00564801
0.00668045
0.00807695
0.00959323
0.0109938
0.0120585
0.0126399
0.0127246
0.012472
0.0121841
0.0120437
0.0120675
0.0121831
0.0123721
0.0125922
0.0127819
0.0127995
0.0125275
0.0119989
0.0112986
0.0105094
0.00969958
0.00891594
0.0081625
0.00741348
0.00666389
0.00593342
0.00525347
0.00464646
0.00410946
0.00360566
0.00315583
0.00287042
0.00275002
0.00273444
0.00324352
0.00143577
0.00327147
0.00354538
0.00547452
0.00900046
0.0113816
0.0131357
0.0141531
0.0145695
0.01456
0.014162
0.0134719
0.0128966
0.0126182
0.0125877
0.0126226
0.0126296
0.0126138
0.0125634
0.0124049
0.0120466
0.0114578
0.0106893
0.00981251
0.00890633
0.00804105
0.00723694
0.00645629
0.00566179
0.00485547
0.00408947
0.00344126
0.00295936
0.00263543
0.00243226
0.00231645
0.0022605
0.00221348
0.00213341
0.00201458
0.0014041
0.00266054
0.00908707
0.0123291
0.0134305
0.0137113
0.0135083
0.01315
0.0127763
0.0123975
0.0121367
0.0119963
0.0118662
0.0116762
0.0114416
0.0111756
0.0108372
0.0103558
0.00969981
0.00890881
0.00806914
0.00726182
0.00653439
0.00589217
0.00530741
0.00474767
0.00420046
0.00367803
0.00320933
0.00282587
0.00254692
0.00237207
0.00228391
0.00225402
0.00224464
0.00220819
0.00211307
0.00194482
0.00129301
0.0027714
0.00973919
0.0108537
0.0108257
0.0105839
0.0103172
0.0100416
0.00975932
0.00946512
0.00917786
0.0088952
0.00861713
0.00835824
0.00812013
0.00787592
0.00758459
0.00721918
0.00679166
0.00634603
0.00592733
0.00555774
0.00523528
0.00494384
0.00466443
0.00438295
0.00409348
0.00379754
0.00350227
0.00321911
0.00296305
0.00275078
0.00259437
0.00249055
0.00241458
0.00233297
0.00229664
0.0025883
0.00136071
0.00205031
0.00203719
0.00210044
0.00203779
0.001968
0.00192887
0.00188983
0.00183863
0.0017746
0.00170464
0.00163784
0.0015806
0.00153514
0.00150062
0.00147418
0.00145189
0.00142984
0.00140504
0.00137645
0.0013454
0.00131439
0.00128545
0.00125911
0.00123463
0.00121076
0.00118651
0.00116168
0.00113709
0.00111448
0.00109609
0.00108427
0.00108103
0.0010879
0.0011057
0.00113355
0.00116731
0.00118613
0.00115778
0.00111348
0.00109404
)
;

boundaryField
{
    floor
    {
        type            compressible::alphatWallFunction;
        Prt             0.85;
        value           nonuniform List<scalar> 
36
(
0.000159515
8.24733e-05
9.8432e-05
0.000117564
0.000129462
0.000130856
0.000122136
0.000112191
0.000103421
9.59562e-05
8.95717e-05
8.40711e-05
7.92726e-05
7.50171e-05
7.11465e-05
6.74258e-05
6.3537e-05
5.92108e-05
5.25056e-05
5.25049e-05
5.81733e-05
6.18147e-05
6.69514e-05
8.45116e-05
9.92979e-05
0.000110912
0.000159513
0.00020934
0.00017981
0.000145895
8.24723e-05
0.000145894
7.9344e-05
0.000182227
0.000108297
0.00020761
)
;
    }
    ceiling
    {
        type            compressible::alphatWallFunction;
        Prt             0.85;
        value           nonuniform List<scalar> 
43
(
0.000283935
0.000282135
0.000290322
0.000282197
0.000273108
0.000267996
0.000262885
0.000256166
0.000247735
0.000238485
0.000229615
0.000221983
0.000215901
0.00021127
0.000207714
0.000204713
0.000201738
0.000198384
0.00019451
0.000190289
0.000186064
0.00018211
0.000178501
0.000175139
0.000171854
0.000168509
0.000165075
0.000161667
0.000158524
0.000155962
0.000154312
0.000153858
0.000154815
0.000157293
0.000161165
0.000165841
0.000168444
0.000164524
0.000158378
0.000155675
0.000438176
0.000471791
0.000375907
)
;
    }
    sWall
    {
        type            compressible::alphatWallFunction;
        Prt             0.85;
        value           uniform 0.000282915;
    }
    nWall
    {
        type            compressible::alphatWallFunction;
        Prt             0.85;
        value           nonuniform List<scalar> 6(0.000110737 0.000114158 0.000133636 0.000182833 0.000192062 0.000155379);
    }
    sideWalls
    {
        type            empty;
    }
    glass1
    {
        type            compressible::alphatWallFunction;
        Prt             0.85;
        value           nonuniform List<scalar> 9(0.0002125 0.000270855 0.000317704 0.000362023 0.000404864 0.000431748 0.000429761 0.000422934 0.000429497);
    }
    glass2
    {
        type            compressible::alphatWallFunction;
        Prt             0.85;
        value           nonuniform List<scalar> 2(0.000201273 0.000197068);
    }
    sun
    {
        type            compressible::alphatWallFunction;
        Prt             0.85;
        value           nonuniform List<scalar> 
14
(
0.000217355
0.000241181
0.000250135
0.000263157
0.000276035
0.000287995
0.000294253
0.000294113
0.000288007
0.000276713
0.000261123
0.000236707
0.000213681
0.000185266
)
;
    }
    Table_master
    {
        type            compressible::alphatWallFunction;
        Prt             0.85;
        value           nonuniform List<scalar> 9(0.000164929 0.000142419 0.000123273 0.000107504 9.46304e-05 8.41461e-05 7.56077e-05 6.88181e-05 6.41275e-05);
    }
    Table_slave
    {
        type            compressible::alphatWallFunction;
        Prt             0.85;
        value           nonuniform List<scalar> 9(0.000191041 0.00017428 0.000161428 0.000150799 0.000141789 0.000133456 0.000125159 0.00011639 0.000106471);
    }
    inlet
    {
        type            fixedValue;
        value           uniform 1.94e-05;
    }
    outlet
    {
        type            zeroGradient;
    }
}


// ************************************************************************* //
