/*--------------------------------*- C++ -*----------------------------------*\
  =========                 |
  \\      /  F ield         | OpenFOAM: The Open Source CFD Toolbox
   \\    /   O peration     | Website:  https://openfoam.org
    \\  /    A nd           | Version:  6
     \\/     M anipulation  |
\*---------------------------------------------------------------------------*/
FoamFile
{
    version     2.0;
    format      ascii;
    class       volScalarField;
    location    "1100";
    object      k;
}
// * * * * * * * * * * * * * * * * * * * * * * * * * * * * * * * * * * * * * //

dimensions      [0 2 -2 0 0 0 0];

internalField   nonuniform List<scalar> 
458
(
0.00352904
0.00438614
0.0047369
0.00527429
0.00583743
0.0063889
0.00668829
0.00668128
0.00638883
0.00586723
0.00518758
0.00421562
0.00340024
0.00252623
0.00185676
0.000508767
0.000711852
0.00100672
0.00121934
0.00124583
0.00108584
0.000918228
0.000783345
0.000677907
0.000594452
0.000527449
0.000472648
0.000426857
0.000387472
0.000351621
0.00031623
0.000279325
0.000227165
0.00586905
0.0108591
0.00795005
0.00881253
0.0100771
0.0113106
0.0121285
0.0123489
0.0119952
0.0111561
0.00996648
0.00858958
0.00731849
0.0060172
0.00439516
0.00325802
0.00237514
0.00154863
0.000473426
0.00103429
0.00167618
0.00205645
0.00217352
0.00184254
0.00146569
0.00116818
0.000949302
0.0007878
0.00066719
0.000575465
0.000502171
0.000437661
0.000387607
0.000355363
0.000394924
0.000270922
0.00823149
0.0183301
0.0101176
0.0104507
0.0120333
0.01347
0.0142429
0.014377
0.0139862
0.0130889
0.011896
0.0105712
0.00921812
0.00785085
0.00639097
0.00514096
0.00415271
0.00244201
0.000856906
0.00153012
0.00208864
0.00248138
0.00259641
0.0019895
0.00147553
0.00110465
0.000843519
0.000659103
0.000527499
0.000432325
0.000364159
0.000320886
0.000303459
0.000306264
0.000456504
0.00030136
0.010878
0.0281195
0.0139509
0.0127898
0.0145706
0.0154706
0.0157239
0.0155929
0.0151273
0.0143114
0.0131954
0.0118572
0.0104118
0.00896214
0.00755743
0.00629199
0.00520392
0.00383008
0.00320287
0.00280166
0.00291151
0.00319333
0.00340373
0.00337232
0.002696
0.00222985
0.00190545
0.00165845
0.00146395
0.001296
0.00114002
0.000987184
0.000828958
0.000586679
0.000427287
0.000572585
0.000347424
0.0138279
0.0390138
0.0231996
0.0192202
0.018859
0.0180289
0.0173914
0.0169019
0.0163466
0.0155328
0.0143769
0.0129175
0.0112925
0.00966846
0.00817472
0.00687503
0.0058196
0.00502668
0.0048483
0.00473339
0.00473098
0.00474448
0.0046388
0.00434152
0.00387538
0.00346147
0.00314889
0.0028838
0.00260359
0.00229744
0.00196515
0.00161363
0.00125758
0.00090077
0.000621891
0.000593308
0.00048272
0.000533604
0.00072609
0.000900433
0.0158843
0.0450833
0.034408
0.0273154
0.0230003
0.0205
0.0191827
0.0184798
0.0178931
0.0170566
0.0157861
0.0141024
0.0121922
0.0102965
0.00862345
0.00728815
0.00639713
0.0060053
0.00606157
0.0061837
0.00618069
0.00598734
0.00559078
0.00503198
0.00444164
0.00398131
0.00363173
0.00330832
0.00297361
0.00261714
0.00224027
0.00185378
0.0014765
0.00112633
0.000848212
0.000695864
0.000606225
0.000599859
0.00113444
0.000955608
0.0157387
0.0334318
0.0284767
0.0246717
0.0221697
0.0208914
0.0204536
0.0203598
0.0201041
0.0193019
0.0177837
0.0156532
0.0132422
0.0109073
0.00898875
0.0077027
0.00705469
0.00695231
0.00713835
0.00723701
0.00704079
0.00658939
0.0059538
0.00523238
0.0045682
0.00406999
0.00369319
0.00336271
0.00303908
0.00271257
0.00238503
0.00206321
0.00175614
0.00147211
0.00124565
0.00109441
0.00103663
0.00111853
0.00151966
0.00130662
0.0151629
0.0203942
0.0205298
0.0200475
0.0207439
0.0221912
0.0236735
0.0245714
0.0243887
0.0228908
0.020147
0.0166817
0.0132682
0.0105761
0.00884494
0.00791763
0.00754581
0.00754799
0.00763047
0.0075088
0.00708105
0.00641898
0.00565757
0.00491642
0.00429738
0.00383694
0.00349037
0.00320232
0.00295044
0.00273595
0.00256508
0.00243962
0.00235447
0.00230566
0.00232987
0.00258303
0.00317408
0.00412747
0.00834466
0.00305349
0.0155505
0.0180363
0.0254374
0.0263904
0.0288893
0.031002
0.0312944
0.0295
0.0257703
0.0212622
0.0172547
0.0139015
0.0113084
0.00952114
0.00842349
0.00783597
0.00757791
0.00747426
0.00731499
0.00695637
0.00639608
0.00571789
0.00502188
0.00439121
0.00387444
0.00346764
0.00313292
0.00284122
0.00259019
0.00239718
0.00228728
0.00228037
0.00238436
0.0026018
0.00293518
0.00337622
0.00385481
0.00424764
0.00447436
0.00292335
0.0110453
0.0184357
0.0215468
0.022493
0.0217232
0.0198809
0.0174941
0.0149262
0.0126258
0.010745
0.00933524
0.00836811
0.00775644
0.00738926
0.00714808
0.00691373
0.0065844
0.00613031
0.00559776
0.0050592
0.00456708
0.00414141
0.00377275
0.00343576
0.00311026
0.00279519
0.0025087
0.0022805
0.00214097
0.00211169
0.00220241
0.00241276
0.00272902
0.00310711
0.00344727
0.0036185
0.00351186
0.00248074
0.0112879
0.0176525
0.0161951
0.01466
0.0134441
0.0123328
0.0111211
0.00989724
0.00881476
0.00795826
0.00734606
0.00694901
0.0067152
0.00658641
0.00650538
0.00642105
0.00629656
0.0061218
0.00591247
0.00569231
0.00547716
0.00526908
0.00505828
0.00482958
0.00456991
0.0042749
0.00395205
0.00362069
0.00330996
0.00305532
0.00289236
0.00284566
0.00291256
0.0030485
0.00317233
0.0033453
0.00420884
0.00274718
0.00627778
0.00614136
0.00651497
0.00613899
0.005728
0.00550367
0.00528411
0.00500269
0.00466141
0.00430221
0.00397274
0.0037009
0.00349198
0.00333752
0.00322164
0.00312559
0.0030319
0.00292807
0.00281046
0.00268529
0.00256307
0.00245149
0.00235204
0.00226144
0.0021748
0.00208849
0.00200193
0.00191803
0.0018424
0.00178203
0.00174371
0.00173321
0.00175522
0.00181303
0.00190547
0.0020206
0.0020864
0.00198806
0.00183908
0.00177618
)
;

boundaryField
{
    floor
    {
        type            kqRWallFunction;
        value           nonuniform List<scalar> 
36
(
0.00185676
0.000508767
0.000711852
0.00100672
0.00121934
0.00124583
0.00108584
0.000918228
0.000783345
0.000677907
0.000594452
0.000527449
0.000472648
0.000426857
0.000387472
0.000351621
0.00031623
0.000279325
0.000227165
0.000227165
0.000270922
0.00030136
0.000347424
0.000533604
0.00072609
0.000900433
0.00185676
0.00325802
0.00237514
0.00154863
0.000508767
0.00154863
0.000473426
0.00244201
0.000856906
0.00320287
)
;
    }
    ceiling
    {
        type            kqRWallFunction;
        value           nonuniform List<scalar> 
43
(
0.00627778
0.00614136
0.00651497
0.00613899
0.005728
0.00550367
0.00528411
0.00500269
0.00466141
0.00430221
0.00397274
0.0037009
0.00349198
0.00333752
0.00322164
0.00312559
0.0030319
0.00292807
0.00281046
0.00268529
0.00256307
0.00245149
0.00235204
0.00226144
0.0021748
0.00208849
0.00200193
0.00191803
0.0018424
0.00178203
0.00174371
0.00173321
0.00175522
0.00181303
0.00190547
0.0020206
0.0020864
0.00198806
0.00183908
0.00177618
0.0155505
0.0180363
0.0112879
)
;
    }
    sWall
    {
        type            kqRWallFunction;
        value           uniform 0.00627778;
    }
    nWall
    {
        type            kqRWallFunction;
        value           nonuniform List<scalar> 6(0.000900433 0.000955608 0.00130662 0.00248074 0.00274718 0.00177618);
    }
    sideWalls
    {
        type            empty;
    }
    glass1
    {
        type            kqRWallFunction;
        value           nonuniform List<scalar> 9(0.00352904 0.00586905 0.00823149 0.010878 0.0138279 0.0158843 0.0157387 0.0151629 0.0155505);
    }
    glass2
    {
        type            kqRWallFunction;
        value           nonuniform List<scalar> 2(0.00305349 0.00292335);
    }
    sun
    {
        type            kqRWallFunction;
        value           nonuniform List<scalar> 
14
(
0.00352904
0.00438614
0.0047369
0.00527429
0.00583743
0.0063889
0.00668829
0.00668128
0.00638883
0.00586723
0.00518758
0.00421562
0.00340024
0.00252623
)
;
    }
    Table_master
    {
        type            kqRWallFunction;
        value           nonuniform List<scalar> 9(0.0019895 0.00147553 0.00110465 0.000843519 0.000659103 0.000527499 0.000432325 0.000364159 0.000320886);
    }
    Table_slave
    {
        type            kqRWallFunction;
        value           nonuniform List<scalar> 9(0.002696 0.00222985 0.00190545 0.00165845 0.00146395 0.001296 0.00114002 0.000987184 0.000828958);
    }
    inlet
    {
        type            turbulentIntensityKineticEnergyInlet;
        intensity       0.05;
        value           uniform 0.0003375;
    }
    outlet
    {
        type            zeroGradient;
    }
}


// ************************************************************************* //
