// -*- C++ -*-
// File generated by PyFoam - sorry for the ugliness

FoamFile
{
 version 2.0;
 format ascii;
 class volScalarField;
 location "600";
 object T;
}

dimensions [ 0 0 0 1 0 0 0 ];

internalField nonuniform List<scalar> 458
(
  301.737
  301.431
  301.417
  301.414
  301.411
  301.408
  301.405
  301.403
  301.399
  301.396
  301.394
  301.398
  301.411
  301.439
  301.506
  301.752
  301.723
  301.717
  301.729
  301.739
  301.746
  301.752
  301.758
  301.763
  301.768
  301.773
  301.778
  301.783
  301.788
  301.793
  301.799
  301.806
  301.833
  301.934
  301.453
  301.42
  301.417
  301.417
  301.415
  301.413
  301.409
  301.402
  301.39
  301.376
  301.372
  301.387
  301.423
  301.47
  301.492
  301.507
  301.534
  301.757
  301.698
  301.699
  301.716
  301.733
  301.738
  301.741
  301.742
  301.743
  301.745
  301.746
  301.747
  301.749
  301.751
  301.756
  301.763
  301.774
  301.816
  302.144
  301.492
  301.437
  301.439
  301.445
  301.451
  301.454
  301.453
  301.441
  301.413
  301.375
  301.352
  301.366
  301.415
  301.474
  301.502
  301.514
  301.534
  301.681
  301.674
  301.695
  301.727
  301.757
  301.756
  301.755
  301.754
  301.753
  301.752
  301.751
  301.75
  301.75
  301.749
  301.753
  301.758
  301.767
  301.81
  302.359
  301.55
  301.461
  301.466
  301.485
  301.505
  301.522
  301.529
  301.515
  301.463
  301.387
  301.335
  301.343
  301.409
  301.486
  301.528
  301.54
  301.545
  301.565
  301.603
  301.658
  301.714
  301.766
  301.807
  301.839
  301.86
  301.876
  301.89
  301.9
  301.907
  301.912
  301.916
  301.916
  301.872
  301.828
  301.797
  301.814
  302.57
  301.63
  301.493
  301.491
  301.519
  301.557
  301.598
  301.625
  301.614
  301.53
  301.407
  301.321
  301.321
  301.403
  301.502
  301.569
  301.597
  301.604
  301.635
  301.681
  301.735
  301.791
  301.841
  301.882
  301.916
  301.938
  301.954
  301.966
  301.973
  301.976
  301.974
  301.968
  301.957
  301.928
  301.883
  301.836
  301.821
  301.83
  301.844
  301.905
  302.762
  301.741
  301.561
  301.527
  301.547
  301.589
  301.646
  301.708
  301.708
  301.586
  301.418
  301.308
  301.305
  301.398
  301.526
  301.626
  301.678
  301.704
  301.74
  301.784
  301.834
  301.883
  301.926
  301.961
  301.987
  302.004
  302.015
  302.021
  302.024
  302.022
  302.015
  302.004
  301.988
  301.963
  301.924
  301.879
  301.85
  301.846
  301.853
  301.911
  302.932
  301.931
  301.743
  301.671
  301.647
  301.658
  301.7
  301.77
  301.75
  301.598
  301.406
  301.284
  301.287
  301.404
  301.568
  301.702
  301.779
  301.82
  301.855
  301.894
  301.935
  301.973
  302.005
  302.029
  302.045
  302.054
  302.059
  302.059
  302.057
  302.051
  302.043
  302.028
  302.01
  301.987
  301.956
  301.918
  301.888
  301.878
  301.879
  301.917
  303.186
  302.456
  302.261
  302.099
  301.973
  301.903
  301.888
  301.889
  301.768
  301.538
  301.322
  301.222
  301.267
  301.433
  301.642
  301.804
  301.891
  301.93
  301.961
  301.992
  302.021
  302.046
  302.065
  302.077
  302.083
  302.085
  302.084
  302.081
  302.076
  302.069
  302.059
  302.047
  302.029
  302.009
  301.986
  301.96
  301.943
  301.944
  301.952
  302.112
  303.553
  303.216
  302.99
  302.724
  302.471
  302.274
  302.136
  301.969
  301.627
  301.298
  301.117
  301.119
  301.267
  301.518
  301.773
  301.927
  301.99
  302.022
  302.045
  302.066
  302.083
  302.095
  302.103
  302.106
  302.106
  302.105
  302.102
  302.097
  302.092
  302.086
  302.081
  302.077
  302.076
  302.079
  302.09
  302.112
  302.146
  302.185
  302.218
  302.299
  295.987
  297.464
  298.782
  299.636
  300.053
  300.176
  300.311
  300.5
  300.758
  301.068
  301.386
  301.735
  301.941
  302.031
  302.07
  302.091
  302.104
  302.114
  302.121
  302.125
  302.126
  302.126
  302.125
  302.123
  302.122
  302.12
  302.119
  302.118
  302.119
  302.12
  302.123
  302.13
  302.143
  302.164
  302.192
  302.224
  302.254
  302.286
  296.809
  297.794
  298.826
  299.555
  299.917
  300.153
  300.432
  300.809
  301.191
  301.599
  301.84
  301.992
  302.072
  302.109
  302.126
  302.136
  302.142
  302.145
  302.146
  302.147
  302.146
  302.145
  302.144
  302.143
  302.143
  302.142
  302.142
  302.143
  302.144
  302.145
  302.148
  302.154
  302.163
  302.178
  302.197
  302.22
  302.228
  302.265
  298.383
  298.359
  298.357
  299.136
  299.65
  300.084
  300.476
  300.958
  301.481
  301.768
  301.947
  302.048
  302.104
  302.142
  302.165
  302.178
  302.184
  302.186
  302.187
  302.187
  302.186
  302.185
  302.184
  302.182
  302.18
  302.179
  302.177
  302.175
  302.174
  302.172
  302.171
  302.17
  302.17
  302.171
  302.174
  302.181
  302.196
  302.205
  302.21
  302.252
)
;

boundaryField
{
  floor
  {
    type wallHeatTransfer;
    Tinf uniform 305.2;
    alphaWall uniform 0.24;
    value nonuniform List<scalar> 36
(
  301.88
  302.345
  302.253
  302.201
  302.202
  302.216
  302.241
  302.27
  302.3
  302.328
  302.355
  302.382
  302.407
  302.432
  302.456
  302.482
  302.51
  302.536
  302.6
  302.6
  302.477
  302.413
  302.367
  302.307
  302.3
  302.355
  301.88
  301.797
  301.861
  301.947
  302.345
  301.947
  302.346
  301.9
  302.096
  301.888
)
;
  }
  ceiling
  {
    type wallHeatTransfer;
    Tinf uniform 303.2;
    alphaWall uniform 0.24;
    value nonuniform List<scalar> 43
(
  298.623
  298.598
  298.593
  299.324
  299.822
  300.241
  300.623
  301.096
  301.609
  301.888
  302.062
  302.16
  302.214
  302.252
  302.277
  302.292
  302.3
  302.305
  302.308
  302.309
  302.31
  302.309
  302.308
  302.307
  302.304
  302.302
  302.299
  302.295
  302.291
  302.287
  302.282
  302.277
  302.273
  302.271
  302.27
  302.272
  302.282
  302.292
  302.302
  302.346
  303.537
  303.216
  297.14
)
;
  }
  sWall
  {
    type wallHeatTransfer;
    Tinf uniform 315.2;
    alphaWall uniform 0.36;
    value uniform 299.615;
  }
  nWall
  {
    type wallHeatTransfer;
    Tinf uniform 307.2;
    alphaWall uniform 0.36;
    value nonuniform List<scalar> 6
(
  302.922
  302.776
  302.654
  302.967
  302.944
  302.955
)
;
  }
  sideWalls
  {
    type empty;
  }
  glass1
  {
    type wallHeatTransfer;
    Tinf uniform 315.2;
    alphaWall uniform 4.3;
    value nonuniform List<scalar> 9
(
  310.843
  310.135
  309.686
  309.344
  309.059
  308.797
  308.588
  308.668
  308.927
)
;
  }
  glass2
  {
    type wallHeatTransfer;
    Tinf uniform 307.2;
    alphaWall uniform 4.3;
    value nonuniform List<scalar> 2
(
  305.189
  305.307
)
;
  }
  sun
  {
    type wallHeatTransfer;
    Tinf uniform 305.2;
    alphaWall uniform 0.24;
    value nonuniform List<scalar> 14
(
  302.091
  301.792
  301.772
  301.756
  301.742
  301.729
  301.717
  301.705
  301.694
  301.685
  301.679
  301.682
  301.7
  301.742
)
;
  }
  Table_master
  {
    type zeroGradient;
  }
  Table_slave
  {
    type zeroGradient;
  }
  inlet
  {
    type fixedValue;
    value uniform 299.15;
  }
  outlet
  {
    type zeroGradient;
  }
} 	// ************************************************************************* //

