/*--------------------------------*- C++ -*----------------------------------*\
  =========                 |
  \\      /  F ield         | OpenFOAM: The Open Source CFD Toolbox
   \\    /   O peration     | Website:  https://openfoam.org
    \\  /    A nd           | Version:  6
     \\/     M anipulation  |
\*---------------------------------------------------------------------------*/
FoamFile
{
    version     2.0;
    format      ascii;
    class       volScalarField;
    location    "2200";
    object      epsilon;
}
// * * * * * * * * * * * * * * * * * * * * * * * * * * * * * * * * * * * * * //

dimensions      [0 2 -3 0 0 0 0];

internalField   nonuniform List<scalar> 
458
(
0.000293204
0.000375715
0.000393943
0.0004537
0.000513496
0.000572999
0.000633794
0.000698628
0.000766256
0.000820862
0.000852042
0.00084959
0.000809828
0.000742464
0.000665662
5.77319e-06
7.62435e-06
8.70946e-06
7.94255e-06
7.81675e-06
7.41904e-06
7.25205e-06
6.32956e-06
4.85516e-06
3.43918e-06
2.63689e-06
2.38262e-06
2.43792e-06
2.93935e-06
6.86294e-06
1.06243e-05
1.06781e-05
6.71795e-06
0.000785824
0.00122872
0.00035811
0.000346755
0.000362541
0.000384026
0.00041215
0.000451137
0.000502184
0.000554017
0.000593298
0.000605843
0.000584858
0.00054468
0.00054816
0.000759435
0.000400694
0.000130801
1.44281e-05
3.24095e-05
3.26164e-05
3.21033e-05
2.92813e-05
2.5799e-05
2.40191e-05
2.23028e-05
1.89294e-05
1.40725e-05
9.3527e-06
6.13671e-06
4.38054e-06
4.37719e-06
1.10324e-05
2.08079e-05
3.37107e-05
1.93512e-05
0.00150154
0.00325616
0.000465266
0.000328449
0.000339172
0.000370407
0.000413991
0.000473415
0.000548982
0.000626772
0.000686255
0.000711083
0.00069509
0.000649098
0.000600403
0.000548034
0.00041971
0.000464583
0.000204148
0.000136298
9.49479e-05
6.82042e-05
5.07594e-05
5.68995e-05
3.95969e-05
2.95026e-05
2.27386e-05
1.77308e-05
1.38769e-05
1.08756e-05
8.38679e-06
7.4552e-06
2.40338e-05
4.79753e-05
4.83301e-05
2.9851e-05
0.00255136
0.00707254
0.000808639
0.000334357
0.000324201
0.000363876
0.000423206
0.000509292
0.000623108
0.000731249
0.000803748
0.000829982
0.000809317
0.000752537
0.000676698
0.000583126
0.00048058
0.000447321
0.000807388
0.000415698
0.000239548
0.000155089
0.000105772
7.67649e-05
0.00012611
9.94084e-05
8.1588e-05
6.95261e-05
6.08939e-05
5.38097e-05
4.69478e-05
4.06352e-05
3.48226e-05
2.9008e-05
3.94106e-05
8.05966e-05
0.000100562
0.0040791
0.0129037
0.00177679
0.00042961
0.000336821
0.000370536
0.000445149
0.000587649
0.000772378
0.000909964
0.000979592
0.000991015
0.000951238
0.0008693
0.000755395
0.000621088
0.000485402
0.000374489
0.000306524
0.000231608
0.000171828
0.00012809
9.77529e-05
7.80737e-05
7.05007e-05
6.1676e-05
5.43293e-05
4.90891e-05
4.57242e-05
4.3542e-05
4.17043e-05
4.00424e-05
3.9649e-05
4.28228e-05
5.40433e-05
7.60314e-05
0.000116956
0.000235815
0.000230068
0.000185433
0.00628383
0.019322
0.00434426
0.00100859
0.000595591
0.0005528
0.000623315
0.000890225
0.00111776
0.00122649
0.00125053
0.00122072
0.0011463
0.00102685
0.000867685
0.000686526
0.000511825
0.00036962
0.000269856
0.000200637
0.000150472
0.000114434
9.03886e-05
7.58777e-05
6.798e-05
6.2625e-05
5.93292e-05
5.87058e-05
6.15169e-05
6.84301e-05
8.07658e-05
0.000100455
0.000130323
0.000173519
0.000229239
0.00028362
0.000316958
0.000329471
0.000393061
0.000384781
0.00893267
0.0231642
0.00938838
0.00379886
0.00237214
0.00181226
0.00171203
0.00183224
0.00183899
0.00176706
0.00166669
0.00155268
0.00141324
0.00123296
0.00101237
0.000774748
0.00055541
0.000382441
0.000264175
0.000187704
0.000137126
0.000103533
8.34925e-05
7.27443e-05
6.74408e-05
6.52416e-05
6.66045e-05
7.40485e-05
9.19709e-05
0.000123012
0.000170202
0.000239511
0.000336722
0.000466131
0.000634237
0.00081698
0.000900599
0.000735463
0.000658713
0.000557095
0.00954364
0.025595
0.0144528
0.0105485
0.00786874
0.00591062
0.00462601
0.0036594
0.00298227
0.00253185
0.00222827
0.00199136
0.00175522
0.00148225
0.00117212
0.000859785
0.000587462
0.000381888
0.000250498
0.000171193
0.000122211
9.52638e-05
8.03356e-05
7.2197e-05
6.83429e-05
6.85914e-05
7.52485e-05
9.19585e-05
0.000121661
0.000164303
0.000216884
0.000275959
0.000340429
0.000408091
0.000474304
0.00053168
0.000580764
0.00065091
0.000758741
0.00055923
0.00882968
0.0147836
0.0124098
0.00945498
0.0073105
0.00576329
0.00466441
0.00391135
0.00341894
0.00308041
0.00279872
0.00250005
0.00214283
0.00172392
0.00127739
0.000873733
0.0005574
0.000335913
0.000227517
0.000169194
0.00013436
0.000113113
9.94882e-05
9.05282e-05
8.52404e-05
8.42846e-05
8.95527e-05
0.000103174
0.000126473
0.00015938
0.000200583
0.000247955
0.000298668
0.000349401
0.000398562
0.000449199
0.000508691
0.000585795
0.000685833
0.000697101
0.0029641
0.00726577
0.0065867
0.00596555
0.0055432
0.00517466
0.00472461
0.00418387
0.00358577
0.00294894
0.00229456
0.00165485
0.00105706
0.000660519
0.000452684
0.000347293
0.000295717
0.000265415
0.000243911
0.000226098
0.000210003
0.000195299
0.000182738
0.00017378
0.00017012
0.000173207
0.000184093
0.00020372
0.000233592
0.00027668
0.000338473
0.000428401
0.000554256
0.00070953
0.000843197
0.00088409
0.000746794
0.000805357
0.00186714
0.00564125
0.00588427
0.00524851
0.00513322
0.00498662
0.00461313
0.00405907
0.00340936
0.00275059
0.00212836
0.00159046
0.00117163
0.000902719
0.000758674
0.000688857
0.00065712
0.000637785
0.000620201
0.000600319
0.000577273
0.000551971
0.000526247
0.0005024
0.000482964
0.000470156
0.000465142
0.000467541
0.000475209
0.000484345
0.000495597
0.000518979
0.000551799
0.00058356
0.000591103
0.000510047
0.000656656
0.000826257
0.00134213
0.00168269
0.00196417
0.00265424
0.00275796
0.00275784
0.00267796
0.00246099
0.00219285
0.00195939
0.00174893
0.0015199
0.00127399
0.00104002
0.000844132
0.000704087
0.000615598
0.000563018
0.000531608
0.000511691
0.000497737
0.000487007
0.0004783
0.000471313
0.000466314
0.00046393
0.000464928
0.000469977
0.000479375
0.000492589
0.000507515
0.000522762
0.000533031
0.000540581
0.000539599
0.000512979
0.000440972
0.000371215
0.000366388
0.000602299
)
;

boundaryField
{
    floor
    {
        Cmu             0.09;
        kappa           0.41;
        E               9.8;
        type            epsilonWallFunction;
        value           nonuniform List<scalar> 
36
(
0.000665662
5.77319e-06
7.62435e-06
8.70946e-06
7.94255e-06
7.81675e-06
7.41904e-06
7.25205e-06
6.32956e-06
4.85516e-06
3.43918e-06
2.63689e-06
2.38262e-06
2.43792e-06
2.93935e-06
6.86294e-06
1.06243e-05
1.06781e-05
6.71795e-06
6.71795e-06
1.93512e-05
2.9851e-05
0.000100562
0.000235815
0.000230068
0.000185433
0.000665662
0.000759435
0.000400694
0.000130801
5.77319e-06
0.000130801
1.44281e-05
0.000464583
0.000204148
0.000807388
)
;
    }
    ceiling
    {
        Cmu             0.09;
        kappa           0.41;
        E               9.8;
        type            epsilonWallFunction;
        value           nonuniform List<scalar> 
43
(
0.00134213
0.00168269
0.00196417
0.00265424
0.00275796
0.00275784
0.00267796
0.00246099
0.00219285
0.00195939
0.00174893
0.0015199
0.00127399
0.00104002
0.000844132
0.000704087
0.000615598
0.000563018
0.000531608
0.000511691
0.000497737
0.000487007
0.0004783
0.000471313
0.000466314
0.00046393
0.000464928
0.000469977
0.000479375
0.000492589
0.000507515
0.000522762
0.000533031
0.000540581
0.000539599
0.000512979
0.000440972
0.000371215
0.000366388
0.000602299
0.00882968
0.0147836
0.00186714
)
;
    }
    sWall
    {
        Cmu             0.09;
        kappa           0.41;
        E               9.8;
        type            epsilonWallFunction;
        value           uniform 0.00134213;
    }
    nWall
    {
        Cmu             0.09;
        kappa           0.41;
        E               9.8;
        type            epsilonWallFunction;
        value           nonuniform List<scalar> 6(0.000185433 0.000384781 0.000557095 0.000805357 0.000826257 0.000602299);
    }
    sideWalls
    {
        type            empty;
    }
    glass1
    {
        Cmu             0.09;
        kappa           0.41;
        E               9.8;
        type            epsilonWallFunction;
        value           nonuniform List<scalar> 9(0.000293204 0.000785824 0.00150154 0.00255136 0.0040791 0.00628383 0.00893267 0.00954364 0.00882968);
    }
    glass2
    {
        Cmu             0.09;
        kappa           0.41;
        E               9.8;
        type            epsilonWallFunction;
        value           nonuniform List<scalar> 2(0.00055923 0.000697101);
    }
    sun
    {
        Cmu             0.09;
        kappa           0.41;
        E               9.8;
        type            epsilonWallFunction;
        value           nonuniform List<scalar> 
14
(
0.000293204
0.000375715
0.000393943
0.0004537
0.000513496
0.000572999
0.000633794
0.000698628
0.000766256
0.000820862
0.000852042
0.00084959
0.000809828
0.000742464
)
;
    }
    Table_master
    {
        Cmu             0.09;
        kappa           0.41;
        E               9.8;
        type            epsilonWallFunction;
        value           nonuniform List<scalar> 9(5.68995e-05 3.95969e-05 2.95026e-05 2.27386e-05 1.77308e-05 1.38769e-05 1.08756e-05 8.38679e-06 7.4552e-06);
    }
    Table_slave
    {
        Cmu             0.09;
        kappa           0.41;
        E               9.8;
        type            epsilonWallFunction;
        value           nonuniform List<scalar> 9(0.00012611 9.94084e-05 8.1588e-05 6.95261e-05 6.08939e-05 5.38097e-05 4.69478e-05 4.06352e-05 3.48226e-05);
    }
    inlet
    {
        type            turbulentMixingLengthDissipationRateInlet;
        mixingLength    0.01;
        phi             phi;
        k               k;
        value           uniform 0.000101881;
    }
    outlet
    {
        type            zeroGradient;
    }
}


// ************************************************************************* //
