/*--------------------------------*- C++ -*----------------------------------*\
  =========                 |
  \\      /  F ield         | OpenFOAM: The Open Source CFD Toolbox
   \\    /   O peration     | Website:  https://openfoam.org
    \\  /    A nd           | Version:  6
     \\/     M anipulation  |
\*---------------------------------------------------------------------------*/
FoamFile
{
    version     2.0;
    format      ascii;
    class       volScalarField;
    location    "2200";
    object      nut;
}
// * * * * * * * * * * * * * * * * * * * * * * * * * * * * * * * * * * * * * //

dimensions      [0 2 -1 0 0 0 0];

internalField   nonuniform List<scalar> 
458
(
0.000939344
0.00102029
0.00103654
0.00108651
0.00113229
0.00117444
0.00121459
0.00125467
0.00129392
0.00132395
0.00134049
0.0013392
0.00131795
0.00128033
0.00123454
0.000253607
0.000278262
0.000290902
0.000282091
0.000280595
0.000275754
0.000273672
0.000261556
0.000239455
0.000213465
0.000195351
0.00018884
0.000190299
0.000202575
0.000268785
0.000310963
0.000311492
0.000266854
0.00130476
0.00294049
0.00275048
0.00320406
0.003627
0.00406073
0.00447899
0.0048419
0.00512765
0.00538841
0.0055903
0.00567515
0.00554566
0.00499785
0.00355076
0.00129
0.00104233
0.000717545
0.000344153
0.000580551
0.000752573
0.000921923
0.00101038
0.000966627
0.000972171
0.00096016
0.00087649
0.000707612
0.000518059
0.000373842
0.000291785
0.000291365
0.000590258
0.00080991
0.00102306
0.000379583
0.00161904
0.00403924
0.00333208
0.00436434
0.004867
0.00524713
0.00553839
0.00576667
0.00596406
0.0061877
0.00642673
0.00665136
0.00681669
0.00686498
0.00670344
0.00609206
0.00504502
0.00109499
0.000832472
0.00101987
0.00108594
0.00112859
0.00113023
0.000543798
0.000481891
0.000436865
0.000400547
0.000368681
0.000339765
0.000313264
0.000287296
0.000276234
0.000764566
0.00104785
0.000844038
0.00043854
0.00193195
0.00536092
0.00329736
0.00466635
0.0052475
0.00548748
0.00558575
0.00564277
0.00573399
0.00591172
0.00616182
0.00646451
0.006783
0.00706762
0.00727082
0.00723252
0.00673511
0.00517953
0.00131665
0.00150055
0.00169924
0.00177456
0.00176306
0.00165751
0.000709037
0.000654969
0.000613231
0.000581405
0.000556312
0.000533902
0.000510208
0.000486272
0.000461914
0.000643534
0.00104532
0.00143144
0.000657194
0.00225903
0.00713126
0.00378524
0.00438604
0.00523663
0.00547973
0.00547202
0.00538404
0.00540653
0.00557669
0.00583447
0.00617697
0.00655944
0.00690177
0.00713827
0.00718043
0.0069448
0.00632492
0.00506133
0.00446768
0.00406515
0.0037205
0.00339118
0.00312814
0.00278929
0.00267296
0.00261029
0.00257409
0.00254436
0.00248924
0.00236726
0.00212995
0.00184377
0.00170914
0.00177515
0.0019223
0.00179177
0.000872855
0.00086582
0.000805867
0.00260898
0.00909138
0.00571068
0.00437869
0.00478975
0.00518533
0.00537495
0.00525672
0.00532145
0.00548494
0.00573018
0.00607072
0.00646622
0.0068241
0.00704296
0.00705123
0.00684093
0.00646072
0.00595667
0.00550836
0.00510815
0.00475598
0.00445697
0.00424306
0.00409443
0.00401907
0.00396414
0.00388795
0.00376407
0.00359724
0.00341182
0.00324851
0.00315591
0.00316589
0.0032533
0.00335035
0.00340259
0.00329613
0.0029895
0.001028
0.00293348
0.0105478
0.00855014
0.00633125
0.00564121
0.0055189
0.00561337
0.00558834
0.00556197
0.00562059
0.00582546
0.00617667
0.0066
0.00697087
0.00716682
0.00712436
0.00687198
0.00651242
0.00614897
0.00582805
0.00553327
0.00527434
0.00504848
0.00488046
0.00475138
0.00462979
0.00447269
0.00425669
0.00400404
0.00384815
0.00382675
0.00390601
0.00405489
0.00423545
0.00440038
0.00449341
0.00441751
0.00411875
0.00366164
0.00116322
0.00299888
0.00960038
0.00859786
0.00810743
0.00754686
0.00704254
0.00654077
0.0060724
0.00580165
0.00580264
0.00606529
0.00650685
0.00699081
0.00736087
0.0074943
0.00735826
0.00702351
0.00662514
0.00626961
0.00596918
0.00567646
0.00538174
0.00513205
0.00493006
0.00473762
0.00450234
0.00420153
0.00390235
0.00371257
0.00365287
0.00364734
0.00362493
0.0035536
0.0034249
0.00323545
0.002981
0.00268462
0.00243375
0.0022656
0.00116479
0.00292214
0.00346983
0.00388569
0.00404868
0.00422293
0.00432885
0.00447824
0.00475543
0.00521785
0.00583975
0.00654264
0.00721403
0.00772891
0.00797646
0.00790269
0.00756048
0.00709166
0.00663438
0.00611822
0.00560775
0.00516449
0.00481448
0.00455693
0.00436669
0.0042076
0.00405277
0.00390121
0.00378017
0.0037117
0.00367414
0.00361028
0.00346773
0.00322564
0.00290446
0.00255608
0.00223563
0.00197489
0.00178034
0.00163135
0.00125335
0.00142961
0.00378201
0.00475082
0.00544199
0.00617768
0.00692588
0.00758084
0.00810824
0.00849154
0.00869876
0.00869098
0.0084326
0.00793295
0.00723767
0.00648256
0.00579033
0.00523668
0.00481258
0.00449805
0.00426894
0.00410224
0.00398101
0.00389722
0.00385118
0.00384558
0.00387733
0.00393278
0.00398937
0.00402289
0.00401725
0.00397413
0.00392395
0.00389489
0.00386617
0.00374239
0.00346156
0.00333108
0.0013153
0.00174079
0.00520606
0.00673361
0.00710948
0.00763961
0.0082005
0.00855772
0.00869783
0.00867817
0.0084652
0.00806335
0.00748553
0.00677939
0.00607189
0.00547368
0.00504134
0.00476321
0.00458195
0.00445378
0.00435365
0.00426945
0.00419768
0.0041405
0.00410341
0.00409264
0.00411162
0.00415748
0.00421952
0.0042798
0.00431471
0.00431098
0.00426926
0.00420521
0.00409988
0.00390001
0.00332667
0.00296404
0.00132665
0.00155952
0.00168163
0.00177062
0.00195762
0.00198283
0.00198285
0.00196361
0.00190918
0.0018372
0.00176951
0.00170364
0.00162563
0.00153266
0.00143237
0.0013361
0.00125771
0.00120265
0.00116739
0.00114526
0.00113078
0.00112041
0.00111231
0.00110564
0.00110024
0.00109634
0.00109448
0.00109527
0.00109923
0.00110651
0.00111658
0.00112775
0.00113894
0.00114637
0.00115177
0.0011511
0.00113188
0.00107616
0.00101609
0.00101164
0.00119392
)
;

boundaryField
{
    floor
    {
        type            nutkWallFunction;
        Cmu             0.09;
        kappa           0.41;
        E               9.8;
        value           nonuniform List<scalar> 
36
(
0.000147996
2.69629e-05
3.03801e-05
3.21151e-05
3.09068e-05
3.0701e-05
3.00338e-05
2.97463e-05
2.80661e-05
2.49746e-05
2.12914e-05
1.86918e-05
1.77502e-05
1.7961e-05
1.97312e-05
2.90622e-05
3.48409e-05
3.49128e-05
2.8799e-05
2.87989e-05
4.40521e-05
5.17856e-05
7.94719e-05
0.000105705
0.000104853
9.76345e-05
0.000147996
0.000154352
0.000125702
8.68813e-05
2.69628e-05
8.68813e-05
3.93331e-05
0.000131857
0.000100808
0.000157393
)
;
    }
    ceiling
    {
        type            nutkWallFunction;
        Cmu             0.09;
        kappa           0.41;
        E               9.8;
        value           nonuniform List<scalar> 
43
(
0.000184739
0.000198336
0.000208179
0.000228772
0.000231545
0.000231558
0.000229464
0.000223514
0.000215619
0.000208167
0.00020089
0.000192231
0.000181843
0.000170554
0.000159631
0.000150669
0.000144338
0.000140266
0.000137704
0.000136024
0.000134819
0.000133877
0.000133101
0.000132471
0.000132017
0.000131799
0.000131891
0.000132351
0.000133199
0.00013437
0.000135668
0.000136966
0.000137826
0.00013845
0.00013837
0.000136139
0.000129659
0.000122627
0.000122107
0.000143335
0.000332061
0.00038894
0.000204755
)
;
    }
    sWall
    {
        type            nutkWallFunction;
        Cmu             0.09;
        kappa           0.41;
        E               9.8;
        value           uniform 0.000184788;
    }
    nWall
    {
        type            nutkWallFunction;
        Cmu             0.09;
        kappa           0.41;
        E               9.8;
        value           nonuniform List<scalar> 6(9.76349e-05 0.000124056 0.000139793 0.000157275 0.000158565 0.000143344);
    }
    sideWalls
    {
        type            empty;
    }
    glass1
    {
        type            nutkWallFunction;
        Cmu             0.09;
        kappa           0.41;
        E               9.8;
        value           nonuniform List<scalar> 9(0.00011361 0.000156199 0.000191737 0.000226365 0.000261917 0.000299354 0.000333599 0.00034046 0.000332432);
    }
    glass2
    {
        type            nutkWallFunction;
        Cmu             0.09;
        kappa           0.41;
        E               9.8;
        value           nonuniform List<scalar> 2(0.000139993 0.000150223);
    }
    sun
    {
        type            nutkWallFunction;
        Cmu             0.09;
        kappa           0.41;
        E               9.8;
        value           nonuniform List<scalar> 
14
(
0.000113561
0.00012311
0.000125016
0.000130857
0.000136182
0.000141064
0.000145695
0.000150301
0.000154796
0.000158225
0.000160111
0.000159964
0.000157543
0.000153245
)
;
    }
    Table_master
    {
        type            nutkWallFunction;
        Cmu             0.09;
        kappa           0.41;
        E               9.8;
        value           nonuniform List<scalar> 9(6.52669e-05 5.73774e-05 5.15601e-05 4.68125e-05 4.26015e-05 3.87402e-05 3.51639e-05 3.16196e-05 3.01007e-05);
    }
    Table_slave
    {
        type            nutkWallFunction;
        Cmu             0.09;
        kappa           0.41;
        E               9.8;
        value           nonuniform List<scalar> 9(8.58237e-05 7.91679e-05 7.39837e-05 7.00006e-05 6.6839e-05 6.39987e-05 6.09819e-05 5.79167e-05 5.47793e-05);
    }
    inlet
    {
        type            calculated;
        value           uniform 0.000100623;
    }
    outlet
    {
        type            calculated;
        value           nonuniform List<scalar> 2(0.00155952 0.00168163);
    }
}


// ************************************************************************* //
