/*--------------------------------*- C++ -*----------------------------------*=========                 |
  \      /  F ield         | OpenFOAM: The Open Source CFD Toolbox
   \    /   O peration     | Website:  https://openfoam.org
    \  /    A nd           | Version:  6
     \/     M anipulation  |
\*---------------------------------------------------------------------------*/
FoamFile
{
    version     2.0;
    format      ascii;
    class       volScalarField;
    location    "2200";
    object      PPD;
}
// * * * * * * * * * * * * * * * * * * * * * * * * * * * * * * * * * * * * * //

dimensions      [0 0 0 0 0 0 0];

internalField   nonuniform List<scalar> 
458
(
90.16214486729
85.32565628380132
84.80803088248659
84.32297174932081
83.94656464951376
83.66176666922901
83.44467818680428
83.32274729788656
83.31173217146763
83.36385683448205
83.52196640688477
83.83456478533805
84.36916540906692
85.06659488476949
85.34602996285481
75.1699415126469
75.0584405949898
74.9690815078246
74.43000170139992
74.20392311943891
73.99972750177747
73.79485164585954
73.42896801147373
72.99176457091068
72.66776099788477
72.48192080811236
72.43538248003267
72.45865554435633
72.29558079713507
71.45099254287143
70.7160087261979
69.95016152773157
69.46795719660523
90.73099502167926
85.97225390106739
85.75654877355097
85.36952402363619
85.10873952718526
84.91434413614458
84.76256415546482
84.66015405924134
84.58380388491103
84.51692575254451
84.43330206258355
84.39761120465009
84.49242173093683
84.72181894567717
85.02231429390201
86.13282016209197
86.61265228807788
86.68700237554482
74.83104471925566
78.96759267280399
80.10484606786582
80.2646548889443
79.98454957992905
79.56056197675872
78.94699262792408
78.11475903085619
77.22394722852046
76.57729521169358
76.22896417532787
76.07582546742516
75.85627766677266
75.0584405949898
73.58930188009936
71.92142019430591
70.66835299543037
68.47895272048692
92.37111062227083
86.30170031152637
86.57796991459264
86.40674588774903
86.3833936986727
86.38237562534876
86.37862994000332
86.37057167102942
86.30733764031544
86.08423466664838
85.69414680849995
85.21919695584168
84.79888649773416
84.63151870346684
84.87955648420528
85.87352295382644
86.32348058827193
86.53270815075021
82.95717252783726
84.63480936302095
84.86616737995516
84.47723552697155
84.0242363057135
83.60554110642465
83.20665788950707
82.75999821909257
82.34534552497395
81.97752949950352
81.53790877586997
80.97542578201234
80.04474485820691
78.2406101810061
75.94420624651595
72.71414239891796
71.73360912013035
67.4467881044913
94.11659722064671
86.74591775788957
87.21968617084414
87.32314642089278
87.65184856138151
87.95141397321144
88.20663961497485
88.38331012582394
88.35015947572337
87.92167179800016
87.06314209359809
85.96979563691905
84.96842525906622
84.38691408966876
84.42807065482799
85.14962092285894
85.96612277522028
86.01856018563979
85.3964910227852
85.14843888531455
85.5136057598014
85.66298915450787
85.46960997183166
85.03150152198562
85.0325986003236
85.21103587059463
85.35864763257692
85.45891680255971
85.54159144503863
85.62121478996596
85.72395542748137
85.94480844972247
86.20888879309547
84.48441211241446
81.86879618928961
80.00197086445249
79.51994420078614
95.62875155356443
87.58218333335222
87.86697123256313
88.12098209569653
88.75734632978163
89.43613134010118
90.08649095221588
90.5845987065024
90.37189680934932
89.39410250261614
87.92736607980146
86.21329711187778
84.74044507799546
83.89075491176959
83.76590604234337
84.25130587026824
84.93316787072634
85.35474562076169
85.47714674339049
85.66715823461985
86.01454800552919
86.26970567415177
86.29658026554665
86.22586751676026
86.29432665721676
86.44429615156413
86.62384498249116
86.81055553777716
87.0086185265653
87.20673144601611
87.38499645698136
87.47914589367466
87.34383963741459
86.55969205808901
85.10389261467154
83.3443836916416
82.05004399321244
81.73175645111922
81.82294293728349
82.56595106518161
96.7558348157305
88.90965217899429
89.09797543980578
89.09246681194664
89.69690291767911
90.60176841274445
91.15373952163993
91.59626404123779
90.81004311456108
89.47156571125873
87.70436987560306
85.76930829946853
84.122548007908
83.15351996810507
83.03679028403273
83.60024194201998
84.47012706692075
85.29100006319533
85.90333373492173
86.40725025806317
86.8922049152398
87.24585729608953
87.41128948369202
87.47263210128823
87.57952766525668
87.73123295695639
87.9266857918513
88.16450494557157
88.4284397229011
88.68855117462604
88.9023916732412
89.0294230451241
89.00127632117584
88.45721580897688
87.62048483532143
86.62916964417614
85.789726514705
85.40994334126239
84.5223752646002
83.33586478841973
97.57906773889195
91.1758779642121
92.03064526514945
91.1706658888318
90.86587843532152
90.94467610710358
91.07774864766394
90.85563795987848
90.01364476380445
88.51012393155224
86.46871789516463
84.36523316048168
82.75957115431386
82.0435520832529
82.31615561022137
83.29419109105156
84.60245914279932
85.86890514495565
86.90189843961672
87.33434594395008
87.625163125413
87.83672461790532
87.9715070465764
88.09051105416384
88.23820375002325
88.45752977242765
88.71721652251368
89.00127632117584
89.30830010161509
89.52801441930295
89.62319387854657
89.62319387854657
89.51437039338771
89.30830010161509
89.0294230451241
88.71721652251368
88.38471614257539
87.64239027468584
85.86744431459223
83.0796226357705
98.51202079995132
95.85987680373154
95.06088725842326
93.80565593734968
92.95614953546115
92.31894447583163
91.61227439465829
90.46010751724722
88.65034730836952
86.22046266168171
83.62950526681452
81.54995221560924
80.52428103127338
80.72833464830518
81.93885264276794
83.72743221292197
85.63724900076998
86.96091676123865
87.5947512814901
88.01622207443918
88.32625281405663
88.50107634626153
88.63107894808289
88.78867352559318
88.98718528932413
89.22513127677087
89.48704710904725
89.74472270753486
89.91858845825278
89.83284467553467
89.48403876486128
89.06993709004648
88.60905239523346
88.09263076036035
87.51777144861558
86.90624424164459
86.28686258245347
85.68034859427046
84.68852093951291
82.30154121740539
100.0
98.6525763817181
97.38399669578804
95.5242252191749
93.51009375908856
91.51083486535862
89.4371239087445
86.4841816981843
82.73465767693088
79.2704949441821
77.09708135686509
76.7009332988629
77.92691278835605
80.20103926855828
83.0256085147699
85.73375592444896
86.97661172109693
87.94163801286567
88.50107634626153
88.83140624080264
89.04347873876517
89.19731421383577
89.33592894831936
89.50071462370235
89.67732397100117
89.87864124765396
89.98511303156265
90.00504400950283
89.94147574840167
89.82174595329528
89.65849048087894
89.5146759283393
89.40958175976475
89.31592441713633
89.20216133841134
89.00189335267342
88.76574545231516
88.54706715409614
88.27914915632769
87.83216236190736
87.81521465925334
6.916518331557555
8.76518331376161
20.167144120443254
30.322944974304946
39.79472865008375
49.36402359179315
58.56787583216942
66.85179977561563
73.84056953252347
79.57492832659037
83.24314545631165
85.71715862326138
87.38054743324338
88.34563833027407
88.6245752896258
88.85431577878582
89.04242903478556
89.19889930755949
89.34599194040119
89.50148641582598
89.65933650891782
89.80250511866747
89.9432674118078
90.06885788858946
90.15328461258389
90.20641384990601
90.23449305221341
90.25616819914259
90.3062309049286
90.39594114443176
90.53609037345076
90.68159423298938
90.82350066200475
90.95191537733035
91.14212507156694
90.83617532167918
89.81299172918989
46.36974520626529
5.2647830542478005
16.742854473706316
33.43017787477751
46.16349661651489
56.22696532791937
64.5903981684364
71.52174721163824
77.26675354873635
81.42227814488776
84.08111713722121
85.64317906231567
86.82056937783838
87.60238008976663
88.10660834815491
88.43525659188224
88.67105499684062
88.83968563118401
89.01246107527507
89.15872228262923
89.32160580658174
89.48731248234051
89.6575076617115
89.83490564016941
90.02244606769524
90.21014223036012
90.41548146280643
90.64613622354287
90.75832952541309
90.80840242671907
90.89558477315722
91.03144247574433
91.1902043327647
91.27740100018406
90.738933042795
90.20495079916195
89.63824687991824
90.25729937444243
5.740291107004168
5.169114135852226
5.721227614404825
31.80361179595056
46.31994366151267
56.084267983215476
64.1434900943875
70.7718672188162
75.74886799180896
79.22504204087005
81.71996374514168
83.51645133175455
84.84082573083167
85.75871075077933
86.39510597624675
86.79446195338969
87.05780647368329
87.22796876082072
87.37604166384862
87.48536052985462
87.60517461799392
87.7169007795643
87.80285072015896
87.91236262356882
87.99507628686077
88.06716241184367
88.14382294151562
88.19015655431218
88.23529675135305
88.25803388093254
88.26983700102376
88.32319828757564
88.39158249351046
88.48142371127723
88.56842812279152
88.60968965914981
88.54149008867675
88.75353238913625
88.93399832400804
88.35513516752071
)
;

boundaryField
{
    ".*"
    {
        type            zeroGradient;
    }
}


// ************************************************************************* //
