/*--------------------------------*- C++ -*----------------------------------*\
  =========                 |
  \\      /  F ield         | OpenFOAM: The Open Source CFD Toolbox
   \\    /   O peration     | Website:  https://openfoam.org
    \\  /    A nd           | Version:  6
     \\/     M anipulation  |
\*---------------------------------------------------------------------------*/
FoamFile
{
    version     2.0;
    format      ascii;
    class       volScalarField;
    location    "1700";
    object      alphat;
}
// * * * * * * * * * * * * * * * * * * * * * * * * * * * * * * * * * * * * * //

dimensions      [1 -1 -1 0 0 0 0];

internalField   nonuniform List<scalar> 
458
(
0.00138298
0.00151774
0.00157375
0.00165254
0.00172502
0.00179547
0.00186945
0.00194193
0.00200589
0.0020517
0.00206626
0.00201424
0.00181426
0.00157141
0.00135494
0.000625024
0.000733197
0.000848688
0.000906087
0.000902434
0.000853805
0.00079754
0.000746296
0.000701275
0.000661699
0.000626767
0.00059582
0.000568035
0.000542291
0.000517307
0.00049119
0.000466109
0.000421643
0.00177833
0.00392362
0.00359067
0.00403334
0.00450216
0.00497005
0.0053342
0.0056838
0.00606044
0.00641736
0.0067312
0.00701385
0.00699112
0.00590691
0.00376187
0.00157103
0.00137169
0.00114992
0.00060141
0.00153022
0.00235225
0.0029721
0.00314079
0.00224318
0.00189604
0.0016686
0.00150349
0.00137793
0.00127882
0.00119334
0.00110827
0.00101609
0.000928607
0.000854386
0.000943553
0.000498644
0.00210019
0.00520647
0.00432556
0.00484677
0.00504516
0.00517542
0.00529217
0.0054786
0.00575618
0.00611285
0.00657344
0.00716838
0.00776866
0.00751906
0.00621272
0.00438704
0.00321292
0.00125167
0.000831351
0.00165588
0.00261778
0.00351614
0.003705
0.00111383
0.000979602
0.000866404
0.000774051
0.000699199
0.00063838
0.000589045
0.00054996
0.000521394
0.000590856
0.000701433
0.00108059
0.000555909
0.00239846
0.00637288
0.00428758
0.00491655
0.00481844
0.00466773
0.00463238
0.00475788
0.00500586
0.00538292
0.00592577
0.00661734
0.00733186
0.00746945
0.00698346
0.00584174
0.00451224
0.00245448
0.0013142
0.00173939
0.00261133
0.00372755
0.00467274
0.00471642
0.00124302
0.00114128
0.00107001
0.00101558
0.000968026
0.00092303
0.000878975
0.000831588
0.000775788
0.000720187
0.000720797
0.00119731
0.000618388
0.00269443
0.00793748
0.00425236
0.00477566
0.00455953
0.00425408
0.00416177
0.00430827
0.00457202
0.00497705
0.00555638
0.00622582
0.00680403
0.0069558
0.00679655
0.00629873
0.00544146
0.00422275
0.00402647
0.00456991
0.00535421
0.00613095
0.00663081
0.00664824
0.00567857
0.00517373
0.00490277
0.0047069
0.004494
0.00416314
0.00368549
0.00309043
0.00242567
0.00179718
0.00134482
0.00127217
0.000978103
0.000749942
0.000800405
0.000800364
0.00301066
0.00983298
0.00521292
0.00454604
0.00446911
0.00410849
0.00394286
0.00412794
0.00441322
0.0048371
0.0054227
0.00602599
0.00641066
0.00643943
0.00638184
0.00636306
0.00620135
0.00594526
0.00634563
0.00714011
0.00777227
0.00809996
0.00810002
0.00782026
0.0073342
0.00694295
0.00663908
0.00635406
0.00604828
0.00568439
0.00518639
0.00454809
0.00378399
0.00296487
0.00226147
0.00173297
0.00134157
0.00142619
0.00206973
0.00104354
0.00334425
0.0113192
0.0075418
0.00488001
0.00416422
0.00407329
0.00401448
0.00419425
0.00446847
0.00487246
0.00540694
0.00593328
0.00618632
0.00610089
0.00624766
0.00683686
0.00725166
0.00763331
0.0083259
0.00891689
0.00911473
0.008961
0.00854759
0.00798744
0.00740001
0.00692834
0.00655765
0.00623129
0.0059224
0.00562367
0.0053322
0.00495432
0.00441793
0.00374362
0.00308189
0.00249957
0.00205626
0.0019647
0.00242568
0.00130947
0.00344188
0.0105364
0.00881295
0.00693268
0.00541153
0.00476347
0.00458189
0.00451487
0.00467002
0.00501518
0.00548975
0.00592574
0.00604924
0.00594382
0.00669275
0.00767051
0.00820841
0.00867403
0.00913971
0.0093098
0.00906685
0.00851043
0.00777084
0.00698918
0.0063135
0.00582711
0.0054828
0.00521593
0.00500093
0.00483831
0.00473738
0.00468797
0.00456814
0.00418797
0.00384548
0.00364398
0.00368864
0.00383293
0.00464415
0.00174896
0.00339929
0.00415944
0.00499259
0.00528335
0.00512039
0.0049069
0.00474688
0.00469832
0.00487756
0.00519997
0.00560629
0.00591056
0.00585925
0.00608133
0.00712206
0.0079004
0.00824646
0.00845973
0.00850065
0.00823926
0.00764577
0.00683198
0.00596302
0.00521232
0.00467772
0.00433391
0.00410179
0.00392595
0.00377981
0.00364872
0.00352024
0.00338188
0.00324916
0.00313391
0.00304778
0.00298964
0.00290604
0.00275409
0.00258034
0.00167626
0.0013688
0.00246172
0.00324011
0.00370785
0.00409534
0.00464077
0.00509005
0.00538255
0.0056536
0.00566268
0.00554249
0.00593972
0.00677981
0.00705003
0.0070491
0.00689312
0.00653573
0.00595384
0.00522423
0.00446969
0.00384474
0.00342645
0.00318179
0.00304271
0.00295851
0.00290257
0.00286245
0.0028329
0.00281355
0.00281388
0.00282343
0.00282807
0.00281627
0.00275858
0.00260796
0.00234057
0.001999
0.00132767
0.00257775
0.00456463
0.00494508
0.00563322
0.00648954
0.00628137
0.00562569
0.00517435
0.00504452
0.00443029
0.0043662
0.00472912
0.00484002
0.00471292
0.00446768
0.00410752
0.00363544
0.0031165
0.00265985
0.00234357
0.00216236
0.00208136
0.00206765
0.00209499
0.00214927
0.00222294
0.00231059
0.00240615
0.00250241
0.00260808
0.00271717
0.00282206
0.00290513
0.00293386
0.00288076
0.00278133
0.00246083
0.00134188
0.00333971
0.00334098
0.00336568
0.00392137
0.00354538
0.00316753
0.00252994
0.00183212
0.00151335
0.00129173
0.00111199
0.000975343
0.000897752
0.000841445
0.000803705
0.000773527
0.000745369
0.00071782
0.000693818
0.000678866
0.000676613
0.000686641
0.00070633
0.000732255
0.000762449
0.000796326
0.000833721
0.000874795
0.000920083
0.000970681
0.00102835
0.00109143
0.00116019
0.00123504
0.00131609
0.00140457
0.00146865
0.00143925
0.00132199
0.0012128
)
;

boundaryField
{
    floor
    {
        type            compressible::alphatWallFunction;
        Prt             0.85;
        value           nonuniform List<scalar> 
36
(
0.000191318
8.80821e-05
0.000104033
0.000120755
0.000128965
0.000128445
0.000121493
0.000113389
0.000105949
9.93616e-05
9.35289e-05
8.83454e-05
8.37236e-05
7.95491e-05
7.56586e-05
7.1861e-05
6.78667e-05
6.40057e-05
5.70948e-05
5.7094e-05
6.90097e-05
7.77202e-05
8.70988e-05
0.000106486
0.00011381
0.000113808
0.000191316
0.000220463
0.000193599
0.000163185
8.80811e-05
0.000163183
8.45558e-05
0.000177215
0.000118258
0.000185778
)
;
    }
    ceiling
    {
        type            compressible::alphatWallFunction;
        Prt             0.85;
        value           nonuniform List<scalar> 
43
(
0.000446468
0.000446624
0.000449671
0.000517695
0.000471843
0.000425256
0.000345281
0.000255227
0.000212899
0.000182883
0.000158102
0.00013895
0.000127936
0.000119874
0.000114434
0.000110062
0.000105964
0.000101936
9.84109e-05
9.62062e-05
9.58719e-05
9.73485e-05
0.000100242
0.000104038
0.00010844
0.000113353
0.000118748
0.000124641
0.000131101
0.000138274
0.000146397
0.000155221
0.000164774
0.000175098
0.000186199
0.000198229
0.000206888
0.000202921
0.000187005
0.000172043
0.000454107
0.000546737
0.000351154
)
;
    }
    sWall
    {
        type            compressible::alphatWallFunction;
        Prt             0.85;
        value           uniform 0.000445188;
    }
    nWall
    {
        type            compressible::alphatWallFunction;
        Prt             0.85;
        value           nonuniform List<scalar> 6(0.000113597 0.000148172 0.000184928 0.000187445 0.000189378 0.000171705);
    }
    sideWalls
    {
        type            empty;
    }
    glass1
    {
        type            compressible::alphatWallFunction;
        Prt             0.85;
        value           nonuniform List<scalar> 9(0.00019005 0.000242165 0.000283763 0.000321778 0.000359065 0.000398471 0.000439602 0.000451697 0.000446732);
    }
    glass2
    {
        type            compressible::alphatWallFunction;
        Prt             0.85;
        value           nonuniform List<scalar> 2(0.000242345 0.000232837);
    }
    sun
    {
        type            compressible::alphatWallFunction;
        Prt             0.85;
        value           nonuniform List<scalar> 
14
(
0.000195129
0.000213303
0.000220807
0.000231317
0.000240937
0.000250243
0.000259975
0.000269467
0.000277812
0.000283772
0.000285666
0.000278908
0.000252732
0.000220509
)
;
    }
    Table_master
    {
        type            compressible::alphatWallFunction;
        Prt             0.85;
        value           nonuniform List<scalar> 9(0.000158351 0.000139544 0.000123448 0.000110132 9.91991e-05 9.02115e-05 8.28439e-05 7.69528e-05 7.26144e-05);
    }
    Table_slave
    {
        type            compressible::alphatWallFunction;
        Prt             0.85;
        value           nonuniform List<scalar> 9(0.000176212 0.000162168 0.000152246 0.000144615 0.000137911 0.000131531 0.000125249 0.000118451 0.000110385);
    }
    inlet
    {
        type            fixedValue;
        value           uniform 1.94e-05;
    }
    outlet
    {
        type            zeroGradient;
    }
}


// ************************************************************************* //
