/*--------------------------------*- C++ -*----------------------------------*\
  =========                 |
  \\      /  F ield         | OpenFOAM: The Open Source CFD Toolbox
   \\    /   O peration     | Website:  https://openfoam.org
    \\  /    A nd           | Version:  6
     \\/     M anipulation  |
\*---------------------------------------------------------------------------*/
FoamFile
{
    version     2.0;
    format      ascii;
    class       volScalarField;
    location    "1700";
    object      nut;
}
// * * * * * * * * * * * * * * * * * * * * * * * * * * * * * * * * * * * * * //

dimensions      [0 2 -1 0 0 0 0];

internalField   nonuniform List<scalar> 
458
(
0.00118638
0.00130079
0.00134873
0.00141624
0.00147836
0.00153872
0.00160212
0.00166424
0.00171908
0.00175842
0.00177109
0.00172692
0.00155579
0.00134763
0.00116208
0.000536842
0.000629681
0.000728834
0.000778182
0.00077509
0.000733355
0.000685055
0.000641063
0.000602413
0.000568437
0.000538449
0.000511882
0.000488031
0.00046593
0.000444483
0.000422063
0.000400536
0.00036237
0.00152639
0.00336279
0.00307708
0.00345633
0.003858
0.00425889
0.00457088
0.00487041
0.00519316
0.00549926
0.00576913
0.00601329
0.00599621
0.00506678
0.00322678
0.00134762
0.00117669
0.000986524
0.000516592
0.00131401
0.00201989
0.0025524
0.00269753
0.00192669
0.00162858
0.00143327
0.00129148
0.00118367
0.00109857
0.00102517
0.000952118
0.000872957
0.000797831
0.000734102
0.000810777
0.000428542
0.00180378
0.00446261
0.00370687
0.00415339
0.00432332
0.00443488
0.00453486
0.00469447
0.00493205
0.00523759
0.00563326
0.00614574
0.00666412
0.00645137
0.00533041
0.00376395
0.00275655
0.00107389
0.000713937
0.0014218
0.00224783
0.00301971
0.00318244
0.000956745
0.00084147
0.000744252
0.000664939
0.000600655
0.000548425
0.000506059
0.000472495
0.000447967
0.00050767
0.000602706
0.000928553
0.000477768
0.00206132
0.00546312
0.00367449
0.00421342
0.0041294
0.00400031
0.00397002
0.00407736
0.00428916
0.00461163
0.00507752
0.00567307
0.00629014
0.00641052
0.00599368
0.00501341
0.00387209
0.00210611
0.00112773
0.0014928
0.00224167
0.00320081
0.00401363
0.00405216
0.00106816
0.000980861
0.000919709
0.000872998
0.000832185
0.000793553
0.000755719
0.00071501
0.000667057
0.000619134
0.000619548
0.00102901
0.000531493
0.00231727
0.00680576
0.00364458
0.00409302
0.00390804
0.00364656
0.00356765
0.00369296
0.00391778
0.00426358
0.0047604
0.00533711
0.00583779
0.0059712
0.00583528
0.00540736
0.00467081
0.00362436
0.00345609
0.00392326
0.00459787
0.0052666
0.00569778
0.00571429
0.0048819
0.00444858
0.00421608
0.00404801
0.00386516
0.00358073
0.00316994
0.0026581
0.00208626
0.00154551
0.00115625
0.00109358
0.000840727
0.000644645
0.000688079
0.00068819
0.00259096
0.00843354
0.00446848
0.00389654
0.00383094
0.00352241
0.00338103
0.00353945
0.00378215
0.00414352
0.00464547
0.00516562
0.00550063
0.00552933
0.00548126
0.00546476
0.00532515
0.00510489
0.00544922
0.00613295
0.00667798
0.00696174
0.0069638
0.0067249
0.00630807
0.00597233
0.00571146
0.0054666
0.00520373
0.00489071
0.00446215
0.00391283
0.00325524
0.00255026
0.00194487
0.00149005
0.00115336
0.00122612
0.00177946
0.000897345
0.00287972
0.00971337
0.00646728
0.00418386
0.00357015
0.00349267
0.00344327
0.00359693
0.00382965
0.0041737
0.00463178
0.00508615
0.00530879
0.00524026
0.00536829
0.00587446
0.00623018
0.00655801
0.00715419
0.007664
0.00783625
0.00770616
0.00735234
0.00687175
0.00636718
0.00596182
0.00564312
0.00536241
0.00509663
0.0048395
0.00458851
0.00426308
0.00380123
0.00322069
0.00265099
0.00214971
0.00176821
0.00168941
0.00208582
0.0011261
0.00296627
0.00905712
0.00756888
0.00595014
0.00464295
0.00408673
0.00393142
0.00387202
0.00400174
0.00429529
0.00470258
0.00508024
0.00519261
0.00510762
0.00575347
0.00659418
0.00705632
0.00745697
0.00785872
0.00800683
0.00779961
0.00732236
0.006687
0.00601496
0.0054338
0.00501532
0.00471901
0.00448927
0.00430415
0.00416406
0.00407703
0.0040343
0.00393091
0.00360342
0.00330836
0.00313462
0.00317274
0.0032968
0.00399455
0.00150487
0.00293306
0.00358462
0.0042987
0.00454434
0.00440062
0.00421518
0.00407478
0.00402764
0.00417696
0.00445194
0.0048026
0.00506893
0.00503244
0.00522903
0.00612554
0.00679537
0.00709324
0.00727732
0.00731359
0.00708982
0.00658002
0.00588028
0.00513271
0.00448669
0.00402653
0.00373054
0.00353066
0.0033792
0.00325329
0.00314034
0.00302964
0.00291045
0.00279614
0.00269689
0.00262275
0.00257278
0.002501
0.00237044
0.00222106
0.00144316
0.00116004
0.00209456
0.00276365
0.003166
0.00349755
0.00396456
0.00435129
0.00460637
0.00484557
0.00486062
0.00476588
0.0051103
0.00583395
0.00606681
0.00606634
0.00593257
0.0056255
0.00512507
0.00449727
0.00384785
0.00330986
0.00294974
0.00273906
0.00261926
0.00254671
0.00249848
0.00246388
0.00243838
0.00242167
0.00242191
0.00243009
0.00243408
0.00242396
0.0023744
0.00224491
0.00201494
0.0017211
0.0011433
0.0021852
0.00388399
0.00421551
0.00480656
0.00554052
0.00536957
0.00481689
0.00443757
0.00433532
0.00381117
0.00375771
0.00407064
0.00416636
0.00405714
0.00384619
0.00353628
0.00312997
0.00268323
0.00229008
0.00201775
0.0018617
0.00179192
0.00178008
0.00180357
0.00185026
0.00191364
0.00198905
0.00207126
0.00215409
0.00224502
0.00233889
0.00242917
0.00250069
0.00252549
0.0024799
0.00239447
0.0021187
0.00115548
0.00284015
0.00284107
0.00286204
0.00334214
0.00302558
0.00270652
0.00216666
0.00157359
0.00130153
0.00111163
0.000957264
0.000839746
0.000772986
0.00072453
0.00069205
0.000666075
0.000641834
0.000618115
0.000597446
0.000584565
0.000582616
0.00059124
0.00060818
0.000630488
0.000656471
0.000685624
0.000717805
0.000753153
0.000792127
0.000835672
0.000885308
0.000939593
0.000998778
0.0010632
0.00113297
0.00120914
0.00126434
0.00123908
0.00113816
0.00104432
)
;

boundaryField
{
    floor
    {
        type            nutkWallFunction;
        Cmu             0.09;
        kappa           0.41;
        E               9.8;
        value           nonuniform List<scalar> 
36
(
0.000139615
6.44058e-05
7.60494e-05
8.82576e-05
9.42587e-05
9.38841e-05
8.88097e-05
8.28938e-05
7.7462e-05
7.26526e-05
6.83938e-05
6.46089e-05
6.1234e-05
5.81856e-05
5.53444e-05
5.2571e-05
4.96535e-05
4.68337e-05
4.17857e-05
4.17856e-05
5.04967e-05
5.68653e-05
6.37236e-05
7.79015e-05
8.32609e-05
8.32745e-05
0.000139615
0.00016089
0.000141305
0.000119132
6.44057e-05
0.000119132
6.18339e-05
0.000129376
8.64353e-05
0.000135641
)
;
    }
    ceiling
    {
        type            nutkWallFunction;
        Cmu             0.09;
        kappa           0.41;
        E               9.8;
        value           nonuniform List<scalar> 
43
(
0.000322932
0.000323028
0.000325226
0.00037521
0.00034241
0.000308983
0.000251433
0.00018637
0.000155655
0.000133787
0.000115693
0.00010169
9.36349e-05
8.77368e-05
8.37572e-05
8.05583e-05
7.75594e-05
7.46114e-05
7.2031e-05
7.04168e-05
7.01712e-05
7.12508e-05
7.33674e-05
7.61443e-05
7.9364e-05
8.29584e-05
8.6905e-05
9.1216e-05
9.59417e-05
0.000101189
0.000107132
0.000113587
0.000120577
0.00012813
0.000136252
0.000145056
0.000151396
0.000148499
0.000136855
0.000125923
0.000333021
0.000400493
0.000253266
)
;
    }
    sWall
    {
        type            nutkWallFunction;
        Cmu             0.09;
        kappa           0.41;
        E               9.8;
        value           uniform 0.00032301;
    }
    nWall
    {
        type            nutkWallFunction;
        Cmu             0.09;
        kappa           0.41;
        E               9.8;
        value           nonuniform List<scalar> 6(8.32721e-05 0.000108571 0.000135462 0.000137462 0.000138873 0.00012593);
    }
    sideWalls
    {
        type            empty;
    }
    glass1
    {
        type            nutkWallFunction;
        Cmu             0.09;
        kappa           0.41;
        E               9.8;
        value           nonuniform List<scalar> 9(0.00014257 0.000181326 0.000212223 0.000240447 0.000268123 0.000297359 0.000327856 0.000336943 0.000333479);
    }
    glass2
    {
        type            nutkWallFunction;
        Cmu             0.09;
        kappa           0.41;
        E               9.8;
        value           nonuniform List<scalar> 2(0.000178759 0.000171805);
    }
    sun
    {
        type            nutkWallFunction;
        Cmu             0.09;
        kappa           0.41;
        E               9.8;
        value           nonuniform List<scalar> 
14
(
0.000142421
0.000155545
0.000161008
0.000168663
0.000175671
0.00018245
0.00018954
0.000196456
0.000202539
0.00020689
0.00020829
0.000203412
0.000184369
0.000160889
)
;
    }
    Table_master
    {
        type            nutkWallFunction;
        Cmu             0.09;
        kappa           0.41;
        E               9.8;
        value           nonuniform List<scalar> 9(0.000115618 0.000101888 9.01382e-05 8.04172e-05 7.24363e-05 6.58755e-05 6.04973e-05 5.61972e-05 5.30306e-05);
    }
    Table_slave
    {
        type            nutkWallFunction;
        Cmu             0.09;
        kappa           0.41;
        E               9.8;
        value           nonuniform List<scalar> 9(0.000128709 0.000118467 0.00011123 0.000105665 0.000100773 9.61176e-05 9.15321e-05 8.65677e-05 8.06762e-05);
    }
    inlet
    {
        type            calculated;
        value           uniform 0.00033541;
    }
    outlet
    {
        type            calculated;
        value           nonuniform List<scalar> 2(0.00284015 0.00284107);
    }
}


// ************************************************************************* //
