/*--------------------------------*- C++ -*----------------------------------*\
  =========                 |
  \\      /  F ield         | OpenFOAM: The Open Source CFD Toolbox
   \\    /   O peration     | Website:  https://openfoam.org
    \\  /    A nd           | Version:  6
     \\/     M anipulation  |
\*---------------------------------------------------------------------------*/
FoamFile
{
    version     2.0;
    format      ascii;
    class       volScalarField;
    location    "1800";
    object      nut;
}
// * * * * * * * * * * * * * * * * * * * * * * * * * * * * * * * * * * * * * //

dimensions      [0 2 -1 0 0 0 0];

internalField   nonuniform List<scalar> 
458
(
0.00114262
0.00124814
0.00128951
0.00135173
0.00140869
0.00146379
0.00152159
0.00157721
0.00162475
0.0016561
0.00166168
0.00160817
0.00144992
0.00126181
0.00109031
0.000510804
0.000600088
0.000688581
0.000724228
0.000720075
0.000683787
0.000641464
0.000602501
0.000567914
0.000537215
0.000509928
0.000485649
0.000463615
0.000443013
0.000422881
0.000401748
0.000383204
0.000347792
0.00148683
0.00319787
0.00288849
0.00322893
0.00358266
0.00393387
0.00419904
0.00445558
0.00472322
0.00496414
0.00517535
0.00539465
0.00536907
0.00442042
0.00280722
0.00123528
0.00108353
0.000916069
0.000497832
0.00124025
0.001877
0.00235215
0.00247819
0.00180149
0.00153541
0.00136036
0.00123242
0.00113437
0.00105548
0.000982248
0.000909931
0.000833506
0.000763542
0.000705711
0.000807987
0.000426123
0.00176744
0.00421561
0.0034318
0.00384276
0.00396807
0.00404984
0.00413009
0.00426264
0.00444771
0.00467373
0.0049839
0.00544713
0.00594382
0.00572415
0.00462723
0.00325019
0.00240263
0.000976143
0.000711479
0.00138467
0.00211913
0.00279015
0.00291582
0.000882877
0.000781732
0.000696104
0.000626046
0.000569142
0.000522828
0.000485425
0.000455589
0.000433431
0.000489432
0.000579473
0.000924901
0.000484087
0.00202846
0.00518253
0.00337181
0.00388994
0.00378914
0.00367093
0.0036522
0.00374607
0.00390638
0.00412897
0.00447582
0.00500884
0.00560625
0.00573606
0.00525666
0.00430199
0.00328471
0.00180467
0.00101673
0.00148499
0.00220797
0.00304392
0.00370212
0.00367672
0.000971111
0.000896891
0.000847931
0.000812545
0.000782194
0.000750594
0.000719885
0.000686413
0.000645999
0.000605506
0.000606191
0.00102808
0.000544165
0.00228741
0.00650413
0.00332848
0.00378153
0.00359248
0.00337258
0.00332716
0.0034475
0.00362262
0.00384454
0.0041838
0.00469518
0.00521004
0.00537625
0.00519888
0.00471875
0.0040017
0.00308548
0.00309713
0.00357283
0.0041892
0.00474838
0.00506297
0.00502157
0.00429424
0.00395323
0.00379528
0.00369047
0.00357036
0.00338944
0.003043
0.00258237
0.00205091
0.00153575
0.00115316
0.00107839
0.000862488
0.000665121
0.000712519
0.000710275
0.00256263
0.00811741
0.00409211
0.00360115
0.00352207
0.00324536
0.00315794
0.00333305
0.00353643
0.00375301
0.00406052
0.00451758
0.00490328
0.00496763
0.00492583
0.00486854
0.00467878
0.00447223
0.00486112
0.00549109
0.00593544
0.0061028
0.00600961
0.00572752
0.00534952
0.00509368
0.00492759
0.00478457
0.00462816
0.0044369
0.00414851
0.0037157
0.00314817
0.00249987
0.00191798
0.00145524
0.00113951
0.00121595
0.00177137
0.00091105
0.00285817
0.00941146
0.00606741
0.00383318
0.00326622
0.00320114
0.00317672
0.00338299
0.00358747
0.00377709
0.00402632
0.00440165
0.00469486
0.00467558
0.0048622
0.00531925
0.00555837
0.0058331
0.00638025
0.00676072
0.0068067
0.0065662
0.00613769
0.00563497
0.00518876
0.00491312
0.00475017
0.00462588
0.00450402
0.00437747
0.00424323
0.00402991
0.00364614
0.00311802
0.00257497
0.00208472
0.00171707
0.00164263
0.00205435
0.00113935
0.00294791
0.00890903
0.00733942
0.00565163
0.00430173
0.00372195
0.00363691
0.00364587
0.0037402
0.0038492
0.00402191
0.00433703
0.0045683
0.00455183
0.00517498
0.00591457
0.0062867
0.00661141
0.00690995
0.00689848
0.00656295
0.00600211
0.00535861
0.00478272
0.00438932
0.00418111
0.00407192
0.00399969
0.00394497
0.00391012
0.00390493
0.00392338
0.00385162
0.00353644
0.00324097
0.00307085
0.00312657
0.00327571
0.00401866
0.00152591
0.002919
0.00357625
0.0042722
0.0044826
0.00429086
0.00407419
0.00395202
0.00388038
0.00389072
0.00389146
0.00397756
0.00425874
0.00446276
0.00471206
0.00553738
0.0060784
0.00628765
0.00637761
0.00629178
0.00592834
0.00533724
0.00466213
0.00407138
0.00366679
0.00344098
0.00332449
0.00325376
0.00319594
0.00313795
0.00307318
0.00299537
0.00289726
0.00279018
0.00269175
0.0026212
0.00257903
0.00251471
0.00238632
0.0022355
0.00146282
0.00118538
0.00213433
0.00279549
0.0031742
0.00346579
0.00379337
0.0038821
0.00375732
0.00376712
0.00404642
0.00449904
0.00485533
0.00537749
0.00546718
0.00537988
0.00517242
0.00480509
0.0042961
0.00372853
0.00324802
0.00292582
0.00274378
0.00264884
0.0025966
0.00256112
0.00253042
0.00250044
0.00247184
0.00244906
0.00244198
0.00244632
0.00244646
0.00243357
0.00238176
0.0022482
0.00201076
0.00170908
0.00115775
0.00219543
0.00381949
0.00403637
0.00440167
0.00488508
0.00444819
0.00367888
0.00306976
0.00302406
0.0033436
0.0037219
0.00402272
0.00402932
0.0038937
0.00368539
0.00339574
0.00303507
0.00266326
0.00234424
0.00212285
0.00199537
0.00193553
0.00192028
0.00193529
0.0019725
0.0020268
0.00209344
0.0021663
0.00223607
0.00231676
0.00240178
0.00248389
0.00254817
0.0025668
0.00251882
0.00243268
0.00207825
0.00116862
0.00283215
0.00283001
0.00284875
0.0033239
0.00301248
0.00274917
0.00229952
0.00175345
0.00114914
0.000936349
0.000851557
0.000810746
0.000780179
0.000747461
0.000722797
0.000702974
0.000684353
0.000666261
0.000651347
0.000643848
0.000646389
0.000656528
0.000672412
0.000692684
0.000716506
0.00074346
0.00077343
0.000806559
0.000843314
0.000884665
0.000932476
0.000985174
0.0010429
0.00110574
0.00117364
0.00124734
0.00130536
0.00128074
0.00117647
0.00107983
)
;

boundaryField
{
    floor
    {
        type            nutkWallFunction;
        Cmu             0.09;
        kappa           0.41;
        E               9.8;
        value           nonuniform List<scalar> 
36
(
0.000131283
6.10988e-05
7.2363e-05
8.3327e-05
8.76948e-05
8.71873e-05
8.27376e-05
7.75118e-05
7.26641e-05
6.83288e-05
6.44538e-05
6.09866e-05
5.78821e-05
5.50479e-05
5.23828e-05
4.97631e-05
4.69961e-05
4.45528e-05
3.98438e-05
3.98437e-05
5.01849e-05
5.76803e-05
6.53315e-05
8.04358e-05
8.6261e-05
8.59862e-05
0.000131283
0.000148049
0.000130496
0.000110795
6.10987e-05
0.000110795
5.94426e-05
0.000117907
8.61347e-05
0.000122684
)
;
    }
    ceiling
    {
        type            nutkWallFunction;
        Cmu             0.09;
        kappa           0.41;
        E               9.8;
        value           nonuniform List<scalar> 
43
(
0.000322089
0.000321863
0.000323829
0.000373319
0.000341031
0.000313452
0.000265685
0.000206293
0.00013812
0.000113205
0.000103097
9.81895e-05
9.44953e-05
9.05229e-05
8.7515e-05
8.50886e-05
8.28021e-05
8.05733e-05
7.87307e-05
7.78024e-05
7.81172e-05
7.9372e-05
8.13327e-05
8.38272e-05
8.67472e-05
9.00373e-05
9.36788e-05
9.76849e-05
0.000102107
0.000107055
0.000112743
0.000118973
0.000125754
0.000133087
0.000140957
0.000149443
0.000156083
0.00015327
0.000141285
0.000130071
0.000331544
0.000399628
0.00025437
)
;
    }
    sWall
    {
        type            nutkWallFunction;
        Cmu             0.09;
        kappa           0.41;
        E               9.8;
        value           uniform 0.000322166;
    }
    nWall
    {
        type            nutkWallFunction;
        Cmu             0.09;
        kappa           0.41;
        E               9.8;
        value           nonuniform List<scalar> 6(8.59843e-05 0.000110202 0.000136995 0.000139132 0.000140389 0.000130079);
    }
    sideWalls
    {
        type            empty;
    }
    glass1
    {
        type            nutkWallFunction;
        Cmu             0.09;
        kappa           0.41;
        E               9.8;
        value           nonuniform List<scalar> 9(0.000137495 0.00017687 0.000208206 0.000236867 0.000264909 0.000294346 0.000325589 0.000335018 0.000332003);
    }
    glass2
    {
        type            nutkWallFunction;
        Cmu             0.09;
        kappa           0.41;
        E               9.8;
        value           nonuniform List<scalar> 2(0.000181121 0.000174023);
    }
    sun
    {
        type            nutkWallFunction;
        Cmu             0.09;
        kappa           0.41;
        E               9.8;
        value           nonuniform List<scalar> 
14
(
0.000137361
0.000149518
0.000154254
0.000161345
0.000167805
0.000174027
0.000180525
0.000186753
0.000192058
0.000195547
0.000196168
0.000190215
0.000172469
0.000151089
)
;
    }
    Table_master
    {
        type            nutkWallFunction;
        Cmu             0.09;
        kappa           0.41;
        E               9.8;
        value           nonuniform List<scalar> 9(0.000106842 9.46872e-05 8.42524e-05 7.56011e-05 6.84881e-05 6.26347e-05 5.78609e-05 5.40203e-05 5.11476e-05);
    }
    Table_slave
    {
        type            nutkWallFunction;
        Cmu             0.09;
        kappa           0.41;
        E               9.8;
        value           nonuniform List<scalar> 9(0.000117313 0.000108513 0.000102662 9.84088e-05 9.47431e-05 9.09087e-05 8.71642e-05 8.30609e-05 7.80745e-05);
    }
    inlet
    {
        type            calculated;
        value           uniform 0.00033541;
    }
    outlet
    {
        type            calculated;
        value           nonuniform List<scalar> 2(0.00283215 0.00283001);
    }
}


// ************************************************************************* //
