/*--------------------------------*- C++ -*----------------------------------*\
  =========                 |
  \\      /  F ield         | OpenFOAM: The Open Source CFD Toolbox
   \\    /   O peration     | Website:  https://openfoam.org
    \\  /    A nd           | Version:  6
     \\/     M anipulation  |
\*---------------------------------------------------------------------------*/
FoamFile
{
    version     2.0;
    format      ascii;
    class       volScalarField;
    location    "2600";
    object      alphat;
}
// * * * * * * * * * * * * * * * * * * * * * * * * * * * * * * * * * * * * * //

dimensions      [1 -1 -1 0 0 0 0];

internalField   nonuniform List<scalar> 
458
(
0.00106877
0.00115011
0.00115223
0.0012012
0.00124595
0.0012865
0.00132438
0.00136138
0.00139782
0.00142408
0.00143587
0.00142914
0.0014029
0.00136245
0.00131643
0.00047001
0.000584709
0.000611579
0.000596472
0.000573992
0.00054391
0.000513071
0.000484635
0.000459017
0.000436114
0.00041562
0.000397056
0.000379969
0.000363823
0.000347849
0.000330799
0.000319269
0.000292126
0.00152509
0.00333108
0.00306574
0.00357038
0.00399475
0.00443029
0.00485098
0.00521457
0.00548256
0.00571375
0.00586793
0.00587845
0.00563919
0.00494213
0.00339532
0.00134783
0.00112263
0.000941763
0.000677185
0.00104611
0.00132667
0.00152431
0.00158543
0.00132344
0.00117964
0.00107366
0.000989686
0.000918886
0.000855167
0.000796778
0.000741209
0.000687041
0.00064114
0.000602066
0.000721607
0.000387816
0.00191598
0.00463734
0.00364784
0.00492273
0.00543924
0.00580165
0.00607438
0.00628507
0.0064544
0.00664309
0.00683419
0.00699331
0.00708294
0.00706484
0.00686586
0.00627674
0.00508083
0.00125701
0.00101668
0.00144192
0.00177244
0.00202756
0.00205504
0.000744841
0.000664778
0.000599452
0.000546528
0.000503466
0.00046816
0.000438999
0.00041493
0.00039555
0.000430134
0.000495162
0.000809223
0.000451215
0.00230107
0.00625871
0.00361584
0.00528443
0.00592226
0.00612148
0.00618037
0.00620577
0.00626346
0.00639936
0.00659519
0.00681887
0.0070463
0.00725584
0.00739664
0.00730778
0.00672054
0.00518197
0.00132171
0.00174609
0.00225448
0.00264543
0.00288877
0.00277302
0.000808279
0.000748602
0.000712739
0.000689349
0.000670232
0.000649071
0.000625701
0.00060041
0.00056938
0.000538433
0.000536007
0.000908631
0.000507675
0.00269469
0.00837413
0.00419839
0.00496266
0.00595217
0.00614228
0.0060752
0.00595313
0.0059184
0.00604089
0.00624439
0.0064904
0.00675682
0.00700844
0.0071731
0.00713068
0.00680267
0.00615812
0.00495132
0.00448719
0.00426347
0.00412433
0.0040226
0.00386845
0.00335689
0.00317612
0.0031091
0.00306336
0.0029953
0.00287786
0.00264177
0.00229223
0.00186694
0.00141762
0.00105418
0.000971774
0.000806927
0.000675753
0.000757492
0.000828325
0.00310687
0.0106633
0.00636935
0.00482396
0.00540757
0.00582921
0.00596909
0.00582979
0.00573293
0.00587013
0.00606934
0.00631258
0.00658023
0.0068211
0.00695047
0.00688336
0.00659601
0.00616119
0.00565093
0.00527269
0.00496718
0.00468973
0.00445059
0.00425019
0.00407413
0.00398608
0.00393306
0.00387342
0.00378853
0.00367011
0.00349699
0.00320014
0.00277707
0.00224634
0.00172593
0.00128117
0.00102506
0.00087323
0.00114601
0.000849674
0.00349054
0.0123705
0.00970102
0.00680151
0.00579522
0.00558849
0.0057817
0.00585298
0.00586382
0.00592904
0.00607159
0.00628936
0.00654976
0.00678749
0.00690558
0.00681536
0.00650695
0.0060802
0.00567293
0.00534036
0.00499498
0.00462227
0.00429796
0.00407736
0.003962
0.00391568
0.00388206
0.00383385
0.00376697
0.00368693
0.00360083
0.00346741
0.00317155
0.0027317
0.00225456
0.00180163
0.00148351
0.00133204
0.00127704
0.000969899
0.00356567
0.0113692
0.0100977
0.00924205
0.00813273
0.00723494
0.00681742
0.00646041
0.00618544
0.00609691
0.00618604
0.00639599
0.00665948
0.00689421
0.00699033
0.00685305
0.00648538
0.00600981
0.00556294
0.00509853
0.00458224
0.00414758
0.00386122
0.00370382
0.00362626
0.00358162
0.00353837
0.00348895
0.00344214
0.00341369
0.00341969
0.00345996
0.00341807
0.00312136
0.00282446
0.00263894
0.00265405
0.00276888
0.00333038
0.00154606
0.00346967
0.00412488
0.0048071
0.00514155
0.00540655
0.00548994
0.00549026
0.00553257
0.00570871
0.00598392
0.00630028
0.00661732
0.00690623
0.00711183
0.00712415
0.00685627
0.00635959
0.00578982
0.00513744
0.00446808
0.00394802
0.00362156
0.00343491
0.00332336
0.0032422
0.00316455
0.00307759
0.00298104
0.00288145
0.00278456
0.00268965
0.00258991
0.00249146
0.00240341
0.0023484
0.00233094
0.00230292
0.00221995
0.00209829
0.00149092
0.00258243
0.00576761
0.00598609
0.00619
0.00643989
0.00673873
0.00695662
0.00708358
0.0071571
0.00722801
0.00730969
0.00733022
0.00710813
0.00657448
0.00582056
0.00499816
0.00427232
0.00377802
0.00348416
0.0033026
0.00317104
0.00305605
0.0029421
0.00282289
0.00269777
0.00257096
0.00245155
0.00235211
0.00228509
0.00225776
0.00225775
0.00226751
0.00228082
0.00227747
0.00221898
0.0020861
0.00190733
0.00128479
0.00263334
0.00644002
0.00694406
0.00697352
0.00713881
0.00732597
0.00741353
0.00718529
0.00696985
0.00688333
0.00690667
0.00689515
0.00646074
0.00574608
0.00498467
0.00439821
0.00405472
0.00386322
0.00372287
0.00361217
0.00350364
0.00338102
0.00323849
0.00307856
0.0029099
0.00274473
0.00259543
0.00247139
0.00237597
0.00232416
0.00231952
0.00234943
0.00239317
0.00242139
0.00240075
0.0024168
0.00256906
0.00131797
0.00210708
0.00228621
0.00242155
0.00256675
0.0024681
0.00236181
0.00218946
0.001937
0.00168078
0.0015755
0.0014997
0.00143423
0.00136503
0.00127991
0.00118871
0.00109548
0.00101639
0.000963515
0.000931599
0.000912019
0.000900911
0.000890401
0.000879195
0.000867614
0.000857051
0.000849566
0.00084738
0.000852406
0.000866049
0.000889415
0.000923964
0.000967159
0.001017
0.00107377
0.00113701
0.00120722
0.00124711
0.00122429
0.00115288
0.00108699
)
;

boundaryField
{
    floor
    {
        type            compressible::alphatWallFunction;
        Prt             0.85;
        value           nonuniform List<scalar> 
36
(
0.000186165
6.46596e-05
8.21134e-05
8.6138e-05
8.38782e-05
8.05022e-05
7.59586e-05
7.1268e-05
6.69117e-05
6.29593e-05
5.94021e-05
5.61989e-05
5.32798e-05
5.05772e-05
4.80092e-05
4.54537e-05
4.27091e-05
4.08427e-05
3.64131e-05
3.64126e-05
5.18195e-05
6.17491e-05
7.04425e-05
9.56658e-05
0.000107645
0.000117898
0.000186163
0.000190444
0.000159484
0.000134102
6.46588e-05
0.0001341
9.58738e-05
0.000178033
0.000144677
0.000186886
)
;
    }
    ceiling
    {
        type            compressible::alphatWallFunction;
        Prt             0.85;
        value           nonuniform List<scalar> 
43
(
0.000290961
0.000314057
0.000331383
0.000349977
0.000337472
0.000323921
0.00030179
0.000269019
0.000235277
0.000221254
0.000211094
0.000202271
0.000192896
0.000181286
0.00016875
0.00015582
0.00014475
0.000137294
0.000132771
0.000129987
0.000128404
0.000126905
0.000125304
0.000123648
0.000122134
0.000121061
0.000120748
0.00012147
0.000123427
0.00012677
0.000131693
0.000137817
0.000144845
0.000152801
0.000161606
0.000171315
0.000176803
0.000173666
0.000163808
0.000154649
0.000462879
0.000542683
0.000358113
)
;
    }
    sWall
    {
        type            compressible::alphatWallFunction;
        Prt             0.85;
        value           uniform 0.000289763;
    }
    nWall
    {
        type            compressible::alphatWallFunction;
        Prt             0.85;
        value           nonuniform List<scalar> 6(0.000117707 0.000120773 0.000137888 0.000181649 0.000186181 0.000154336);
    }
    sideWalls
    {
        type            empty;
    }
    glass1
    {
        type            compressible::alphatWallFunction;
        Prt             0.85;
        value           nonuniform List<scalar> 9(0.000148251 0.000209812 0.000261039 0.000310494 0.00036021 0.000411508 0.000458669 0.000467965 0.00045645);
    }
    glass2
    {
        type            compressible::alphatWallFunction;
        Prt             0.85;
        value           nonuniform List<scalar> 2(0.000215838 0.000208512);
    }
    sun
    {
        type            compressible::alphatWallFunction;
        Prt             0.85;
        value           nonuniform List<scalar> 
14
(
0.000152001
0.000163303
0.000163598
0.000170366
0.000176522
0.00018208
0.000187254
0.000192293
0.000197238
0.000200793
0.000202386
0.000201476
0.000197924
0.000192434
)
;
    }
    Table_master
    {
        type            compressible::alphatWallFunction;
        Prt             0.85;
        value           nonuniform List<scalar> 9(0.00010588 9.41235e-05 8.44033e-05 7.64327e-05 6.98763e-05 6.44482e-05 5.99256e-05 5.61639e-05 5.31146e-05);
    }
    Table_slave
    {
        type            compressible::alphatWallFunction;
        Prt             0.85;
        value           nonuniform List<scalar> 9(0.000115089 0.000106431 0.000101188 9.77512e-05 9.4932e-05 9.17999e-05 8.83263e-05 8.45491e-05 7.98877e-05);
    }
    inlet
    {
        type            fixedValue;
        value           uniform 1.94e-05;
    }
    outlet
    {
        type            zeroGradient;
    }
}


// ************************************************************************* //
