/*--------------------------------*- C++ -*----------------------------------*\
  =========                 |
  \\      /  F ield         | OpenFOAM: The Open Source CFD Toolbox
   \\    /   O peration     | Website:  https://openfoam.org
    \\  /    A nd           | Version:  6
     \\/     M anipulation  |
\*---------------------------------------------------------------------------*/
FoamFile
{
    version     2.0;
    format      ascii;
    class       volScalarField;
    location    "2600";
    object      k;
}
// * * * * * * * * * * * * * * * * * * * * * * * * * * * * * * * * * * * * * //

dimensions      [0 2 -2 0 0 0 0];

internalField   nonuniform List<scalar> 
458
(
0.00168788
0.00195121
0.00195831
0.00212827
0.00228975
0.00244119
0.00258702
0.00273356
0.00288176
0.00299094
0.00304049
0.00301186
0.00290205
0.00273696
0.00255505
0.000325715
0.000504038
0.000551421
0.000524515
0.000485723
0.000436144
0.000388085
0.000346259
0.000310617
0.000280392
0.000254658
0.000232415
0.000212839
0.000195134
0.000178374
0.000161314
0.000150264
0.000125806
0.00344112
0.00650658
0.00309406
0.00320956
0.00343584
0.00369155
0.00396926
0.00427142
0.00459019
0.00489091
0.00509909
0.00512966
0.0049179
0.00444579
0.00371659
0.00267828
0.00185802
0.00130762
0.000676125
0.000858611
0.000896577
0.000877184
0.000815605
0.000704985
0.000599801
0.000512573
0.000441871
0.000384079
0.000336205
0.000296138
0.000262276
0.000234724
0.000217104
0.000208229
0.000366779
0.000221718
0.00543798
0.0127626
0.00400814
0.00373372
0.00392897
0.00419767
0.00450062
0.00485277
0.00525279
0.00565561
0.00596514
0.00610074
0.00603128
0.00579634
0.00549469
0.00503827
0.00397848
0.00232951
0.00152397
0.00138347
0.00125712
0.00114419
0.00103073
0.000817982
0.000651565
0.000529787
0.000440358
0.000373688
0.000323107
0.0002841
0.000253795
0.000230635
0.000213305
0.000212619
0.000518379
0.000300138
0.00785329
0.0218807
0.00539917
0.00399384
0.0040819
0.00434348
0.00465177
0.00504197
0.00553676
0.00602768
0.00638104
0.0065407
0.00650525
0.00630436
0.00596909
0.00546201
0.00462106
0.00397224
0.00257562
0.00213676
0.00179954
0.00155158
0.00136385
0.0012093
0.000963403
0.0008264
0.000749119
0.000700759
0.000662431
0.000621258
0.000577321
0.000531587
0.00047805
0.00036824
0.00029768
0.000666881
0.000379962
0.0107825
0.0340181
0.00862422
0.00442919
0.00419873
0.00441013
0.00472877
0.00522226
0.00592951
0.00652729
0.00687563
0.00699403
0.00691475
0.00664915
0.00617077
0.00548356
0.00462319
0.00379861
0.00304318
0.00247889
0.00204801
0.00172436
0.00149699
0.00134215
0.00124149
0.00120199
0.00119175
0.0011826
0.00115614
0.00109965
0.00100511
0.000890623
0.000765185
0.000610324
0.000466377
0.000587082
0.000633559
0.000673417
0.000846471
0.00101222
0.0143483
0.0466765
0.0164645
0.00655251
0.00510458
0.00498489
0.00522493
0.00590061
0.00685611
0.00742601
0.00764829
0.007644
0.00745919
0.00708407
0.00648151
0.00564936
0.00467699
0.00374153
0.00297527
0.0024346
0.00203402
0.00173289
0.00153289
0.00142301
0.00139335
0.00142035
0.00146078
0.00148809
0.00148649
0.00144072
0.00133205
0.00117547
0.00100154
0.000819759
0.000661958
0.000612178
0.000654976
0.000692947
0.0012555
0.00106488
0.0181275
0.0548314
0.0299919
0.015146
0.010357
0.0083928
0.00788545
0.00842208
0.00882209
0.00889668
0.00877913
0.00854314
0.00818942
0.00767127
0.00692752
0.00594614
0.00482906
0.00375741
0.00290656
0.00232587
0.00194304
0.00168805
0.00154369
0.00149194
0.00151237
0.00157526
0.00164713
0.0017108
0.00175612
0.00176978
0.00173148
0.00158848
0.00139778
0.00119555
0.00103389
0.000947619
0.000975917
0.0011215
0.00155496
0.00138741
0.0189425
0.0555662
0.0391858
0.0313965
0.0241358
0.0185663
0.0154052
0.0134107
0.0119584
0.0109556
0.0102399
0.00964802
0.00904975
0.00833137
0.00739605
0.00621815
0.00491806
0.00368813
0.00276084
0.00215879
0.00183748
0.00166152
0.00158453
0.00157551
0.00161196
0.00167624
0.00175524
0.00184472
0.00194587
0.0020609
0.00218878
0.00230659
0.00231567
0.00228865
0.00235864
0.00270738
0.00350332
0.00463022
0.0090561
0.0035285
0.017971
0.0253547
0.0256784
0.0231674
0.0207244
0.018204
0.0160306
0.0143145
0.0131159
0.0122249
0.01145
0.0106826
0.00985622
0.00888406
0.00766994
0.00619911
0.00468098
0.00331345
0.00249341
0.00205013
0.00182626
0.00172026
0.00167819
0.00167083
0.00168485
0.00171538
0.00176237
0.0018297
0.00192298
0.00204689
0.00220302
0.00238909
0.00261192
0.00289941
0.00330491
0.00381892
0.004339
0.00471648
0.00492731
0.0032839
0.0114598
0.0255071
0.0219535
0.0197624
0.0182201
0.0169935
0.0156443
0.0141812
0.0127507
0.0114339
0.0101939
0.00885035
0.00724346
0.00534329
0.00376509
0.00283757
0.00237976
0.00216787
0.00206298
0.00200238
0.00195317
0.00190149
0.00184516
0.00178892
0.00174198
0.00171636
0.00172527
0.00178185
0.00189872
0.00208549
0.00234004
0.00265793
0.00303563
0.00342477
0.00370927
0.00376723
0.00361359
0.00243819
0.00979974
0.0227576
0.0209229
0.0187911
0.0174783
0.0162104
0.0148349
0.0131033
0.011637
0.0104931
0.00948335
0.00814164
0.00657925
0.00512154
0.00411597
0.00359716
0.00338464
0.00329614
0.00322925
0.00316963
0.00309365
0.00298804
0.00285074
0.00268964
0.00252044
0.00236317
0.00223814
0.00216272
0.00214955
0.00221984
0.00238528
0.00264138
0.00296624
0.00330387
0.00354914
0.00383591
0.00413493
0.00256559
0.00639587
0.00752484
0.00844183
0.00960045
0.0089087
0.00817475
0.00703578
0.00551372
0.00415623
0.00365479
0.00331364
0.00303207
0.00274752
0.00241613
0.00208443
0.00177051
0.00152419
0.0013698
0.00128061
0.00122739
0.00119771
0.00116997
0.00114074
0.00111093
0.00108408
0.00106527
0.00105984
0.00107249
0.00110714
0.00116773
0.00126026
0.0013809
0.00152696
0.00170224
0.00190874
0.00215185
0.00229655
0.00221331
0.00196266
0.00174514
)
;

boundaryField
{
    floor
    {
        type            kqRWallFunction;
        value           nonuniform List<scalar> 
36
(
0.00255505
0.000325715
0.000504038
0.000551421
0.000524515
0.000485723
0.000436144
0.000388085
0.000346259
0.000310617
0.000280392
0.000254658
0.000232415
0.000212839
0.000195134
0.000178374
0.000161314
0.000150264
0.000125806
0.000125806
0.000221718
0.000300138
0.000379962
0.000673417
0.000846471
0.00101222
0.00255505
0.00267828
0.00185802
0.00130762
0.000325715
0.00130762
0.000676125
0.00232951
0.00152397
0.00257562
)
;
    }
    ceiling
    {
        type            kqRWallFunction;
        value           nonuniform List<scalar> 
43
(
0.00639587
0.00752484
0.00844183
0.00960045
0.0089087
0.00817475
0.00703578
0.00551372
0.00415623
0.00365479
0.00331364
0.00303207
0.00274752
0.00241613
0.00208443
0.00177051
0.00152419
0.0013698
0.00128061
0.00122739
0.00119771
0.00116997
0.00114074
0.00111093
0.00108408
0.00106527
0.00105984
0.00107249
0.00110714
0.00116773
0.00126026
0.0013809
0.00152696
0.00170224
0.00190874
0.00215185
0.00229655
0.00221331
0.00196266
0.00174514
0.017971
0.0253547
0.00979974
)
;
    }
    sWall
    {
        type            kqRWallFunction;
        value           uniform 0.00639587;
    }
    nWall
    {
        type            kqRWallFunction;
        value           nonuniform List<scalar> 6(0.00101222 0.00106488 0.00138741 0.00243819 0.00256559 0.00174514);
    }
    sideWalls
    {
        type            empty;
    }
    glass1
    {
        type            kqRWallFunction;
        value           nonuniform List<scalar> 9(0.00168788 0.00344112 0.00543798 0.00785329 0.0107825 0.0143483 0.0181275 0.0189425 0.017971);
    }
    glass2
    {
        type            kqRWallFunction;
        value           nonuniform List<scalar> 2(0.0035285 0.0032839);
    }
    sun
    {
        type            kqRWallFunction;
        value           nonuniform List<scalar> 
14
(
0.00168788
0.00195121
0.00195831
0.00212827
0.00228975
0.00244119
0.00258702
0.00273356
0.00288176
0.00299094
0.00304049
0.00301186
0.00290205
0.00273696
)
;
    }
    Table_master
    {
        type            kqRWallFunction;
        value           nonuniform List<scalar> 9(0.000817982 0.000651565 0.000529787 0.000440358 0.000373688 0.000323107 0.0002841 0.000253795 0.000230635);
    }
    Table_slave
    {
        type            kqRWallFunction;
        value           nonuniform List<scalar> 9(0.000963403 0.0008264 0.000749119 0.000700759 0.000662431 0.000621258 0.000577321 0.000531587 0.00047805);
    }
    inlet
    {
        type            turbulentIntensityKineticEnergyInlet;
        intensity       0.05;
        value           uniform 0.0003375;
    }
    outlet
    {
        type            zeroGradient;
    }
}


// ************************************************************************* //
