/*--------------------------------*- C++ -*----------------------------------*\
  =========                 |
  \\      /  F ield         | OpenFOAM: The Open Source CFD Toolbox
   \\    /   O peration     | Website:  https://openfoam.org
    \\  /    A nd           | Version:  6
     \\/     M anipulation  |
\*---------------------------------------------------------------------------*/
FoamFile
{
    version     2.0;
    format      ascii;
    class       volScalarField;
    location    "200";
    object      alphat;
}
// * * * * * * * * * * * * * * * * * * * * * * * * * * * * * * * * * * * * * //

dimensions      [1 -1 -1 0 0 0 0];

internalField   nonuniform List<scalar> 
458
(
0.00141943
0.00156043
0.00160655
0.00169016
0.00176956
0.00184778
0.00193052
0.00200383
0.00205776
0.00208148
0.00206369
0.00199242
0.00180396
0.00153291
0.00127059
0.000677771
0.000800613
0.000920493
0.00096782
0.000950436
0.000886497
0.000817659
0.000756622
0.000704162
0.000659017
0.000620008
0.000586002
0.000556217
0.000529417
0.000504261
0.000479134
0.000460741
0.000422001
0.00187354
0.00457431
0.00436306
0.00504337
0.00574554
0.00642801
0.00695253
0.00745384
0.00793517
0.00834483
0.00862222
0.00871294
0.00851831
0.00776534
0.00540221
0.00164458
0.00140207
0.00115168
0.000666317
0.00174598
0.00266112
0.0033277
0.00345231
0.00241893
0.00201145
0.00174418
0.00155048
0.00140375
0.00128847
0.00119587
0.00110989
0.00102148
0.00093852
0.000869337
0.00102454
0.000523162
0.00224708
0.00618837
0.00538227
0.00642782
0.00694456
0.00732078
0.00761413
0.00795805
0.00838655
0.00888795
0.0093982
0.00982819
0.0100098
0.00970604
0.0087431
0.00678899
0.0049338
0.00136827
0.000994485
0.00194646
0.00304114
0.00404736
0.00417081
0.00120061
0.00103896
0.000907889
0.00080359
0.000720461
0.000653676
0.000599514
0.000556144
0.0005235
0.00059028
0.000710868
0.00122334
0.000602498
0.00260098
0.00775008
0.00537433
0.00665523
0.0069152
0.00694884
0.00704137
0.00726715
0.0076575
0.00823828
0.00891188
0.00953753
0.00989394
0.00989587
0.00951604
0.00865604
0.00706541
0.00375373
0.00155732
0.00213488
0.00323226
0.0045488
0.00559071
0.00546227
0.00136762
0.00124147
0.00115027
0.00107792
0.00101409
0.000956537
0.000899754
0.000839667
0.000770829
0.000710619
0.000744188
0.00147153
0.000674934
0.00296013
0.00977075
0.00572566
0.00644809
0.00676066
0.00661021
0.00658641
0.00676168
0.00713068
0.00777742
0.00853534
0.00917823
0.00954238
0.00960107
0.0094328
0.00906396
0.00824957
0.00669998
0.00611606
0.0065409
0.00722757
0.00787018
0.00821688
0.00801314
0.00660061
0.00586246
0.00541157
0.00505878
0.00468882
0.00419395
0.00360213
0.00294254
0.00226094
0.00166116
0.00126666
0.0013794
0.00114287
0.000885314
0.000927014
0.00100516
0.00334449
0.0120132
0.00763192
0.00636217
0.00673885
0.00671112
0.00656381
0.00666373
0.00700252
0.00764223
0.00843197
0.00908792
0.00940208
0.0093903
0.00925078
0.00916342
0.00910312
0.00894166
0.00924014
0.00978952
0.0101519
0.0102321
0.0100231
0.00953468
0.00876156
0.00807917
0.00751099
0.00699075
0.00646647
0.00586555
0.00517455
0.004393
0.00354563
0.00271665
0.00206825
0.00160414
0.00136559
0.00122569
0.00152443
0.00104982
0.0037009
0.0135763
0.0105945
0.0079002
0.00742678
0.00728024
0.00693386
0.00681501
0.00710791
0.00779213
0.00863664
0.0092941
0.00953379
0.00944281
0.00938612
0.00969951
0.0102826
0.0107988
0.0113268
0.0116504
0.0115983
0.011226
0.0106189
0.00985866
0.00901871
0.00825516
0.00758472
0.00696686
0.00639664
0.00587958
0.00541812
0.00486026
0.00420181
0.00346855
0.00281924
0.00228443
0.00196203
0.00185752
0.0017828
0.00128828
0.00377411
0.0119983
0.0105782
0.00946692
0.00875708
0.00778673
0.00704569
0.0068885
0.00733974
0.0082065
0.00914313
0.00975282
0.009852
0.00972702
0.0100231
0.0108926
0.0114936
0.0118771
0.0120963
0.0120195
0.0115667
0.0108201
0.00988332
0.00886169
0.00787072
0.00701548
0.00630823
0.005726
0.00526448
0.00493137
0.00472851
0.00461452
0.00439185
0.00399075
0.00367722
0.00357251
0.0037814
0.00411739
0.00495455
0.00193522
0.00367936
0.00439428
0.00482244
0.00501639
0.00502246
0.00515794
0.00564466
0.00656952
0.00779855
0.00905218
0.00999946
0.0103241
0.0101001
0.0102816
0.010846
0.0113758
0.0116084
0.0116282
0.0114284
0.010933
0.0101332
0.00909991
0.00794078
0.0068126
0.00585054
0.00510608
0.00454698
0.00412696
0.00381304
0.00357953
0.00340289
0.00326631
0.00317077
0.00310241
0.0030619
0.00303037
0.00294172
0.00276139
0.00255379
0.00176608
0.0014238
0.00262963
0.00423305
0.00606296
0.00781662
0.00928461
0.0102914
0.0107917
0.0108122
0.0104458
0.0100504
0.0101713
0.0103943
0.0104219
0.0102621
0.00993957
0.0094041
0.00861841
0.00762891
0.00656319
0.00557586
0.00476569
0.00416679
0.00375944
0.00348128
0.00328572
0.00314824
0.00305923
0.00301861
0.00301847
0.00303826
0.00306266
0.00306836
0.0030149
0.00285386
0.00258279
0.00223022
0.00141691
0.00273951
0.00658352
0.00932794
0.010767
0.0110658
0.0107036
0.00998261
0.00913452
0.00843868
0.00806578
0.00792527
0.00784149
0.00767796
0.00745241
0.00716506
0.00677327
0.00624679
0.00561661
0.00496973
0.00439649
0.00394202
0.00360106
0.00335663
0.00319337
0.00308808
0.00302434
0.00299133
0.00297793
0.00300399
0.00306491
0.00315161
0.00324757
0.00332562
0.00337093
0.0033258
0.00325918
0.0028134
0.00143637
0.00281067
0.00289869
0.00297749
0.00328879
0.00305856
0.00269573
0.00235933
0.0021072
0.00190801
0.0017288
0.00156801
0.00143319
0.00133115
0.00125927
0.00120738
0.00116495
0.00112411
0.00108066
0.00103465
0.000990101
0.00095232
0.000925075
0.0009098
0.00090651
0.000913269
0.000927178
0.000947795
0.000975363
0.0010109
0.00105656
0.0011107
0.00117381
0.00124599
0.00132726
0.00141641
0.00153778
0.00156895
0.00152889
0.00142235
0.00130892
)
;

boundaryField
{
    floor
    {
        type            compressible::alphatWallFunction;
        Prt             0.85;
        value           nonuniform List<scalar> 
36
(
0.000179769
9.58596e-05
0.000113789
0.000130973
0.000137686
0.000135228
0.000126134
0.000116256
0.000107415
9.97479e-05
9.30947e-05
8.73013e-05
8.22144e-05
7.77292e-05
7.36681e-05
6.98329e-05
6.5978e-05
6.31398e-05
5.71152e-05
5.71144e-05
7.27136e-05
8.46821e-05
9.54418e-05
0.00012597
0.000131919
0.000142968
0.000179767
0.000230237
0.000197682
0.000163391
9.58585e-05
0.00016339
9.41664e-05
0.000193096
0.000141433
0.000218592
)
;
    }
    ceiling
    {
        type            compressible::alphatWallFunction;
        Prt             0.85;
        value           nonuniform List<scalar> 
43
(
0.000380554
0.000391594
0.00040145
0.000440219
0.000411711
0.000366272
0.000323553
0.000291108
0.000265174
0.000241584
0.00022019
0.000202062
0.000188215
0.000178389
0.000171255
0.000165396
0.000159733
0.00015368
0.000147241
0.000140974
0.000135634
0.000131767
0.000129594
0.000129124
0.000130087
0.000132066
0.000134992
0.000138893
0.000143903
0.000150309
0.000157863
0.000166614
0.00017656
0.000187678
0.000199787
0.000216138
0.000220314
0.000214948
0.000200596
0.000185183
0.000488449
0.000574982
0.000371461
)
;
    }
    sWall
    {
        type            compressible::alphatWallFunction;
        Prt             0.85;
        value           uniform 0.000379258;
    }
    nWall
    {
        type            compressible::alphatWallFunction;
        Prt             0.85;
        value           nonuniform List<scalar> 6(0.000142729 0.000148991 0.000181963 0.000199505 0.000202133 0.000184825);
    }
    sideWalls
    {
        type            empty;
    }
    glass1
    {
        type            compressible::alphatWallFunction;
        Prt             0.85;
        value           nonuniform List<scalar> 9(0.000194749 0.000254342 0.000302312 0.000347069 0.000391907 0.000439312 0.000482819 0.000491856 0.000480631);
    }
    glass2
    {
        type            compressible::alphatWallFunction;
        Prt             0.85;
        value           nonuniform List<scalar> 2(0.000266377 0.000244389);
    }
    sun
    {
        type            compressible::alphatWallFunction;
        Prt             0.85;
        value           nonuniform List<scalar> 
14
(
0.00020005
0.000219007
0.000225171
0.000236298
0.000246808
0.000257111
0.000267959
0.000277527
0.00028454
0.000287617
0.000285307
0.000276036
0.000251331
0.000215311
)
;
    }
    Table_master
    {
        type            compressible::alphatWallFunction;
        Prt             0.85;
        value           nonuniform List<scalar> 9(0.000170378 0.000147903 0.000129381 0.000114416 0.000102324 9.24863e-05 8.44181e-05 7.78927e-05 7.29396e-05);
    }
    Table_slave
    {
        type            compressible::alphatWallFunction;
        Prt             0.85;
        value           nonuniform List<scalar> 9(0.000193243 0.000176007 0.000163423 0.000153358 0.000144412 0.000136291 0.000128222 0.000119617 0.000109669);
    }
    inlet
    {
        type            fixedValue;
        value           uniform 1.94e-05;
    }
    outlet
    {
        type            zeroGradient;
    }
}


// ************************************************************************* //
