/*--------------------------------*- C++ -*----------------------------------*\
  =========                 |
  \\      /  F ield         | OpenFOAM: The Open Source CFD Toolbox
   \\    /   O peration     | Website:  https://openfoam.org
    \\  /    A nd           | Version:  6
     \\/     M anipulation  |
\*---------------------------------------------------------------------------*/
FoamFile
{
    version     2.0;
    format      ascii;
    class       surfaceScalarField;
    location    "1600";
    object      phi;
}
// * * * * * * * * * * * * * * * * * * * * * * * * * * * * * * * * * * * * * //

dimensions      [1 0 -1 0 0 0 0];

internalField   nonuniform List<scalar> 
850
(
-0.00256939
0.00262897
-0.00304502
0.000475646
-0.00357903
0.000534035
-0.00409243
0.000513425
-0.00454186
0.000449447
-0.00490878
0.000366939
-0.00517707
0.000268306
-0.00532791
0.000150869
-0.00533893
1.10314e-05
-0.00518143
-0.000157471
-0.00482861
-0.000352806
-0.00426255
-0.000566043
-0.00344129
-0.000821239
-0.00217567
-0.0012656
-0.00217421
0.000682155
-0.000680023
0.00110394
-0.000421755
0.00136594
-0.000261984
0.00158492
-0.000218947
0.00176631
-0.000181363
0.00184379
-7.74552e-05
0.00184956
-5.73796e-06
0.00183162
1.7967e-05
0.00180541
2.62328e-05
0.00177331
3.21323e-05
0.0017358
3.7536e-05
0.00169053
4.53016e-05
0.00162821
6.23531e-05
0.00152571
0.000102523
0.00134497
0.000180779
0.00107084
0.000274157
0.000734138
0.000336733
0.000737532
-0.00188811
0.0046752
-0.00260824
0.0011958
-0.00326653
0.00119234
-0.00381641
0.00106333
-0.00428572
0.000918777
-0.00467423
0.000755474
-0.00497158
0.000565675
-0.00516201
0.000341321
-0.00522698
7.60209e-05
-0.0051539
-0.000230527
-0.00493758
-0.000569104
-0.0045767
-0.000926906
-0.00408174
-0.00131618
-0.0036048
-0.00174252
-0.00388667
-0.00189232
-0.0024704
-0.00141346
-0.00113184
-0.00133556
-0.00112389
0.000545281
-0.00121969
0.000789476
-0.000665923
0.00100904
-0.000481522
0.00123941
-0.000449282
0.00144304
-0.000384972
0.0014868
-0.000121188
0.00149272
-1.16233e-05
0.00149725
1.34585e-05
0.00150015
2.3364e-05
0.00150095
3.13637e-05
0.00150031
3.81965e-05
0.00149798
4.76625e-05
0.0014905
6.98697e-05
0.00144959
0.000143462
0.00128046
0.000349934
0.000985827
0.000568827
0.000617439
0.000705153
0.00136391
-0.00138865
0.00630185
-0.00215047
0.00195765
-0.00276921
0.0018111
-0.00325579
0.00154994
-0.00367307
0.00133607
-0.00402445
0.00110688
-0.00430007
0.000841312
-0.00448491
0.000526182
-0.00456183
0.000152968
-0.00451472
-0.000277623
-0.00433584
-0.000747961
-0.00403625
-0.00122647
-0.00366749
-0.00168492
-0.00334989
-0.0020601
-0.00305534
-0.00218685
-0.0023458
-0.00212298
-0.00145686
-0.00222449
-0.00257362
8.11899e-06
-0.00121935
0.000290106
-0.000947882
0.000576369
-0.000767757
0.000827328
-0.000700213
0.00116857
-0.000726182
0.00104756
0.00103612
0.00104976
0.0010733
0.00110485
0.00114323
0.00119107
0.00126113
0.00140477
0.00118597
0.000568772
0.00089925
0.000855574
0.000510561
0.00109387
0.00188818
-0.00103139
0.00763624
-0.00175589
0.00268217
-0.00218562
0.00224085
-0.00254478
0.00190912
-0.00286913
0.00166044
-0.00315465
0.00139242
-0.00338993
0.00107662
-0.00355908
0.000695353
-0.00364041
0.000234318
-0.00360798
-0.000310023
-0.00345375
-0.000902178
-0.00320648
-0.00147372
-0.00292708
-0.00196429
-0.00267198
-0.00231518
-0.00238416
-0.00247466
-0.00199886
-0.00250826
-0.00170217
-0.00252116
-0.00204853
-0.00222724
-0.000542461
-0.00149736
-0.00028275
-0.00147903
1.29935e-05
-0.0012436
0.000262081
-0.00101682
0.000423655
-0.000861758
0.000411206
-0.000713704
0.000821895
-0.000410814
0.00113738
-0.000315609
0.00141761
-0.000280352
0.00166403
-0.000246547
0.00185852
-0.000194618
0.00196981
-0.000111418
0.00195787
1.18141e-05
0.00178866
0.000169084
0.00141243
0.000376105
0.00122795
0.000753279
0.000909944
0.00117361
0.000457733
0.00154612
0.00236372
-0.000765876
0.0087586
-0.00141873
0.00333505
-0.00155244
0.00237458
-0.00174663
0.00210333
-0.00195377
0.0018676
-0.0021471
0.00158578
-0.00231198
0.00124152
-0.00243583
0.000819228
-0.0024977
0.00029621
-0.00245909
-0.000348608
-0.00231438
-0.00104687
-0.00211032
-0.00167776
-0.001901
-0.00217359
-0.00171143
-0.00250473
-0.00151673
-0.00266935
-0.00131465
-0.00271032
-0.00118415
-0.00265164
-0.00102773
-0.00238364
-0.000541246
-0.00198383
-0.000279919
-0.00174034
-8.26826e-05
-0.00144081
7.62483e-05
-0.00117572
0.000197256
-0.000982736
0.000310709
-0.000827128
0.000559716
-0.000659792
0.000811481
-0.000567347
0.00104763
-0.000516477
0.00126634
-0.000465225
0.00145617
-0.000384419
0.00159346
-0.000248681
0.00164189
-3.6594e-05
0.00157792
0.000233083
0.00142194
0.000532106
0.00126723
0.000908021
0.00110061
0.00134026
0.000797909
0.00184884
0.000932864
0.00222879
-0.00111127
0.00206015
-0.00172265
0.000625786
-0.00166099
-0.000689661
0.00984934
-0.00123419
0.0038796
-0.000922228
0.00206264
-0.000857092
0.00203821
-0.000948972
0.00195951
-0.00105258
0.00168942
-0.00112356
0.00131253
-0.00116162
0.000857303
-0.00115661
0.000291226
-0.00107338
-0.000431815
-0.000930231
-0.00119
-0.000781907
-0.00182607
-0.000664888
-0.0022906
-0.000585196
-0.00258441
-0.000527547
-0.00272698
-0.0004893
-0.00274856
-0.000478398
-0.00266254
-0.000417822
-0.00244421
-0.000266424
-0.00213521
-0.00016591
-0.00184083
-0.000109275
-0.00149741
-6.53115e-05
-0.00121965
-1.51005e-05
-0.00103292
6.33693e-05
-0.000905569
0.000207461
-0.000803855
0.000380517
-0.000740375
0.000560888
-0.000696822
0.000742774
-0.000647085
0.00092179
-0.000563409
0.00108728
-0.00041415
0.00121332
-0.000162605
0.00126648
0.00017995
0.00126838
0.000530232
0.00127986
0.000896569
0.00136458
0.00125556
0.00154977
0.00166369
0.00189842
0.00188017
0.00217351
0.0017851
0.00168337
0.00111595
8.08067e-05
-0.00088989
0.0111793
-0.000946371
0.0039361
-2.06998e-05
0.00113699
0.000348187
0.00166935
0.000307137
0.00200058
0.00023363
0.00176295
0.000235026
0.00131115
0.000295376
0.000796976
0.00041932
0.000167305
0.000572988
-0.00058546
0.000690968
-0.00130795
0.000739329
-0.00187441
0.000715654
-0.00226691
0.000635634
-0.00250438
0.000520855
-0.0026122
0.00038614
-0.00261384
0.000244051
-0.00252044
0.000126359
-0.00232651
4.87334e-05
-0.00205757
-3.65294e-05
-0.00175554
-0.00013462
-0.0013993
-0.000213324
-0.00114091
-0.000258064
-0.000988147
-0.000262501
-0.000901103
-0.000219482
-0.000846846
-0.000144597
-0.000815233
-4.94647e-05
-0.000791928
6.22726e-05
-0.000758796
0.00019307
-0.000694181
0.000351505
-0.000572561
0.000547284
-0.000358359
0.000734763
-7.50412e-06
0.000891803
0.000373216
0.00107207
0.000716328
0.0013387
0.00098896
0.00173222
0.00127019
0.00227118
0.00134123
0.00297432
0.00108199
0.0031412
0.000949105
0.00328625
0.00214497
0.0095244
0.00264635
0.00343475
0.00289779
0.000885566
0.00277265
0.00179451
0.00249158
0.00228167
0.00231848
0.00193606
0.00226475
0.00136491
0.00230583
0.000755921
0.00244114
3.20133e-05
0.002554
-0.000698295
0.0025353
-0.00128923
0.00238781
-0.0017269
0.00214787
-0.00202695
0.00185279
-0.00220929
0.00153261
-0.002292
0.00120739
-0.00228861
0.000889023
-0.00220207
0.000587108
-0.00202458
0.000309116
-0.00177957
4.26918e-05
-0.0014891
-0.000204406
-0.00115217
-0.000399084
-0.000946203
-0.000541608
-0.000845592
-0.000640145
-0.000802537
-0.000701458
-0.000785505
-0.000737096
-0.000779568
-0.000755834
-0.000773164
-0.00076033
-0.000754275
-0.000744886
-0.0007096
-0.000693369
-0.000624053
-0.000571858
-0.000479846
-0.000317974
-0.000261364
-7.38339e-06
6.26498e-05
0.000315235
0.000393735
0.000676162
0.000628058
0.00111462
0.00083176
0.00160789
0.000847989
0.00202739
0.000662517
0.00132225
0.00165427
0.0048557
0.0100577
0.0134822
0.0123028
0.00206497
0.0100624
0.00403495
0.00844679
0.00389727
0.0073227
0.00306017
0.0065363
0.00215133
0.00602224
0.00127
0.00557659
0.000477685
0.00507489
-0.000196578
0.00453278
-0.000747107
0.00397274
-0.00116685
0.00340974
-0.00146394
0.00285655
-0.0016561
0.00232477
-0.00176021
0.00182136
-0.0017852
0.00134332
-0.00172402
0.000880426
-0.00156169
0.000437137
-0.00133627
1.371e-05
-0.00106565
-0.00034676
-0.000791664
-0.000626425
-0.000666505
-0.000850773
-0.000621213
-0.00103912
-0.000614157
-0.0012041
-0.000620504
-0.00135639
-0.000627244
-0.00150516
-0.000624369
-0.00165843
-0.000600979
-0.00182366
-0.000544345
-0.00200812
-0.000439572
-0.00221844
-0.000269501
-0.00245903
-2.07482e-05
-0.00270915
0.000312797
-0.0030417
0.000726308
-0.0036188
0.00120519
-0.00451699
0.00172998
-0.0058554
0.00218642
-0.00747479
0.00228194
-0.00710845
0.00128795
-0.00197996
0.00303314
0.00339333
0.00412694
0.00294116
0.00544454
0.00257968
0.00584918
0.00265553
0.00586815
0.00213237
0.00577957
0.0013586
0.00560712
0.000650144
0.00531514
9.54069e-05
0.00489421
-0.000326168
0.00437371
-0.000646339
0.00379275
-0.000882973
0.00318606
-0.0010494
0.00258332
-0.00115747
0.00200776
-0.00120965
0.00146009
-0.00117634
0.000899172
-0.00100076
0.000351077
-0.000788153
-0.000149646
-0.000564895
-0.000536155
-0.000405121
-0.000842341
-0.000360286
-0.00110985
-0.000353673
-0.00135974
-0.000364233
-0.00160137
-0.000378848
-0.00183892
-0.000389671
-0.00207369
-0.000389564
-0.00230465
-0.00036999
-0.00252803
-0.000320941
-0.0027358
-0.00023178
-0.00291523
-9.00443e-05
-0.00305658
0.000120628
-0.00315208
0.000408324
-0.00322083
0.000795083
-0.00327769
0.00126208
-0.00330234
0.00175465
-0.0032634
0.0021475
-0.00300336
0.00202193
-0.00170627
-9.10678e-06
-0.00361417
-0.000339473
0.00377718
0.00128743
0.00131425
0.00228809
0.00157902
0.00314099
0.00180264
0.00381467
0.00145869
0.00425516
0.000918117
0.00443574
0.000469566
0.00439495
0.000136207
0.00417188
-0.000103094
0.00380245
-0.000276897
0.00332592
-0.000406441
0.00277909
-0.000502566
0.0021967
-0.000575071
0.00162011
-0.00063305
0.00111309
-0.000669308
0.00054269
-0.000430347
2.37545e-05
-0.000269193
-0.000365253
-0.000175852
-0.00065147
-0.000118868
-0.000909391
-0.000102331
-0.00116014
-0.000102888
-0.00141249
-0.000111856
-0.00166699
-0.000124321
-0.00192021
-0.000136423
-0.00216575
-0.00014399
-0.00239357
-0.000142141
-0.00258912
-0.000125371
-0.00273315
-8.77237e-05
-0.00279967
-2.34955e-05
-0.00276976
9.07501e-05
-0.00262977
0.000268356
-0.00234961
0.000514954
-0.00191326
0.000825751
-0.00130067
0.00114209
-0.000336735
0.00118359
0.00107493
0.000610285
0.00165632
-0.000590461
-0.00187902
-0.00606523
-0.00827017
-0.00446171
-0.00313629
-0.00155124
0.000254102
0.00171281
0.0026299
0.00309778
0.00323184
0.00312622
0.00284639
0.00243661
0.00193026
0.00135088
0.000712893
3.78224e-05
-0.000399398
-0.000675879
-0.000859455
-0.000986623
-0.00109779
-0.00120997
-0.0013315
-0.0014658
-0.0016124
-0.00176666
-0.00191906
-0.00205459
-0.00215231
-0.00218556
-0.00210427
-0.00184504
-0.0013389
-0.000521672
0.000612163
0.00178755
0.00238944
0.0017902
)
;

boundaryField
{
    floor
    {
        type            calculated;
        value           nonuniform List<scalar> 
36
(
0
0
0
0
0
0
0
0
0
0
0
0
0
0
0
0
0
0
0
-3.36166e-06
-8.90339e-06
-1.36774e-05
-1.77735e-05
-1.59834e-05
-1.43814e-05
-1.35006e-05
-1.43562e-06
-2.80065e-06
-2.98275e-06
-3.13896e-06
-2.10688e-06
-4.78472e-06
-5.59444e-06
-7.111e-06
-8.43347e-06
-8.68706e-06
)
;
    }
    ceiling
    {
        type            calculated;
        value           nonuniform List<scalar> 
43
(
-3.45609e-05
-3.29677e-05
-3.12798e-05
-1.11686e-05
-6.02534e-06
-2.69388e-06
-8.67695e-09
1.03782e-06
1.69583e-06
2.1526e-06
2.54213e-06
2.93525e-06
3.34864e-06
3.80067e-06
4.31793e-06
4.94679e-06
5.77487e-06
6.90785e-06
7.32377e-06
7.76081e-06
8.33461e-06
8.86549e-06
9.32471e-06
9.70978e-06
1.00085e-05
1.02061e-05
1.02968e-05
1.0287e-05
1.01904e-05
1.00209e-05
9.7863e-06
9.48166e-06
9.15669e-06
8.84081e-06
8.54874e-06
8.28548e-06
8.23909e-06
8.41746e-06
8.80549e-06
1.00192e-05
1.38427e-05
1.02704e-05
-4.43858e-05
)
;
    }
    sWall
    {
        type            calculated;
        value           uniform -0.000243099;
    }
    nWall
    {
        type            calculated;
        value           nonuniform List<scalar> 6(-4.81199e-05 -5.83974e-05 -6.42133e-05 -7.20373e-05 -7.88026e-05 -9.88084e-05);
    }
    sideWalls
    {
        type            empty;
        value           nonuniform 0();
    }
    glass1
    {
        type            calculated;
        value           nonuniform List<scalar> 9(-5.95663e-05 -0.000158099 -0.000237988 -0.000302987 -0.000356461 -0.000401068 -0.000440026 -0.000490081 -0.00054712);
    }
    glass2
    {
        type            calculated;
        value           nonuniform List<scalar> 2(-0.000247173 -0.000272767);
    }
    sun
    {
        type            calculated;
        value           uniform 0;
    }
    Table_master
    {
        type            calculated;
        value           nonuniform List<scalar> 9(-1.52928e-07 -1.53011e-07 -1.53026e-07 -1.53031e-07 -1.53033e-07 -1.53031e-07 -1.53026e-07 -1.53011e-07 -1.52971e-07);
    }
    Table_slave
    {
        type            calculated;
        value           nonuniform List<scalar> 9(1.53017e-07 1.52943e-07 1.52851e-07 1.5277e-07 1.52708e-07 1.52675e-07 1.52681e-07 1.52695e-07 1.52763e-07);
    }
    inlet
    {
        type            calculated;
        value           uniform -0.0043615;
    }
    outlet
    {
        type            calculated;
        value           nonuniform List<scalar> 2(0.00634289 0.00223791);
    }
}


// ************************************************************************* //
