/*--------------------------------*- C++ -*----------------------------------*\
  =========                 |
  \\      /  F ield         | OpenFOAM: The Open Source CFD Toolbox
   \\    /   O peration     | Website:  https://openfoam.org
    \\  /    A nd           | Version:  6
     \\/     M anipulation  |
\*---------------------------------------------------------------------------*/
FoamFile
{
    version     2.0;
    format      ascii;
    class       volScalarField;
    location    "500";
    object      alphat;
}
// * * * * * * * * * * * * * * * * * * * * * * * * * * * * * * * * * * * * * //

dimensions      [1 -1 -1 0 0 0 0];

internalField   nonuniform List<scalar> 
458
(
0.000964889
0.00102835
0.00102584
0.00106716
0.00110422
0.00113721
0.00116738
0.00119603
0.00122468
0.00125108
0.00127003
0.0012788
0.00127632
0.00126626
0.00125393
0.000498279
0.000627807
0.000618711
0.000603205
0.00058594
0.000563876
0.000541117
0.000519851
0.00050033
0.000482497
0.000466093
0.000450733
0.000435993
0.00042131
0.00040589
0.000388194
0.000369196
0.000332649
0.00140825
0.0027445
0.00244695
0.00284071
0.00312875
0.00342682
0.00372215
0.00399327
0.00420363
0.00435543
0.0044524
0.00443971
0.00422892
0.0036808
0.00260845
0.00130013
0.001135
0.00097613
0.000801379
0.0010756
0.0012979
0.00146341
0.00153252
0.00130638
0.00119117
0.00111167
0.0010503
0.000996155
0.000943001
0.000888472
0.000828456
0.000760171
0.000698548
0.000649712
0.000718351
0.000400395
0.0017991
0.00390977
0.0028392
0.00396745
0.00436219
0.00463786
0.00484522
0.0050042
0.00513082
0.00524486
0.00536222
0.00545693
0.00550082
0.00548622
0.00540835
0.00510296
0.00409753
0.001249
0.000975407
0.00142623
0.00173799
0.0019825
0.00202764
0.000713619
0.000645002
0.000587134
0.000539303
0.000500047
0.000467943
0.000441746
0.000420805
0.000405463
0.000454015
0.000535622
0.000792631
0.000447653
0.0021956
0.0055395
0.00282102
0.00433803
0.00490016
0.00508073
0.00513122
0.00513007
0.00513761
0.00518538
0.00527691
0.00538121
0.00547216
0.00555659
0.00565504
0.00569388
0.00543749
0.00444859
0.00121292
0.00163861
0.00210732
0.00244678
0.00267978
0.00259188
0.000739131
0.000695888
0.000679318
0.00067455
0.000671303
0.000662373
0.000644332
0.000623911
0.000596875
0.000559265
0.000555588
0.000855922
0.000495722
0.00260851
0.00775143
0.00350939
0.00407176
0.00501934
0.00523704
0.00520449
0.00508199
0.00498989
0.0049955
0.00509314
0.00520593
0.0052869
0.00533653
0.00538603
0.00541982
0.00531881
0.00497187
0.0041446
0.00378316
0.00361072
0.00351608
0.0034657
0.0033602
0.0029892
0.0029459
0.00298192
0.00300804
0.00299352
0.0029221
0.00275918
0.00243394
0.00199918
0.00150683
0.0011078
0.000979744
0.000745641
0.00058966
0.000632572
0.000661516
0.00304548
0.0102236
0.00600877
0.00411998
0.00447618
0.00490147
0.00508374
0.00505515
0.00490999
0.00488752
0.00502364
0.00514814
0.00520856
0.00521096
0.00519962
0.00518831
0.00510905
0.0048912
0.00452688
0.00424356
0.00403717
0.00383722
0.00366263
0.00354124
0.00349663
0.00354788
0.00360757
0.00363535
0.00362426
0.00357135
0.00347149
0.00324672
0.0028721
0.00235005
0.00180886
0.00136572
0.00103912
0.00103578
0.00151005
0.000891435
0.00345629
0.0121562
0.00982757
0.00676052
0.0052886
0.00465983
0.00459892
0.00479117
0.00489385
0.00498423
0.0051086
0.005197
0.00521184
0.00516729
0.00512034
0.00510339
0.00504975
0.00486339
0.00456348
0.00429884
0.00403755
0.00373228
0.00352663
0.00344936
0.00346594
0.00352732
0.00358241
0.00361011
0.00361399
0.0036001
0.00357619
0.00353102
0.00329617
0.0028809
0.00239036
0.00192001
0.00153822
0.00141706
0.00174902
0.00108956
0.00353723
0.0112321
0.0102768
0.00969012
0.00827512
0.00684854
0.00595671
0.00560067
0.0054691
0.00536319
0.00532973
0.00531759
0.00524881
0.00513967
0.00507021
0.00507805
0.00506024
0.00488213
0.00456886
0.00420842
0.00379521
0.00348413
0.00333462
0.00328827
0.00329214
0.00331281
0.00332986
0.00333961
0.00334908
0.00337251
0.00342604
0.00351964
0.00357332
0.00328643
0.00294885
0.00271005
0.00265927
0.00273406
0.00345113
0.00151412
0.0034466
0.00409354
0.0045616
0.00504049
0.00550418
0.00562831
0.00553711
0.00541952
0.00534784
0.00535792
0.0054032
0.00537857
0.00521449
0.00502957
0.00496398
0.00503808
0.00505348
0.00482797
0.00442447
0.00391043
0.00349575
0.00326192
0.00314838
0.00308872
0.00304954
0.00301432
0.00297437
0.00292792
0.00287732
0.00282441
0.00276582
0.00269171
0.00258978
0.00248217
0.00239958
0.00236742
0.00234558
0.00228026
0.00217908
0.00148895
0.00246745
0.005298
0.00553835
0.00574134
0.00584689
0.00589881
0.00593237
0.00590412
0.00576331
0.00544906
0.00498537
0.00471006
0.00472687
0.00494127
0.00493788
0.00453952
0.00400855
0.00358299
0.0033211
0.00316191
0.00304455
0.00294055
0.00284071
0.00274278
0.0026464
0.00255226
0.00246296
0.00238385
0.00232224
0.00228543
0.00227728
0.00227285
0.00226853
0.00225214
0.00218683
0.00203784
0.00182641
0.00126157
0.00274653
0.00634786
0.00636747
0.00637891
0.00637498
0.00625177
0.0060765
0.00582002
0.00529326
0.00457673
0.00387412
0.0038923
0.00431319
0.00488795
0.00496344
0.00459639
0.00417776
0.00390209
0.00371448
0.00357432
0.00344243
0.0033
0.0031437
0.00297961
0.00281826
0.00267064
0.00254548
0.0024478
0.00237784
0.00232917
0.00231681
0.00233751
0.00237182
0.00238968
0.00237794
0.00233955
0.00238755
0.00128659
0.00206892
0.00227407
0.0024353
0.00259971
0.00266495
0.00262883
0.00251349
0.00224399
0.00200773
0.00175402
0.00155877
0.0013732
0.00113945
0.0010486
0.00108581
0.00109206
0.00104554
0.000989498
0.000950733
0.000924885
0.00091068
0.000898796
0.000887005
0.00087571
0.000866809
0.000862688
0.000865335
0.000875874
0.000894629
0.000921607
0.000957167
0.00100284
0.0010547
0.0011113
0.00117289
0.00123663
0.00130375
0.00128458
0.00119175
0.00110906
)
;

boundaryField
{
    floor
    {
        type            compressible::alphatWallFunction;
        Prt             0.85;
        value           nonuniform List<scalar> 
36
(
0.000177605
6.90297e-05
8.85477e-05
8.71935e-05
8.48787e-05
8.22923e-05
7.89725e-05
7.55308e-05
7.22983e-05
6.93166e-05
6.65797e-05
6.40508e-05
6.16725e-05
5.93805e-05
5.70874e-05
5.4668e-05
5.1877e-05
4.88623e-05
4.30049e-05
4.30043e-05
5.3803e-05
6.11947e-05
6.86126e-05
8.28598e-05
8.92711e-05
9.35668e-05
0.000177603
0.00018393
0.0001612
0.00013897
6.90288e-05
0.000138968
0.00011401
0.000176933
0.000138851
0.000171959
)
;
    }
    ceiling
    {
        type            compressible::alphatWallFunction;
        Prt             0.85;
        value           nonuniform List<scalar> 
43
(
0.000286106
0.000312592
0.000333232
0.00035418
0.000362455
0.000357905
0.000343291
0.000308833
0.00027826
0.000244989
0.000219021
0.000194006
0.00016195
0.000149244
0.000154453
0.000155336
0.000148844
0.000140967
0.000135489
0.000131821
0.000129801
0.000128108
0.000126426
0.000124812
0.000123538
0.000122948
0.000123327
0.000124836
0.000127516
0.000131359
0.000136406
0.000142855
0.000150137
0.000158038
0.000166581
0.00017537
0.000184568
0.000181946
0.000169188
0.000157728
0.000460039
0.000538895
0.00037252
)
;
    }
    sWall
    {
        type            compressible::alphatWallFunction;
        Prt             0.85;
        value           uniform 0.000284957;
    }
    nWall
    {
        type            compressible::alphatWallFunction;
        Prt             0.85;
        value           nonuniform List<scalar> 6(9.33861e-05 0.000126754 0.000154689 0.000178474 0.000181899 0.000157413);
    }
    sideWalls
    {
        type            empty;
    }
    glass1
    {
        type            compressible::alphatWallFunction;
        Prt             0.85;
        value           nonuniform List<scalar> 9(0.000133877 0.000194261 0.000245854 0.000297051 0.0003494 0.000403913 0.000454475 0.000464489 0.000453621);
    }
    glass2
    {
        type            compressible::alphatWallFunction;
        Prt             0.85;
        value           nonuniform List<scalar> 2(0.000211586 0.000208258);
    }
    sun
    {
        type            compressible::alphatWallFunction;
        Prt             0.85;
        value           nonuniform List<scalar> 
14
(
0.00013739
0.000146315
0.000145961
0.000151749
0.000156918
0.000161503
0.000165682
0.000169639
0.000173586
0.000177212
0.00017981
0.000181011
0.000180673
0.000179295
)
;
    }
    Table_master
    {
        type            compressible::alphatWallFunction;
        Prt             0.85;
        value           nonuniform List<scalar> 9(0.000101307 9.11864e-05 8.25489e-05 7.533e-05 6.93459e-05 6.44081e-05 6.0347e-05 5.70786e-05 5.46709e-05);
    }
    Table_slave
    {
        type            compressible::alphatWallFunction;
        Prt             0.85;
        value           nonuniform List<scalar> 9(0.000105039 9.8705e-05 9.62673e-05 9.55667e-05 9.50897e-05 9.37717e-05 9.10987e-05 8.80621e-05 8.40225e-05);
    }
    inlet
    {
        type            fixedValue;
        value           uniform 1.94e-05;
    }
    outlet
    {
        type            zeroGradient;
    }
}


// ************************************************************************* //
