/*--------------------------------*- C++ -*----------------------------------*\
  =========                 |
  \\      /  F ield         | OpenFOAM: The Open Source CFD Toolbox
   \\    /   O peration     | Website:  https://openfoam.org
    \\  /    A nd           | Version:  6
     \\/     M anipulation  |
\*---------------------------------------------------------------------------*/
FoamFile
{
    version     2.0;
    format      ascii;
    class       volScalarField;
    location    "1400";
    object      k;
}
// * * * * * * * * * * * * * * * * * * * * * * * * * * * * * * * * * * * * * //

dimensions      [0 2 -2 0 0 0 0];

internalField   nonuniform List<scalar> 
458
(
0.00297416
0.00355693
0.00373498
0.00413958
0.00454726
0.00496991
0.00543782
0.00590385
0.00630344
0.0065527
0.00655056
0.00619861
0.00494225
0.00349946
0.00244123
0.000697798
0.00098692
0.00121457
0.00121778
0.00113692
0.00099227
0.000852293
0.000734995
0.000638659
0.000559959
0.000494942
0.000440256
0.000393452
0.000352497
0.000315411
0.000280447
0.000274263
0.000241284
0.00540965
0.0100241
0.00561226
0.00594106
0.00648041
0.00715571
0.00795293
0.00888523
0.00984195
0.010569
0.0108044
0.0104032
0.00922505
0.00736747
0.00506302
0.00370226
0.00276062
0.00196585
0.000727519
0.00157413
0.00190197
0.00203072
0.00195204
0.00164929
0.00135266
0.00111637
0.000933408
0.000788871
0.00067261
0.000578057
0.000500232
0.000437475
0.000394513
0.00037156
0.000887165
0.000498471
0.00793251
0.017857
0.00664581
0.00637372
0.00670328
0.00725036
0.00799579
0.00894795
0.00997071
0.0108269
0.0113147
0.0112388
0.010374
0.00867445
0.00682973
0.00532999
0.00431686
0.00237531
0.00190329
0.00232728
0.0024419
0.00246041
0.00232527
0.00177976
0.0013479
0.00104509
0.000833558
0.00068374
0.000575543
0.000495533
0.000435585
0.000391788
0.000365498
0.000382693
0.00147768
0.000739704
0.0107377
0.0284889
0.00794099
0.00632675
0.00636838
0.00677124
0.00748743
0.00852699
0.00962894
0.0106082
0.0113436
0.0115224
0.0107284
0.00904945
0.00726185
0.00580062
0.00468079
0.00362303
0.00299547
0.00362513
0.00344672
0.00328112
0.00308213
0.00280086
0.00216956
0.00181399
0.00160966
0.00147533
0.00136319
0.00124388
0.00113085
0.00101371
0.000880728
0.000648242
0.0005639
0.00250863
0.000937126
0.0139522
0.0425867
0.0109784
0.00636473
0.00597771
0.0063042
0.00720467
0.00856778
0.00978975
0.0108711
0.0117715
0.0120213
0.0110414
0.00914437
0.0072525
0.00585732
0.00487191
0.00434827
0.00487186
0.00461699
0.00432314
0.0040039
0.00363433
0.00324685
0.00290872
0.00273127
0.0026436
0.00255947
0.00243171
0.00223971
0.00197532
0.00168657
0.00139196
0.00106801
0.000832004
0.00173305
0.00233426
0.00172353
0.00174814
0.00201946
0.0177888
0.0575946
0.0187347
0.00778826
0.00623101
0.00630224
0.0077273
0.00945718
0.0106596
0.0117476
0.0126878
0.0128547
0.0115855
0.00922747
0.00698273
0.00555797
0.00491855
0.00484173
0.00516369
0.00521227
0.00495366
0.00449338
0.00397885
0.00353791
0.00327368
0.0031965
0.00318021
0.00313485
0.00302341
0.00282553
0.00251143
0.00214886
0.00178111
0.00142085
0.00116501
0.001389
0.00191585
0.00197339
0.0026768
0.00221745
0.0219127
0.0671514
0.0327857
0.0155308
0.0103544
0.0091206
0.0105372
0.0115602
0.0123154
0.0131938
0.014036
0.0140463
0.0123615
0.00937495
0.00670542
0.00530013
0.00498214
0.00520708
0.00552718
0.00548597
0.00510534
0.00455656
0.00402411
0.00367128
0.003517
0.00350344
0.00352726
0.00352835
0.00348939
0.00340156
0.0032224
0.00287649
0.00249377
0.00211725
0.0018716
0.0019131
0.00231396
0.00294799
0.00408872
0.00350069
0.0229059
0.0669913
0.0460302
0.0329317
0.0236529
0.0188171
0.0162844
0.0150119
0.0148066
0.0152549
0.0158548
0.0155386
0.0131947
0.00938243
0.00646338
0.00536015
0.00521224
0.00540221
0.00550693
0.00529957
0.00487003
0.00441361
0.004068
0.0038777
0.00380965
0.00380723
0.00382297
0.00384745
0.00390264
0.00402092
0.00421204
0.00438055
0.00438603
0.00444588
0.00482713
0.00617688
0.00914929
0.0134074
0.0265367
0.00718292
0.0219141
0.0315867
0.0294449
0.0265256
0.0231733
0.020278
0.018213
0.017364
0.0173369
0.0176578
0.0179954
0.01709
0.0136006
0.0089702
0.00656884
0.00574935
0.00557673
0.00556138
0.00545722
0.00522369
0.00494314
0.00471329
0.00456685
0.00448364
0.00442523
0.00435893
0.00427075
0.00417851
0.00413434
0.00420836
0.00445457
0.00488513
0.00546891
0.00625568
0.0072909
0.00844666
0.00940127
0.00983662
0.0099371
0.00598736
0.00824019
0.0130654
0.0165065
0.0186357
0.0202237
0.0212648
0.0210385
0.0204109
0.0199185
0.0176805
0.013069
0.00950861
0.00782785
0.00718419
0.00696773
0.00684734
0.00670884
0.00656808
0.0064496
0.00636536
0.00630993
0.00626333
0.00619632
0.0060763
0.00587604
0.00559211
0.00526882
0.00501196
0.00496523
0.00517986
0.00565184
0.00633899
0.00714315
0.00782863
0.00804346
0.00748726
0.00609489
0.0042386
0.0116347
0.0292754
0.0311084
0.0306066
0.0298161
0.0265156
0.020307
0.0157359
0.013522
0.0119857
0.0110205
0.0105748
0.0104745
0.0105933
0.0107256
0.010693
0.0103846
0.0100033
0.00967727
0.00941686
0.00921589
0.0090603
0.00892254
0.00876651
0.00855778
0.00827444
0.00791762
0.00751505
0.00715762
0.00702478
0.00716866
0.00757092
0.00815582
0.00886782
0.00946137
0.00961314
0.00671706
0.00443536
0.0144495
0.0148179
0.0152689
0.019111
0.0170713
0.0138222
0.0100662
0.00708491
0.00590622
0.00533637
0.00513187
0.00495749
0.00473984
0.00453394
0.00439125
0.00426943
0.00413442
0.00398359
0.00386763
0.00376144
0.0036782
0.00361626
0.00357026
0.0035336
0.00349967
0.00346468
0.0034305
0.0034067
0.00341206
0.00347682
0.00361775
0.00383213
0.00412471
0.00449893
0.00495706
0.00561696
0.00580021
0.00555035
0.00482868
0.00412901
)
;

boundaryField
{
    floor
    {
        type            kqRWallFunction;
        value           nonuniform List<scalar> 
36
(
0.00244123
0.000697798
0.00098692
0.00121457
0.00121778
0.00113692
0.00099227
0.000852293
0.000734995
0.000638659
0.000559959
0.000494942
0.000440256
0.000393452
0.000352497
0.000315411
0.000280447
0.000274263
0.000241284
0.000241284
0.000498471
0.000739704
0.000937126
0.00172353
0.00174814
0.00201946
0.00244123
0.00370226
0.00276062
0.00196585
0.000697798
0.00196585
0.000727519
0.00237531
0.00190329
0.00299547
)
;
    }
    ceiling
    {
        type            kqRWallFunction;
        value           nonuniform List<scalar> 
43
(
0.0144495
0.0148179
0.0152689
0.019111
0.0170713
0.0138222
0.0100662
0.00708491
0.00590622
0.00533637
0.00513187
0.00495749
0.00473984
0.00453394
0.00439125
0.00426943
0.00413442
0.00398359
0.00386763
0.00376144
0.0036782
0.00361626
0.00357026
0.0035336
0.00349967
0.00346468
0.0034305
0.0034067
0.00341206
0.00347682
0.00361775
0.00383213
0.00412471
0.00449893
0.00495706
0.00561696
0.00580021
0.00555035
0.00482868
0.00412901
0.0219141
0.0315867
0.0116347
)
;
    }
    sWall
    {
        type            kqRWallFunction;
        value           uniform 0.0144495;
    }
    nWall
    {
        type            kqRWallFunction;
        value           nonuniform List<scalar> 6(0.00201946 0.00221745 0.00350069 0.0042386 0.00443536 0.00412901);
    }
    sideWalls
    {
        type            empty;
    }
    glass1
    {
        type            kqRWallFunction;
        value           nonuniform List<scalar> 9(0.00297416 0.00540965 0.00793251 0.0107377 0.0139522 0.0177888 0.0219127 0.0229059 0.0219141);
    }
    glass2
    {
        type            kqRWallFunction;
        value           nonuniform List<scalar> 2(0.00718292 0.00598736);
    }
    sun
    {
        type            kqRWallFunction;
        value           nonuniform List<scalar> 
14
(
0.00297416
0.00355693
0.00373498
0.00413958
0.00454726
0.00496991
0.00543782
0.00590385
0.00630344
0.0065527
0.00655056
0.00619861
0.00494225
0.00349946
)
;
    }
    Table_master
    {
        type            kqRWallFunction;
        value           nonuniform List<scalar> 9(0.00177976 0.0013479 0.00104509 0.000833558 0.00068374 0.000575543 0.000495533 0.000435585 0.000391788);
    }
    Table_slave
    {
        type            kqRWallFunction;
        value           nonuniform List<scalar> 9(0.00216956 0.00181399 0.00160966 0.00147533 0.00136319 0.00124388 0.00113085 0.00101371 0.000880728);
    }
    inlet
    {
        type            turbulentIntensityKineticEnergyInlet;
        intensity       0.05;
        value           uniform 0.0018375;
    }
    outlet
    {
        type            zeroGradient;
    }
}


// ************************************************************************* //
