/*--------------------------------*- C++ -*----------------------------------*=========                 |
  \      /  F ield         | OpenFOAM: The Open Source CFD Toolbox
   \    /   O peration     | Website:  https://openfoam.org
    \  /    A nd           | Version:  6
     \/     M anipulation  |
\*---------------------------------------------------------------------------*/
FoamFile
{
    version     2.0;
    format      ascii;
    class       volScalarField;
    location    "1400";
    object      PPD;
}
// * * * * * * * * * * * * * * * * * * * * * * * * * * * * * * * * * * * * * //

dimensions      [0 0 0 0 0 0 0];

internalField   nonuniform List<scalar> 
458
(
13.26310479029037
7.108690397820126
6.59625899060083
6.178758716654983
5.947916442719901
5.843189143423871
5.863635374890819
6.03647593145503
6.4471961967953035
7.278857767504888
8.849338322839259
10.730737835501998
11.255202584210778
11.49828520226069
11.871757069962172
15.78287045504689
15.326399234126583
15.326399234126583
15.61053033740626
15.797295104695579
15.884046366636042
15.95660532014844
15.836414077609845
15.845479932595794
15.90310698256755
15.973700893241158
16.076202077763
16.102448956246874
16.087821063935465
16.058594293358723
16.014826683567208
15.98569664952474
16.41186738352573
10.267921033827207
7.203858487752157
7.033519202272046
6.529104452625518
6.259512220800076
6.133955036620307
6.134256949847412
6.260349577730196
6.527392514234606
7.012435526104682
7.877540379243584
9.405853647319915
11.189725963776155
11.576619112416637
11.746086403910127
10.782475253816557
10.438193260664761
10.699672661785883
13.005410751359236
15.018338989257074
15.129817039285555
15.510643149062332
15.826173458690747
15.865914175959091
15.794141728716895
15.764836810870179
15.698236500022716
15.600376713316336
15.52469590491053
15.447310825739592
15.379575088834116
15.298199564789954
15.24191670748209
15.213833528226985
15.185789187631741
13.493453764646489
10.586489194120077
6.907301251430454
7.517734384441894
7.130019453759161
6.942340330996444
6.822428532900858
6.796439623531441
6.79695188463441
6.732280330339265
6.689422911897708
6.990012736296819
8.01388772840697
10.379069735204908
11.894733086738427
12.079946007231825
12.1383372518427
12.173489084051894
11.109030795308612
10.499750177951725
13.558436754765054
14.443970256482643
15.050624862897791
15.585157088249687
15.614865007082741
16.270834461622286
16.146390652425254
16.014826683567208
15.869563616350277
15.725268720912965
15.567663369047366
15.425403764378416
15.284114289469684
15.22095621253014
15.157783689924045
14.506749407174183
11.079904726762521
12.28236215037677
6.664971765710803
7.877973759183973
7.917522460334268
8.12132815881337
8.24144997653282
8.235685670738334
7.938721273440564
7.1507356562884326
6.4532427287714995
6.3648772042888595
7.158685505665417
9.303898786473695
12.303130473752958
12.650572225612805
12.638454850763452
12.541867177234053
12.000039160881386
9.75311942569239
12.467225491574027
13.980417851393739
15.106282607637851
16.306299948883293
17.6467898898522
18.502266001834514
18.132343407007582
17.813440406294134
17.64507469207109
17.570415188399494
17.561942398698946
17.803792893597702
18.402965745008345
19.622027576349325
18.437822162770985
16.84615698229446
13.923688777104843
9.392252019072345
14.996810000825008
6.670485457462135
8.154790458548163
8.781156519376097
9.890324998483479
10.976316100074726
11.277490446392434
9.978390631030635
7.7135080067035915
6.292924377219094
5.971246378610232
6.666171231777994
8.768389567095952
12.183357198380975
13.42090734464243
13.446381288553624
13.294122911114414
13.256277812377775
13.150323113856146
13.70427610528283
15.11029162263037
16.995413017316537
18.583034753351768
19.58748860964799
20.436940874214244
21.027895597936094
21.45148751660996
21.74335031963183
21.408999536269263
21.084651511791108
20.816975066803693
20.69011668244019
20.599087126730765
19.413373112092117
17.682434966078645
13.578417834039357
13.39763155947307
12.71080970667515
15.399774155865146
11.442295987182959
18.34505626546941
7.044437297119799
8.85513166876332
9.552717520752907
11.554998456674099
13.66448496133269
14.852288005342274
11.82846553344902
7.961303545897422
6.13549677866591
5.74633988677887
6.419931884980286
8.599108841868258
12.419811047525116
14.470281537827205
14.714981616983067
14.605836813866674
14.74236509400312
15.45377809355287
16.650472732046055
18.0385005847683
19.42041473285761
20.64428629938928
21.59386473438819
22.27816827858321
22.753956349874557
23.049788468927858
23.198568855197422
23.254509665870316
23.161319853564407
22.883098830431535
22.497000803784758
21.841908253092754
20.04285092225902
17.98824172890245
14.266467725190509
14.211302381377891
13.37939638745479
14.096666666535043
14.252757562045417
22.10508560708284
8.650864216431145
12.509022904550875
11.181818892647883
12.118764506207171
14.660331387821785
14.931384241959151
10.83931586421484
7.555679075339455
5.898495183197824
5.597734378851001
6.386064571598666
9.002944637775599
13.802552428808966
15.927552701099088
16.456417734194815
16.56070632022552
16.967387017153186
17.94355051001736
19.18809544724232
20.523171826292256
21.754742026836723
22.772378182689025
23.422816040133142
23.856218553570287
24.08420826097978
24.198680991522735
24.217790688430753
24.14140486904624
23.95105917658512
23.610672607982508
23.124106774511986
22.533600024370003
21.65692494222631
19.276552444786546
16.026565010011453
14.760735634422986
13.567918439986826
12.27318856118525
16.85003330688457
28.784721515718715
21.788844315877014
19.69128337442484
14.439682044528794
13.341375466220398
13.305168867845012
11.847446820572216
8.963907068068423
6.4023782977732395
5.412747749171942
5.442500205283068
6.702812652491872
10.523459920983896
15.942074171482034
17.94355051001736
18.680270828533736
19.089096742327797
19.73865980153994
20.78326084511137
21.934365581017886
22.994144193664653
23.83727705307183
24.40937243520777
24.737077774061618
24.892167055672203
24.95046942993551
24.911592469103937
24.814552589239042
24.67906342972806
24.447794398159232
24.160488078871964
23.70493538797288
23.14270882238742
22.42391125561022
21.576035396644784
20.64428629938928
20.17964747745232
20.124324346062266
15.613286197100535
11.419679631748949
40.61748118655401
33.50223459148684
25.174056902669093
18.54956539081958
14.757126908445954
12.697129306624205
9.792268349484331
6.254272461929375
5.079539558803063
5.012580008590902
5.42241666379978
8.14910844849878
14.497314733940158
18.51840073860791
20.38531417062913
21.309699527919634
21.934365581017886
22.661982803186348
23.516632709681517
24.29431767726446
24.911592469103937
25.301926069825086
25.258043465246345
25.00246326051564
24.701314355070664
24.310076451125852
23.835730764976745
23.254982082820348
22.594583191076453
21.891476480160435
21.1058522293428
20.305492317365562
19.554650737630993
18.725154557071008
17.747286389232485
16.920805871368316
16.41678010537369
16.265619041454556
15.93853672889577
14.875791246660953
100.0
84.31966921601045
45.39140075275311
25.95686077127114
19.26722806265323
13.167767376386081
7.652030571467421
5.024410402720179
7.2039068722855575
13.105775498379202
18.534544983500666
21.227291829091413
21.741689047343314
22.199708108338413
22.67685121674573
23.22064575880134
23.68850853576882
24.035471698800862
24.181139000668324
24.162187687695052
24.00666933796657
23.769912412722462
23.457238590991295
23.06631845922314
22.562889004373673
22.008871542240158
21.428609057196567
20.903648004160814
20.547681933070933
20.31775287873188
20.139059937096363
19.99047114241536
19.799943785435545
19.73406931237193
20.183580156932905
22.00172457139432
26.86810876333675
17.536096658952886
100.0
73.48839590345025
28.866754866323276
12.787127043133424
6.871177096757734
5.0424499976556945
6.210828317584259
10.82531546423536
15.166539883550541
17.013251829414756
18.723011688605126
19.898856221996553
20.677966116307473
21.223095003632466
21.669200998949833
22.03723803092784
22.43070434271864
22.712677357279432
22.78781540903428
22.70114199156913
22.545501044549084
22.293959350121042
21.997951079620364
21.67373419506859
21.35825593126161
21.07790368667837
20.854471620363967
20.809507347687145
20.953696678899902
21.218940428317566
21.693597052863822
22.324337448600573
22.87577032582442
23.261622418861933
23.853324782715447
25.569232186562004
23.736891983208622
19.832361772125353
91.75598979371435
90.79789268702027
86.60658457646224
45.60051123302216
15.66274649306817
6.1738047014358415
5.338217685932165
8.266543484277733
11.144579297137128
13.47219251216427
15.280367985590487
16.75863540859143
17.776467499547152
18.308816622710467
18.558494423499226
18.626822788093378
18.589308634173918
18.488945048746288
18.404772872156144
18.268456182473642
18.129273872928053
17.979785105293516
17.82879861338509
17.67065177929379
17.505875968217808
17.361834315362373
17.244339194192534
17.189550621725502
17.248086966409602
17.47008187452802
17.932311689530238
18.666077217392726
19.8287907191838
21.763082740155
24.923476160063757
28.129540241872633
24.145784058054062
21.098265469069858
18.84140660230689
19.91364760468886
)
;

boundaryField
{
    ".*"
    {
        type            zeroGradient;
    }
}


// ************************************************************************* //
