/*--------------------------------*- C++ -*----------------------------------*\
  =========                 |
  \\      /  F ield         | OpenFOAM: The Open Source CFD Toolbox
   \\    /   O peration     | Website:  https://openfoam.org
    \\  /    A nd           | Version:  6
     \\/     M anipulation  |
\*---------------------------------------------------------------------------*/
FoamFile
{
    version     2.0;
    format      ascii;
    class       volScalarField;
    location    "1400";
    object      T;
}
// * * * * * * * * * * * * * * * * * * * * * * * * * * * * * * * * * * * * * //

dimensions      [0 0 0 1 0 0 0];

internalField   nonuniform List<scalar> 
458
(
299.536
299.176
299.159
299.156
299.154
299.151
299.148
299.145
299.142
299.141
299.149
299.171
299.22
299.242
299.275
299.577
299.545
299.545
299.565
299.578
299.584
299.589
299.593
299.595
299.597
299.598
299.599
299.599
299.598
299.596
299.593
299.591
299.62
299.766
299.199
299.159
299.156
299.155
299.154
299.151
299.144
299.131
299.119
299.124
299.159
299.214
299.249
299.264
299.277
299.29
299.325
299.584
299.523
299.531
299.558
299.58
299.583
299.581
299.577
299.572
299.566
299.561
299.555
299.549
299.543
299.539
299.537
299.535
299.592
300.011
299.245
299.179
299.181
299.19
299.195
299.196
299.183
299.149
299.108
299.101
299.146
299.223
299.277
299.293
299.298
299.301
299.325
299.502
299.502
299.537
299.586
299.626
299.619
299.611
299.602
299.593
299.583
299.573
299.562
299.552
299.542
299.539
299.533
299.529
299.585
300.261
299.312
299.21
299.219
299.245
299.269
299.281
299.264
299.194
299.106
299.073
299.127
299.233
299.312
299.341
299.34
299.332
299.332
299.358
299.413
299.498
299.582
299.655
299.711
299.755
299.786
299.811
299.83
299.845
299.854
299.861
299.865
299.862
299.751
299.649
299.579
299.597
300.51
299.404
299.249
299.257
299.303
299.357
299.397
299.38
299.258
299.109
299.045
299.107
299.242
299.353
299.403
299.405
299.393
299.39
299.426
299.499
299.59
299.682
299.76
299.821
299.871
299.905
299.929
299.946
299.955
299.957
299.951
299.938
299.916
299.848
299.743
299.641
299.608
299.796
299.885
299.887
300.737
299.529
299.319
299.296
299.344
299.422
299.511
299.497
299.314
299.11
299.021
299.089
299.252
299.404
299.483
299.501
299.493
299.503
299.554
299.636
299.726
299.811
299.883
299.937
299.975
300.001
300.017
300.025
300.028
300.023
300.008
299.987
299.958
299.904
299.817
299.714
299.656
299.726
299.761
299.82
300.939
299.74
299.506
299.431
299.436
299.497
299.601
299.548
299.325
299.09
298.991
299.076
299.278
299.476
299.587
299.623
299.63
299.657
299.72
299.797
299.876
299.946
300.002
300.037
300.06
300.072
300.078
300.079
300.075
300.065
300.047
300.021
299.989
299.943
299.876
299.792
299.734
299.737
299.754
299.797
301.237
300.352
300.083
299.884
299.775
299.757
299.753
299.558
299.242
298.991
298.929
299.077
299.341
299.588
299.72
299.766
299.791
299.83
299.891
299.956
300.014
300.059
300.089
300.106
300.114
300.117
300.115
300.11
300.103
300.091
300.076
300.052
300.022
299.983
299.936
299.883
299.856
299.872
299.914
300.179
301.668
301.253
300.926
300.592
300.322
300.133
299.843
299.344
298.923
298.753
298.841
299.13
299.485
299.756
299.868
299.921
299.956
299.996
300.042
300.083
300.115
300.135
300.146
300.149
300.149
300.146
300.142
300.136
300.129
300.123
300.117
300.116
300.118
300.129
300.154
300.198
300.261
300.326
300.374
300.483
292.696
294.865
296.304
296.957
297.191
297.487
297.893
298.374
298.866
299.378
299.757
299.938
300.019
300.062
300.093
300.123
300.148
300.167
300.178
300.183
300.183
300.181
300.178
300.175
300.171
300.169
300.168
300.168
300.171
300.175
300.182
300.198
300.224
300.261
300.306
300.347
300.373
300.396
293.274
294.983
296.34
296.956
297.431
297.97
298.576
299.18
299.568
299.838
300.002
300.086
300.133
300.162
300.184
300.2
300.212
300.219
300.221
300.219
300.217
300.213
300.209
300.205
300.202
300.2
300.198
300.199
300.201
300.204
300.211
300.222
300.241
300.268
300.301
300.331
300.329
300.372
295.21
295.177
295.174
296.51
297.423
298.146
298.891
299.473
299.763
299.941
300.05
300.13
300.188
300.226
300.251
300.268
300.28
300.287
300.289
300.287
300.284
300.28
300.276
300.272
300.268
300.265
300.262
300.259
300.256
300.252
300.249
300.247
300.246
300.248
300.254
300.275
300.291
300.304
300.311
300.357
)
;

boundaryField
{
    floor
    {
        type            wallHeatTransfer;
        Tinf            uniform 305.2;
        alphaWall       uniform 0.24;
        value           nonuniform List<scalar> 
36
(
299.882
300.487
300.355
300.297
300.313
300.343
300.387
300.436
300.484
300.53
300.575
300.617
300.658
300.697
300.736
300.776
300.818
300.825
300.897
300.897
300.609
300.476
300.415
300.428
300.504
300.473
299.882
299.794
299.868
299.978
300.487
299.978
300.479
299.934
300.144
299.912
)
;
    }
    ceiling
    {
        type            wallHeatTransfer;
        Tinf            uniform 303.2;
        alphaWall       uniform 0.24;
        value           nonuniform List<scalar> 
43
(
295.609
295.573
295.565
296.808
297.693
298.405
299.142
299.725
300.013
300.188
300.292
300.369
300.427
300.466
300.492
300.511
300.525
300.535
300.539
300.541
300.54
300.538
300.536
300.533
300.53
300.528
300.526
300.524
300.521
300.517
300.51
300.502
300.494
300.487
300.484
300.492
300.505
300.52
300.539
300.596
301.733
301.325
293.813
)
;
    }
    sWall
    {
        type            wallHeatTransfer;
        Tinf            uniform 315.2;
        alphaWall       uniform 0.36;
        value           uniform 296.674;
    }
    nWall
    {
        type            wallHeatTransfer;
        Tinf            uniform 307.2;
        alphaWall       uniform 0.36;
        value           nonuniform List<scalar> 6(301.035 300.941 300.747 301.211 301.175 301.184);
    }
    sideWalls
    {
        type            empty;
    }
    glass1
    {
        type            wallHeatTransfer;
        Tinf            uniform 315.2;
        alphaWall       uniform 4.3;
        value           nonuniform List<scalar> 9(309.863 309.015 308.497 308.118 307.816 307.545 307.327 307.426 307.733);
    }
    glass2
    {
        type            wallHeatTransfer;
        Tinf            uniform 307.2;
        alphaWall       uniform 4.3;
        value           nonuniform List<scalar> 2(304.155 304.416);
    }
    sun
    {
        type            wallHeatTransfer;
        Tinf            uniform 305.2;
        alphaWall       uniform 0.24;
        value           nonuniform List<scalar> 
14
(
300.075
299.71
299.685
299.661
299.64
299.621
299.602
299.585
299.57
299.563
299.571
299.601
299.686
299.773
)
;
    }
    Table_master
    {
        type            zeroGradient;
    }
    Table_slave
    {
        type            zeroGradient;
    }
    inlet
    {
        type            fixedValue;
        value           uniform 290.15;
    }
    outlet
    {
        type            zeroGradient;
    }
}


// ************************************************************************* //
