// -*- C++ -*-
// File generated by PyFoam - sorry for the ugliness

FoamFile
{
 version 2.0;
 format ascii;
 class volScalarField;
 location "2700";
 object T;
}

dimensions [ 0 0 0 1 0 0 0 ];

internalField nonuniform List<scalar> 458
(
  303.958
  303.708
  303.691
  303.683
  303.675
  303.668
  303.66
  303.651
  303.64
  303.628
  303.618
  303.611
  303.611
  303.617
  303.633
  303.836
  303.806
  303.792
  303.797
  303.805
  303.814
  303.823
  303.832
  303.84
  303.849
  303.858
  303.866
  303.874
  303.882
  303.889
  303.898
  303.908
  303.927
  304.12
  303.749
  303.719
  303.715
  303.711
  303.705
  303.696
  303.681
  303.659
  303.633
  303.608
  303.59
  303.582
  303.585
  303.597
  303.615
  303.644
  303.686
  303.838
  303.771
  303.763
  303.771
  303.783
  303.792
  303.801
  303.81
  303.819
  303.827
  303.835
  303.843
  303.85
  303.858
  303.867
  303.877
  303.891
  303.917
  304.291
  303.8
  303.755
  303.756
  303.762
  303.763
  303.757
  303.736
  303.698
  303.652
  303.609
  303.577
  303.562
  303.563
  303.575
  303.593
  303.617
  303.656
  303.741
  303.73
  303.74
  303.759
  303.78
  303.788
  303.797
  303.806
  303.815
  303.824
  303.833
  303.841
  303.849
  303.856
  303.864
  303.873
  303.885
  303.911
  304.465
  303.864
  303.795
  303.803
  303.822
  303.837
  303.839
  303.809
  303.748
  303.676
  303.61
  303.563
  303.541
  303.542
  303.556
  303.577
  303.6
  303.629
  303.642
  303.665
  303.696
  303.732
  303.768
  303.799
  303.824
  303.844
  303.86
  303.874
  303.886
  303.897
  303.906
  303.913
  303.92
  303.909
  303.898
  303.894
  303.91
  304.636
  303.945
  303.847
  303.853
  303.885
  303.918
  303.926
  303.877
  303.783
  303.685
  303.601
  303.545
  303.52
  303.521
  303.541
  303.568
  303.597
  303.624
  303.651
  303.685
  303.726
  303.768
  303.809
  303.844
  303.874
  303.897
  303.916
  303.93
  303.941
  303.949
  303.953
  303.954
  303.952
  303.941
  303.924
  303.909
  303.91
  303.915
  303.923
  303.972
  304.791
  304.051
  303.933
  303.926
  303.963
  304.004
  303.981
  303.899
  303.783
  303.666
  303.57
  303.51
  303.49
  303.501
  303.534
  303.574
  303.615
  303.653
  303.692
  303.736
  303.782
  303.827
  303.867
  303.902
  303.93
  303.951
  303.966
  303.978
  303.985
  303.989
  303.989
  303.985
  303.978
  303.966
  303.949
  303.93
  303.921
  303.922
  303.928
  303.973
  304.94
  304.216
  304.107
  304.091
  304.108
  304.086
  303.995
  303.86
  303.713
  303.583
  303.492
  303.449
  303.45
  303.486
  303.542
  303.604
  303.662
  303.713
  303.762
  303.81
  303.856
  303.898
  303.934
  303.963
  303.984
  304
  304.01
  304.017
  304.02
  304.02
  304.017
  304.01
  304
  303.987
  303.97
  303.953
  303.94
  303.937
  303.939
  303.971
  305.149
  304.612
  304.493
  304.416
  304.286
  304.1
  303.886
  303.682
  303.515
  303.405
  303.358
  303.367
  303.418
  303.496
  303.587
  303.673
  303.745
  303.803
  303.852
  303.897
  303.936
  303.969
  303.996
  304.015
  304.029
  304.037
  304.042
  304.044
  304.043
  304.041
  304.036
  304.029
  304.019
  304.006
  303.993
  303.98
  303.971
  303.971
  303.976
  304.073
  305.449
  305.193
  304.922
  304.486
  304.005
  303.601
  303.317
  303.151
  303.092
  303.117
  303.201
  303.32
  303.447
  303.574
  303.699
  303.794
  303.858
  303.905
  303.943
  303.976
  304.003
  304.026
  304.042
  304.052
  304.059
  304.061
  304.062
  304.061
  304.059
  304.055
  304.052
  304.049
  304.048
  304.048
  304.054
  304.065
  304.084
  304.106
  304.126
  304.176
  294.48
  296.479
  298.803
  300.287
  301.302
  302.034
  302.578
  302.981
  303.285
  303.513
  303.66
  303.768
  303.849
  303.909
  303.953
  303.987
  304.014
  304.036
  304.052
  304.063
  304.071
  304.075
  304.077
  304.078
  304.077
  304.077
  304.076
  304.075
  304.075
  304.075
  304.077
  304.08
  304.086
  304.097
  304.112
  304.132
  304.152
  304.182
  295.974
  298.891
  300.673
  301.711
  302.378
  302.836
  303.159
  303.406
  303.595
  303.735
  303.833
  303.903
  303.954
  303.992
  304.02
  304.041
  304.057
  304.068
  304.076
  304.081
  304.085
  304.087
  304.089
  304.09
  304.09
  304.091
  304.091
  304.092
  304.092
  304.092
  304.093
  304.096
  304.1
  304.107
  304.117
  304.13
  304.139
  304.166
  300.548
  300.457
  300.454
  302.261
  302.857
  303.151
  303.364
  303.536
  303.671
  303.779
  303.863
  303.926
  303.97
  304.002
  304.025
  304.04
  304.051
  304.059
  304.064
  304.068
  304.071
  304.073
  304.075
  304.076
  304.078
  304.08
  304.082
  304.084
  304.086
  304.088
  304.09
  304.092
  304.095
  304.097
  304.1
  304.104
  304.113
  304.119
  304.12
  304.157
)
;

boundaryField
{
  floor
  {
    type wallHeatTransfer;
    Tinf uniform 305.2;
    alphaWall uniform 0.24;
    value nonuniform List<scalar> 36
(
  303.784
  304.085
  304.027
  303.993
  303.994
  304.003
  304.02
  304.039
  304.058
  304.076
  304.094
  304.11
  304.127
  304.142
  304.157
  304.173
  304.19
  304.209
  304.245
  304.245
  304.205
  304.182
  304.164
  304.143
  304.142
  304.178
  303.784
  303.756
  303.807
  303.879
  304.085
  303.879
  304.081
  303.81
  303.91
  303.775
)
;
  }
  ceiling
  {
    type wallHeatTransfer;
    Tinf uniform 303.2;
    alphaWall uniform 0.24;
    value nonuniform List<scalar> 43
(
  300.738
  300.641
  300.631
  302.317
  302.878
  303.154
  303.354
  303.514
  303.64
  303.737
  303.811
  303.864
  303.899
  303.923
  303.94
  303.951
  303.958
  303.963
  303.966
  303.968
  303.969
  303.969
  303.969
  303.969
  303.969
  303.969
  303.969
  303.97
  303.972
  303.975
  303.979
  303.983
  303.988
  303.993
  303.999
  304.007
  304.018
  304.022
  304.018
  304.045
  305.344
  305.112
  296.445
)
;
  }
  sWall
  {
    type wallHeatTransfer;
    Tinf uniform 315.2;
    alphaWall uniform 0.36;
    value uniform 302.079;
  }
  nWall
  {
    type wallHeatTransfer;
    Tinf uniform 307.2;
    alphaWall uniform 0.36;
    value nonuniform List<scalar> 6
(
  304.722
  304.591
  304.509
  304.632
  304.609
  304.661
)
;
  }
  sideWalls
  {
    type empty;
  }
  glass1
  {
    type wallHeatTransfer;
    Tinf uniform 315.2;
    alphaWall uniform 4.3;
    value nonuniform List<scalar> 9
(
  311.561
  310.976
  310.608
  310.329
  310.095
  309.881
  309.735
  309.813
  310.037
)
;
  }
  glass2
  {
    type wallHeatTransfer;
    Tinf uniform 307.2;
    alphaWall uniform 4.3;
    value nonuniform List<scalar> 2
(
  306.098
  306.142
)
;
  }
  sun
  {
    type wallHeatTransfer;
    Tinf uniform 305.2;
    alphaWall uniform 0.24;
    value nonuniform List<scalar> 14
(
  304.086
  303.851
  303.832
  303.819
  303.808
  303.797
  303.786
  303.774
  303.762
  303.751
  303.742
  303.739
  303.743
  303.757
)
;
  }
  Table_master
  {
    type zeroGradient;
  }
  Table_slave
  {
    type zeroGradient;
  }
  inlet
  {
    type fixedValue;
    value uniform 292.15;
  }
  outlet
  {
    type zeroGradient;
  }
} 	// ************************************************************************* //

