/*--------------------------------*- C++ -*----------------------------------*\
  =========                 |
  \\      /  F ield         | OpenFOAM: The Open Source CFD Toolbox
   \\    /   O peration     | Website:  https://openfoam.org
    \\  /    A nd           | Version:  6
     \\/     M anipulation  |
\*---------------------------------------------------------------------------*/
FoamFile
{
    version     2.0;
    format      ascii;
    class       volScalarField;
    location    "1300";
    object      epsilon;
}
// * * * * * * * * * * * * * * * * * * * * * * * * * * * * * * * * * * * * * //

dimensions      [0 2 -3 0 0 0 0];

internalField   nonuniform List<scalar> 
458
(
0.000122095
0.000133816
0.000114956
0.000127735
0.000140876
0.000153419
0.000165388
0.000177038
0.000188802
0.000201391
0.000212473
0.000220806
0.000226178
0.000229677
0.000231357
2.41262e-05
4.23924e-05
4.39717e-05
3.14387e-05
1.8562e-05
7.52546e-06
3.7627e-06
3.84686e-06
4.41957e-06
4.8384e-06
4.56646e-06
3.95027e-06
3.27778e-06
3.75111e-06
8.31347e-06
1.40223e-05
1.48541e-05
1.15541e-05
0.000544926
0.001255
0.000130226
9.88961e-05
0.000100027
0.000103228
0.0001073
0.000112967
0.000121105
0.000132607
0.00014604
0.000160119
0.000173624
0.000186445
0.000207771
0.000272611
0.000237503
9.13408e-05
5.81963e-05
7.78498e-05
5.39238e-05
4.1668e-05
3.15385e-05
1.92042e-05
1.32525e-05
1.08958e-05
1.03307e-05
9.84679e-06
8.60837e-06
6.62007e-06
4.70619e-06
5.1311e-06
2.02306e-05
3.9744e-05
6.15441e-05
3.54501e-05
0.00135472
0.00420157
0.00027819
0.000109387
0.000102816
0.000106921
0.00011322
0.000121719
0.000132712
0.000146193
0.00016089
0.00017366
0.000182173
0.000186229
0.00018999
0.000201443
0.000225075
0.000288862
0.000166339
0.000143012
7.73921e-05
6.39094e-05
6.56498e-05
3.86808e-05
2.39526e-05
1.78357e-05
1.43393e-05
1.18966e-05
9.97984e-06
8.25627e-06
6.68897e-06
8.4692e-06
5.80664e-05
0.000116836
0.00012561
4.46519e-05
0.00270595
0.00962004
0.000676059
0.000138888
0.000114363
0.000121093
0.000131831
0.000145127
0.000161122
0.000179809
0.000200072
0.000215898
0.000223571
0.000223087
0.00021749
0.000212361
0.000218101
0.000248376
0.000301858
0.000129623
6.38564e-05
4.78525e-05
4.66772e-05
5.63979e-05
8.04972e-05
8.32574e-05
9.1633e-05
0.000107938
0.000135665
0.000158132
0.000178465
0.00018915
0.000181167
0.000148658
0.000146109
0.000218994
0.000193215
0.00468764
0.0172518
0.00163382
0.000211269
0.000131978
0.000137407
0.000153291
0.000174356
0.000200577
0.000232046
0.000266194
0.000290406
0.000299236
0.000294319
0.000279401
0.000258633
0.000236277
0.000210264
0.000164067
9.3632e-05
5.79413e-05
4.28642e-05
3.90977e-05
4.11401e-05
4.59491e-05
5.16013e-05
6.10208e-05
7.61917e-05
0.000100475
0.00012377
0.000147716
0.000164
0.000164396
0.000146468
0.00013537
0.000151126
0.000193209
0.000271585
0.000215917
0.000248678
0.00740669
0.0246982
0.00390179
0.000518156
0.000209514
0.000179136
0.000189865
0.000215527
0.00025343
0.000306867
0.000364998
0.000397117
0.000401288
0.00038602
0.000359274
0.000326715
0.000289769
0.000242004
0.000180127
0.000118534
7.58709e-05
5.31126e-05
4.34476e-05
4.05436e-05
4.16923e-05
4.66414e-05
5.65391e-05
7.36874e-05
0.000104372
0.000142728
0.000186069
0.000225482
0.000249651
0.000242099
0.000201086
0.000172809
0.000167454
0.000183747
0.000222702
0.000262979
0.0107937
0.0286203
0.00904655
0.00243281
0.000896938
0.000488168
0.00038228
0.000366285
0.000390082
0.00046594
0.000536465
0.000552531
0.000530643
0.000489182
0.000439539
0.000388346
0.00033673
0.0002786
0.000212207
0.00014832
9.95152e-05
6.90331e-05
5.3e-05
4.55463e-05
4.37628e-05
4.70544e-05
5.61261e-05
7.64419e-05
0.000116425
0.000170015
0.000235156
0.000303995
0.000368557
0.000419523
0.0003879
0.000348011
0.000338809
0.000338651
0.000449687
0.000470372
0.0116486
0.034258
0.0175853
0.0111421
0.00610729
0.00314452
0.00179749
0.00123076
0.000999907
0.000924516
0.000858191
0.000776033
0.000686257
0.000597239
0.000513485
0.000436919
0.000367093
0.000300108
0.00023341
0.000171552
0.0001218
8.65231e-05
6.58647e-05
5.52768e-05
5.19026e-05
5.347e-05
5.91908e-05
8.1773e-05
0.00013765
0.000211049
0.000295484
0.000392955
0.000509079
0.000657547
0.000863962
0.00104787
0.00135342
0.0015208
0.00332986
0.00106605
0.0107442
0.0182611
0.0161148
0.0121452
0.00879903
0.00606655
0.00412943
0.00287913
0.00211572
0.00161706
0.00126868
0.00101706
0.000827644
0.000679086
0.000558427
0.000457928
0.000372715
0.000299031
0.00023447
0.000179133
0.000134571
0.000101597
7.98807e-05
6.82283e-05
6.5301e-05
6.59047e-05
6.31887e-05
8.22948e-05
0.000154232
0.000245725
0.00034029
0.00044621
0.000568316
0.000706712
0.000862069
0.00104024
0.00123704
0.00143209
0.00164164
0.000977329
0.00821927
0.0145773
0.00895765
0.0061727
0.00437172
0.00315456
0.00233426
0.0017719
0.00137108
0.00107705
0.000856124
0.000685515
0.000550234
0.000440698
0.000350917
0.000277101
0.000216827
0.00016865
0.000131692
0.000105257
8.87648e-05
8.18092e-05
8.33322e-05
8.46572e-05
6.68707e-05
7.0674e-05
0.000143676
0.000240082
0.00032329
0.000414452
0.000522978
0.000645379
0.000774231
0.00088604
0.000949656
0.00094779
0.00089285
0.000564878
0.00644587
0.0116774
0.00736347
0.00523811
0.00386348
0.00288843
0.00217525
0.00165565
0.00127532
0.000992265
0.000777499
0.000611386
0.000480615
0.000376358
0.000292904
0.000226616
0.000175072
0.000136424
0.000109041
9.14495e-05
8.23798e-05
8.04528e-05
8.24747e-05
8.05886e-05
6.69663e-05
5.80714e-05
0.000102237
0.000151946
0.00020377
0.000282
0.000394622
0.000544087
0.000723454
0.000899021
0.00100308
0.00105696
0.000752719
0.000593077
0.00321417
0.00408526
0.00495473
0.00592258
0.0047671
0.00390149
0.0029784
0.00234124
0.00184587
0.00145698
0.00114912
0.000921442
0.000745048
0.000602389
0.000484471
0.000386374
0.000305225
0.000239137
0.000186592
0.000146077
0.000115947
9.45161e-05
8.02611e-05
7.19215e-05
6.80433e-05
6.55362e-05
6.00556e-05
5.65347e-05
8.49134e-05
0.000112855
0.000143119
0.000186544
0.000254072
0.000362591
0.000505221
0.00070773
0.000791204
0.000737683
0.000574191
0.000443359
)
;

boundaryField
{
    floor
    {
        Cmu             0.09;
        kappa           0.41;
        E               9.8;
        type            epsilonWallFunction;
        value           nonuniform List<scalar> 
36
(
0.000231357
2.41262e-05
4.23924e-05
4.39717e-05
3.14387e-05
1.8562e-05
7.52546e-06
3.7627e-06
3.84686e-06
4.41957e-06
4.8384e-06
4.56646e-06
3.95027e-06
3.27778e-06
3.75111e-06
8.31347e-06
1.40223e-05
1.48541e-05
1.15541e-05
1.15541e-05
3.54501e-05
4.46519e-05
0.000193215
0.000271585
0.000215917
0.000248678
0.000231357
0.000272611
0.000237503
9.13408e-05
2.41262e-05
9.13408e-05
5.81963e-05
0.000288862
0.000166339
0.000301858
)
;
    }
    ceiling
    {
        Cmu             0.09;
        kappa           0.41;
        E               9.8;
        type            epsilonWallFunction;
        value           nonuniform List<scalar> 
43
(
0.00321417
0.00408526
0.00495473
0.00592258
0.0047671
0.00390149
0.0029784
0.00234124
0.00184587
0.00145698
0.00114912
0.000921442
0.000745048
0.000602389
0.000484471
0.000386374
0.000305225
0.000239137
0.000186592
0.000146077
0.000115947
9.45161e-05
8.02611e-05
7.19215e-05
6.80433e-05
6.55362e-05
6.00556e-05
5.65347e-05
8.49134e-05
0.000112855
0.000143119
0.000186544
0.000254072
0.000362591
0.000505221
0.00070773
0.000791204
0.000737683
0.000574191
0.000443359
0.0107442
0.0182611
0.00644587
)
;
    }
    sWall
    {
        Cmu             0.09;
        kappa           0.41;
        E               9.8;
        type            epsilonWallFunction;
        value           uniform 0.00321417;
    }
    nWall
    {
        Cmu             0.09;
        kappa           0.41;
        E               9.8;
        type            epsilonWallFunction;
        value           nonuniform List<scalar> 6(0.000248678 0.000262979 0.000470372 0.000564878 0.000593077 0.000443359);
    }
    sideWalls
    {
        type            empty;
    }
    glass1
    {
        Cmu             0.09;
        kappa           0.41;
        E               9.8;
        type            epsilonWallFunction;
        value           nonuniform List<scalar> 9(0.000122095 0.000544926 0.00135472 0.00270595 0.00468764 0.00740669 0.0107937 0.0116486 0.0107442);
    }
    glass2
    {
        Cmu             0.09;
        kappa           0.41;
        E               9.8;
        type            epsilonWallFunction;
        value           nonuniform List<scalar> 2(0.00106605 0.000977329);
    }
    sun
    {
        Cmu             0.09;
        kappa           0.41;
        E               9.8;
        type            epsilonWallFunction;
        value           nonuniform List<scalar> 
14
(
0.000122095
0.000133816
0.000114956
0.000127735
0.000140876
0.000153419
0.000165388
0.000177038
0.000188802
0.000201391
0.000212473
0.000220806
0.000226178
0.000229677
)
;
    }
    Table_master
    {
        Cmu             0.09;
        kappa           0.41;
        E               9.8;
        type            epsilonWallFunction;
        value           nonuniform List<scalar> 9(3.86808e-05 2.39526e-05 1.78357e-05 1.43393e-05 1.18966e-05 9.97984e-06 8.25627e-06 6.68897e-06 8.4692e-06);
    }
    Table_slave
    {
        Cmu             0.09;
        kappa           0.41;
        E               9.8;
        type            epsilonWallFunction;
        value           nonuniform List<scalar> 9(8.04972e-05 8.32574e-05 9.1633e-05 0.000107938 0.000135665 0.000158132 0.000178465 0.00018915 0.000181167);
    }
    inlet
    {
        type            turbulentMixingLengthDissipationRateInlet;
        mixingLength    0.01;
        phi             phi;
        k               k;
        value           uniform 0.000101881;
    }
    outlet
    {
        type            zeroGradient;
    }
}


// ************************************************************************* //
