/*--------------------------------*- C++ -*----------------------------------*\
  =========                 |
  \\      /  F ield         | OpenFOAM: The Open Source CFD Toolbox
   \\    /   O peration     | Website:  https://openfoam.org
    \\  /    A nd           | Version:  6
     \\/     M anipulation  |
\*---------------------------------------------------------------------------*/
FoamFile
{
    version     2.0;
    format      ascii;
    class       volScalarField;
    location    "1400";
    object      T;
}
// * * * * * * * * * * * * * * * * * * * * * * * * * * * * * * * * * * * * * //

dimensions      [0 0 0 1 0 0 0];

internalField   nonuniform List<scalar> 
458
(
303.618
303.31
303.301
303.302
303.302
303.303
303.303
303.303
303.302
303.302
303.3
303.297
303.293
303.288
303.281
303.086
303.078
303.085
303.094
303.093
303.084
303.056
302.885
302.704
302.696
302.708
302.713
302.715
302.718
302.719
302.718
302.709
302.711
303.836
303.342
303.316
303.32
303.324
303.329
303.332
303.334
303.336
303.336
303.333
303.327
303.315
303.298
303.277
303.26
303.244
303.251
303.095
303.087
303.094
303.109
303.109
303.085
303.053
302.975
302.912
302.869
302.835
302.806
302.788
302.777
302.772
302.765
302.738
302.721
304.045
303.39
303.339
303.347
303.358
303.369
303.379
303.387
303.393
303.395
303.393
303.384
303.366
303.34
303.307
303.274
303.243
303.223
303.123
303.12
303.13
303.136
303.135
303.086
303.048
303.01
302.98
302.954
302.932
302.911
302.89
302.868
302.858
302.825
302.751
302.728
304.24
303.454
303.365
303.373
303.392
303.411
303.429
303.446
303.458
303.466
303.466
303.456
303.434
303.4
303.358
303.312
303.264
303.218
303.185
303.16
303.159
303.157
303.153
303.148
303.145
303.144
303.147
303.149
303.152
303.154
303.155
303.154
303.151
303.115
303.046
302.954
302.875
304.418
303.534
303.398
303.396
303.418
303.444
303.471
303.496
303.518
303.534
303.54
303.532
303.509
303.471
303.424
303.373
303.322
303.277
303.241
303.213
303.195
303.181
303.169
303.16
303.156
303.157
303.163
303.168
303.173
303.176
303.178
303.177
303.171
303.155
303.117
303.053
302.976
302.982
303.052
303.134
304.57
303.636
303.463
303.424
303.439
303.466
303.496
303.528
303.559
303.585
303.6
303.597
303.574
303.534
303.483
303.429
303.376
303.329
303.289
303.256
303.229
303.205
303.184
303.169
303.162
303.166
303.174
303.182
303.188
303.192
303.194
303.193
303.188
303.175
303.15
303.108
303.058
303.031
303.038
303.067
304.693
303.805
303.637
303.539
303.498
303.499
303.52
303.547
303.579
303.616
303.641
303.642
303.619
303.578
303.526
303.47
303.416
303.368
303.326
303.29
303.258
303.228
303.2
303.177
303.166
303.171
303.182
303.192
303.199
303.205
303.207
303.205
303.2
303.188
303.167
303.138
303.104
303.075
303.061
303.079
304.904
304.239
304.065
303.896
303.756
303.672
303.634
303.626
303.636
303.66
303.673
303.664
303.634
303.59
303.539
303.486
303.436
303.389
303.347
303.311
303.279
303.247
303.214
303.184
303.168
303.174
303.188
303.199
303.208
303.213
303.215
303.214
303.21
303.201
303.18
303.158
303.137
303.119
303.109
303.228
305.197
304.912
304.618
304.376
304.174
304.019
303.91
303.839
303.795
303.763
303.72
303.669
303.615
303.562
303.51
303.463
303.419
303.379
303.344
303.313
303.284
303.256
303.226
303.192
303.169
303.174
303.191
303.204
303.213
303.22
303.223
303.225
303.225
303.226
303.229
303.234
303.25
303.272
303.297
303.361
297.216
301.425
302.788
303.249
303.435
303.511
303.537
303.536
303.526
303.506
303.48
303.45
303.42
303.39
303.362
303.336
303.312
303.29
303.269
303.248
303.225
303.197
303.169
303.173
303.19
303.205
303.216
303.224
303.231
303.236
303.241
303.246
303.251
303.259
303.273
303.29
303.307
303.323
298.158
301.283
302.324
302.842
303.098
303.221
303.278
303.302
303.31
303.312
303.31
303.305
303.297
303.288
303.278
303.268
303.258
303.248
303.237
303.225
303.211
303.192
303.17
303.169
303.186
303.201
303.212
303.221
303.229
303.235
303.241
303.247
303.252
303.26
303.27
303.281
303.279
303.306
300.232
300.164
300.16
301.95
302.496
302.822
303.021
303.095
303.134
303.154
303.164
303.172
303.18
303.186
303.191
303.195
303.198
303.199
303.2
303.199
303.196
303.192
303.186
303.178
303.169
303.168
303.181
303.193
303.204
303.212
303.219
303.226
303.232
303.238
303.243
303.25
303.258
303.262
303.261
303.295
)
;

boundaryField
{
    floor
    {
        type            wallHeatTransfer;
        Tinf            uniform 305.2;
        alphaWall       uniform 0.24;
        value           nonuniform List<scalar> 
36
(
303.523
303.538
303.478
303.478
303.496
303.512
303.535
303.553
303.527
303.525
303.506
303.478
303.46
303.461
303.468
303.456
303.391
303.33
303.358
303.358
303.227
303.196
303.213
303.271
303.346
303.402
303.523
303.496
303.491
303.567
303.538
303.567
303.483
303.461
303.421
303.429
)
;
    }
    ceiling
    {
        type            wallHeatTransfer;
        Tinf            uniform 303.2;
        alphaWall       uniform 0.24;
        value           nonuniform List<scalar> 
43
(
300.42
300.344
300.331
302.017
302.536
302.844
303.032
303.102
303.139
303.158
303.167
303.175
303.181
303.187
303.192
303.195
303.198
303.199
303.2
303.199
303.197
303.193
303.188
303.182
303.176
303.175
303.185
303.194
303.203
303.21
303.217
303.222
303.228
303.233
303.239
303.245
303.253
303.256
303.255
303.285
305.105
304.844
298.421
)
;
    }
    sWall
    {
        type            wallHeatTransfer;
        Tinf            uniform 315.2;
        alphaWall       uniform 0.36;
        value           uniform 301.618;
    }
    nWall
    {
        type            wallHeatTransfer;
        Tinf            uniform 307.2;
        alphaWall       uniform 0.36;
        value           nonuniform List<scalar> 6(303.878 303.817 303.724 303.886 303.865 303.904);
    }
    sideWalls
    {
        type            empty;
    }
    glass1
    {
        type            wallHeatTransfer;
        Tinf            uniform 315.2;
        alphaWall       uniform 4.3;
        value           nonuniform List<scalar> 9(312.405 311.525 310.94 310.486 310.131 309.84 309.604 309.656 309.871);
    }
    glass2
    {
        type            wallHeatTransfer;
        Tinf            uniform 307.2;
        alphaWall       uniform 4.3;
        value           nonuniform List<scalar> 2(305.721 305.794);
    }
    sun
    {
        type            wallHeatTransfer;
        Tinf            uniform 305.2;
        alphaWall       uniform 0.24;
        value           nonuniform List<scalar> 
14
(
303.85
303.58
303.58
303.574
303.569
303.564
303.56
303.556
303.552
303.548
303.544
303.54
303.535
303.529
)
;
    }
    Table_master
    {
        type            zeroGradient;
    }
    Table_slave
    {
        type            zeroGradient;
    }
    inlet
    {
        type            fixedValue;
        value           uniform 292.15;
    }
    outlet
    {
        type            zeroGradient;
    }
}


// ************************************************************************* //
