/*--------------------------------*- C++ -*----------------------------------*\
  =========                 |
  \\      /  F ield         | OpenFOAM: The Open Source CFD Toolbox
   \\    /   O peration     | Website:  https://openfoam.org
    \\  /    A nd           | Version:  6
     \\/     M anipulation  |
\*---------------------------------------------------------------------------*/
FoamFile
{
    version     2.0;
    format      ascii;
    class       volVectorField;
    location    "1100";
    object      U;
}
// * * * * * * * * * * * * * * * * * * * * * * * * * * * * * * * * * * * * * //

dimensions      [0 1 -1 0 0 0 0];

internalField   nonuniform List<vector> 
458
(
(0.0895938 0.0694787 0)
(-0.139231 0.00552078 0)
(-0.13069 0.00908726 0)
(-0.150825 0.0085769 0)
(-0.169427 0.00660048 0)
(-0.185681 0.00399286 0)
(-0.198721 0.000886334 0)
(-0.207796 -0.0027673 0)
(-0.212115 -0.00708715 0)
(-0.210625 -0.0122594 0)
(-0.201395 -0.018815 0)
(-0.181307 -0.0273597 0)
(-0.148925 -0.0396766 0)
(-0.115786 -0.059442 0)
(-0.120561 -0.086967 0)
(0.0605253 0.000541711 0)
(-0.0172062 -0.013634 0)
(0.0168901 -0.0201426 0)
(0.0444425 -0.022195 0)
(0.0696946 -0.0192191 0)
(0.0886384 -0.0104124 0)
(0.096829 -0.00537747 0)
(0.0974988 -0.00338086 0)
(0.0954741 -0.00241507 0)
(0.0931414 -0.00173475 0)
(0.0907294 -0.00121164 0)
(0.0880482 -0.000743119 0)
(0.0848726 -0.000102383 0)
(0.0805952 0.00114096 0)
(0.0738996 0.00353409 0)
(0.0632652 0.00659826 0)
(0.0504848 0.0101967 0)
(-0.00199785 0.0252127 0)
(0.290117 0.151505 0)
(-0.161438 0.0272252 0)
(-0.119378 0.0320136 0)
(-0.14553 0.0309945 0)
(-0.165698 0.0282243 0)
(-0.183168 0.0244244 0)
(-0.197484 0.0196057 0)
(-0.208119 0.0135906 0)
(-0.214392 0.00613929 0)
(-0.215352 -0.00301057 0)
(-0.21018 -0.0137169 0)
(-0.198132 -0.0258952 0)
(-0.180599 -0.0406807 0)
(-0.164785 -0.0595118 0)
(-0.155116 -0.0728324 0)
(-0.122319 -0.0473804 0)
(-0.0628321 -0.0417727 0)
(-0.0803017 0.00259151 0)
(0.108862 0.000191506 0)
(0.0187254 -0.00843325 0)
(0.0187175 -0.0232693 0)
(0.0384541 -0.0359035 0)
(0.0568047 -0.0360425 0)
(0.0742759 -0.0133989 0)
(0.0773229 -0.000536336 0)
(0.0753029 0.0040781 0)
(0.0736637 0.00567636 0)
(0.0729489 0.006326 0)
(0.0724491 0.00650455 0)
(0.071924 0.00659259 0)
(0.0713699 0.00714068 0)
(0.070239 0.00911103 0)
(0.0662186 0.0148098 0)
(0.0564048 0.0209663 0)
(0.0485205 0.0272287 0)
(-0.0414154 0.052056 0)
(0.462461 0.232334 0)
(-0.206788 0.0574318 0)
(-0.0964946 0.0567139 0)
(-0.128804 0.0506957 0)
(-0.147472 0.0446397 0)
(-0.163932 0.0373895 0)
(-0.177719 0.0285462 0)
(-0.188444 0.0178609 0)
(-0.195486 0.00522091 0)
(-0.197925 -0.00921538 0)
(-0.194914 -0.0252417 0)
(-0.187127 -0.0425715 0)
(-0.176561 -0.0609225 0)
(-0.166777 -0.0790673 0)
(-0.155881 -0.0904543 0)
(-0.134477 -0.0884527 0)
(-0.113096 -0.0981265 0)
(-0.139759 -0.108576 0)
(0.0731748 0.00446089 0)
(-0.0270456 -0.0125947 0)
(-0.00519808 -0.0366131 0)
(0.0163475 -0.0569494 0)
(0.0288249 -0.0651086 0)
(0.057246 -0.0382043 0)
(0.0463932 -0.0183589 0)
(0.0364107 -0.0097491 0)
(0.0365598 -0.00572806 0)
(0.0402146 -0.00352947 0)
(0.0438221 -0.00234099 0)
(0.0471295 -0.00158125 0)
(0.0509035 -0.000547966 0)
(0.0564654 0.00326328 0)
(0.058741 0.02055 0)
(0.0502682 0.0334143 0)
(0.0527762 0.0454092 0)
(-0.075722 0.0813236 0)
(0.605427 0.30013 0)
(-0.257071 0.0914971 0)
(-0.0660496 0.0797515 0)
(-0.105302 0.0691618 0)
(-0.120183 0.0612504 0)
(-0.133878 0.0522539 0)
(-0.145835 0.0413315 0)
(-0.155665 0.0280099 0)
(-0.162716 0.0119697 0)
(-0.165921 -0.00674128 0)
(-0.163993 -0.0273324 0)
(-0.158632 -0.0483466 0)
(-0.151838 -0.0680903 0)
(-0.145898 -0.0842054 0)
(-0.140086 -0.0932269 0)
(-0.133151 -0.0955998 0)
(-0.133599 -0.0968027 0)
(-0.150012 -0.0801667 0)
(-0.138668 -0.0162106 0)
(-0.0880988 -0.0232719 0)
(-0.0551365 -0.0363028 0)
(-0.0276417 -0.0579725 0)
(-0.0121838 -0.0712312 0)
(-0.0111319 -0.0706715 0)
(-0.00335934 -0.036516 0)
(0.0305514 -0.0255369 0)
(0.05441 -0.0204097 0)
(0.0740538 -0.0168844 0)
(0.0902819 -0.0137472 0)
(0.102626 -0.010313 0)
(0.10982 -0.00611547 0)
(0.109345 -0.000787982 0)
(0.0997702 0.00637815 0)
(0.0817447 0.0262096 0)
(0.0647611 0.0459901 0)
(0.0696357 0.0661359 0)
(-0.0828853 0.112858 0)
(0.719546 0.355918 0)
(-0.30238 0.125726 0)
(-0.0331845 0.0953875 0)
(-0.0772603 0.082587 0)
(-0.087511 0.0736614 0)
(-0.097074 0.0634885 0)
(-0.105756 0.0510111 0)
(-0.11323 0.0355487 0)
(-0.118971 0.016588 0)
(-0.121599 -0.00588731 0)
(-0.119212 -0.0303296 0)
(-0.114497 -0.0539142 0)
(-0.109282 -0.0740632 0)
(-0.105126 -0.0888294 0)
(-0.102007 -0.0971397 0)
(-0.100146 -0.100787 0)
(-0.102004 -0.101742 0)
(-0.104544 -0.0927676 0)
(-0.095966 -0.0644454 0)
(-0.0749321 -0.0554862 0)
(-0.0518276 -0.0628382 0)
(-0.0331031 -0.0767911 0)
(-0.0207962 -0.0811744 0)
(-0.0132804 -0.0712131 0)
(-0.00129471 -0.0488388 0)
(0.019863 -0.036928 0)
(0.0379843 -0.0305951 0)
(0.0543282 -0.0258396 0)
(0.0687306 -0.0208361 0)
(0.0807202 -0.0142248 0)
(0.089413 -0.00476267 0)
(0.0934699 0.00741576 0)
(0.0912505 0.0217099 0)
(0.0846124 0.0404671 0)
(0.0752603 0.0601866 0)
(0.0938151 0.0822495 0)
(0.0392779 0.114183 0)
(0.102806 0.13542 0)
(0.125608 0.151138 0)
(-0.176516 0.18448 0)
(0.793159 0.405349 0)
(-0.338041 0.154889 0)
(-0.00855878 0.0966216 0)
(-0.043657 0.0910081 0)
(-0.0502645 0.0822695 0)
(-0.0558347 0.0707512 0)
(-0.0603472 0.0571496 0)
(-0.0639831 0.0405323 0)
(-0.0668338 0.0198533 0)
(-0.0666494 -0.00561059 0)
(-0.0621531 -0.0336005 0)
(-0.0576421 -0.0587491 0)
(-0.0542337 -0.0782874 0)
(-0.0526406 -0.0913046 0)
(-0.0527571 -0.0980047 0)
(-0.0546551 -0.0997784 0)
(-0.0584776 -0.0971302 0)
(-0.0612081 -0.0878891 0)
(-0.0580294 -0.074748 0)
(-0.049367 -0.0703275 0)
(-0.0394753 -0.0771898 0)
(-0.0305026 -0.0890645 0)
(-0.0229562 -0.0901255 0)
(-0.0161516 -0.0777574 0)
(-0.00855989 -0.063294 0)
(0.00425526 -0.0527349 0)
(0.0168821 -0.0461709 0)
(0.0291527 -0.0408022 0)
(0.0408997 -0.0347936 0)
(0.0518651 -0.0265518 0)
(0.061771 -0.0142953 0)
(0.0712757 0.00298023 0)
(0.0755484 0.0222673 0)
(0.0772379 0.0425183 0)
(0.0775012 0.0619889 0)
(0.0942457 0.0819832 0)
(0.0872268 0.088383 0)
(0.0992323 0.0426739 0)
(0.126887 -0.0114992 0)
(-0.215766 0.0942474 0)
(0.812666 0.449883 0)
(-0.35166 0.15031 0)
(0.00849824 0.0557693 0)
(0.00906572 0.0906199 0)
(0.00132177 0.0953202 0)
(-0.00555778 0.0775677 0)
(-0.00749693 0.0596277 0)
(-0.00709076 0.0416871 0)
(-0.00633742 0.019791 0)
(0.00100346 -0.00955279 0)
(0.00820618 -0.0395015 0)
(0.0110639 -0.063183 0)
(0.0107983 -0.0800618 0)
(0.00786568 -0.0905331 0)
(0.00282762 -0.0954143 0)
(-0.00394335 -0.0958086 0)
(-0.0114676 -0.0922355 0)
(-0.0178969 -0.0846162 0)
(-0.0211651 -0.0761913 0)
(-0.0221024 -0.0733291 0)
(-0.0233593 -0.0803354 0)
(-0.0240707 -0.0936678 0)
(-0.022966 -0.0952156 0)
(-0.0202823 -0.082099 0)
(-0.0180873 -0.0703708 0)
(-0.0135776 -0.0620482 0)
(-0.00788304 -0.0559963 0)
(-0.00149153 -0.0508519 0)
(0.00558503 -0.0450391 0)
(0.0131268 -0.0371745 0)
(0.0216828 -0.0251554 0)
(0.0324382 -0.00675399 0)
(0.0461074 0.0159545 0)
(0.0553816 0.0365273 0)
(0.0636429 0.0537376 0)
(0.0804084 0.0698464 0)
(0.0919561 0.073032 0)
(0.104178 0.0509681 0)
(0.159928 0.0526997 0)
(-0.154971 0.155445 0)
(0.909348 0.4678 0)
(-0.128515 0.132139 0)
(0.0821412 -0.0235292 0)
(0.130287 0.0279932 0)
(0.106901 0.0650465 0)
(0.0844837 0.0596608 0)
(0.0768507 0.0421903 0)
(0.0765345 0.0237859 0)
(0.0787003 0.00120451 0)
(0.088166 -0.0234796 0)
(0.0924574 -0.0454077 0)
(0.0899902 -0.0630158 0)
(0.0829411 -0.0755838 0)
(0.0728715 -0.0831846 0)
(0.0609273 -0.086344 0)
(0.0480465 -0.0858627 0)
(0.035074 -0.0824133 0)
(0.0230592 -0.076588 0)
(0.0129372 -0.070246 0)
(0.00415038 -0.0671281 0)
(-0.00616162 -0.0732785 0)
(-0.0162982 -0.0897819 0)
(-0.0223233 -0.0946433 0)
(-0.02504 -0.0811832 0)
(-0.0293368 -0.0702933 0)
(-0.0325004 -0.0631055 0)
(-0.0345751 -0.0580094 0)
(-0.0358464 -0.0537582 0)
(-0.0362335 -0.0491777 0)
(-0.0354647 -0.0432074 0)
(-0.0329348 -0.0348469 0)
(-0.0270158 -0.0231986 0)
(-0.0101511 -0.00695892 0)
(0.00969348 0.013062 0)
(0.0231477 0.0246947 0)
(0.042028 0.0319055 0)
(0.0591902 0.0260067 0)
(0.072759 0.00295008 0)
(0.162214 0.0593765 0)
(-0.461082 0.251282 0)
(1.03981 0.434306 0)
(0.49354 0.28589 0)
(0.502368 0.201414 0)
(0.488406 0.182092 0)
(0.400114 0.164667 0)
(0.321244 0.131602 0)
(0.27489 0.0941235 0)
(0.248131 0.0591606 0)
(0.231821 0.0273844 0)
(0.215323 -0.00209577 0)
(0.196084 -0.0271977 0)
(0.17595 -0.0461973 0)
(0.155411 -0.0590245 0)
(0.134712 -0.0665115 0)
(0.114207 -0.0696856 0)
(0.094311 -0.0695143 0)
(0.075414 -0.0668278 0)
(0.0578864 -0.0624382 0)
(0.0418925 -0.0575846 0)
(0.0267635 -0.0544324 0)
(0.0107037 -0.0573346 0)
(-0.00846592 -0.0763029 0)
(-0.0216665 -0.086663 0)
(-0.029698 -0.0729642 0)
(-0.0404692 -0.0624928 0)
(-0.0515067 -0.0562736 0)
(-0.0617991 -0.0519955 0)
(-0.0716562 -0.0482718 0)
(-0.0812661 -0.0439482 0)
(-0.0908736 -0.0378927 0)
(-0.100913 -0.0289238 0)
(-0.111952 -0.0159441 0)
(-0.124021 0.0016407 0)
(-0.134525 0.0226265 0)
(-0.152121 0.0459003 0)
(-0.183356 0.0724381 0)
(-0.230891 0.101284 0)
(-0.287788 0.130308 0)
(-0.363599 0.155771 0)
(-0.674412 0.175385 0)
(-0.544042 0.013426 0)
(0.184104 0.148991 0)
(0.249768 0.160351 0)
(0.241464 0.139555 0)
(0.243065 0.106327 0)
(0.245906 0.0702384 0)
(0.244626 0.0375369 0)
(0.238627 0.0108551 0)
(0.226698 -0.0101616 0)
(0.209863 -0.0257869 0)
(0.189786 -0.0366611 0)
(0.167826 -0.0434647 0)
(0.145176 -0.0468681 0)
(0.122775 -0.0475206 0)
(0.101267 -0.0460269 0)
(0.0810165 -0.0429741 0)
(0.062006 -0.0390808 0)
(0.043426 -0.0355471 0)
(0.0234774 -0.0356333 0)
(0.000812626 -0.0522235 0)
(-0.0205899 -0.0700746 0)
(-0.0342363 -0.0547673 0)
(-0.0495625 -0.044661 0)
(-0.0666788 -0.0399144 0)
(-0.0830839 -0.0368187 0)
(-0.0990263 -0.0337773 0)
(-0.114586 -0.029746 0)
(-0.129589 -0.023783 0)
(-0.143533 -0.0149897 0)
(-0.155404 -0.00256847 0)
(-0.163284 0.0140585 0)
(-0.167197 0.0348565 0)
(-0.170465 0.0594887 0)
(-0.174986 0.0850165 0)
(-0.178791 0.102084 0)
(-0.171774 0.0879627 0)
(-0.161171 -0.000988502 0)
(-0.293205 -0.21228 0)
(-0.25345 0.19232 0)
(0.117235 0.13204 0)
(0.0907858 0.112872 0)
(0.118757 0.108487 0)
(0.155015 0.0867774 0)
(0.183616 0.0578223 0)
(0.201108 0.0322896 0)
(0.207754 0.0130446 0)
(0.205703 -0.000485248 0)
(0.196626 -0.0100804 0)
(0.182556 -0.0167163 0)
(0.165203 -0.0209506 0)
(0.145986 -0.0231663 0)
(0.126051 -0.0236863 0)
(0.106284 -0.0227728 0)
(0.0872985 -0.0205974 0)
(0.0693707 -0.0171975 0)
(0.0521608 -0.0125093 0)
(0.0340037 -0.00847583 0)
(0.0162777 -0.0244985 0)
(-0.0156147 -0.0561738 0)
(-0.0401332 -0.0339995 0)
(-0.0568682 -0.0182818 0)
(-0.0748054 -0.0126581 0)
(-0.0911071 -0.0101261 0)
(-0.106009 -0.00823062 0)
(-0.119456 -0.00605004 0)
(-0.131093 -0.0030326 0)
(-0.140222 0.00133978 0)
(-0.145595 0.00773575 0)
(-0.145533 0.0175591 0)
(-0.137908 0.0331361 0)
(-0.122015 0.0549985 0)
(-0.0992866 0.0814576 0)
(-0.0723227 0.103563 0)
(-0.047386 0.105697 0)
(0.132372 0.0203238 0)
(-0.224114 -0.127022 0)
(-0.0308051 -0.295874 0)
(-0.366614 -0.0914473 0)
(-0.299278 0.106942 0)
(-0.139133 0.0371491 0)
(-0.096334 0.0437051 0)
(-0.0132488 0.0597766 0)
(0.0638258 0.0457618 0)
(0.113653 0.0275008 0)
(0.148245 0.0125614 0)
(0.16666 0.00149602 0)
(0.171648 -0.00666335 0)
(0.167797 -0.0125795 0)
(0.157739 -0.0170188 0)
(0.143686 -0.0204123 0)
(0.127309 -0.023062 0)
(0.109926 -0.0252608 0)
(0.0926431 -0.0273392 0)
(0.076419 -0.0297065 0)
(0.0621455 -0.0329116 0)
(0.0507297 -0.0377473 0)
(0.0433069 -0.0458139 0)
(0.0420829 -0.0621566 0)
(0.00333506 -0.0947705 0)
(-0.0436384 -0.087806 0)
(-0.0623322 -0.0725817 0)
(-0.0791614 -0.0625663 0)
(-0.0935051 -0.0549558 0)
(-0.106191 -0.0484389 0)
(-0.117148 -0.0423195 0)
(-0.125828 -0.0360527 0)
(-0.131222 -0.0290701 0)
(-0.131647 -0.020628 0)
(-0.124343 -0.0101856 0)
(-0.105581 0.00279034 0)
(-0.0738648 0.019699 0)
(-0.0342334 0.0410941 0)
(0.0372416 0.0647791 0)
(0.0872494 0.0494937 0)
(0.167957 0.00833398 0)
(-0.190767 -0.0666066 0)
)
;

boundaryField
{
    floor
    {
        type            noSlip;
    }
    ceiling
    {
        type            noSlip;
    }
    sWall
    {
        type            noSlip;
    }
    nWall
    {
        type            noSlip;
    }
    sideWalls
    {
        type            empty;
    }
    glass1
    {
        type            noSlip;
    }
    glass2
    {
        type            noSlip;
    }
    sun
    {
        type            noSlip;
    }
    Table_master
    {
        type            noSlip;
    }
    Table_slave
    {
        type            noSlip;
    }
    inlet
    {
        type            fixedValue;
        value           uniform (0.212132 -0.212132 0);
    }
    outlet
    {
        type            zeroGradient;
    }
}


// ************************************************************************* //
