/*--------------------------------*- C++ -*----------------------------------*\
  =========                 |
  \\      /  F ield         | OpenFOAM: The Open Source CFD Toolbox
   \\    /   O peration     | Website:  https://openfoam.org
    \\  /    A nd           | Version:  6
     \\/     M anipulation  |
\*---------------------------------------------------------------------------*/
FoamFile
{
    version     2.0;
    format      ascii;
    class       volVectorField;
    location    "1700";
    object      U;
}
// * * * * * * * * * * * * * * * * * * * * * * * * * * * * * * * * * * * * * //

dimensions      [0 1 -1 0 0 0 0];

internalField   nonuniform List<vector> 
458
(
(0.0651827 0.0745672 0)
(-0.146542 0.0136107 0)
(-0.153145 0.013209 0)
(-0.178688 0.0109689 0)
(-0.200864 0.00778479 0)
(-0.219123 0.00421518 0)
(-0.232792 0.000253503 0)
(-0.241142 -0.0042284 0)
(-0.243209 -0.00940217 0)
(-0.237749 -0.0155579 0)
(-0.223296 -0.0230758 0)
(-0.197424 -0.0322359 0)
(-0.159167 -0.0445736 0)
(-0.119132 -0.0633774 0)
(-0.114827 -0.088551 0)
(0.0592692 -0.0219286 0)
(0.032551 -0.0174069 0)
(0.047715 -0.0125887 0)
(0.0637707 -0.00926196 0)
(0.0736924 -0.0066517 0)
(0.0788206 -0.00402088 0)
(0.0805659 -0.00253403 0)
(0.0804762 -0.00196211 0)
(0.0797974 -0.00172178 0)
(0.0789976 -0.00154148 0)
(0.0780397 -0.00134488 0)
(0.0767698 -0.00105813 0)
(0.0749071 -0.000508755 0)
(0.0717948 0.000686675 0)
(0.066119 0.00308045 0)
(0.0564013 0.00603325 0)
(0.044294 0.00917591 0)
(-0.00147549 0.0219075 0)
(0.254277 0.158025 0)
(-0.154666 0.0426033 0)
(-0.130474 0.041582 0)
(-0.159678 0.0374573 0)
(-0.182407 0.0322038 0)
(-0.201166 0.0262802 0)
(-0.215605 0.0194519 0)
(-0.225171 0.0113685 0)
(-0.228983 0.00167927 0)
(-0.225758 -0.00979183 0)
(-0.215498 -0.0222498 0)
(-0.197738 -0.0349826 0)
(-0.174559 -0.0485711 0)
(-0.154165 -0.063991 0)
(-0.145458 -0.0712919 0)
(-0.121646 -0.0379073 0)
(-0.0726208 -0.0288668 0)
(-0.0689878 -0.0299578 0)
(0.0695991 -0.0451794 0)
(0.0310964 -0.029779 0)
(0.0417782 -0.0198523 0)
(0.0551653 -0.0143411 0)
(0.063669 -0.009813 0)
(0.0681646 -0.0027388 0)
(0.0686943 0.00138369 0)
(0.0682169 0.00298346 0)
(0.0680678 0.00355831 0)
(0.0681788 0.00385816 0)
(0.0682623 0.00411147 0)
(0.0682316 0.00451678 0)
(0.0680459 0.00546387 0)
(0.0671737 0.00786379 0)
(0.0632029 0.0142678 0)
(0.0532773 0.020365 0)
(0.0441394 0.0254955 0)
(-0.0333684 0.0460188 0)
(0.422854 0.239614 0)
(-0.190296 0.0750329 0)
(-0.100655 0.06965 0)
(-0.132703 0.0595296 0)
(-0.152576 0.0498026 0)
(-0.169353 0.0393465 0)
(-0.182612 0.0274389 0)
(-0.1918 0.013584 0)
(-0.195905 -0.00245147 0)
(-0.193104 -0.0203592 0)
(-0.183842 -0.0393283 0)
(-0.168499 -0.0576814 0)
(-0.149582 -0.0744189 0)
(-0.131266 -0.0880984 0)
(-0.113804 -0.0917274 0)
(-0.0887264 -0.0764476 0)
(-0.057342 -0.0717551 0)
(-0.0535686 -0.0741003 0)
(0.0557651 -0.0632926 0)
(0.0238483 -0.0431239 0)
(0.0323944 -0.0301738 0)
(0.043336 -0.0234865 0)
(0.0510136 -0.0196084 0)
(0.0566811 -0.0135925 0)
(0.053896 -0.00899405 0)
(0.0512786 -0.0067641 0)
(0.0510579 -0.00557679 0)
(0.051954 -0.00479119 0)
(0.0530929 -0.00418111 0)
(0.0544564 -0.00354235 0)
(0.0566303 -0.00245686 0)
(0.0610148 0.0010915 0)
(0.0608035 0.0189326 0)
(0.0497084 0.0320919 0)
(0.0475738 0.0423874 0)
(-0.0618846 0.0716605 0)
(0.567591 0.306835 0)
(-0.237724 0.108012 0)
(-0.0657177 0.0940101 0)
(-0.101777 0.0787296 0)
(-0.116454 0.066542 0)
(-0.129613 0.0537026 0)
(-0.140686 0.0388257 0)
(-0.148975 0.0210325 0)
(-0.153077 -0.000231538 0)
(-0.150476 -0.0245884 0)
(-0.141763 -0.0499076 0)
(-0.128257 -0.0732213 0)
(-0.112405 -0.0922936 0)
(-0.0965366 -0.104969 0)
(-0.080211 -0.107775 0)
(-0.0606875 -0.100832 0)
(-0.0403879 -0.094134 0)
(-0.0281169 -0.0818297 0)
(-0.000808623 -0.0225634 0)
(0.0252299 -0.0588271 0)
(0.0228768 -0.0495907 0)
(0.0258221 -0.0371906 0)
(0.0310443 -0.0293304 0)
(0.0342878 -0.0233284 0)
(0.0405497 -0.0159343 0)
(0.0527464 -0.0124822 0)
(0.0636845 -0.0104403 0)
(0.0724683 -0.00884474 0)
(0.0792285 -0.00711793 0)
(0.0834411 -0.00496747 0)
(0.0838146 -0.00224996 0)
(0.0789279 0.00136278 0)
(0.0668837 0.00643062 0)
(0.0543238 0.0272463 0)
(0.0437239 0.0452466 0)
(0.052715 0.0608592 0)
(-0.0831948 0.0956274 0)
(0.685955 0.36107 0)
(-0.284597 0.139085 0)
(-0.0293017 0.108488 0)
(-0.0680117 0.0911879 0)
(-0.0765755 0.0780533 0)
(-0.0848269 0.0639899 0)
(-0.0924202 0.0471455 0)
(-0.0986585 0.0262805 0)
(-0.101795 0.000446706 0)
(-0.097896 -0.029711 0)
(-0.0891322 -0.0604704 0)
(-0.0776444 -0.087181 0)
(-0.0654848 -0.107292 0)
(-0.0538998 -0.119507 0)
(-0.0425509 -0.122756 0)
(-0.0305333 -0.118251 0)
(-0.0191875 -0.109723 0)
(-0.0104237 -0.0957386 0)
(0.00429867 -0.0683252 0)
(0.0160209 -0.0641723 0)
(0.017255 -0.0524062 0)
(0.0175571 -0.0407881 0)
(0.0199037 -0.0328207 0)
(0.0233867 -0.0264652 0)
(0.0299154 -0.0189934 0)
(0.0389086 -0.0150474 0)
(0.047609 -0.0129293 0)
(0.0553737 -0.0108321 0)
(0.0620098 -0.00771195 0)
(0.0669711 -0.00288107 0)
(0.069399 0.00369154 0)
(0.0678026 0.0114971 0)
(0.062212 0.0209313 0)
(0.054805 0.0368292 0)
(0.0459969 0.0554463 0)
(0.0639675 0.0762488 0)
(0.00538646 0.10591 0)
(0.0449747 0.125083 0)
(-0.0810244 0.0427608 0)
(-0.260382 -0.0169498 0)
(0.764558 0.408464 0)
(-0.323122 0.163887 0)
(-0.00213849 0.105588 0)
(-0.0301215 0.0968382 0)
(-0.0330135 0.0852848 0)
(-0.036663 0.0702397 0)
(-0.0401317 0.0522373 0)
(-0.0430425 0.029874 0)
(-0.0432061 0.000675158 0)
(-0.0347927 -0.0353363 0)
(-0.0259177 -0.0701022 0)
(-0.017703 -0.0979407 0)
(-0.0109214 -0.117267 0)
(-0.0057645 -0.128201 0)
(-0.00171775 -0.130975 0)
(0.00180478 -0.126317 0)
(0.00439058 -0.115969 0)
(0.00583297 -0.0997504 0)
(0.00916974 -0.0778875 0)
(0.0114142 -0.0636082 0)
(0.00927534 -0.0509795 0)
(0.00708215 -0.0411267 0)
(0.00714031 -0.0348119 0)
(0.00927907 -0.0302032 0)
(0.01376 -0.0258858 0)
(0.0199205 -0.0232496 0)
(0.0265223 -0.0213218 0)
(0.0330588 -0.0189005 0)
(0.0393379 -0.0150068 0)
(0.0450969 -0.00866195 0)
(0.0503631 0.000793507 0)
(0.0527833 0.0120942 0)
(0.0526311 0.0244534 0)
(0.0522367 0.0395296 0)
(0.0511907 0.0570979 0)
(0.0698801 0.0785338 0)
(0.0609081 0.095358 0)
(0.0894259 0.0946547 0)
(0.110793 0.0546182 0)
(-0.136656 -0.0299959 0)
(0.791868 0.451199 0)
(-0.338623 0.154329 0)
(0.0164306 0.0575352 0)
(0.0243175 0.0895712 0)
(0.0233722 0.0941253 0)
(0.0201606 0.0766956 0)
(0.01979 0.0542846 0)
(0.0207814 0.0288935 0)
(0.0287349 -0.00515038 0)
(0.0399645 -0.0445381 0)
(0.046548 -0.078228 0)
(0.048841 -0.103224 0)
(0.0478766 -0.119641 0)
(0.0445126 -0.128366 0)
(0.039604 -0.129911 0)
(0.0337195 -0.124622 0)
(0.027021 -0.113504 0)
(0.0198758 -0.0971684 0)
(0.0135296 -0.0769314 0)
(0.00712368 -0.0592445 0)
(9.57772e-05 -0.0462196 0)
(-0.00506293 -0.0386496 0)
(-0.00751845 -0.0348202 0)
(-0.00787829 -0.0323831 0)
(-0.00639689 -0.0303337 0)
(-0.0035453 -0.0287682 0)
(0.000129006 -0.0272387 0)
(0.00427782 -0.0250467 0)
(0.00882414 -0.021389 0)
(0.0139997 -0.0151124 0)
(0.0203158 -0.00488379 0)
(0.0288871 0.00870046 0)
(0.03453 0.0220755 0)
(0.0407959 0.035718 0)
(0.0478219 0.0499311 0)
(0.066787 0.0668807 0)
(0.0806054 0.0755186 0)
(0.109681 0.066646 0)
(0.151563 0.0497149 0)
(-0.0300662 0.0879383 0)
(0.888241 0.463701 0)
(-0.108201 0.135114 0)
(0.0915145 -0.0243047 0)
(0.145547 0.0197185 0)
(0.130306 0.0556018 0)
(0.113572 0.0515445 0)
(0.109493 0.0315259 0)
(0.111183 0.00473798 0)
(0.121034 -0.0265943 0)
(0.127958 -0.0557156 0)
(0.126401 -0.0806136 0)
(0.118444 -0.0995497 0)
(0.10647 -0.112181 0)
(0.0922992 -0.118747 0)
(0.077131 -0.119076 0)
(0.0614134 -0.112932 0)
(0.0451656 -0.101376 0)
(0.0290538 -0.0852616 0)
(0.0139954 -0.0658437 0)
(-6.52961e-05 -0.0479824 0)
(-0.0112302 -0.0374435 0)
(-0.0189229 -0.0332953 0)
(-0.0241114 -0.0318666 0)
(-0.0274928 -0.0312759 0)
(-0.0294838 -0.0308198 0)
(-0.0304649 -0.0303258 0)
(-0.0307937 -0.0295548 0)
(-0.0306351 -0.0281565 0)
(-0.0299074 -0.0256813 0)
(-0.0282184 -0.0215267 0)
(-0.0245133 -0.0150036 0)
(-0.01517 -0.00541245 0)
(-0.00249769 0.00658591 0)
(0.00898851 0.0174007 0)
(0.0210127 0.0244597 0)
(0.0401753 0.0312666 0)
(0.0595797 0.0271468 0)
(0.0849383 0.00739744 0)
(0.149941 0.0382689 0)
(-0.38245 0.189959 0)
(1.0188 0.429972 0)
(0.484184 0.283882 0)
(0.499369 0.193711 0)
(0.497182 0.171215 0)
(0.420167 0.152876 0)
(0.348632 0.120682 0)
(0.306619 0.0828455 0)
(0.282737 0.0445535 0)
(0.262772 0.00699057 0)
(0.23711 -0.0277157 0)
(0.209437 -0.0558469 0)
(0.181433 -0.0763355 0)
(0.153853 -0.089884 0)
(0.127442 -0.0973573 0)
(0.102329 -0.098281 0)
(0.0778355 -0.0920221 0)
(0.053011 -0.0805808 0)
(0.0288845 -0.0651491 0)
(0.0066732 -0.0467219 0)
(-0.0121591 -0.0312031 0)
(-0.0245864 -0.0252314 0)
(-0.0341994 -0.0238849 0)
(-0.0419097 -0.0241905 0)
(-0.0484385 -0.0248218 0)
(-0.0541562 -0.0253208 0)
(-0.0593564 -0.0255279 0)
(-0.064349 -0.0252708 0)
(-0.0694411 -0.0242835 0)
(-0.0749501 -0.0221347 0)
(-0.0812287 -0.0181292 0)
(-0.0885953 -0.0113575 0)
(-0.0970362 -0.00114516 0)
(-0.105087 0.0117818 0)
(-0.115544 0.0262854 0)
(-0.134807 0.0428298 0)
(-0.164964 0.0616292 0)
(-0.20849 0.0799433 0)
(-0.259264 0.0952125 0)
(-0.330229 0.106202 0)
(-0.595423 0.111536 0)
(-0.534889 -0.0136263 0)
(0.184429 0.122802 0)
(0.255912 0.138369 0)
(0.249929 0.121819 0)
(0.249899 0.0906096 0)
(0.248841 0.0534384 0)
(0.241663 0.0187556 0)
(0.228517 -0.00983165 0)
(0.208447 -0.0321288 0)
(0.183763 -0.04922 0)
(0.156449 -0.0620754 0)
(0.128745 -0.0709042 0)
(0.101392 -0.0735239 0)
(0.0738377 -0.0678942 0)
(0.04418 -0.0574185 0)
(0.0150711 -0.0434476 0)
(-0.0106814 -0.0265152 0)
(-0.026509 -0.0170255 0)
(-0.0379629 -0.0140706 0)
(-0.0478045 -0.0138422 0)
(-0.0570866 -0.0142786 0)
(-0.0661867 -0.0145265 0)
(-0.0751558 -0.0142777 0)
(-0.0839728 -0.0133627 0)
(-0.0926021 -0.011597 0)
(-0.100983 -0.00878346 0)
(-0.109017 -0.00476768 0)
(-0.116575 0.00051295 0)
(-0.123458 0.0070305 0)
(-0.128959 0.0146137 0)
(-0.132229 0.0254819 0)
(-0.134346 0.0404007 0)
(-0.136351 0.0585992 0)
(-0.13881 0.0775764 0)
(-0.138921 0.0890081 0)
(-0.123716 0.0724079 0)
(-0.0959838 -0.0123454 0)
(-0.266325 -0.186957 0)
(-0.228063 0.171266 0)
(0.119131 0.108749 0)
(0.0874943 0.0914468 0)
(0.109894 0.0923573 0)
(0.139879 0.0743113 0)
(0.160973 0.0448644 0)
(0.171204 0.0176539 0)
(0.171138 -0.00331588 0)
(0.161935 -0.0186104 0)
(0.144718 -0.0302457 0)
(0.122042 -0.039501 0)
(0.0969498 -0.0468055 0)
(0.0699613 -0.0493603 0)
(0.044484 -0.0467439 0)
(0.0161065 -0.0420162 0)
(-0.0113214 -0.0380931 0)
(-0.0257831 -0.0384474 0)
(-0.0356313 -0.040981 0)
(-0.0438667 -0.0439319 0)
(-0.0520279 -0.0466612 0)
(-0.0607856 -0.049187 0)
(-0.070272 -0.051494 0)
(-0.0803349 -0.0534231 0)
(-0.0906664 -0.0547243 0)
(-0.100836 -0.0550808 0)
(-0.1103 -0.0540786 0)
(-0.118396 -0.0511392 0)
(-0.124308 -0.0454271 0)
(-0.127093 -0.0357079 0)
(-0.126019 -0.0207066 0)
(-0.120681 -0.00346282 0)
(-0.109864 0.0162889 0)
(-0.0929205 0.0382657 0)
(-0.0704806 0.0598684 0)
(-0.0447508 0.0742914 0)
(-0.00949755 0.0637787 0)
(0.144745 -0.01015 0)
(-0.200559 -0.100122 0)
(0.0529978 -0.261228 0)
(-0.339106 -0.0957921 0)
(-0.276666 0.0799106 0)
(-0.145948 0.0248309 0)
(-0.109421 0.0371469 0)
(-0.0440782 0.0565971 0)
(0.0329154 0.0520112 0)
(0.0715845 0.035113 0)
(0.0986085 0.0227017 0)
(0.109182 0.0156928 0)
(0.106841 0.0116907 0)
(0.0934938 0.00948121 0)
(0.0719689 0.00860216 0)
(0.0446455 0.00925835 0)
(0.00565873 0.0277642 0)
(-0.0288809 0.0819159 0)
(-0.0377211 0.0985191 0)
(-0.0466747 0.10901 0)
(-0.0513907 0.118212 0)
(-0.0544251 0.124847 0)
(-0.0573462 0.12887 0)
(-0.0607797 0.131361 0)
(-0.0648142 0.133216 0)
(-0.0693666 0.13469 0)
(-0.0743303 0.135589 0)
(-0.0795982 0.135577 0)
(-0.0850243 0.134357 0)
(-0.0903738 0.131727 0)
(-0.0952727 0.127521 0)
(-0.0991078 0.12149 0)
(-0.100797 0.11322 0)
(-0.0984549 0.103064 0)
(-0.0891099 0.0962801 0)
(-0.0708441 0.0938733 0)
(-0.0434318 0.0963273 0)
(-0.0053033 0.102809 0)
(0.0409739 0.105659 0)
(0.0802105 0.0953976 0)
(0.158866 0.0743377 0)
(-0.262784 0.0313075 0)
)
;

boundaryField
{
    floor
    {
        type            noSlip;
    }
    ceiling
    {
        type            noSlip;
    }
    sWall
    {
        type            noSlip;
    }
    nWall
    {
        type            noSlip;
    }
    sideWalls
    {
        type            empty;
    }
    glass1
    {
        type            noSlip;
    }
    glass2
    {
        type            noSlip;
    }
    sun
    {
        type            noSlip;
    }
    Table_master
    {
        type            noSlip;
    }
    Table_slave
    {
        type            noSlip;
    }
    inlet
    {
        type            fixedValue;
        value           uniform (0.212132 -0.212132 0);
    }
    outlet
    {
        type            zeroGradient;
    }
}


// ************************************************************************* //
