/*--------------------------------*- C++ -*----------------------------------*\
  =========                 |
  \\      /  F ield         | OpenFOAM: The Open Source CFD Toolbox
   \\    /   O peration     | Website:  https://openfoam.org
    \\  /    A nd           | Version:  6
     \\/     M anipulation  |
\*---------------------------------------------------------------------------*/
FoamFile
{
    version     2.0;
    format      ascii;
    class       volScalarField;
    location    "400";
    object      epsilon;
}
// * * * * * * * * * * * * * * * * * * * * * * * * * * * * * * * * * * * * * //

dimensions      [0 2 -3 0 0 0 0];

internalField   nonuniform List<scalar> 
458
(
0.000603683
0.000795301
0.000862805
0.00100569
0.00115341
0.00130821
0.0014778
0.00167532
0.00186769
0.00203183
0.00212699
0.00210162
0.00189825
0.00137025
0.000630972
6.78588e-05
0.000110463
0.000160509
0.000177878
0.000163511
0.000128648
9.80859e-05
7.58333e-05
5.99465e-05
4.84185e-05
3.99096e-05
3.35505e-05
2.86852e-05
2.48493e-05
2.16998e-05
1.9047e-05
1.88856e-05
1.55014e-05
0.00143046
0.00203138
0.000747637
0.000738854
0.000771214
0.000821924
0.00090008
0.00101966
0.00116668
0.00131592
0.00142134
0.00143673
0.00134219
0.00114047
0.000900488
0.00137955
0.000777452
0.000406713
6.81017e-05
0.000131509
0.000160557
0.000161806
0.000153101
0.000149214
0.000114891
8.56987e-05
6.4503e-05
4.94384e-05
3.86889e-05
3.09349e-05
2.52655e-05
2.11397e-05
1.84471e-05
1.77172e-05
5.57283e-05
3.76008e-05
0.00252212
0.00473594
0.000864418
0.000669915
0.000681054
0.000733192
0.000821623
0.000955347
0.00112759
0.00130202
0.00142904
0.00147042
0.00140565
0.00122273
0.00095795
0.000769662
0.00063463
0.000699839
0.000246446
0.000242776
0.000220269
0.000197969
0.000186005
0.000345757
0.000221662
0.000147743
0.000102999
7.49765e-05
5.67721e-05
4.45377e-05
3.61104e-05
3.03851e-05
2.3877e-05
2.3031e-05
0.000131823
6.43527e-05
0.00397645
0.00960637
0.00128615
0.000649342
0.00062474
0.000678225
0.000777268
0.000940541
0.00115828
0.00136004
0.00150017
0.001554
0.00149052
0.00128682
0.00101639
0.000796886
0.00065886
0.000664113
0.00105843
0.000664665
0.000434805
0.000319396
0.000254947
0.00022972
0.000538454
0.000404949
0.000326207
0.000273851
0.000233615
0.000198986
0.000168629
0.00013985
0.000110869
6.4304e-05
4.58007e-05
0.000258659
9.40828e-05
0.00593963
0.017028
0.00249184
0.000751157
0.000608603
0.000643356
0.000757053
0.00100277
0.00131486
0.0015447
0.00168743
0.00173478
0.00163126
0.00137092
0.00104644
0.000780456
0.000612206
0.000547607
0.000548905
0.000462549
0.000384913
0.000323508
0.000272308
0.000232106
0.000223053
0.000204846
0.000188282
0.000172489
0.000156131
0.000138706
0.000120824
0.00010366
8.80289e-05
6.91488e-05
5.66117e-05
0.000146505
0.000270955
0.000217729
0.000205124
0.000266149
0.00866102
0.0253766
0.0058011
0.00148626
0.000889582
0.000781665
0.000838982
0.00127378
0.00168338
0.00189922
0.00201756
0.00202894
0.0018648
0.00150931
0.00107618
0.000728962
0.000526497
0.000449735
0.000430912
0.000409654
0.000374805
0.000328676
0.00027912
0.00023454
0.000205174
0.000188432
0.00017801
0.000168972
0.000159206
0.000147278
0.000131135
0.000113073
9.63364e-05
8.09423e-05
7.25061e-05
0.000101036
0.000180844
0.000202004
0.000307058
0.000315494
0.0118067
0.0303799
0.0122749
0.00528664
0.00304744
0.00209566
0.00182076
0.00218971
0.00239446
0.00248009
0.00251718
0.00245632
0.00219178
0.00169584
0.00111731
0.000678548
0.000453402
0.000387977
0.000386161
0.00038123
0.000353281
0.00030948
0.000262242
0.000221729
0.000196012
0.000184622
0.000181029
0.000181328
0.000184259
0.000188433
0.000190311
0.000178952
0.000164665
0.000153191
0.000152681
0.000179397
0.000251142
0.000352512
0.000603526
0.000630832
0.0124984
0.0318694
0.0191985
0.0141445
0.0100695
0.0069613
0.00527309
0.00423998
0.003645
0.00336747
0.00322362
0.00302085
0.00258577
0.00188184
0.00111467
0.000597508
0.000386606
0.00034514
0.000344246
0.000332904
0.00030352
0.000264577
0.000227805
0.000200454
0.000185838
0.000182961
0.000188995
0.00020315
0.00022665
0.000261329
0.000308345
0.000366366
0.000414842
0.000485649
0.000621847
0.000943542
0.00158826
0.00247785
0.00668327
0.00180954
0.0115836
0.0192785
0.0162633
0.0127641
0.0100414
0.00788496
0.00631675
0.0052145
0.00460959
0.00431452
0.00406084
0.00365866
0.00294334
0.00191854
0.000914873
0.000473221
0.000337842
0.000305137
0.000292722
0.000273808
0.000247066
0.000219113
0.000195896
0.000181153
0.000176105
0.000180306
0.000193634
0.000217695
0.000255888
0.000313102
0.000395365
0.000508947
0.000661502
0.000861104
0.00112737
0.00145392
0.00178783
0.00206742
0.00231784
0.00136327
0.00397115
0.00476875
0.00540742
0.00576937
0.00598157
0.00611698
0.00611162
0.00574294
0.00501809
0.00409233
0.00283109
0.00134264
0.000630443
0.000384969
0.000307893
0.000282428
0.000268691
0.000254443
0.000238617
0.000223433
0.000210913
0.000202697
0.00020062
0.000204965
0.000216054
0.000234794
0.000263269
0.000305357
0.000367701
0.000458978
0.000588216
0.000759408
0.000966512
0.00117428
0.00130849
0.00129491
0.00109005
0.000691897
0.00796446
0.0229989
0.015596
0.0142495
0.0129684
0.0113912
0.00890488
0.00584937
0.00331427
0.00186008
0.00103151
0.000599734
0.000430218
0.000363623
0.000340603
0.000333196
0.000331161
0.000331889
0.000334986
0.00033919
0.000341785
0.000340125
0.00033497
0.000330348
0.000328678
0.000332293
0.000344162
0.00036843
0.000411671
0.000482901
0.000590051
0.000738361
0.000922937
0.00113143
0.00128375
0.00137526
0.000923772
0.000724663
0.0084059
0.0088543
0.00938065
0.0112514
0.00956772
0.00847398
0.00657189
0.00430193
0.00252174
0.00165705
0.00115395
0.000856916
0.000657212
0.000532943
0.000458853
0.000413993
0.000382242
0.000354315
0.000326415
0.00029878
0.000273308
0.000251779
0.000235721
0.000227053
0.000224766
0.000227772
0.000236312
0.000251031
0.000273533
0.000307159
0.000355114
0.000419665
0.000504768
0.000614389
0.000750204
0.000956238
0.00100618
0.000922098
0.000735706
0.000568947
)
;

boundaryField
{
    floor
    {
        Cmu             0.09;
        kappa           0.41;
        E               9.8;
        type            epsilonWallFunction;
        value           nonuniform List<scalar> 
36
(
0.000630972
6.78588e-05
0.000110463
0.000160509
0.000177878
0.000163511
0.000128648
9.80859e-05
7.58333e-05
5.99465e-05
4.84185e-05
3.99096e-05
3.35505e-05
2.86852e-05
2.48493e-05
2.16998e-05
1.9047e-05
1.88856e-05
1.55014e-05
1.55014e-05
3.76008e-05
6.43527e-05
9.40828e-05
0.000217729
0.000205124
0.000266149
0.000630972
0.00137955
0.000777452
0.000406713
6.78588e-05
0.000406713
6.81017e-05
0.000699839
0.000246446
0.00105843
)
;
    }
    ceiling
    {
        Cmu             0.09;
        kappa           0.41;
        E               9.8;
        type            epsilonWallFunction;
        value           nonuniform List<scalar> 
43
(
0.0084059
0.0088543
0.00938065
0.0112514
0.00956772
0.00847398
0.00657189
0.00430193
0.00252174
0.00165705
0.00115395
0.000856916
0.000657212
0.000532943
0.000458853
0.000413993
0.000382242
0.000354315
0.000326415
0.00029878
0.000273308
0.000251779
0.000235721
0.000227053
0.000224766
0.000227772
0.000236312
0.000251031
0.000273533
0.000307159
0.000355114
0.000419665
0.000504768
0.000614389
0.000750204
0.000956238
0.00100618
0.000922098
0.000735706
0.000568947
0.0115836
0.0192785
0.00796446
)
;
    }
    sWall
    {
        Cmu             0.09;
        kappa           0.41;
        E               9.8;
        type            epsilonWallFunction;
        value           uniform 0.0084059;
    }
    nWall
    {
        Cmu             0.09;
        kappa           0.41;
        E               9.8;
        type            epsilonWallFunction;
        value           nonuniform List<scalar> 6(0.000266149 0.000315494 0.000630832 0.000691897 0.000724663 0.000568947);
    }
    sideWalls
    {
        type            empty;
    }
    glass1
    {
        Cmu             0.09;
        kappa           0.41;
        E               9.8;
        type            epsilonWallFunction;
        value           nonuniform List<scalar> 9(0.000603683 0.00143046 0.00252212 0.00397645 0.00593963 0.00866102 0.0118067 0.0124984 0.0115836);
    }
    glass2
    {
        Cmu             0.09;
        kappa           0.41;
        E               9.8;
        type            epsilonWallFunction;
        value           nonuniform List<scalar> 2(0.00180954 0.00136327);
    }
    sun
    {
        Cmu             0.09;
        kappa           0.41;
        E               9.8;
        type            epsilonWallFunction;
        value           nonuniform List<scalar> 
14
(
0.000603683
0.000795301
0.000862805
0.00100569
0.00115341
0.00130821
0.0014778
0.00167532
0.00186769
0.00203183
0.00212699
0.00210162
0.00189825
0.00137025
)
;
    }
    Table_master
    {
        Cmu             0.09;
        kappa           0.41;
        E               9.8;
        type            epsilonWallFunction;
        value           nonuniform List<scalar> 9(0.000345757 0.000221662 0.000147743 0.000102999 7.49765e-05 5.67721e-05 4.45377e-05 3.61104e-05 3.03851e-05);
    }
    Table_slave
    {
        Cmu             0.09;
        kappa           0.41;
        E               9.8;
        type            epsilonWallFunction;
        value           nonuniform List<scalar> 9(0.000538454 0.000404949 0.000326207 0.000273851 0.000233615 0.000198986 0.000168629 0.00013985 0.000110869);
    }
    inlet
    {
        type            turbulentMixingLengthDissipationRateInlet;
        mixingLength    0.01;
        phi             phi;
        k               k;
        value           uniform 0.00377337;
    }
    outlet
    {
        type            zeroGradient;
    }
}


// ************************************************************************* //
