/*--------------------------------*- C++ -*----------------------------------*\
  =========                 |
  \\      /  F ield         | OpenFOAM: The Open Source CFD Toolbox
   \\    /   O peration     | Website:  https://openfoam.org
    \\  /    A nd           | Version:  6
     \\/     M anipulation  |
\*---------------------------------------------------------------------------*/
FoamFile
{
    version     2.0;
    format      ascii;
    class       volScalarField;
    location    "2200";
    object      epsilon;
}
// * * * * * * * * * * * * * * * * * * * * * * * * * * * * * * * * * * * * * //

dimensions      [0 2 -3 0 0 0 0];

internalField   nonuniform List<scalar> 
458
(
0.000548533
0.000730034
0.000785582
0.000911969
0.00104413
0.00118504
0.00134352
0.00146942
0.00153795
0.00153016
0.00144006
0.00127262
0.00103533
0.000682508
0.000346586
4.67652e-05
8.00907e-05
0.000126316
0.000149479
0.000143429
0.000116641
9.13581e-05
7.21961e-05
5.8024e-05
4.74066e-05
3.9327e-05
3.30567e-05
2.81203e-05
2.40976e-05
2.06551e-05
1.74982e-05
1.48473e-05
1.09161e-05
0.00132147
0.00179398
0.000686272
0.000675874
0.000724334
0.000805098
0.000920382
0.00103204
0.00110456
0.00111388
0.00105496
0.000938493
0.000788205
0.000612989
0.000503833
0.000830884
0.000472205
0.000236359
4.55855e-05
9.74539e-05
0.000124483
0.000128635
0.000125418
0.000127852
9.97659e-05
7.50973e-05
5.68395e-05
4.36203e-05
3.4035e-05
2.69875e-05
2.17395e-05
1.77988e-05
1.52566e-05
1.39857e-05
2.3435e-05
1.80944e-05
0.00233182
0.0041422
0.000836324
0.000662619
0.000726288
0.000858357
0.00103426
0.00119074
0.00127899
0.00128423
0.00121199
0.00107633
0.000904425
0.000726137
0.000577152
0.000484481
0.000418207
0.000499992
0.000200337
0.000190985
0.000176854
0.000160199
0.000152354
0.000303143
0.000194689
0.000128466
8.79638e-05
6.25472e-05
4.60878e-05
3.5094e-05
2.76973e-05
2.28956e-05
1.74252e-05
1.46354e-05
3.79515e-05
2.51993e-05
0.00367482
0.0083566
0.00129886
0.000710976
0.000777654
0.000992103
0.00126792
0.0014623
0.00154032
0.00151999
0.00141886
0.00124605
0.00104555
0.000842735
0.000664413
0.000533058
0.000452467
0.000461828
0.000817999
0.000500907
0.000337306
0.000253367
0.000204686
0.000185203
0.000447787
0.000329793
0.000258837
0.000211112
0.000175108
0.000146926
0.000122961
0.000101079
7.97474e-05
4.58535e-05
2.72937e-05
5.98298e-05
3.47757e-05
0.00549248
0.0146833
0.00253979
0.000937568
0.000957012
0.00136167
0.00173705
0.00190349
0.00192019
0.00184349
0.00169113
0.00147348
0.00121654
0.000955408
0.000727655
0.000556506
0.00044412
0.000397057
0.000396855
0.000347773
0.000299372
0.000256982
0.000218044
0.000184525
0.000173527
0.000155274
0.000139479
0.000125232
0.000111457
9.81472e-05
8.50556e-05
7.24216e-05
6.05498e-05
4.63227e-05
3.34482e-05
4.68871e-05
5.86927e-05
7.68161e-05
0.00010581
0.000140444
0.00798948
0.0217176
0.00571922
0.00198283
0.00180028
0.00244455
0.00262386
0.00259242
0.00247408
0.00230258
0.00206987
0.0017704
0.00142483
0.0010778
0.000780406
0.000562127
0.000426668
0.000364913
0.000346272
0.000329763
0.000303189
0.000266779
0.000225615
0.000186007
0.000156964
0.000138924
0.000127398
0.000117681
0.000107587
9.62694e-05
8.37412e-05
7.1063e-05
5.93099e-05
4.84752e-05
4.01786e-05
4.16686e-05
5.40458e-05
6.73241e-05
0.000155148
0.000155617
0.0106891
0.0258888
0.0117025
0.00618929
0.00530453
0.00464865
0.00407753
0.00361833
0.00325462
0.00292676
0.00256645
0.00214077
0.00166802
0.00120502
0.000823578
0.00056009
0.0004122
0.000354083
0.000340034
0.000326724
0.000298757
0.000259232
0.000216222
0.000177389
0.000149767
0.000134804
0.000127383
0.000122645
0.000118317
0.000113217
0.000105084
9.49436e-05
8.4689e-05
7.5436e-05
7.04684e-05
7.34247e-05
9.13133e-05
0.000128981
0.000241446
0.000259993
0.0111663
0.0264287
0.0159524
0.0117377
0.00899375
0.00699997
0.00565915
0.00479758
0.00421608
0.00372496
0.00318822
0.00256843
0.00190567
0.00128011
0.000806149
0.000515523
0.000378088
0.000334291
0.000320775
0.000301697
0.000268708
0.000228989
0.000191033
0.000160972
0.000142143
0.000133739
0.000132165
0.000134856
0.00014112
0.000151074
0.000164528
0.00017721
0.000190042
0.000212564
0.000253925
0.000357341
0.000582743
0.000957894
0.00288698
0.000953044
0.0102358
0.0164488
0.0133948
0.0103546
0.00826014
0.00701493
0.006291
0.0058234
0.00537381
0.00474582
0.00387883
0.00289408
0.00192976
0.00107791
0.000610023
0.000412018
0.00033051
0.00029827
0.000278644
0.000254912
0.000225384
0.000194313
0.000167163
0.000147393
0.000136064
0.000132207
0.000134271
0.00014177
0.000155483
0.000177013
0.000208538
0.000253254
0.000315938
0.000406682
0.000537864
0.000715837
0.000926518
0.00113106
0.0013069
0.000827995
0.00241189
0.00635184
0.00779922
0.00823326
0.00814679
0.00753026
0.00628318
0.00460234
0.00286895
0.00173381
0.00103385
0.000628573
0.0004208
0.000325924
0.000282396
0.000258505
0.000238276
0.000216269
0.000193565
0.000172858
0.000155943
0.000143387
0.000134806
0.000129619
0.000127751
0.000130004
0.000137999
0.000153523
0.000179076
0.000218087
0.000274712
0.000354156
0.000459816
0.000584844
0.000701293
0.000766882
0.000763762
0.000505656
0.00316873
0.00861227
0.00799941
0.00656133
0.00545856
0.00435995
0.00327447
0.00225639
0.00143222
0.000901688
0.000594502
0.000429491
0.000346955
0.000308317
0.000290745
0.000282346
0.000277052
0.000272074
0.000266457
0.000260015
0.000252676
0.000244362
0.000235045
0.000224932
0.000214834
0.000206296
0.00020135
0.000202599
0.000212846
0.00023524
0.000273546
0.000331592
0.000410235
0.000502324
0.00057945
0.000665698
0.000717413
0.000547854
0.00201477
0.00255862
0.00300784
0.0038651
0.00349848
0.0032553
0.00292976
0.002452
0.00191877
0.001419
0.00101619
0.000741787
0.000574323
0.000475052
0.000413961
0.00037262
0.00034036
0.000311249
0.000283033
0.000256221
0.000232292
0.000212144
0.00019577
0.000182723
0.000172664
0.000165647
0.000162099
0.000162684
0.000168199
0.000179315
0.000196788
0.000221635
0.000255321
0.000299689
0.000356106
0.000428085
0.000464072
0.000431902
0.000359256
0.000300515
)
;

boundaryField
{
    floor
    {
        Cmu             0.09;
        kappa           0.41;
        E               9.8;
        type            epsilonWallFunction;
        value           nonuniform List<scalar> 
36
(
0.000346586
4.67652e-05
8.00907e-05
0.000126316
0.000149479
0.000143429
0.000116641
9.13581e-05
7.21961e-05
5.8024e-05
4.74066e-05
3.9327e-05
3.30567e-05
2.81203e-05
2.40976e-05
2.06551e-05
1.74982e-05
1.48473e-05
1.09161e-05
1.09161e-05
1.80944e-05
2.51993e-05
3.47757e-05
7.68161e-05
0.00010581
0.000140444
0.000346586
0.000830884
0.000472205
0.000236359
4.67652e-05
0.000236359
4.55855e-05
0.000499992
0.000200337
0.000817999
)
;
    }
    ceiling
    {
        Cmu             0.09;
        kappa           0.41;
        E               9.8;
        type            epsilonWallFunction;
        value           nonuniform List<scalar> 
43
(
0.00201477
0.00255862
0.00300784
0.0038651
0.00349848
0.0032553
0.00292976
0.002452
0.00191877
0.001419
0.00101619
0.000741787
0.000574323
0.000475052
0.000413961
0.00037262
0.00034036
0.000311249
0.000283033
0.000256221
0.000232292
0.000212144
0.00019577
0.000182723
0.000172664
0.000165647
0.000162099
0.000162684
0.000168199
0.000179315
0.000196788
0.000221635
0.000255321
0.000299689
0.000356106
0.000428085
0.000464072
0.000431902
0.000359256
0.000300515
0.0102358
0.0164488
0.00316873
)
;
    }
    sWall
    {
        Cmu             0.09;
        kappa           0.41;
        E               9.8;
        type            epsilonWallFunction;
        value           uniform 0.00201477;
    }
    nWall
    {
        Cmu             0.09;
        kappa           0.41;
        E               9.8;
        type            epsilonWallFunction;
        value           nonuniform List<scalar> 6(0.000140444 0.000155617 0.000259993 0.000505656 0.000547854 0.000300515);
    }
    sideWalls
    {
        type            empty;
    }
    glass1
    {
        Cmu             0.09;
        kappa           0.41;
        E               9.8;
        type            epsilonWallFunction;
        value           nonuniform List<scalar> 9(0.000548533 0.00132147 0.00233182 0.00367482 0.00549248 0.00798948 0.0106891 0.0111663 0.0102358);
    }
    glass2
    {
        Cmu             0.09;
        kappa           0.41;
        E               9.8;
        type            epsilonWallFunction;
        value           nonuniform List<scalar> 2(0.000953044 0.000827995);
    }
    sun
    {
        Cmu             0.09;
        kappa           0.41;
        E               9.8;
        type            epsilonWallFunction;
        value           nonuniform List<scalar> 
14
(
0.000548533
0.000730034
0.000785582
0.000911969
0.00104413
0.00118504
0.00134352
0.00146942
0.00153795
0.00153016
0.00144006
0.00127262
0.00103533
0.000682508
)
;
    }
    Table_master
    {
        Cmu             0.09;
        kappa           0.41;
        E               9.8;
        type            epsilonWallFunction;
        value           nonuniform List<scalar> 9(0.000303143 0.000194689 0.000128466 8.79638e-05 6.25472e-05 4.60878e-05 3.5094e-05 2.76973e-05 2.28956e-05);
    }
    Table_slave
    {
        Cmu             0.09;
        kappa           0.41;
        E               9.8;
        type            epsilonWallFunction;
        value           nonuniform List<scalar> 9(0.000447787 0.000329793 0.000258837 0.000211112 0.000175108 0.000146926 0.000122961 0.000101079 7.97474e-05);
    }
    inlet
    {
        type            turbulentMixingLengthDissipationRateInlet;
        mixingLength    0.01;
        phi             phi;
        k               k;
        value           uniform 0.000101881;
    }
    outlet
    {
        type            zeroGradient;
    }
}


// ************************************************************************* //
