/*--------------------------------*- C++ -*----------------------------------*\
  =========                 |
  \\      /  F ield         | OpenFOAM: The Open Source CFD Toolbox
   \\    /   O peration     | Website:  https://openfoam.org
    \\  /    A nd           | Version:  6
     \\/     M anipulation  |
\*---------------------------------------------------------------------------*/
FoamFile
{
    version     2.0;
    format      ascii;
    class       surfaceScalarField;
    location    "2200";
    object      phi;
}
// * * * * * * * * * * * * * * * * * * * * * * * * * * * * * * * * * * * * * //

dimensions      [1 0 -1 0 0 0 0];

internalField   nonuniform List<scalar> 
850
(
-0.00300275
0.00305845
-0.00412952
0.00112676
-0.00492809
0.000798556
-0.00548732
0.000559209
-0.00577275
0.000285419
-0.00575951
-1.32514e-05
-0.00542959
-0.000329943
-0.00480219
-0.000627412
-0.00394555
-0.000856648
-0.00295725
-0.00098832
-0.00194095
-0.00101631
-0.000999362
-0.000941604
-0.000242239
-0.000757139
0.000152574
-0.000394834
0.00015425
-0.000821223
0.00082363
-0.000607637
-0.000213621
1.48413e-05
-0.000622511
0.000618989
-0.00060418
0.0010833
-0.000464342
0.00134938
-0.000266115
0.00146877
-0.000119421
0.00153311
-6.43811e-05
0.00157496
-4.18835e-05
0.00160126
-2.6334e-05
0.00161558
-1.43584e-05
0.00161784
-2.29341e-06
0.00160021
1.75889e-05
0.00154021
5.99565e-05
0.00139916
0.000141007
0.00115284
0.00024628
0.00079145
0.000361351
0.000794483
-0.00214634
0.00535513
-0.00320963
0.00219002
-0.00401874
0.00160765
-0.00457153
0.00111199
-0.00485661
0.000570478
-0.00485123
-1.86418e-05
-0.00454372
-0.000637467
-0.0039701
-0.00120105
-0.00321205
-0.00161471
-0.00236634
-0.00183404
-0.00152269
-0.00185997
-0.000759037
-0.00170527
-0.000131266
-0.00138492
0.000364251
-0.000890368
0.000913785
-0.000395303
0.00103716
-0.000120696
0.000783252
0.000256998
0.000792465
8.90175e-05
0.000741919
0.000514136
-0.000638771
0.000864978
-0.000973383
0.00117029
-0.000909519
0.00141751
-0.000711595
0.00147682
-0.000325454
0.00148632
-0.000128957
0.00149756
-7.5657e-05
0.00150704
-5.13926e-05
0.00151295
-3.22788e-05
0.00151632
-1.77703e-05
0.00151696
-2.96997e-06
0.00151146
2.30516e-05
0.00147268
9.86991e-05
0.00131238
0.000301265
0.00102702
0.0005316
0.000647044
0.000741282
0.00144985
-0.00150047
0.0070861
-0.00239854
0.00308808
-0.00310887
0.00231796
-0.00357999
0.0015831
-0.00381676
0.000807235
-0.00378022
-5.52009e-05
-0.00345175
-0.000965951
-0.00289722
-0.00175559
-0.00221927
-0.00229266
-0.00150895
-0.00254436
-0.000832427
-0.0025365
-0.000239375
-0.00229833
0.000249533
-0.00187384
0.000663192
-0.00130404
0.000982226
-0.000714354
0.00103348
-0.000171969
0.000807142
0.000483318
0.00160732
0.00134367
-0.00059275
0.00159025
-0.000885377
0.00161213
-0.00099529
0.00167241
-0.000969826
0.00186599
-0.000905203
0.00154066
0.00141182
0.00133628
0.00128501
0.00125285
0.0012352
0.00123234
0.00125551
0.00135432
0.00114212
0.000513427
0.000870551
0.000803124
0.000506186
0.0011056
0.001969
-0.00104145
0.00842676
-0.00173261
0.00377923
-0.0021912
0.00277653
-0.00248249
0.00187437
-0.00258617
0.000910892
-0.00243262
-0.000208762
-0.0020338
-0.00136479
-0.0014988
-0.00229059
-0.000933387
-0.00285808
-0.000399659
-0.0030781
7.03369e-05
-0.0030065
0.00045838
-0.00268639
0.000774118
-0.00218959
0.00104865
-0.00157859
0.00127028
-0.000935997
0.00140929
-0.000310993
0.0015949
0.000297685
0.00252719
0.000675011
0.00246862
6.65398e-05
0.00227935
-0.000403498
0.0021244
-0.00073045
0.00195517
-0.000826088
0.00178713
-0.000801807
0.00153177
-0.000649876
0.00181492
-0.000283327
0.00194236
-0.000127626
0.00201625
-7.40722e-05
0.00205784
-4.17735e-05
0.00206207
-4.41622e-06
0.00201628
4.56045e-05
0.00190062
0.000115479
0.00168222
0.000218212
0.00130298
0.000379054
0.00111602
0.000700349
0.000828959
0.00109015
0.000445207
0.00148931
0.0024311
-0.000725609
0.00951021
-0.00123037
0.00428396
-0.0012974
0.00284355
-0.00129677
0.00187372
-0.00112497
0.000739069
-0.000731579
-0.000602164
-0.00024347
-0.00185291
0.000215012
-0.00274908
0.000591576
-0.00323465
0.000876578
-0.0033631
0.00107637
-0.0032063
0.00121606
-0.00282608
0.00131882
-0.00229236
0.00140998
-0.00166976
0.00150494
-0.00103097
0.00163328
-0.000439348
0.0018809
5.00408e-05
0.0022641
0.000291799
0.00228601
4.46073e-05
0.00217541
-0.000292921
0.00196653
-0.00052159
0.00174887
-0.000608447
0.00154038
-0.000593343
0.0013752
-0.000484723
0.00138389
-0.000292052
0.00141453
-0.000158297
0.00143685
-9.64181e-05
0.00145626
-6.12199e-05
0.00147067
-1.88518e-05
0.00146798
4.82557e-05
0.00143216
0.000151264
0.00134991
0.000300431
0.00122107
0.000507861
0.00110692
0.000814462
0.000993682
0.00120334
0.000781641
0.00170131
0.0010806
0.0021321
-0.000891042
0.0019867
-0.00154766
0.000669754
-0.00148932
-0.000621846
0.0105395
-0.000938267
0.00460037
-0.000443331
0.00234859
5.34362e-05
0.00137693
0.000687649
0.000104837
0.00135945
-0.00127398
0.00184165
-0.00233512
0.00211414
-0.00302157
0.00221939
-0.00333989
0.00219758
-0.0033413
0.00208415
-0.00309287
0.00192262
-0.00266455
0.00175327
-0.00212303
0.0016081
-0.00152461
0.00151212
-0.00093501
0.00149202
-0.000419268
0.00157348
-3.1439e-05
0.00171858
0.000146685
0.0017232
3.9965e-05
0.00159605
-0.000165792
0.00139989
-0.000325458
0.00119271
-0.000401287
0.00100094
-0.000401603
0.0008541
-0.000337913
0.000793182
-0.000231164
0.000786054
-0.0001512
0.000804051
-0.000114448
0.000839721
-9.69232e-05
0.000891208
-7.03721e-05
0.000948314
-8.88476e-06
0.000997414
0.00010213
0.00103517
0.00026264
0.00106675
0.000476249
0.00112627
0.000754899
0.00125692
0.00107266
0.00148847
0.00146972
0.00188706
0.00173347
0.00217186
0.00170186
0.00170138
0.00114019
0.000267737
-0.000606713
0.0115994
-0.000389934
0.00438357
0.000973686
0.000984952
0.00216133
0.000189276
0.00316649
-0.000900342
0.00381324
-0.00192074
0.00410285
-0.00262473
0.00407838
-0.00299709
0.00381681
-0.00307831
0.00339831
-0.00292279
0.00289556
-0.00259013
0.00237578
-0.00214478
0.00189419
-0.00164144
0.0014847
-0.00111514
0.00117409
-0.000624428
0.000980364
-0.000225562
0.000907939
4.09628e-05
0.000914424
0.000140177
0.000883096
7.12698e-05
0.000778285
-6.10068e-05
0.000625116
-0.000172316
0.000456613
-0.000232812
0.000298416
-0.000243437
0.000176047
-0.000215576
0.000113853
-0.000169003
0.00010232
-0.0001397
0.000123398
-0.000135562
0.000169273
-0.000142833
0.000241279
-0.000142413
0.000344616
-0.000112258
0.000470949
-2.42387e-05
0.000609964
0.000123588
0.000769933
0.000316243
0.000974038
0.000550757
0.00125235
0.000794308
0.00164745
0.00107459
0.00219128
0.00118959
0.00287904
0.00101406
0.00299638
0.0010228
0.00332293
0.0027922
0.00931523
0.00365027
0.00352548
0.00462766
7.54738e-06
0.00587735
-0.00106043
0.00660079
-0.00162379
0.00676375
-0.0020837
0.00648506
-0.00234603
0.00587491
-0.00238693
0.00504775
-0.00225114
0.00411218
-0.00198722
0.00316029
-0.00163825
0.0022694
-0.0012539
0.001497
-0.000869061
0.000865839
-0.000484005
0.000404097
-0.000162713
0.000124987
5.35207e-05
8.51632e-06
0.000157408
-1.70797e-05
0.000165747
-4.75002e-05
0.000101664
-0.000120963
1.24274e-05
-0.000230767
-6.25424e-05
-0.000355515
-0.000108096
-0.00047332
-0.000125665
-0.000564606
-0.000124325
-0.000615939
-0.000117704
-0.000633663
-0.000122011
-0.000629725
-0.000139536
-0.000610114
-0.000162481
-0.000572173
-0.00018039
-0.000503776
-0.000180692
-0.000382605
-0.000145447
-0.00020923
-4.98243e-05
6.52455e-06
0.000100451
0.000271418
0.000285825
0.00058212
0.000483568
0.000966455
0.000690214
0.00141246
0.000743549
0.00180429
0.000622186
0.00118044
0.00164662
0.00474088
0.00987373
0.0133916
0.0127095
0.000689617
0.0119374
-0.00028836
0.0109398
-0.000626123
0.00967976
-0.000823666
0.00819185
-0.0008581
0.00660597
-0.000801042
0.00503702
-0.000682189
0.00357295
-0.000523155
0.00227132
-0.000336639
0.00116713
-0.000149729
0.000273701
2.43381e-05
-0.000361913
0.000151574
-0.000723917
0.00019926
-0.000882682
0.000212257
-0.000931763
0.00020646
-0.000943186
0.000177141
-0.000964698
0.000123146
-0.00101349
6.11838e-05
-0.00108656
1.04935e-05
-0.00117287
-2.1819e-05
-0.00125852
-4.00478e-05
-0.00133251
-5.03696e-05
-0.00139082
-5.94363e-05
-0.00144063
-7.22381e-05
-0.00149385
-8.63559e-05
-0.00156231
-9.40512e-05
-0.0016571
-8.56455e-05
-0.00179109
-4.67405e-05
-0.0019732
3.66253e-05
-0.00219877
0.000175711
-0.00248472
0.000386356
-0.00288751
0.000688576
-0.00349261
0.00108863
-0.00437548
0.00157305
-0.00566771
0.00203574
-0.00724137
0.00219581
-0.00691565
0.00132086
-0.00191432
0.00348339
0.00196983
0.00294647
0.000248584
0.00315602
-0.000835672
0.00291439
-0.000582056
0.00231499
-0.000258725
0.00152428
-1.0371e-05
0.000665186
0.000176873
-0.000145941
0.000287931
-0.000810478
0.000327863
-0.00128118
0.000320939
-0.00156917
0.000312296
-0.00171228
0.000294643
-0.001778
0.000264955
-0.00179879
0.000233009
-0.00179709
0.000204728
-0.00179524
0.000175264
-0.00181183
0.000139695
-0.00185237
0.000101689
-0.00191034
6.84269e-05
-0.00197541
4.32131e-05
-0.0020415
2.60125e-05
-0.00210587
1.39539e-05
-0.0021697
4.3599e-06
-0.0022383
-3.67983e-06
-0.00231709
-7.60084e-06
-0.00240937
-1.81664e-06
-0.0025141
1.90455e-05
-0.00262473
6.38571e-05
-0.00273217
0.00014402
-0.00283243
0.000275934
-0.0029288
0.000482682
-0.00302158
0.000781323
-0.00310407
0.00117107
-0.00314372
0.00161267
-0.00310783
0.00199981
-0.00282855
0.00191649
-0.00153104
2.33152e-05
-0.00337832
-0.000362916
0.00240329
-0.000459308
0.000344934
-0.00127915
-1.58701e-05
-0.00190857
4.73276e-05
-0.00233359
0.000166255
-0.00259678
0.000252781
-0.00273474
0.000314791
-0.00279721
0.000350361
-0.00281108
0.000341697
-0.00279249
0.000302312
-0.00274015
0.000259922
-0.00266731
0.000221764
-0.00259198
0.000189585
-0.0025242
0.000165197
-0.00246796
0.000148452
-0.00242812
0.000135393
-0.00241021
0.000121748
-0.00241526
0.000106697
-0.00243879
9.19245e-05
-0.0024746
7.89778e-05
-0.00251712
6.8493e-05
-0.00256325
6.00442e-05
-0.00261169
5.27668e-05
-0.00266191
4.65021e-05
-0.00271138
4.18243e-05
-0.00275342
4.01869e-05
-0.00278153
4.71102e-05
-0.00278626
6.85507e-05
-0.00275493
0.000112646
-0.00266913
0.000190095
-0.00250194
0.000315452
-0.00222641
0.000505754
-0.00181711
0.000761728
-0.00123448
0.00103
-0.000304307
0.0010696
0.00105566
0.000556478
0.00166146
-0.000582523
-0.00164376
-0.00569444
-0.00852143
-0.00608644
-0.00573068
-0.0057417
-0.00569235
-0.00552611
-0.00527509
-0.00496365
-0.00461817
-0.00428287
-0.00398835
-0.00373741
-0.0035256
-0.00334674
-0.00319291
-0.00305636
-0.00293337
-0.00282451
-0.00273114
-0.00265295
-0.00258805
-0.00253392
-0.00248847
-0.00245049
-0.00241888
-0.00239201
-0.00236673
-0.00233437
-0.0022803
-0.00218178
-0.00200537
-0.00170311
-0.00121003
-0.000460464
0.000557857
0.00161587
0.00216039
0.00156518
)
;

boundaryField
{
    floor
    {
        type            calculated;
        value           nonuniform List<scalar> 
36
(
0
0
0
0
0
0
0
0
0
0
0
0
0
0
0
0
0
0
0
-3.07528e-06
-8.36588e-06
-1.30069e-05
-1.69361e-05
-1.50996e-05
-1.31776e-05
-1.23317e-05
-1.69649e-06
-2.69934e-06
-3.11066e-06
-3.66378e-06
-2.44262e-06
-5.57218e-06
-7.34323e-06
-7.73521e-06
-9.03662e-06
-7.98954e-06
)
;
    }
    ceiling
    {
        type            calculated;
        value           nonuniform List<scalar> 
43
(
-3.42626e-05
-3.30783e-05
-3.17596e-05
-1.08628e-05
-4.89959e-06
-2.06648e-06
-2.45483e-08
1.72179e-06
3.30831e-06
4.84725e-06
6.35553e-06
7.75014e-06
8.94728e-06
9.91884e-06
1.06931e-05
1.1324e-05
1.1867e-05
1.2366e-05
1.2842e-05
1.32901e-05
1.36933e-05
1.40391e-05
1.4326e-05
1.45587e-05
1.47397e-05
1.4862e-05
1.491e-05
1.48643e-05
1.47097e-05
1.4446e-05
1.4085e-05
1.36463e-05
1.31527e-05
1.2631e-05
1.21197e-05
1.16417e-05
1.15456e-05
1.19196e-05
1.2645e-05
1.42501e-05
1.04381e-05
7.61245e-06
-7.05451e-05
)
;
    }
    sWall
    {
        type            calculated;
        value           uniform -0.000258745;
    }
    nWall
    {
        type            calculated;
        value           nonuniform List<scalar> 6(-4.60497e-05 -5.57233e-05 -5.88605e-05 -6.7089e-05 -7.31394e-05 -9.2871e-05);
    }
    sideWalls
    {
        type            empty;
        value           nonuniform 0();
    }
    glass1
    {
        type            calculated;
        value           nonuniform List<scalar> 9(-5.57219e-05 -0.000150358 -0.000230515 -0.000299221 -0.000357852 -0.00040747 -0.000453168 -0.000508067 -0.000568953);
    }
    glass2
    {
        type            calculated;
        value           nonuniform List<scalar> 2(-0.000237548 -0.000260491);
    }
    sun
    {
        type            calculated;
        value           uniform 0;
    }
    Table_master
    {
        type            calculated;
        value           nonuniform List<scalar> 9(-1.52808e-07 -1.52969e-07 -1.53019e-07 -1.53047e-07 -1.53065e-07 -1.53073e-07 -1.53076e-07 -1.53064e-07 -1.53025e-07);
    }
    Table_slave
    {
        type            calculated;
        value           nonuniform List<scalar> 9(1.52669e-07 1.52684e-07 1.52654e-07 1.52634e-07 1.52627e-07 1.52624e-07 1.52639e-07 1.52679e-07 1.52757e-07);
    }
    inlet
    {
        type            calculated;
        value           uniform -0.00476358;
    }
    outlet
    {
        type            calculated;
        value           nonuniform List<scalar> 2(0.00598739 0.00286001);
    }
}


// ************************************************************************* //
