/*--------------------------------*- C++ -*----------------------------------*\
  =========                 |
  \\      /  F ield         | OpenFOAM: The Open Source CFD Toolbox
   \\    /   O peration     | Website:  https://openfoam.org
    \\  /    A nd           | Version:  6
     \\/     M anipulation  |
\*---------------------------------------------------------------------------*/
FoamFile
{
    version     2.0;
    format      ascii;
    class       volScalarField;
    location    "700";
    object      k;
}
// * * * * * * * * * * * * * * * * * * * * * * * * * * * * * * * * * * * * * //

dimensions      [0 2 -2 0 0 0 0];

internalField   nonuniform List<scalar> 
458
(
0.000937776
0.000991514
0.000905768
0.000978734
0.00105084
0.00111772
0.0011798
0.0012385
0.00129589
0.00135492
0.00141304
0.00146269
0.00150351
0.00153944
0.00156937
0.000573432
0.00101732
0.00118502
0.00120519
0.00112727
0.000977509
0.000844981
0.000735108
0.000638557
0.0005524
0.000475603
0.000407688
0.000348182
0.000296324
0.000250967
0.00021089
0.000196577
0.000169934
0.00255891
0.00490782
0.00132682
0.00130777
0.00136504
0.00143678
0.00151542
0.00160405
0.00170499
0.00181746
0.00193541
0.00203563
0.00208722
0.00204355
0.00188666
0.00178267
0.00168877
0.000929423
0.000863526
0.00224997
0.00213355
0.00196511
0.00167691
0.00132926
0.00112453
0.000980878
0.000839866
0.000703713
0.00058195
0.000478172
0.000392339
0.000324207
0.000279041
0.000256812
0.000616708
0.000348778
0.0047024
0.0114086
0.00196164
0.0016403
0.0016731
0.001753
0.00184387
0.00194792
0.00206676
0.00219787
0.00233607
0.00244973
0.00251004
0.00249518
0.00241678
0.00232038
0.00217193
0.00198421
0.00184876
0.00296026
0.00232531
0.00184887
0.0013967
0.000958581
0.000633221
0.000506739
0.000435044
0.000380512
0.000335434
0.000298474
0.000269279
0.00024919
0.000273257
0.000294293
0.00101142
0.000513486
0.00748513
0.0215888
0.00313878
0.00194896
0.00194872
0.00205617
0.00217461
0.00230371
0.00244554
0.00259913
0.00276116
0.00290344
0.002987
0.00299204
0.00291649
0.00277541
0.00260482
0.00245274
0.00238315
0.00263467
0.00216835
0.00168026
0.00136006
0.00123397
0.00122746
0.0011474
0.00112097
0.00112571
0.00113535
0.00113019
0.001092
0.00100874
0.000924708
0.000777212
0.000644898
0.00128683
0.000738582
0.0108451
0.0349124
0.00573102
0.0022882
0.00216419
0.00228992
0.00244455
0.00262005
0.00281814
0.0030374
0.00326682
0.00347503
0.00360927
0.00365422
0.00360727
0.00347632
0.0032851
0.00303134
0.00261603
0.0020039
0.00156814
0.00134725
0.00128738
0.00140162
0.00167411
0.00180274
0.00184477
0.00189655
0.00194849
0.0019605
0.00189725
0.00173778
0.00150318
0.00125288
0.00101165
0.00110429
0.00120308
0.00108984
0.00110043
0.00107288
0.0147899
0.0481421
0.0120981
0.00334286
0.00251806
0.00252929
0.00267596
0.00288542
0.00314172
0.00344231
0.0037838
0.00405855
0.0042118
0.00425634
0.00420682
0.00406633
0.00380895
0.00335408
0.00268176
0.00198753
0.00152708
0.00132447
0.00125549
0.00132927
0.00157077
0.0017545
0.00187282
0.00202075
0.00217706
0.00230423
0.00235392
0.00227205
0.00199527
0.0016725
0.00136936
0.00119705
0.00114895
0.00132205
0.00292516
0.00169527
0.0192027
0.0569495
0.0258856
0.00953816
0.00472567
0.00347345
0.00326735
0.0034004
0.00367142
0.00402846
0.00448324
0.00472632
0.00479086
0.00474429
0.00462333
0.0044391
0.0041637
0.00371126
0.00304995
0.0023291
0.00179908
0.00151164
0.00131299
0.00126947
0.00148953
0.00174132
0.00189672
0.00208861
0.00232829
0.00257658
0.002792
0.00292414
0.00281647
0.0024447
0.00209928
0.00189396
0.00185503
0.00211576
0.00450632
0.00261995
0.020335
0.0630988
0.0410158
0.0294808
0.0187314
0.0112029
0.00738097
0.00593712
0.00557726
0.00567427
0.0057143
0.00556963
0.00535528
0.00511529
0.00485807
0.00457757
0.00425328
0.00383545
0.00329069
0.0026779
0.0021799
0.00187164
0.00150828
0.00126683
0.00146033
0.00182223
0.00205223
0.00227189
0.0025349
0.0028496
0.00321509
0.00363231
0.00409884
0.00431142
0.00436845
0.00500803
0.00639278
0.00786903
0.0157407
0.0046445
0.0193805
0.0280236
0.0255017
0.0230969
0.0200346
0.0162186
0.0126973
0.010102
0.00844336
0.0074667
0.00672105
0.00613511
0.00565719
0.00524385
0.00486109
0.00448435
0.00409534
0.00367724
0.0032279
0.00279096
0.00246459
0.00230247
0.00186021
0.00130879
0.00143349
0.00192435
0.00227397
0.00250899
0.00273711
0.00301528
0.00336134
0.00378447
0.00427929
0.00481987
0.0053909
0.00613682
0.00686098
0.00732782
0.00761367
0.00435539
0.00761428
0.0114124
0.0134634
0.0133356
0.0119358
0.0102756
0.00883777
0.00771172
0.00682839
0.00613178
0.00555634
0.00505444
0.004594
0.0041558
0.00373119
0.00331999
0.00293349
0.00261045
0.00244371
0.00252231
0.00233152
0.00135815
0.00136388
0.00193887
0.00244253
0.00272662
0.00288869
0.00305219
0.00325007
0.00350526
0.00384972
0.00430569
0.00479586
0.00523557
0.00543074
0.00518686
0.00453056
0.00278624
0.00900545
0.0168915
0.0162105
0.0148798
0.012842
0.0110094
0.00940036
0.00807445
0.00699385
0.00607219
0.0052745
0.00458505
0.0039853
0.00345964
0.00299829
0.00259859
0.00226649
0.00202387
0.00192097
0.00195098
0.00177768
0.00125803
0.00123425
0.00177236
0.00214078
0.00233215
0.00251321
0.00274062
0.00304043
0.00341402
0.00386087
0.00439645
0.0049669
0.00546467
0.00579663
0.00596526
0.00409248
0.00283319
0.00926067
0.00968549
0.0101261
0.0116656
0.0111236
0.0102793
0.00833135
0.00722782
0.00631727
0.00554926
0.00488699
0.00432948
0.00385467
0.00343198
0.00304583
0.00268893
0.00235917
0.00205788
0.00178867
0.00155695
0.00137058
0.00123525
0.00112915
0.00102941
0.00101303
0.00123331
0.00134902
0.00145995
0.00158332
0.00172729
0.0018994
0.00211313
0.00238331
0.00269511
0.00304357
0.00341013
0.00378288
0.00365251
0.00307495
0.00260073
)
;

boundaryField
{
    floor
    {
        type            kqRWallFunction;
        value           nonuniform List<scalar> 
36
(
0.00156937
0.000573432
0.00101732
0.00118502
0.00120519
0.00112727
0.000977509
0.000844981
0.000735108
0.000638557
0.0005524
0.000475603
0.000407688
0.000348182
0.000296324
0.000250967
0.00021089
0.000196577
0.000169934
0.000169934
0.000348778
0.000513486
0.000738582
0.00108984
0.00110043
0.00107288
0.00156937
0.00178267
0.00168877
0.000929423
0.000573432
0.000929423
0.000863526
0.00198421
0.00184876
0.00238315
)
;
    }
    ceiling
    {
        type            kqRWallFunction;
        value           nonuniform List<scalar> 
43
(
0.00926067
0.00968549
0.0101261
0.0116656
0.0111236
0.0102793
0.00833135
0.00722782
0.00631727
0.00554926
0.00488699
0.00432948
0.00385467
0.00343198
0.00304583
0.00268893
0.00235917
0.00205788
0.00178867
0.00155695
0.00137058
0.00123525
0.00112915
0.00102941
0.00101303
0.00123331
0.00134902
0.00145995
0.00158332
0.00172729
0.0018994
0.00211313
0.00238331
0.00269511
0.00304357
0.00341013
0.00378288
0.00365251
0.00307495
0.00260073
0.0193805
0.0280236
0.00900545
)
;
    }
    sWall
    {
        type            kqRWallFunction;
        value           uniform 0.00926067;
    }
    nWall
    {
        type            kqRWallFunction;
        value           nonuniform List<scalar> 6(0.00107288 0.00169527 0.00261995 0.00278624 0.00283319 0.00260073);
    }
    sideWalls
    {
        type            empty;
    }
    glass1
    {
        type            kqRWallFunction;
        value           nonuniform List<scalar> 9(0.000937776 0.00255891 0.0047024 0.00748513 0.0108451 0.0147899 0.0192027 0.020335 0.0193805);
    }
    glass2
    {
        type            kqRWallFunction;
        value           nonuniform List<scalar> 2(0.0046445 0.00435539);
    }
    sun
    {
        type            kqRWallFunction;
        value           nonuniform List<scalar> 
14
(
0.000937776
0.000991514
0.000905768
0.000978734
0.00105084
0.00111772
0.0011798
0.0012385
0.00129589
0.00135492
0.00141304
0.00146269
0.00150351
0.00153944
)
;
    }
    Table_master
    {
        type            kqRWallFunction;
        value           nonuniform List<scalar> 9(0.000958581 0.000633221 0.000506739 0.000435044 0.000380512 0.000335434 0.000298474 0.000269279 0.00024919);
    }
    Table_slave
    {
        type            kqRWallFunction;
        value           nonuniform List<scalar> 9(0.00122746 0.0011474 0.00112097 0.00112571 0.00113535 0.00113019 0.001092 0.00100874 0.000924708);
    }
    inlet
    {
        type            turbulentIntensityKineticEnergyInlet;
        intensity       0.05;
        value           uniform 0.0024;
    }
    outlet
    {
        type            zeroGradient;
    }
}


// ************************************************************************* //
