/*--------------------------------*- C++ -*----------------------------------*\
  =========                 |
  \\      /  F ield         | OpenFOAM: The Open Source CFD Toolbox
   \\    /   O peration     | Website:  https://openfoam.org
    \\  /    A nd           | Version:  6
     \\/     M anipulation  |
\*---------------------------------------------------------------------------*/
FoamFile
{
    version     2.0;
    format      ascii;
    class       volVectorField;
    location    "700";
    object      U;
}
// * * * * * * * * * * * * * * * * * * * * * * * * * * * * * * * * * * * * * //

dimensions      [0 1 -1 0 0 0 0];

internalField   nonuniform List<vector> 
458
(
(0.100092 0.068805 0)
(-0.138904 0.00280367 0)
(-0.124526 0.00807636 0)
(-0.143791 0.00854394 0)
(-0.162605 0.00718873 0)
(-0.179856 0.00496898 0)
(-0.194397 0.00209725 0)
(-0.205268 -0.00142544 0)
(-0.211526 -0.00568017 0)
(-0.211991 -0.0108307 0)
(-0.204514 -0.0173619 0)
(-0.185621 -0.0260929 0)
(-0.153704 -0.0388917 0)
(-0.120256 -0.0595912 0)
(-0.123611 -0.0886691 0)
(0.0531725 0.00384265 0)
(-0.0288024 -0.00772126 0)
(0.00484897 -0.0206336 0)
(0.0343059 -0.0259681 0)
(0.0624505 -0.0230722 0)
(0.0847777 -0.0112706 0)
(0.0915137 -0.00482692 0)
(0.0882876 -0.00180766 0)
(0.0827381 -0.000215565 0)
(0.0775224 0.00073518 0)
(0.0726839 0.00131554 0)
(0.0679276 0.00172654 0)
(0.063046 0.00219052 0)
(0.0576056 0.00305447 0)
(0.0507583 0.00463061 0)
(0.0416452 0.00582701 0)
(0.0411695 0.00405318 0)
(-0.0353224 0.0191096 0)
(0.305966 0.151432 0)
(-0.16615 0.022431 0)
(-0.117877 0.0296818 0)
(-0.144086 0.0305016 0)
(-0.164743 0.0290698 0)
(-0.183277 0.0261892 0)
(-0.199027 0.0219642 0)
(-0.21128 0.0162788 0)
(-0.219218 0.00893708 0)
(-0.221824 -0.000331591 0)
(-0.217849 -0.0116801 0)
(-0.20627 -0.025156 0)
(-0.188026 -0.0420548 0)
(-0.169506 -0.0641998 0)
(-0.153983 -0.0833923 0)
(-0.115649 -0.0671826 0)
(-0.0569129 -0.0721221 0)
(-0.0218688 0.0730752 0)
(0.117661 0.014607 0)
(-0.000414124 0.00207294 0)
(-0.00238781 -0.0223662 0)
(0.0163065 -0.0416435 0)
(0.0341588 -0.0450027 0)
(0.0601959 -0.0137755 0)
(0.0623105 0.000935415 0)
(0.0578427 0.00622856 0)
(0.0549535 0.00798799 0)
(0.0539535 0.00828219 0)
(0.0536676 0.00798373 0)
(0.0535749 0.00764387 0)
(0.0535697 0.00769517 0)
(0.0531273 0.00881939 0)
(0.0504112 0.0126312 0)
(0.0425626 0.0154203 0)
(0.0496837 0.013931 0)
(-0.0849294 0.0407196 0)
(0.480599 0.23331 0)
(-0.214407 0.0529854 0)
(-0.0983414 0.0545176 0)
(-0.132239 0.0508701 0)
(-0.152382 0.0467066 0)
(-0.170735 0.0407686 0)
(-0.186683 0.0327177 0)
(-0.199695 0.0223708 0)
(-0.209069 0.00966524 0)
(-0.213924 -0.00527707 0)
(-0.212949 -0.0222422 0)
(-0.206817 -0.0414469 0)
(-0.197155 -0.0625653 0)
(-0.187162 -0.0839375 0)
(-0.175411 -0.0988773 0)
(-0.155542 -0.100791 0)
(-0.142188 -0.109417 0)
(-0.167845 -0.104638 0)
(0.0270698 0.0378975 0)
(-0.045328 0.000982866 0)
(-0.0339776 -0.0303597 0)
(-0.0191416 -0.0602295 0)
(-0.011807 -0.0808187 0)
(0.0393236 -0.0349369 0)
(0.0220329 -0.00777457 0)
(0.0155543 -0.00073418 0)
(0.0199351 0.000926516 0)
(0.0263503 0.00120173 0)
(0.0320874 0.00105351 0)
(0.0371488 0.000916908 0)
(0.0422066 0.0011741 0)
(0.048025 0.00403201 0)
(0.0517404 0.0179375 0)
(0.0439272 0.026729 0)
(0.0617239 0.0309098 0)
(-0.126169 0.0649561 0)
(0.624559 0.302615 0)
(-0.265387 0.0887147 0)
(-0.0696994 0.0789213 0)
(-0.111561 0.070993 0)
(-0.128638 0.0653722 0)
(-0.144933 0.0580106 0)
(-0.159673 0.0480814 0)
(-0.172349 0.0352076 0)
(-0.182333 0.0191791 0)
(-0.18879 3.62541e-05 0)
(-0.190236 -0.0217135 0)
(-0.187727 -0.0451032 0)
(-0.183323 -0.0683807 0)
(-0.179211 -0.0884669 0)
(-0.175399 -0.10124 0)
(-0.172263 -0.105541 0)
(-0.178314 -0.102195 0)
(-0.196692 -0.0711976 0)
(-0.183575 0.00766264 0)
(-0.117289 0.0168413 0)
(-0.0958681 -0.0156373 0)
(-0.069252 -0.0463617 0)
(-0.0597398 -0.0722101 0)
(-0.060768 -0.0817903 0)
(-0.0491803 -0.0522076 0)
(0.00562445 -0.0329781 0)
(0.0369096 -0.0252803 0)
(0.0619073 -0.021091 0)
(0.0840331 -0.0178945 0)
(0.10269 -0.0145378 0)
(0.116374 -0.0101617 0)
(0.122695 -0.00422325 0)
(0.118662 0.00374143 0)
(0.101857 0.0213523 0)
(0.0802366 0.0397579 0)
(0.0870433 0.0567463 0)
(-0.110951 0.0952712 0)
(0.739869 0.36014 0)
(-0.310883 0.125274 0)
(-0.0371712 0.0968233 0)
(-0.0845282 0.086672 0)
(-0.0971821 0.0803943 0)
(-0.109727 0.0721485 0)
(-0.121524 0.0607976 0)
(-0.131991 0.0458447 0)
(-0.140679 0.0270507 0)
(-0.146835 0.00449609 0)
(-0.148986 -0.0209907 0)
(-0.147362 -0.047315 0)
(-0.144663 -0.0714693 0)
(-0.1426 -0.0904221 0)
(-0.141947 -0.102365 0)
(-0.143715 -0.108044 0)
(-0.14969 -0.10749 0)
(-0.154966 -0.0929145 0)
(-0.147419 -0.0577241 0)
(-0.123319 -0.0351837 0)
(-0.095117 -0.0413719 0)
(-0.0757819 -0.0618243 0)
(-0.0651842 -0.0806161 0)
(-0.0550054 -0.0866159 0)
(-0.0367559 -0.07019 0)
(-0.0081614 -0.0533617 0)
(0.0191155 -0.0414992 0)
(0.0410573 -0.0353381 0)
(0.0609423 -0.0303732 0)
(0.0785169 -0.0243206 0)
(0.0930366 -0.0151707 0)
(0.103302 -0.00130613 0)
(0.107124 0.0161984 0)
(0.103755 0.0369845 0)
(0.0938635 0.0575488 0)
(0.110917 0.0790228 0)
(0.0464217 0.100799 0)
(0.111238 0.132824 0)
(0.132897 0.157898 0)
(-0.162683 0.200328 0)
(0.814748 0.411358 0)
(-0.347435 0.156953 0)
(-0.0111594 0.100473 0)
(-0.0506059 0.0978031 0)
(-0.0597074 0.0918687 0)
(-0.0684146 0.0825615 0)
(-0.0762964 0.0701633 0)
(-0.0829586 0.0539596 0)
(-0.0884893 0.033475 0)
(-0.0924773 0.00852604 0)
(-0.0926949 -0.0202327 0)
(-0.0901563 -0.049173 0)
(-0.0880581 -0.0735522 0)
(-0.0873948 -0.0908664 0)
(-0.0886793 -0.100499 0)
(-0.0923264 -0.103089 0)
(-0.0980574 -0.0983098 0)
(-0.101824 -0.0843717 0)
(-0.0982111 -0.0652789 0)
(-0.0869625 -0.0536493 0)
(-0.0740642 -0.0580273 0)
(-0.0655941 -0.0730237 0)
(-0.0602669 -0.0898297 0)
(-0.0513642 -0.0990136 0)
(-0.0365735 -0.0925624 0)
(-0.0168572 -0.0749226 0)
(0.00104715 -0.0622905 0)
(0.0179291 -0.0548427 0)
(0.0336342 -0.0488638 0)
(0.0485297 -0.0415659 0)
(0.0626401 -0.0302783 0)
(0.0757319 -0.0123825 0)
(0.0873523 0.0118005 0)
(0.0929082 0.0370062 0)
(0.0943299 0.0598632 0)
(0.109747 0.0811917 0)
(0.101425 0.0820756 0)
(0.109383 0.0380367 0)
(0.130686 -0.00669737 0)
(-0.205695 0.107814 0)
(0.834417 0.457649 0)
(-0.362255 0.154164 0)
(0.00752134 0.0603059 0)
(0.00392737 0.0998504 0)
(-0.00755064 0.108698 0)
(-0.0180592 0.0940393 0)
(-0.0240754 0.0766547 0)
(-0.0268642 0.058169 0)
(-0.0278166 0.0363068 0)
(-0.0275859 0.00952087 0)
(-0.0211625 -0.0224258 0)
(-0.0172125 -0.0524089 0)
(-0.0167907 -0.0752904 0)
(-0.0192204 -0.0902692 0)
(-0.0240694 -0.0978216 0)
(-0.0308198 -0.0988342 0)
(-0.0383708 -0.0934965 0)
(-0.0441006 -0.0819114 0)
(-0.0456017 -0.0681459 0)
(-0.0437978 -0.0594744 0)
(-0.042621 -0.0617608 0)
(-0.0450043 -0.0744702 0)
(-0.0490376 -0.092824 0)
(-0.0463873 -0.108235 0)
(-0.0379646 -0.109009 0)
(-0.0245745 -0.0898828 0)
(-0.0160325 -0.0760665 0)
(-0.0077263 -0.0681502 0)
(0.00102858 -0.0620018 0)
(0.0100957 -0.0551562 0)
(0.0201496 -0.0448793 0)
(0.0319215 -0.0278116 0)
(0.0495482 -0.000598744 0)
(0.0647098 0.0278931 0)
(0.0745197 0.0506646 0)
(0.0908758 0.069117 0)
(0.101717 0.0702192 0)
(0.111702 0.0497224 0)
(0.164342 0.0565684 0)
(-0.152775 0.170604 0)
(0.934063 0.477266 0)
(-0.137804 0.136485 0)
(0.0825811 -0.0197695 0)
(0.1301 0.021908 0)
(0.102029 0.0659052 0)
(0.071661 0.0719188 0)
(0.0563185 0.0592585 0)
(0.0519822 0.041897 0)
(0.0532282 0.0210202 0)
(0.0567683 -0.00615584 0)
(0.0688559 -0.0327284 0)
(0.0712686 -0.055409 0)
(0.0672351 -0.0728066 0)
(0.0591703 -0.0842223 0)
(0.0484742 -0.0896891 0)
(0.0363281 -0.089753 0)
(0.0240307 -0.0849899 0)
(0.0133159 -0.0760626 0)
(0.00566508 -0.0652473 0)
(0.000341684 -0.0567148 0)
(-0.00613975 -0.0556642 0)
(-0.0172039 -0.0654928 0)
(-0.0330914 -0.0864882 0)
(-0.0390206 -0.110229 0)
(-0.0385826 -0.119253 0)
(-0.0312051 -0.0973737 0)
(-0.0312542 -0.0804255 0)
(-0.0333314 -0.0716645 0)
(-0.0350413 -0.0658961 0)
(-0.0361135 -0.0603537 0)
(-0.0357019 -0.0530807 0)
(-0.032765 -0.0424577 0)
(-0.0248931 -0.0269151 0)
(0.00774683 -0.00247074 0)
(0.0218081 0.0185594 0)
(0.0398267 0.0294253 0)
(0.0544173 0.0234511 0)
(0.0656511 0.00334541 0)
(0.157392 0.0702736 0)
(-0.50027 0.27486 0)
(1.06703 0.44012 0)
(0.500701 0.297055 0)
(0.525826 0.303447 0)
(0.506679 0.267026 0)
(0.421544 0.22358 0)
(0.335182 0.174707 0)
(0.275391 0.125249 0)
(0.23942 0.0810182 0)
(0.218981 0.0434416 0)
(0.208485 0.0105306 0)
(0.193428 -0.0190554 0)
(0.177475 -0.0426797 0)
(0.16016 -0.0594963 0)
(0.141519 -0.0698303 0)
(0.122036 -0.0745131 0)
(0.102519 -0.0745088 0)
(0.0839339 -0.0707784 0)
(0.0673143 -0.0643651 0)
(0.0534329 -0.0567053 0)
(0.0419858 -0.0496854 0)
(0.0306674 -0.0456019 0)
(0.015546 -0.0482418 0)
(-0.0131277 -0.0685358 0)
(-0.028296 -0.10061 0)
(-0.0366462 -0.120187 0)
(-0.0354489 -0.0948246 0)
(-0.0427281 -0.0740697 0)
(-0.0567092 -0.0644063 0)
(-0.0708765 -0.0583469 0)
(-0.0854546 -0.0522102 0)
(-0.100727 -0.0435542 0)
(-0.117461 -0.0303163 0)
(-0.13642 -0.0107621 0)
(-0.156287 0.0156526 0)
(-0.173304 0.0446758 0)
(-0.206589 0.0755883 0)
(-0.25788 0.107081 0)
(-0.318241 0.137119 0)
(-0.397287 0.161482 0)
(-0.718958 0.176803 0)
(0.331009 -0.185847 0)
(0.358229 0.0888387 0)
(0.344769 0.183758 0)
(0.313116 0.183702 0)
(0.293202 0.146277 0)
(0.28452 0.100747 0)
(0.280043 0.0595545 0)
(0.275093 0.0257819 0)
(0.264956 -0.00125202 0)
(0.248064 -0.0220989 0)
(0.226877 -0.036915 0)
(0.203169 -0.0462004 0)
(0.178468 -0.0507315 0)
(0.154101 -0.0514011 0)
(0.131147 -0.0491121 0)
(0.110409 -0.0447754 0)
(0.0923336 -0.0393661 0)
(0.0767813 -0.0338644 0)
(0.0623421 -0.0292411 0)
(0.0448628 -0.027522 0)
(0.0147214 -0.0350234 0)
(-0.00853774 -0.0715856 0)
(-0.0285735 -0.105945 0)
(-0.0393745 -0.0742412 0)
(-0.0490764 -0.0494458 0)
(-0.071204 -0.0420565 0)
(-0.0931463 -0.0384181 0)
(-0.114609 -0.0340517 0)
(-0.135241 -0.0267486 0)
(-0.153787 -0.0147463 0)
(-0.168039 0.0035578 0)
(-0.176404 0.0279861 0)
(-0.182158 0.0575835 0)
(-0.188817 0.0876378 0)
(-0.19461 0.106716 0)
(-0.189067 0.0909199 0)
(-0.178241 -0.00612409 0)
(-0.297932 -0.23407 0)
(0.0378848 0.326079 0)
(-0.0075537 0.245497 0)
(0.0689801 0.223138 0)
(0.122034 0.188173 0)
(0.171849 0.140349 0)
(0.21206 0.0919629 0)
(0.239694 0.0543649 0)
(0.253378 0.027988 0)
(0.254865 0.0106369 0)
(0.247371 -0.00105029 0)
(0.233517 -0.00892363 0)
(0.215505 -0.0136908 0)
(0.19507 -0.0157969 0)
(0.173712 -0.0155888 0)
(0.152669 -0.0133542 0)
(0.132857 -0.00932787 0)
(0.114851 -0.00368149 0)
(0.0989274 0.0037047 0)
(0.0849833 0.0142636 0)
(0.0708356 0.0302155 0)
(0.0505595 0.0354794 0)
(0.0373021 -0.0193364 0)
(-0.00597038 -0.0939797 0)
(-0.0504956 -0.05228 0)
(-0.0609535 0.00117445 0)
(-0.0797024 0.0182213 0)
(-0.0961347 0.0228536 0)
(-0.110584 0.0249745 0)
(-0.123035 0.0267449 0)
(-0.132471 0.0285056 0)
(-0.136695 0.0316872 0)
(-0.132981 0.0424297 0)
(-0.119677 0.0627203 0)
(-0.0986503 0.0899442 0)
(-0.0726387 0.113807 0)
(-0.0477133 0.117192 0)
(0.130716 0.0311729 0)
(-0.218557 -0.15245 0)
(-0.459052 -0.531786 0)
(-0.645093 -0.123616 0)
(-0.49776 0.219485 0)
(-0.386882 0.157539 0)
(-0.214351 0.145457 0)
(-0.0832452 0.129138 0)
(0.0625148 0.0754248 0)
(0.134092 0.0394169 0)
(0.188463 0.0128261 0)
(0.219702 -0.00653143 0)
(0.231781 -0.0214403 0)
(0.231228 -0.0331138 0)
(0.22259 -0.0424151 0)
(0.208712 -0.0502483 0)
(0.191704 -0.0572578 0)
(0.173297 -0.0640092 0)
(0.154933 -0.0710571 0)
(0.137737 -0.0789521 0)
(0.122497 -0.088191 0)
(0.109722 -0.0990353 0)
(0.100061 -0.111057 0)
(0.0954104 -0.122908 0)
(0.0964426 -0.134812 0)
(0.0955511 -0.148812 0)
(0.0446336 -0.183496 0)
(-0.0606069 -0.196331 0)
(-0.081602 -0.176063 0)
(-0.0996003 -0.162345 0)
(-0.112058 -0.14998 0)
(-0.121443 -0.136927 0)
(-0.127409 -0.122031 0)
(-0.128349 -0.103823 0)
(-0.121546 -0.0817149 0)
(-0.102887 -0.0578337 0)
(-0.0697584 -0.030746 0)
(-0.0247857 0.000892952 0)
(0.0487953 0.0293313 0)
(0.105142 0.0103377 0)
(0.180911 -0.0474003 0)
(-0.154378 -0.134206 0)
)
;

boundaryField
{
    floor
    {
        type            noSlip;
    }
    ceiling
    {
        type            noSlip;
    }
    sWall
    {
        type            noSlip;
    }
    nWall
    {
        type            noSlip;
    }
    sideWalls
    {
        type            empty;
    }
    glass1
    {
        type            noSlip;
    }
    glass2
    {
        type            noSlip;
    }
    sun
    {
        type            noSlip;
    }
    Table_master
    {
        type            noSlip;
    }
    Table_slave
    {
        type            noSlip;
    }
    inlet
    {
        type            fixedValue;
        value           uniform (0.444456 -0.665176 0);
    }
    outlet
    {
        type            zeroGradient;
    }
}


// ************************************************************************* //
