/*--------------------------------*- C++ -*----------------------------------*\
  =========                 |
  \\      /  F ield         | OpenFOAM: The Open Source CFD Toolbox
   \\    /   O peration     | Website:  https://openfoam.org
    \\  /    A nd           | Version:  6
     \\/     M anipulation  |
\*---------------------------------------------------------------------------*/
FoamFile
{
    version     2.0;
    format      ascii;
    class       volScalarField;
    location    "100";
    object      nut;
}
// * * * * * * * * * * * * * * * * * * * * * * * * * * * * * * * * * * * * * //

dimensions      [0 2 -1 0 0 0 0];

internalField   nonuniform List<scalar> 
458
(
0.000691937
0.00070718
0.00065784
0.000681895
0.000705953
0.000727781
0.000747637
0.000766151
0.000784133
0.000802693
0.0008186
0.00083033
0.000837647
0.000841581
0.000841728
0.000498145
0.000622421
0.000623976
0.000579701
0.000528261
0.000477935
0.000433615
0.000395818
0.000364845
0.000340085
0.000320693
0.000305545
0.000293772
0.00028484
0.000299924
0.000370614
0.000382955
0.000335759
0.00117851
0.00188159
0.00136987
0.00174905
0.00187365
0.00200478
0.00213861
0.00226358
0.00236457
0.00242188
0.00244171
0.00239726
0.00224907
0.00193663
0.00141683
0.000890215
0.000840242
0.00066203
0.000603288
0.00154796
0.00169816
0.00146572
0.00123216
0.000917521
0.000817211
0.000745519
0.000695252
0.000666243
0.00065007
0.00063265
0.000607864
0.00062357
0.000605598
0.00094197
0.00113119
0.000487183
0.00160445
0.00307193
0.00144563
0.00252327
0.00277178
0.0029131
0.00303617
0.00314037
0.00322183
0.00327412
0.00329802
0.00326934
0.00315762
0.00292512
0.00255084
0.00206827
0.00148786
0.000879167
0.000871721
0.00208491
0.00168527
0.00126134
0.000931295
0.000414681
0.000343311
0.00032208
0.000301691
0.000281241
0.000265395
0.000252495
0.000245555
0.000317405
0.00103286
0.0015142
0.00130627
0.000550413
0.00201262
0.00463978
0.00155368
0.00281419
0.00332731
0.00347188
0.00357348
0.00365718
0.00372534
0.00377595
0.00381146
0.00382307
0.00379104
0.00367859
0.00342752
0.00297232
0.0022822
0.00147639
0.000917935
0.001475
0.00164968
0.00138644
0.00113246
0.000904797
0.000725853
0.000744691
0.000773696
0.000812219
0.000865374
0.000901528
0.000924086
0.000934294
0.000922917
0.00104701
0.00128282
0.00164699
0.000917919
0.002397
0.00643174
0.00198369
0.00267914
0.00359147
0.00377912
0.00387472
0.00395017
0.00401313
0.00406538
0.00410811
0.00416662
0.00424373
0.00432422
0.00437259
0.00434427
0.00420331
0.00392315
0.0034778
0.00297465
0.00264223
0.00240095
0.00228621
0.00224482
0.00225245
0.0023277
0.00246795
0.00267427
0.00295939
0.00324464
0.00338007
0.00343004
0.00338383
0.00324044
0.00282806
0.00239267
0.00173492
0.000967651
0.000924214
0.000864461
0.00275979
0.00812079
0.00299154
0.00235462
0.00350555
0.00385948
0.00400758
0.00409859
0.00414613
0.0041585
0.00414603
0.00418351
0.0042781
0.00442174
0.00458845
0.00473216
0.00478333
0.00465103
0.00429102
0.00378619
0.00330018
0.00294137
0.00270715
0.00253946
0.00242034
0.00237426
0.00242443
0.00258602
0.00288521
0.00327372
0.00352844
0.00367465
0.00375198
0.00376945
0.00360527
0.0032325
0.00271151
0.00225167
0.0023338
0.00101942
0.00311309
0.00941264
0.00502897
0.00250993
0.00263054
0.00331841
0.00379918
0.0040896
0.00422207
0.00417458
0.00404879
0.0040123
0.00405032
0.00415538
0.00431535
0.00450167
0.00465018
0.00465948
0.0044605
0.00408716
0.00366409
0.00329977
0.00300697
0.00274246
0.00249481
0.00230461
0.00221563
0.00228092
0.00257502
0.0030245
0.00336511
0.00358618
0.00375243
0.00394532
0.00412857
0.00398839
0.00360768
0.00317749
0.00302551
0.00122317
0.00321264
0.00991632
0.00719565
0.00480668
0.00325855
0.00290136
0.00332314
0.00381108
0.00412869
0.00401454
0.00384558
0.0037466
0.00371805
0.00374743
0.00382644
0.00394873
0.00408942
0.00417922
0.0041345
0.00393794
0.00366478
0.00340019
0.00317749
0.00296611
0.00272592
0.00245575
0.00219454
0.00207583
0.00232817
0.00287719
0.00329983
0.00352275
0.00370322
0.00398727
0.00448117
0.00504377
0.00488047
0.00441457
0.0044976
0.00149597
0.00313827
0.00381054
0.00415872
0.00411366
0.00372811
0.00331196
0.00306334
0.00299481
0.00303103
0.0030923
0.003149
0.00319374
0.00322842
0.00325824
0.00328974
0.00332991
0.00338032
0.00342394
0.00342461
0.00335844
0.00323983
0.00310882
0.00300475
0.00294235
0.00288902
0.0027423
0.00236903
0.00194199
0.00204944
0.00270966
0.00326577
0.00342272
0.00339869
0.00332756
0.00323561
0.00311819
0.00296301
0.00268859
0.0024441
0.00146866
0.00211176
0.00307922
0.0033715
0.00330644
0.00316238
0.00304224
0.00295947
0.00290154
0.00286763
0.00284554
0.00282545
0.00280146
0.00277202
0.00273948
0.0027082
0.00268032
0.00265197
0.00261648
0.00257345
0.00253434
0.00252349
0.00257471
0.00270362
0.00282414
0.00266088
0.00186556
0.00162882
0.00230443
0.00311576
0.00338472
0.0033659
0.00326792
0.00313439
0.00293153
0.00262537
0.00224105
0.00185038
0.00120887
0.00222241
0.00347124
0.00361978
0.00350848
0.00333967
0.00317245
0.00302383
0.00289286
0.00276508
0.00262526
0.00248257
0.00234302
0.00221076
0.00208896
0.00198048
0.00188794
0.0018133
0.00175762
0.00172209
0.00171039
0.00173254
0.00180964
0.00196371
0.00214223
0.00209598
0.00157159
0.00110733
0.00157521
0.00240082
0.0028391
0.00306317
0.00318238
0.00328633
0.00328559
0.00312492
0.00286228
0.00227771
0.00122516
0.00199917
0.00208244
0.00216012
0.00230195
0.00215792
0.00197634
0.00184069
0.00172438
0.00162204
0.00153009
0.00144738
0.00137318
0.00130414
0.00123835
0.00117476
0.00111292
0.00105285
0.000994917
0.000939733
0.000888011
0.000840439
0.000797636
0.000760246
0.000729222
0.000705968
0.000690377
0.000675709
0.000654225
0.00063869
0.000730834
0.000855899
0.000920727
0.000995234
0.00110217
0.00121764
0.00134517
0.00140861
0.00137922
0.00126328
0.00115638
)
;

boundaryField
{
    floor
    {
        type            nutkWallFunction;
        Cmu             0.09;
        kappa           0.41;
        E               9.8;
        value           nonuniform List<scalar> 
36
(
0.000101916
5.94917e-05
7.51616e-05
7.53568e-05
6.98312e-05
6.33442e-05
5.69183e-05
5.119e-05
4.62464e-05
4.21498e-05
3.88423e-05
3.62292e-05
3.41727e-05
3.25644e-05
3.13368e-05
3.33766e-05
4.28521e-05
4.45021e-05
3.82224e-05
3.82223e-05
5.80789e-05
6.61358e-05
0.000110991
0.000116885
0.000111747
0.000104632
0.000101916
0.000107716
0.000101739
8.00548e-05
5.94917e-05
8.00548e-05
7.27644e-05
0.000106402
0.00010552
0.000111026
)
;
    }
    ceiling
    {
        type            nutkWallFunction;
        Cmu             0.09;
        kappa           0.41;
        E               9.8;
        value           nonuniform List<scalar> 
43
(
0.000233303
0.000242353
0.000250762
0.000266065
0.000250562
0.000230849
0.000215994
0.000203162
0.000191794
0.000181512
0.000172206
0.000163807
0.000155947
0.000148413
0.000141089
0.000133924
0.00012692
0.000120122
0.000113604
0.000107454
0.000101762
9.66078e-05
9.20792e-05
8.83024e-05
8.54601e-05
8.3548e-05
8.174e-05
7.9085e-05
7.71742e-05
8.85918e-05
0.00010364
0.000111367
0.000120178
0.000132684
0.000146036
0.000160614
0.000167815
0.000164485
0.000151268
0.000138961
0.000354505
0.00042369
0.000257457
)
;
    }
    sWall
    {
        type            nutkWallFunction;
        Cmu             0.09;
        kappa           0.41;
        E               9.8;
        value           uniform 0.000233362;
    }
    nWall
    {
        type            nutkWallFunction;
        Cmu             0.09;
        kappa           0.41;
        E               9.8;
        value           nonuniform List<scalar> 6(0.000104634 0.000122999 0.000146669 0.00014503 0.000146903 0.000138972);
    }
    sideWalls
    {
        type            empty;
    }
    glass1
    {
        type            nutkWallFunction;
        Cmu             0.09;
        kappa           0.41;
        E               9.8;
        value           nonuniform List<scalar> 9(8.36954e-05 0.000141664 0.000190093 0.000235163 0.000276703 0.000315263 0.000352307 0.000362675 0.000354957);
    }
    glass2
    {
        type            nutkWallFunction;
        Cmu             0.09;
        kappa           0.41;
        E               9.8;
        value           nonuniform List<scalar> 2(0.000177766 0.000174689);
    }
    sun
    {
        type            nutkWallFunction;
        Cmu             0.09;
        kappa           0.41;
        E               9.8;
        value           nonuniform List<scalar> 
14
(
8.37373e-05
8.56083e-05
7.95373e-05
8.25035e-05
8.54575e-05
8.81273e-05
9.05475e-05
9.27972e-05
9.49762e-05
9.72191e-05
9.91362e-05
0.000100547
0.000101426
0.000101898
)
;
    }
    Table_master
    {
        type            nutkWallFunction;
        Cmu             0.09;
        kappa           0.41;
        E               9.8;
        value           nonuniform List<scalar> 9(4.87218e-05 3.92781e-05 3.6426e-05 3.36614e-05 3.08635e-05 2.86766e-05 2.6882e-05 2.59077e-05 3.5759e-05);
    }
    Table_slave
    {
        type            nutkWallFunction;
        Cmu             0.09;
        kappa           0.41;
        E               9.8;
        value           nonuniform List<scalar> 9(8.78976e-05 9.01941e-05 9.37167e-05 9.83711e-05 0.000104752 0.000109047 0.000111723 0.000112929 0.000111575);
    }
    inlet
    {
        type            calculated;
        value           uniform 0.000100623;
    }
    outlet
    {
        type            calculated;
        value           nonuniform List<scalar> 2(0.00199917 0.00208244);
    }
}


// ************************************************************************* //
