/*--------------------------------*- C++ -*----------------------------------*\
  =========                 |
  \\      /  F ield         | OpenFOAM: The Open Source CFD Toolbox
   \\    /   O peration     | Website:  https://openfoam.org
    \\  /    A nd           | Version:  6
     \\/     M anipulation  |
\*---------------------------------------------------------------------------*/
FoamFile
{
    version     2.0;
    format      ascii;
    class       volVectorField;
    location    "100";
    object      U;
}
// * * * * * * * * * * * * * * * * * * * * * * * * * * * * * * * * * * * * * //

dimensions      [0 1 -1 0 0 0 0];

internalField   nonuniform List<vector> 
458
(
(0.103848 0.0669158 0)
(-0.136008 0.00100466 0)
(-0.116653 0.00646176 0)
(-0.132663 0.00756434 0)
(-0.148466 0.0065631 0)
(-0.162736 0.00463015 0)
(-0.174303 0.00207992 0)
(-0.182281 -0.00103078 0)
(-0.18585 -0.00474945 0)
(-0.184099 -0.00921007 0)
(-0.175316 -0.0148104 0)
(-0.157028 -0.0219916 0)
(-0.128286 -0.0322017 0)
(-0.0987844 -0.048497 0)
(-0.100885 -0.0710836 0)
(0.0375785 0.0046638 0)
(-0.0152383 -0.00980305 0)
(0.00205084 -0.0156122 0)
(0.0194453 -0.0145975 0)
(0.0316458 -0.00821232 0)
(0.0330209 -0.0026336 0)
(0.0258956 -0.0005468 0)
(0.019026 0.000436585 0)
(0.0145097 0.000811573 0)
(0.0117578 0.000588939 0)
(0.0103804 5.84481e-05 0)
(0.0102375 -0.00052957 0)
(0.0111053 -0.000951292 0)
(0.012235 -0.000967992 0)
(0.0157658 -0.00446269 0)
(0.0237677 -0.0104016 0)
(0.0394926 -0.00545327 0)
(-0.0208252 0.0183736 0)
(0.307939 0.147445 0)
(-0.164078 0.0175698 0)
(-0.111526 0.0240332 0)
(-0.134738 0.0255321 0)
(-0.152571 0.0241692 0)
(-0.168223 0.0211222 0)
(-0.181026 0.0167675 0)
(-0.190375 0.0111507 0)
(-0.195591 0.00418083 0)
(-0.195882 -0.00432476 0)
(-0.190472 -0.0142913 0)
(-0.178465 -0.0256735 0)
(-0.160665 -0.0393398 0)
(-0.141862 -0.0566233 0)
(-0.124259 -0.0710686 0)
(-0.0884964 -0.0560026 0)
(-0.0331344 -0.0543417 0)
(-0.0221115 0.059664 0)
(0.11184 0.0053786 0)
(0.0175939 0.000464678 0)
(-0.00678145 -0.00868455 0)
(-0.0062136 -0.0158147 0)
(0.00397671 -0.00619658 0)
(0.0146043 0.00867017 0)
(0.00631193 0.00716096 0)
(0.00429726 0.00637457 0)
(0.00468933 0.00520889 0)
(0.00539577 0.00361929 0)
(0.00610217 0.00215138 0)
(0.00677746 0.000787057 0)
(0.00729997 -0.000539021 0)
(0.0049065 -0.000781026 0)
(0.0103339 -0.0107979 0)
(0.0159286 -0.0194958 0)
(0.0351212 -0.00943755 0)
(-0.076402 0.0398394 0)
(0.47862 0.227226 0)
(-0.212125 0.0468241 0)
(-0.0956025 0.0470569 0)
(-0.127685 0.0440398 0)
(-0.146128 0.0399864 0)
(-0.162412 0.0339549 0)
(-0.176028 0.0259921 0)
(-0.186602 0.0161203 0)
(-0.193587 0.00437177 0)
(-0.19626 -0.00910287 0)
(-0.194161 -0.0242097 0)
(-0.187751 -0.0407425 0)
(-0.178508 -0.0583559 0)
(-0.168896 -0.0758842 0)
(-0.157673 -0.0882438 0)
(-0.140188 -0.0898004 0)
(-0.129704 -0.0926797 0)
(-0.156931 -0.0810171 0)
(0.00938467 0.0332766 0)
(-0.0611025 0.00742598 0)
(-0.061628 -0.00858663 0)
(-0.0594764 -0.0234865 0)
(-0.0537913 -0.0269461 0)
(0.00497512 0.00734646 0)
(-0.0104971 0.00105225 0)
(-0.00614152 -0.000169044 0)
(-0.00212802 -0.00147374 0)
(0.000503271 -0.00351365 0)
(0.00149481 -0.00506222 0)
(0.00133965 -0.00619495 0)
(-0.00110841 -0.00640381 0)
(-0.0171155 0.00216171 0)
(0.0279517 -0.00543553 0)
(0.000803844 0.00552363 0)
(-0.0462225 0.0188304 0)
(-0.156294 0.0289869 0)
(0.618042 0.294898 0)
(-0.261262 0.0820541 0)
(-0.0719085 0.071578 0)
(-0.113492 0.0634573 0)
(-0.130457 0.0572599 0)
(-0.145627 0.049191 0)
(-0.158637 0.0388975 0)
(-0.169214 0.0262341 0)
(-0.176926 0.0111421 0)
(-0.181124 -0.00617145 0)
(-0.181061 -0.0250448 0)
(-0.178471 -0.0444702 0)
(-0.175048 -0.0630955 0)
(-0.172675 -0.0788938 0)
(-0.171355 -0.0886483 0)
(-0.171485 -0.0906044 0)
(-0.180033 -0.0835346 0)
(-0.199353 -0.0502695 0)
(-0.191725 0.0252114 0)
(-0.137823 0.0271674 0)
(-0.130667 0.00348491 0)
(-0.118334 -0.0144956 0)
(-0.118689 -0.0272908 0)
(-0.123047 -0.0313444 0)
(-0.115455 -0.0215691 0)
(-0.0923289 -0.0218687 0)
(-0.0669668 -0.0262625 0)
(-0.0382483 -0.0320969 0)
(0.00318691 -0.0354841 0)
(0.04115 -0.0318328 0)
(0.074989 -0.0279172 0)
(0.106075 -0.0231163 0)
(0.131025 -0.0168059 0)
(0.139452 -0.0075457 0)
(0.127007 0.0148962 0)
(0.101413 0.0343129 0)
(0.00760569 0.0540973 0)
(0.731061 0.351423 0)
(-0.304886 0.119109 0)
(-0.0444174 0.0925996 0)
(-0.0938786 0.0802912 0)
(-0.107685 0.0721545 0)
(-0.119652 0.0621765 0)
(-0.129916 0.0498132 0)
(-0.138314 0.034748 0)
(-0.144589 0.0168197 0)
(-0.148121 -0.00366645 0)
(-0.147705 -0.025365 0)
(-0.145924 -0.0462184 0)
(-0.144355 -0.064449 0)
(-0.144425 -0.0785153 0)
(-0.146507 -0.087176 0)
(-0.151057 -0.0905296 0)
(-0.158826 -0.0879094 0)
(-0.16528 -0.0725349 0)
(-0.161437 -0.0382403 0)
(-0.144397 -0.0115892 0)
(-0.12407 -0.00933696 0)
(-0.111185 -0.0183293 0)
(-0.106512 -0.02688 0)
(-0.103935 -0.0303907 0)
(-0.0963218 -0.0282734 0)
(-0.0817696 -0.0320495 0)
(-0.0626307 -0.0399996 0)
(-0.0393538 -0.050275 0)
(-0.0114641 -0.0578885 0)
(0.0224374 -0.0554595 0)
(0.05203 -0.0501094 0)
(0.0802821 -0.0423327 0)
(0.105238 -0.0282525 0)
(0.124079 -0.00533098 0)
(0.133673 0.0257384 0)
(0.139156 0.0533602 0)
(0.121779 0.0754939 0)
(0.14762 0.0976475 0)
(0.141655 0.118946 0)
(-0.108223 0.168343 0)
(0.809774 0.40215 0)
(-0.342168 0.152924 0)
(-0.0202495 0.104741 0)
(-0.069495 0.0935182 0)
(-0.0798928 0.0833743 0)
(-0.0872779 0.0713955 0)
(-0.0928567 0.0573468 0)
(-0.0969496 0.0406012 0)
(-0.0996701 0.0206931 0)
(-0.100097 -0.00233125 0)
(-0.0974319 -0.0263968 0)
(-0.094978 -0.0477546 0)
(-0.0939047 -0.0646676 0)
(-0.0949948 -0.0763541 0)
(-0.098334 -0.0824287 0)
(-0.103827 -0.0828286 0)
(-0.110594 -0.07665 0)
(-0.114741 -0.0622796 0)
(-0.111892 -0.0429192 0)
(-0.102224 -0.0276621 0)
(-0.0911106 -0.0232877 0)
(-0.0839103 -0.0261596 0)
(-0.0811455 -0.0310532 0)
(-0.0796609 -0.0350319 0)
(-0.0758434 -0.0387035 0)
(-0.0682526 -0.046206 0)
(-0.0569157 -0.0578906 0)
(-0.0416492 -0.0720033 0)
(-0.0227941 -0.0834375 0)
(0.000938559 -0.0836138 0)
(0.0242431 -0.0783266 0)
(0.046919 -0.0704552 0)
(0.0697659 -0.0546415 0)
(0.0923268 -0.0258277 0)
(0.114929 0.0147401 0)
(0.129019 0.0491196 0)
(0.131606 0.063494 0)
(0.12689 0.0473091 0)
(0.130269 0.0462239 0)
(-0.138389 0.129379 0)
(0.83113 0.448053 0)
(-0.36314 0.158024 0)
(-0.000381597 0.08813 0)
(-0.0314518 0.104547 0)
(-0.0441714 0.0926876 0)
(-0.0484261 0.0756438 0)
(-0.0483595 0.0592055 0)
(-0.0464056 0.0412355 0)
(-0.043488 0.0201278 0)
(-0.0368704 -0.00488326 0)
(-0.0309755 -0.0301609 0)
(-0.0283212 -0.0502489 0)
(-0.028668 -0.0647417 0)
(-0.0318471 -0.0739433 0)
(-0.0373866 -0.0781806 0)
(-0.0445737 -0.0776341 0)
(-0.0520326 -0.0717694 0)
(-0.057105 -0.0602631 0)
(-0.0574882 -0.0462116 0)
(-0.0536269 -0.03477 0)
(-0.0488351 -0.0292279 0)
(-0.0462091 -0.0286558 0)
(-0.0464867 -0.0308672 0)
(-0.0483332 -0.0345857 0)
(-0.0499403 -0.0406788 0)
(-0.0502266 -0.0511905 0)
(-0.0483922 -0.066649 0)
(-0.0429248 -0.0852557 0)
(-0.0331928 -0.100831 0)
(-0.020486 -0.102842 0)
(-0.00801365 -0.0980193 0)
(0.00421916 -0.0919942 0)
(0.0183572 -0.0792878 0)
(0.0357472 -0.0533165 0)
(0.0619674 -0.0098441 0)
(0.0859967 0.03263 0)
(0.0964883 0.0535465 0)
(0.100824 0.0556158 0)
(0.142069 0.080851 0)
(-0.122137 0.192237 0)
(0.93292 0.473795 0)
(-0.165595 0.138381 0)
(0.0613152 0.039165 0)
(0.0747907 0.0662546 0)
(0.0356969 0.0713305 0)
(0.018154 0.0550431 0)
(0.0192783 0.0385048 0)
(0.0255318 0.0224561 0)
(0.0323709 0.00214465 0)
(0.0473239 -0.0192521 0)
(0.0532039 -0.0372593 0)
(0.0530642 -0.0516016 0)
(0.0489487 -0.0619426 0)
(0.0418861 -0.068221 0)
(0.0327104 -0.0706006 0)
(0.022308 -0.0693341 0)
(0.011886 -0.064458 0)
(0.0032922 -0.0560417 0)
(-0.0017488 -0.0456621 0)
(-0.00316423 -0.0366763 0)
(-0.00322392 -0.0307945 0)
(-0.00405338 -0.028057 0)
(-0.00673466 -0.0278503 0)
(-0.011304 -0.0299512 0)
(-0.017524 -0.0354948 0)
(-0.0254533 -0.0466544 0)
(-0.0344394 -0.0646503 0)
(-0.0403555 -0.0875195 0)
(-0.0405835 -0.107332 0)
(-0.0392584 -0.109312 0)
(-0.0400328 -0.101846 0)
(-0.0455454 -0.0963195 0)
(-0.0497185 -0.0880989 0)
(-0.0500429 -0.0732033 0)
(-0.0404217 -0.0498587 0)
(0.00372013 -0.0176284 0)
(0.0158555 0.0074323 0)
(0.031467 0.00936625 0)
(0.126197 0.0875452 0)
(-0.472929 0.284626 0)
(1.06508 0.444166 0)
(0.515232 0.300868 0)
(0.495402 0.270206 0)
(0.423848 0.217969 0)
(0.328745 0.170166 0)
(0.259249 0.121199 0)
(0.219382 0.0779274 0)
(0.197654 0.0436067 0)
(0.186311 0.0155775 0)
(0.173515 -0.00878449 0)
(0.16094 -0.028282 0)
(0.14818 -0.0425522 0)
(0.134748 -0.0519525 0)
(0.120485 -0.0571177 0)
(0.105655 -0.0586775 0)
(0.0908035 -0.0572057 0)
(0.07668 -0.0532408 0)
(0.0642608 -0.0474156 0)
(0.0544913 -0.0407277 0)
(0.0475417 -0.0344658 0)
(0.0424691 -0.0295693 0)
(0.0380251 -0.0263429 0)
(0.0332043 -0.0247067 0)
(0.0272557 -0.0246517 0)
(0.0192481 -0.0269006 0)
(0.00706057 -0.0342078 0)
(-0.0123833 -0.0517119 0)
(-0.0299831 -0.0772692 0)
(-0.0388626 -0.10116 0)
(-0.04926 -0.100757 0)
(-0.0640384 -0.0854384 0)
(-0.092911 -0.0740225 0)
(-0.127498 -0.05916 0)
(-0.167134 -0.0343736 0)
(-0.21053 0.00278932 0)
(-0.25023 0.0480884 0)
(-0.28203 0.0910952 0)
(-0.324548 0.13174 0)
(-0.391053 0.166594 0)
(-0.702817 0.192884 0)
(0.117297 0.195104 0)
(0.237796 0.226713 0)
(0.262526 0.190548 0)
(0.256176 0.140833 0)
(0.254874 0.0951645 0)
(0.255639 0.0579304 0)
(0.254202 0.0287077 0)
(0.24887 0.00596219 0)
(0.237519 -0.011893 0)
(0.222593 -0.0250441 0)
(0.205359 -0.0338868 0)
(0.186842 -0.0389713 0)
(0.168003 -0.0409091 0)
(0.149697 -0.0403155 0)
(0.132643 -0.0378102 0)
(0.117431 -0.0340614 0)
(0.104463 -0.0298234 0)
(0.0937674 -0.0258478 0)
(0.084909 -0.0226342 0)
(0.077207 -0.0203603 0)
(0.0699662 -0.0189701 0)
(0.062507 -0.0183239 0)
(0.053815 -0.0184596 0)
(0.0415991 -0.0202467 0)
(0.0220098 -0.0266191 0)
(-0.0040971 -0.0489365 0)
(-0.0176421 -0.080078 0)
(-0.0394942 -0.0790336 0)
(-0.0546252 -0.0527558 0)
(-0.0860058 -0.0399986 0)
(-0.119149 -0.0293277 0)
(-0.147944 -0.0132201 0)
(-0.169699 0.0121481 0)
(-0.189246 0.0443469 0)
(-0.199267 0.072717 0)
(-0.194177 0.0700038 0)
(-0.184072 -0.0125367 0)
(-0.295987 -0.22787 0)
(0.0378053 0.297074 0)
(0.0765023 0.230404 0)
(0.125669 0.170207 0)
(0.173527 0.119775 0)
(0.2133 0.0786523 0)
(0.240149 0.0474779 0)
(0.254043 0.0249301 0)
(0.257688 0.0093276 0)
(0.253711 -0.00115674 0)
(0.244269 -0.00819467 0)
(0.231094 -0.012571 0)
(0.215536 -0.0147713 0)
(0.198806 -0.0151442 0)
(0.181961 -0.0139725 0)
(0.165843 -0.0115151 0)
(0.151053 -0.00804481 0)
(0.137926 -0.00387032 0)
(0.126503 0.000693826 0)
(0.116569 0.00541424 0)
(0.107775 0.0101668 0)
(0.0997798 0.0149117 0)
(0.0923062 0.019759 0)
(0.0849236 0.0251415 0)
(0.0762814 0.0306134 0)
(0.0639069 0.0298832 0)
(0.0476703 0.00506715 0)
(0.0307374 -0.0526119 0)
(-0.0190184 -0.0694658 0)
(-0.0336033 -0.0161682 0)
(-0.0479557 0.0121363 0)
(-0.0624775 0.0208404 0)
(-0.0711927 0.0247925 0)
(-0.0765181 0.0365166 0)
(-0.0732717 0.0599655 0)
(-0.0605821 0.0872941 0)
(-0.0433434 0.100701 0)
(0.127438 0.0260515 0)
(-0.217949 -0.145837 0)
(-0.268084 -0.403383 0)
(-0.484985 -0.0872943 0)
(-0.314565 0.225164 0)
(-0.184832 0.152131 0)
(-0.0231735 0.105676 0)
(0.0907008 0.0660506 0)
(0.161104 0.0391014 0)
(0.208407 0.0192677 0)
(0.235141 0.00462338 0)
(0.246494 -0.00646708 0)
(0.247595 -0.0150601 0)
(0.24198 -0.021809 0)
(0.231859 -0.0273246 0)
(0.218875 -0.0320002 0)
(0.204398 -0.0361446 0)
(0.189583 -0.0400424 0)
(0.175356 -0.0439747 0)
(0.162386 -0.0482206 0)
(0.151076 -0.0530403 0)
(0.141547 -0.0586357 0)
(0.133681 -0.065102 0)
(0.127208 -0.0724014 0)
(0.121835 -0.0803457 0)
(0.117364 -0.0885475 0)
(0.113883 -0.0963922 0)
(0.111828 -0.103457 0)
(0.110783 -0.110617 0)
(0.105973 -0.119884 0)
(0.088499 -0.13657 0)
(0.0111181 -0.170613 0)
(-0.0401163 -0.157202 0)
(-0.0478412 -0.135084 0)
(-0.0500413 -0.113639 0)
(-0.0417365 -0.0838349 0)
(-0.022832 -0.052876 0)
(0.012787 -0.0127196 0)
(0.0603417 0.0104189 0)
(0.10752 0.00221908 0)
(0.176487 -0.0448239 0)
(-0.159145 -0.124005 0)
)
;

boundaryField
{
    floor
    {
        type            noSlip;
    }
    ceiling
    {
        type            noSlip;
    }
    sWall
    {
        type            noSlip;
    }
    nWall
    {
        type            noSlip;
    }
    sideWalls
    {
        type            empty;
    }
    glass1
    {
        type            noSlip;
    }
    glass2
    {
        type            noSlip;
    }
    sun
    {
        type            noSlip;
    }
    Table_master
    {
        type            noSlip;
    }
    Table_slave
    {
        type            noSlip;
    }
    inlet
    {
        type            fixedValue;
        value           uniform (0.294236 -0.0585271 0);
    }
    outlet
    {
        type            zeroGradient;
    }
}


// ************************************************************************* //
