/*--------------------------------*- C++ -*----------------------------------*\
  =========                 |
  \\      /  F ield         | OpenFOAM: The Open Source CFD Toolbox
   \\    /   O peration     | Website:  https://openfoam.org
    \\  /    A nd           | Version:  6
     \\/     M anipulation  |
\*---------------------------------------------------------------------------*/
FoamFile
{
    version     2.0;
    format      ascii;
    class       volScalarField;
    location    "400";
    object      k;
}
// * * * * * * * * * * * * * * * * * * * * * * * * * * * * * * * * * * * * * //

dimensions      [0 2 -2 0 0 0 0];

internalField   nonuniform List<scalar> 
458
(
0.00122964
0.00129557
0.000715984
0.000669538
0.000705134
0.000753446
0.000806232
0.000863525
0.000927398
0.000992272
0.00105242
0.0011042
0.00114653
0.00118174
0.00120125
0.000263411
0.000330256
0.000341743
0.000215029
0.000105985
8.11805e-05
7.47071e-05
7.25751e-05
7.72968e-05
8.79794e-05
0.000104481
0.00013117
0.000179127
0.000257427
0.000355197
0.000419107
0.000443367
0.000365622
0.00392506
0.00822409
0.00180219
0.00126143
0.00129694
0.0013851
0.00148864
0.00159991
0.00171516
0.00183182
0.00194109
0.0020297
0.0020696
0.00200443
0.00178796
0.00155491
0.0013322
0.000878685
0.00042628
0.000909147
0.000806515
0.000531718
0.000267999
0.000120045
9.67743e-05
0.000106216
0.000134473
0.000180285
0.000249612
0.000372736
0.000601861
0.000900713
0.00116804
0.00115985
0.00128384
0.000576343
0.00772104
0.0208955
0.00402932
0.00183126
0.00173027
0.00181675
0.00194045
0.00207753
0.00221995
0.00236568
0.00250529
0.00262708
0.00270991
0.00271854
0.00262617
0.00245403
0.00217202
0.00174613
0.00139955
0.00224584
0.00143689
0.00112848
0.000898435
0.000168144
9.15813e-05
0.000133667
0.000210975
0.000310065
0.000424348
0.000559938
0.000734893
0.000983935
0.00135183
0.00127021
0.00118941
0.000818084
0.0121786
0.0373213
0.00853436
0.0027112
0.00217688
0.00220932
0.00233998
0.00250081
0.00267302
0.0028511
0.00302672
0.00319045
0.00332507
0.00340048
0.00338096
0.003244
0.00298401
0.00267977
0.00256874
0.00283758
0.00208406
0.00180795
0.00162117
0.00144585
0.00133131
0.00129533
0.00126709
0.00124519
0.00123883
0.00126235
0.00133632
0.00149371
0.00181139
0.0024969
0.00279621
0.0029622
0.00197196
0.0169294
0.0547377
0.0161649
0.00486755
0.00295973
0.00270476
0.00277484
0.00293547
0.00312975
0.00333952
0.00355973
0.00378732
0.00401224
0.00421006
0.00434363
0.00437826
0.0042898
0.00407238
0.00373725
0.00330106
0.00298582
0.00283088
0.00274647
0.00269097
0.00264164
0.00259139
0.00254856
0.00252526
0.0025411
0.00262217
0.00279381
0.00307069
0.0034502
0.00390144
0.00443074
0.0049674
0.00505794
0.0039417
0.00308621
0.00242243
0.0218423
0.0684931
0.0279473
0.0108077
0.00547041
0.00385218
0.00350485
0.00352046
0.00365293
0.00383133
0.00404825
0.00430507
0.0045965
0.00490072
0.00517744
0.00537671
0.00544278
0.00531794
0.00500248
0.00460175
0.00425351
0.00401371
0.00387098
0.00377762
0.00369421
0.0036082
0.00352574
0.00345576
0.00341734
0.00344424
0.00357865
0.00385079
0.00426122
0.00478025
0.00535809
0.00587808
0.00601575
0.0054577
0.00353893
0.00244997
0.0263447
0.0735156
0.0434146
0.0239986
0.0136181
0.00785057
0.00563123
0.00482756
0.00453338
0.00445837
0.004525
0.00470487
0.00498195
0.00533113
0.00570922
0.00605285
0.00628436
0.00632577
0.00615769
0.00585238
0.00552161
0.00524895
0.00505918
0.00492935
0.00482853
0.00474205
0.00466695
0.00460132
0.00454764
0.0045221
0.00456298
0.00471414
0.00499606
0.00538086
0.00578423
0.00604772
0.00594343
0.00535975
0.00440164
0.00236226
0.0262483
0.0696129
0.0554573
0.0452534
0.0307498
0.0192669
0.0123433
0.0085821
0.00660035
0.00563697
0.00521488
0.00510576
0.00521769
0.00549723
0.00589805
0.00633714
0.00671754
0.00694826
0.00697901
0.00683818
0.00660782
0.00637205
0.00617901
0.00603586
0.00593274
0.00586444
0.0058325
0.00583921
0.00588671
0.00598015
0.00613877
0.00636209
0.00662805
0.00688252
0.00705505
0.00713091
0.00710196
0.00708648
0.00708011
0.00408655
0.0236667
0.0312882
0.0959098
0.0807875
0.0528508
0.032949
0.0209058
0.0139741
0.0100335
0.00775525
0.00645723
0.00581085
0.00558746
0.0056535
0.00592368
0.00631866
0.00674921
0.00711945
0.00735158
0.00742192
0.00736294
0.00723405
0.00708787
0.00695424
0.00684619
0.00677279
0.00674458
0.00677258
0.00686567
0.00702568
0.00723707
0.00750656
0.00787168
0.00839791
0.00914221
0.00980959
0.00977302
0.00979814
0.0141956
0.00510433
0.247574
0.201224
0.0645783
0.0336101
0.0216971
0.0152926
0.0115406
0.00926199
0.00785544
0.00698678
0.00650119
0.00630098
0.00632427
0.00652141
0.00683634
0.0071997
0.00753413
0.0077773
0.00790077
0.00791483
0.00785195
0.00774779
0.00763202
0.00752818
0.00745595
0.00743166
0.00746628
0.0075575
0.0076722
0.00779179
0.00789466
0.00796481
0.00795703
0.00773371
0.00723704
0.00668834
0.00852688
0.0048235
0.116861
0.128757
0.0582908
0.0325057
0.0214793
0.0157528
0.0124449
0.0104293
0.00917458
0.00841138
0.00799398
0.00783654
0.00788207
0.00808407
0.00838755
0.00873133
0.0090489
0.00928432
0.00939675
0.00938521
0.00927392
0.00909661
0.00888541
0.00866602
0.00845644
0.00826718
0.00810218
0.00796039
0.00779664
0.00760048
0.00736973
0.00710185
0.00678946
0.00633981
0.00577531
0.00519946
0.0078695
0.00386631
0.00654479
0.0172086
0.0599491
0.0480976
0.0320677
0.0219603
0.0158891
0.0120685
0.00953237
0.00777472
0.00652176
0.00561264
0.00494661
0.00446032
0.00411237
0.00387488
0.0037286
0.00365302
0.00362677
0.00362744
0.0036394
0.0036465
0.00363923
0.00361444
0.00357365
0.00352103
0.00346191
0.00340162
0.0033448
0.00329619
0.0032779
0.00327783
0.00327381
0.00323178
0.00311398
0.00296924
0.00278398
0.00255433
0.00253878
0.00217089
)
;

boundaryField
{
    floor
    {
        type            kqRWallFunction;
        value           nonuniform List<scalar> 
36
(
0.00120125
0.000263411
0.000330256
0.000341743
0.000215029
0.000105985
8.11805e-05
7.47071e-05
7.25751e-05
7.72968e-05
8.79794e-05
0.000104481
0.00013117
0.000179127
0.000257427
0.000355197
0.000419107
0.000443367
0.000365622
0.000365622
0.000576343
0.000818084
0.00197196
0.0039417
0.00308621
0.00242243
0.00120125
0.00155491
0.0013322
0.000878685
0.000263411
0.000878685
0.00042628
0.00174613
0.00139955
0.00256874
)
;
    }
    ceiling
    {
        type            kqRWallFunction;
        value           nonuniform List<scalar> 
43
(
0.00654479
0.0172086
0.0599491
0.0480976
0.0320677
0.0219603
0.0158891
0.0120685
0.00953237
0.00777472
0.00652176
0.00561264
0.00494661
0.00446032
0.00411237
0.00387488
0.0037286
0.00365302
0.00362677
0.00362744
0.0036394
0.0036465
0.00363923
0.00361444
0.00357365
0.00352103
0.00346191
0.00340162
0.0033448
0.00329619
0.0032779
0.00327783
0.00327381
0.00323178
0.00311398
0.00296924
0.00278398
0.00255433
0.00253878
0.00217089
0.0236667
0.0312882
0.116861
)
;
    }
    sWall
    {
        type            kqRWallFunction;
        value           uniform 0.00654479;
    }
    nWall
    {
        type            kqRWallFunction;
        value           nonuniform List<scalar> 6(0.00242243 0.00244997 0.00236226 0.0048235 0.00386631 0.00217089);
    }
    sideWalls
    {
        type            empty;
    }
    glass1
    {
        type            kqRWallFunction;
        value           nonuniform List<scalar> 9(0.00122964 0.00392506 0.00772104 0.0121786 0.0169294 0.0218423 0.0263447 0.0262483 0.0236667);
    }
    glass2
    {
        type            kqRWallFunction;
        value           nonuniform List<scalar> 2(0.00408655 0.00510433);
    }
    sun
    {
        type            kqRWallFunction;
        value           nonuniform List<scalar> 
14
(
0.00122964
0.00129557
0.000715984
0.000669538
0.000705134
0.000753446
0.000806232
0.000863525
0.000927398
0.000992272
0.00105242
0.0011042
0.00114653
0.00118174
)
;
    }
    Table_master
    {
        type            kqRWallFunction;
        value           nonuniform List<scalar> 9(0.000168144 9.15813e-05 0.000133667 0.000210975 0.000310065 0.000424348 0.000559938 0.000734893 0.000983935);
    }
    Table_slave
    {
        type            kqRWallFunction;
        value           nonuniform List<scalar> 9(0.00133131 0.00129533 0.00126709 0.00124519 0.00123883 0.00126235 0.00133632 0.00149371 0.00181139);
    }
    inlet
    {
        type            turbulentIntensityKineticEnergyInlet;
        intensity       0.05;
        value           uniform 0.247574;
    }
    outlet
    {
        type            zeroGradient;
    }
}


// ************************************************************************* //
