/*--------------------------------*- C++ -*----------------------------------*=========                 |
  \      /  F ield         | OpenFOAM: The Open Source CFD Toolbox
   \    /   O peration     | Website:  https://openfoam.org
    \  /    A nd           | Version:  6
     \/     M anipulation  |
\*---------------------------------------------------------------------------*/
FoamFile
{
    version     2.0;
    format      ascii;
    class       volScalarField;
    location    "400";
    object      PMV;
}
// * * * * * * * * * * * * * * * * * * * * * * * * * * * * * * * * * * * * * //

dimensions      [0 0 0 0 0 0 0];

internalField   nonuniform List<scalar> 
458
(
1.389428238004434
1.2081806588534056
1.2592312948551683
1.26851169897461
1.2750304139592321
1.2793666671687762
1.2831709476197712
1.2880412918334698
1.294253673597394
1.3027103313060318
1.3150625244684262
1.3335086459479721
1.3607908213992164
1.3664089943688817
1.350495858300463
1.0846340657681766
1.0735713280323302
1.069242394523045
1.0562554815100504
1.0451924336145653
1.035572310477902
1.0259521196050996
1.0211420011471701
1.0172938961923346
1.0177749097883366
1.022104025995899
1.0298002035941707
1.0423064042413819
1.0644324458832755
1.0942537223547673
1.1173404101902875
1.1211881186988548
1.1183023393708225
1.3784237755307815
1.2320211871244247
1.2986787017169863
1.2985350905969966
1.304692339371376
1.3105948791506854
1.316618197034726
1.3231053421478007
1.3304527157327781
1.3380732541420102
1.3466733708856764
1.356357978957427
1.3660908027265952
1.371351199992601
1.3717774227805797
1.3803470429027196
1.3587186894248875
1.2807139385631734
0.9969845034661506
1.098582530528757
1.0932917617726898
1.0735713280323302
1.0326862599808924
0.9889138898465841
0.976407348096553
0.9778504128140362
0.9889138898465841
1.0086356295674195
1.0341292859784872
1.0634704533938377
1.103392288988101
1.1615876135241405
1.2202574020734385
1.22170000266723
1.1745725416683672
1.0841354812167014
1.4496060352701645
1.26322193826946
1.3659024855554653
1.3475940459965932
1.3514754243846503
1.3597227237963874
1.368735795800079
1.3776392581458763
1.3868281997456622
1.3948734020464786
1.401206952100197
1.4046774641079611
1.402240383349515
1.390914183180781
1.3730038982097148
1.3546568435116406
1.32489974934848
1.2588604325378083
1.148979523433989
1.1760152908729515
1.1817862451213803
1.2024649130017813
1.2063120013068571
0.9942051039329916
0.9663058825041265
0.988432869892996
1.0341292859784872
1.0932917617726898
1.1543736256089285
1.211120812966559
1.2625714058945428
1.3101683315533825
1.3495861414061874
1.3092068512161212
1.2717718740879194
1.1049152670785525
1.5422198924921642
1.3130088187487734
1.447976505942485
1.4088497775091247
1.4084604736045307
1.4197386868492725
1.433544689897621
1.4477864366710331
1.4609563313586922
1.4723170809588404
1.4798830683140958
1.4826171418703862
1.477239909113833
1.4624128373695038
1.437762430688987
1.4042449503322465
1.3575720336283397
1.2994330331871637
1.2685711991863136
1.282049889433353
1.3043013068884328
1.354577241669185
1.3902757980913893
1.410518041325717
1.4316994417820808
1.4536491820382038
1.47696786546577
1.5031636296152993
1.5225555652142633
1.5374425457894443
1.5552089826403566
1.5739334441227764
1.5878551551120301
1.5811345035752462
1.5816145609758783
1.5844948703747819
1.5575993343639811
1.6426076553298858
1.3825878738728576
1.5220753165587821
1.492723407746037
1.4801454338619862
1.4924190585349235
1.510594984217936
1.5306436920627995
1.5500870513316478
1.5666787221152723
1.5786282703565138
1.5838409128420174
1.581297401289061
1.5692051707192856
1.549051377073562
1.521346254851364
1.4866419901357817
1.4537919036059326
1.4335723726506069
1.4284661735959234
1.4431441179427063
1.4680850259936613
1.4882245011452244
1.5022787420665857
1.5159902880576446
1.5311688062260036
1.5488846363973738
1.569723299871962
1.5939410225790926
1.6209060981513814
1.6507511710693668
1.682256720116079
1.71116299440913
1.7308221582343595
1.7538328666664973
1.7792340985761925
1.807502594536728
1.781233685212367
1.7222307637015444
1.7342216031806688
1.74260498476079
1.477028587635176
1.634410309510032
1.6070551770426034
1.5950554860316237
1.5957140835095291
1.611764042676238
1.6346605638288165
1.6594326763954803
1.681037842261505
1.6973154196295523
1.7060180349781846
1.7063359838000205
1.6982834030434553
1.6815680515490468
1.6576217771661157
1.6286300860143468
1.600860076472834
1.5809367747334173
1.571359633202041
1.5726018954371483
1.579929092982446
1.5870177083069332
1.5928119063506645
1.5982800111091917
1.605307469871524
1.6150799147359804
1.62788486883019
1.6454146791899633
1.6674687321852353
1.6926031955541447
1.7196267324340166
1.7461240998331582
1.7724508158296284
1.7982290750126775
1.8201459087532736
1.8294175751893105
1.8291537754525151
1.8084830322599657
1.7091061990933478
1.8422596536293248
1.622107458199064
1.813730016394874
1.7950464047533636
1.7562295022764975
1.7336987901249776
1.735137075036923
1.7476013344149453
1.765815439812661
1.784505176639307
1.8012747221630818
1.814688040957701
1.8233097729415757
1.8271413687627203
1.8252255929304688
1.816604057620348
1.7916112800875132
1.7656395869518424
1.7442052988812353
1.7289010446251971
1.720330507352298
1.7159490171624987
1.712046808617268
1.7081391279792355
1.7039592914561295
1.7002973513390685
1.6989923321319913
1.7003135970600347
1.7056355957334484
1.7160670057930925
1.7310713588707678
1.7479949126651773
1.7650138127430934
1.7792813474187663
1.7890224418763807
1.7936922825893367
1.793875832130777
1.7951697979560142
1.8055085140828584
1.6441630943557088
1.9798443155760925
1.9677830548466608
2.0385126793817445
2.0151775413181103
1.9699034463079363
1.953782909286019
1.9376966769819899
1.9209567194695816
1.9137812000974954
1.9171298680614868
1.9266965979386714
1.935783748859025
1.942956946133944
1.9472604915299465
1.9472604915299465
1.9420005645756184
1.9310011900845383
1.9152163632079953
1.8965569680522836
1.8778927553604396
1.861138858478497
1.8467754859595893
1.8338462340519441
1.8218728790711918
1.8103768455554126
1.799837457447283
1.7897759464421255
1.7821092700860413
1.7777964787540463
1.7797133001445786
1.7897759464421255
1.8004591913961157
1.8013980080360874
1.7994582633236964
1.7938215396726038
1.7868067364457707
1.7824287139903756
1.7821626929877084
1.7748309810870813
1.7263344427672092
2.1729709044994583
2.157051679353821
2.5228998016098227
2.4696843551754624
2.315264435355009
2.206103766907341
2.1438917636101853
2.1094423140471683
2.0927758905161977
2.0854092713923453
2.0813210761491336
2.083843157590011
2.088888758522012
2.09350049100807
2.096258252724015
2.0905351352721695
2.0805180988878336
2.0662046224028314
2.0475912409160664
2.027061368193811
2.0060462939352464
1.985501539814819
1.9659058935815599
1.9467823337292725
1.9281314922870856
1.9089971107738075
1.8903360906352602
1.8711916391147656
1.8539575005074453
1.8395928238948276
1.83145170208089
1.8295360262059943
1.8343251320371032
1.8439024983319094
1.8544362782331478
1.8673621638731883
1.8855504400809102
1.9109107855878744
1.8685493449708912
1.7800601741378643
3.0
3.0
2.6023972215219846
2.4392281826727213
2.3631420075607976
2.3180337107749787
2.2947024594541077
2.283278475324411
2.2765366902242
2.2694454519201086
2.262186658866063
2.254795196681529
2.2453812314939
2.2345559284660514
2.221927898919645
2.206499219430939
2.1885777875295025
2.168416620651856
2.1468720369827756
2.1254103630415617
2.1036772964468886
2.082728946002795
2.0626320640904034
2.042465161839347
2.0189428217312533
1.991713488251007
1.9649498511757595
1.9386531205042115
1.9147379787824015
1.895121428230576
1.8817216962272523
1.868644612926356
1.860410471267867
1.8598567061936018
1.8657146198791967
1.8676379463385622
1.8294055871197357
1.825037527668205
3.0
3.0
3.0
2.824449314906022
2.7136493635490306
2.6501245612058315
2.610962722900867
2.584373760276014
2.5640547319420315
2.544691775708726
2.5237138565687003
2.5000689432132264
2.4753354450693767
2.4485522049133146
2.4203168431548088
2.390626268305171
2.3599140994961183
2.3285521042163673
2.2969299032049117
2.2654468722766614
2.2340668380573057
2.2038004240723392
2.1736850372556824
2.143757260243399
2.114011243260695
2.0833879548232788
2.0526457696299665
2.0203240666340645
1.9871892620581222
1.95368538779986
1.9215258322747468
1.8947067843372654
1.8758033513100492
1.867349157550607
1.8693955097351684
1.880167171867203
1.8624300496765671
1.8460390069211883
3.0
3.0
3.0
3.0
3.0
3.0
3.0
3.0
3.0
3.0
3.0
2.9862597587997843
2.931911969720023
2.87966066622091
2.829051902502043
2.7791080777204793
2.7299451848720215
2.6811056452051636
2.633165853393623
2.5861268257282903
2.5399957986569945
2.4947374312044883
2.450837346413003
2.40826171245293
2.3669800537541854
2.326439334997504
2.2871433797743266
2.248522036481378
2.2099928916014684
2.1719718836922017
2.1325088071408405
2.0922524241803235
2.0524299139532083
2.016217414502791
1.9868740707264911
1.9636958312323427
1.947870240878345
1.941520093670513
1.9161722758361193
1.877067260636535
)
;

boundaryField
{
    ".*"
    {
        type            zeroGradient;
    }
}


// ************************************************************************* //
