/*--------------------------------*- C++ -*----------------------------------*=========                 |
  \      /  F ield         | OpenFOAM: The Open Source CFD Toolbox
   \    /   O peration     | Website:  https://openfoam.org
    \  /    A nd           | Version:  6
     \/     M anipulation  |
\*---------------------------------------------------------------------------*/
FoamFile
{
    version     2.0;
    format      ascii;
    class       volScalarField;
    location    "400";
    object      PPD;
}
// * * * * * * * * * * * * * * * * * * * * * * * * * * * * * * * * * * * * * //

dimensions      [0 0 0 0 0 0 0];

internalField   nonuniform List<scalar> 
458
(
44.94303546449682
35.64408523630898
38.1859418191226
38.655313088699934
38.98627373130211
39.20699695816586
39.401010323750924
39.64988797536284
39.9681416619336
40.402774860911485
41.04045451049343
41.99872458984312
43.428278852990736
43.72435847527177
42.887195948965164
29.81259364233668
29.31494187113414
29.12137554319756
28.544659760312726
28.058147240548408
27.638699560562657
27.22264260243503
27.015895953562932
26.851117586002317
26.871684715360985
27.057176617107757
27.388656372334367
27.931958908641917
28.907077978003983
30.248783180130047
31.308481017318215
31.486830816315305
31.353022562253386
44.35935803165154
36.82242561239337
40.195367503875985
40.187986121675095
40.50487161786311
40.80943171756303
41.12099852024695
41.45741471402876
41.839490006520066
42.236916456185085
42.68679009547229
43.195061595148935
43.70757493156969
43.985266808905585
44.00778741255227
44.461228496886775
43.31921759070847
39.27566687505789
25.99065892007485
30.446104044529434
30.205021059645745
29.31494187113414
27.51352493171369
25.65306443944661
25.1348444982967
25.194331787864698
25.65306443944661
26.482388901364658
27.57607404332731
28.86431689137774
30.666097110216924
33.38842554589266
36.23902646760046
36.310365396128574
34.01052760776034
29.79007323869409
48.16503228797969
38.387512662975254
43.697642658386115
42.735034327441134
42.93859661395511
43.37205275168843
43.84714259020072
44.317821527126
44.804956317866804
45.23254638133981
45.569850293734966
45.75492599977672
45.624943108695184
45.02199595240579
44.07260856900138
43.10565691008264
41.55062501870033
38.16722951740331
32.78937593675744
34.07996645800016
34.35834686894316
35.36394382173091
35.55239569870275
25.87411604711994
24.720691617615117
25.633021873086932
27.57607404332731
30.205021059645745
33.04505680320497
35.788550295316426
38.354626565828866
40.787397277100865
42.83947643021075
40.737743901803235
38.82070580971366
30.735920017210404
53.189606438191134
40.934203931557555
48.077207448936356
45.97765337617069
45.95686118100159
46.56004700419136
47.30064900542788
48.06696530968424
48.77750504027971
49.39174299252832
49.80141247008727
49.949561288108896
49.65824395981895
48.85618907684195
47.527359556388156
45.73185147978144
43.25889939271889
40.23414652949455
38.65832927970735
39.34380225839634
40.484721978026165
43.10147465472426
44.98806913795054
46.0667767840064
47.2015290832454
48.383058587556064
49.643511612954974
51.06452410722467
52.1189620844857
52.92940818821328
53.89723191140443
54.917412996550695
55.675664306214614
55.309669223996295
55.335815653394384
55.49268208862139
54.027470506346525
58.650281805329115
44.57999501582405
52.092829152095725
50.49764310321077
49.8156266034438
50.481127610693726
51.468399012561
52.55919885640896
53.61817471470334
54.522166243523415
55.173159494720224
55.45706807864751
55.3185415348943
54.659815839039624
53.56175110976057
52.053158582593724
50.16775166090358
48.39075784471185
47.30213632619952
47.027947772107986
47.81692673333566
49.162797733708565
50.25357222435636
51.01645210101525
51.76178697313328
52.58778787119671
53.55266717571928
54.688044693205384
56.00698778049114
57.4732544610553
59.09103662983541
60.790198052292304
62.338761805724594
63.384979191611464
64.60123998107548
65.93206705962768
67.3966923846738
66.03625981748412
62.928520247903656
63.56525133472832
64.00896488703066
49.646799932135494
58.2060737114935
56.72050392484055
56.06764842640901
56.10349417405911
56.976525575262364
58.219642291399296
59.56026000711285
60.72466303266407
61.59832573198631
62.063977753092864
62.080970063290195
61.650171537805626
60.753172809165626
59.46244181149057
57.89255172898308
56.383523929195086
55.298899746228074
54.77719424214846
54.84487245901604
55.244014280025496
55.63006431254632
55.94552546974711
56.24313653734117
56.625454711706006
57.15674405406765
57.85211417839801
58.80227060266499
59.993945089365674
61.3457568373074
62.789932726436675
64.19485019768824
65.57797180385506
66.91825207170784
68.04561157678646
68.51890606491838
68.50547068282305
67.4471545864069
62.22895818725707
69.17070950807427
57.53849467718035
67.71681183406679
66.75358414867
64.72735636490563
63.53753943811738
63.61376494142931
64.27281266177609
65.23066646805091
66.20653997807298
67.07560884135991
67.7659739539441
68.20736823591719
68.40291826263223
68.30519194462178
67.864227785287
66.57559227557111
65.2214498097361
64.09352393607617
63.2830164875183
62.82739848189788
62.594022067553595
62.38592561729835
62.17730881894917
61.953916178457675
61.75799891743829
61.68813414530488
61.75886849144032
62.043536921113244
62.60031053513684
63.39820092567801
64.29357733665702
65.18864716193588
65.9345300596523
66.44127334413304
66.68345226099704
66.69296102009992
66.7599727556087
67.29398709567447
58.73451041905334
75.83178064618767
75.27432915235212
78.46041174558314
77.43180800817433
75.37273426565925
74.62034331797847
73.85998646419787
73.05893270191865
72.71259642494817
72.87444249773114
73.33470485765775
73.76894641433671
74.10965834589182
74.31317832551886
74.31317832551886
74.06433887694175
73.54076737245816
72.78200648497999
71.87421481532971
70.95494327563753
70.12064301764472
69.39884443999387
68.74418398426143
68.1339369362842
67.54456100580019
67.00137814669645
66.48038370694721
66.0818567099117
65.85710347046417
65.95704477091866
66.48038370694721
67.03349494582059
67.0819739381063
66.98178571614153
66.69014848722819
66.32619414213954
66.09848788162448
66.08463821564699
65.70233030549679
63.14669888853417
83.91158306984428
83.31070805717107
93.89116996997797
92.76764345522182
88.71773562031095
85.12208699039147
82.80467090803539
81.44074170615704
80.76088764656333
80.45631578521265
80.28622339012239
80.39124611054898
80.60048361593104
80.79071201920078
80.90400019912542
80.66850641921039
80.25272589597796
79.65074839037517
78.85433398564984
77.95850679167829
77.02313369022795
76.0913072723859
75.18706951248076
74.29059885610984
73.40346577027763
72.48071877218047
71.56903912759684
70.62225536111524
69.76049652885092
69.03572034497799
68.62244300466254
68.52493820728827
68.76851340960235
69.25376955164519
69.78455350557711
70.4315263693089
71.33343345897832
72.5735638052929
70.4907014319638
65.97512199715607
100.0
100.0
95.32779050659623
92.0633568436338
90.10235025728966
88.80102346075977
88.08700808065754
87.72720767454264
87.51173428087796
87.28257985343069
87.04534617166024
86.80101025414676
86.48578333452961
86.11772487356856
85.68086709235261
85.13620443841432
84.48857084819585
83.74094754066456
82.92000464489576
82.07994966097355
81.20703162780788
80.34488447246713
79.49907172620135
78.63234800392937
77.59932463967478
76.37483309533573
75.14257668476901
73.90545658963289
72.75887769281488
71.80390213605479
71.14442055861518
70.49544824298242
70.08418231995589
70.05645229537602
70.3493350681703
70.44527649549934
68.51829554943836
68.29559334254807
100.0
100.0
100.0
98.01897933446797
96.89602708416044
96.06012030751424
95.46614543326992
95.0264787979638
94.66990608447087
94.31308109537876
93.9073230749929
93.42556481396004
92.89335817296988
92.28379372692265
91.60305697424272
90.84435246941699
90.01268478623712
89.11378563360306
88.1563818026944
87.15223054620233
86.10095542447499
85.03970313861701
83.93824706390154
82.79945566168618
81.62486162770386
80.37231221910343
79.072105431313
77.66062835841629
76.16848903052389
74.61576218494366
73.08632645834054
71.78358054574363
70.8513579499788
70.43087783645339
70.532852853634
71.06754859850064
70.18523776503176
69.36167693079639
100.0
100.0
100.0
100.0
100.0
100.0
100.0
100.0
100.0
100.0
100.0
99.05202632849586
98.77202412770899
98.4421025525651
98.05743029348322
97.6068464867769
97.0865933278605
96.4868024962273
95.81056867098195
95.05639875195834
94.22399739841407
93.3133069703443
92.33716669931049
91.30033956389941
90.20827321297241
89.05141838675662
87.84968275923565
86.59145511124892
85.26058600215171
83.87423995745145
82.36023405365984
80.73932691987142
79.06282816999666
77.47813049748477
76.15408343079572
75.08416406744631
74.34195969992737
74.04155865845043
72.82819945460767
70.91403410200675
)
;

boundaryField
{
    ".*"
    {
        type            zeroGradient;
    }
}


// ************************************************************************* //
