/*--------------------------------*- C++ -*----------------------------------*\
  =========                 |
  \\      /  F ield         | OpenFOAM: The Open Source CFD Toolbox
   \\    /   O peration     | Website:  https://openfoam.org
    \\  /    A nd           | Version:  6
     \\/     M anipulation  |
\*---------------------------------------------------------------------------*/
FoamFile
{
    version     2.0;
    format      ascii;
    class       volScalarField;
    location    "300";
    object      alphat;
}
// * * * * * * * * * * * * * * * * * * * * * * * * * * * * * * * * * * * * * //

dimensions      [1 -1 -1 0 0 0 0];

internalField   nonuniform List<scalar> 
458
(
0.00175917
0.00196603
0.00209503
0.00221914
0.00222492
0.00214831
0.00200539
0.00187843
0.00175194
0.00162683
0.00150726
0.00140342
0.00130416
0.00119912
0.00107768
0.00058612
0.000679689
0.000777803
0.000859017
0.00089675
0.00084337
0.000780242
0.000725081
0.000678442
0.000638682
0.000604532
0.000574862
0.00054863
0.000524823
0.000501982
0.000478276
0.000454512
0.000413896
0.00206248
0.00474422
0.00510391
0.00507979
0.00514386
0.00517406
0.00509732
0.00495154
0.0047469
0.00451477
0.00425562
0.00391688
0.00351166
0.00300477
0.00226319
0.00125092
0.00112904
0.000970236
0.000567599
0.00101245
0.00189541
0.00255752
0.00288328
0.00199955
0.00167087
0.00145424
0.00130186
0.00119089
0.00110792
0.00104518
0.000992287
0.000924331
0.000849494
0.000780334
0.000849787
0.000469749
0.00230352
0.00600585
0.005577
0.00485792
0.00484838
0.00494342
0.00501354
0.00501715
0.00495853
0.00486279
0.00473347
0.00455419
0.00430231
0.00392866
0.00336719
0.00265634
0.00224991
0.00109247
0.000583245
0.00102007
0.00176812
0.00277397
0.00329674
0.00107045
0.000939447
0.000822525
0.000724239
0.000643215
0.000576909
0.000522832
0.000480272
0.000453594
0.000542241
0.000654153
0.00100678
0.000517615
0.00232042
0.00492558
0.00440951
0.00429881
0.00443687
0.0046173
0.00476416
0.00483889
0.00483994
0.00480162
0.00475788
0.00468911
0.00456092
0.00432927
0.00395348
0.00344433
0.00291439
0.00188765
0.00114816
0.0011562
0.00160101
0.00257465
0.00377089
0.00432444
0.00127257
0.00119167
0.00112799
0.00107398
0.00102518
0.000979413
0.00093177
0.000878649
0.000815862
0.000748354
0.000706964
0.0011788
0.000582902
0.00232136
0.00312321
0.00361288
0.00395823
0.00431193
0.00465189
0.00492146
0.00507916
0.005125
0.00516599
0.00514639
0.00506421
0.00491693
0.00468979
0.00436624
0.00394796
0.00347395
0.00282217
0.00253535
0.0027581
0.00355368
0.00472891
0.00585324
0.00652029
0.00612566
0.00579007
0.0055504
0.00533381
0.00504735
0.00460359
0.00402819
0.00334395
0.0025945
0.0018982
0.00137582
0.00129612
0.00094958
0.000759149
0.000827404
0.000904137
0.00296642
0.00440097
0.0045351
0.004598
0.00500207
0.0055256
0.00600494
0.00631178
0.00645572
0.0062935
0.0060224
0.00574114
0.00546379
0.00517489
0.00486076
0.00452748
0.00423081
0.00402086
0.00427728
0.00518184
0.00636396
0.00745635
0.00819449
0.00849438
0.00840944
0.00822787
0.00800657
0.00769394
0.00722538
0.00661282
0.00586447
0.00499156
0.00402734
0.00306549
0.00226967
0.00169815
0.00129543
0.00107743
0.00134916
0.000938185
0.00334468
0.00622026
0.00515179
0.00504891
0.00616914
0.0072813
0.00825814
0.00837648
0.00758056
0.00702415
0.00663542
0.00632813
0.00606299
0.0058299
0.00563246
0.00550957
0.0055661
0.00595268
0.00689241
0.00813927
0.00911403
0.00969699
0.00988493
0.00976089
0.00947517
0.00915374
0.00878239
0.0083241
0.00776824
0.00712877
0.00641327
0.00562315
0.0047748
0.0039
0.00311349
0.00244555
0.00197016
0.00174059
0.00161252
0.00111824
0.00336087
0.00552376
0.00386496
0.00574438
0.00729064
0.00786532
0.00816574
0.00802166
0.00764081
0.00734979
0.00715223
0.00701314
0.00692519
0.0068962
0.00695397
0.00715374
0.00758653
0.00835053
0.00935864
0.0102266
0.0106668
0.0106788
0.0103582
0.00984131
0.00924412
0.00864181
0.00804568
0.00744425
0.00684375
0.00626935
0.00573989
0.00521292
0.00469094
0.00413754
0.00365534
0.00336029
0.00330353
0.00338865
0.00397227
0.00172106
0.00298297
0.00317978
0.0028642
0.00490495
0.00694702
0.00776025
0.00798309
0.00800557
0.00793631
0.00790819
0.00793294
0.00800223
0.00811749
0.00828831
0.00853396
0.0088796
0.00934296
0.00989303
0.0103773
0.0105835
0.0104229
0.00993909
0.00923069
0.00840111
0.00754769
0.00674584
0.00601111
0.00532939
0.00470089
0.00414511
0.00368471
0.00333197
0.00306556
0.00287745
0.00276276
0.0027034
0.00263425
0.00251043
0.00234969
0.0016208
0.00313196
0.00467971
0.0063447
0.00724802
0.00765177
0.0079359
0.00812964
0.00829503
0.00846888
0.00864925
0.0088335
0.00902142
0.00921296
0.00940039
0.00955612
0.00961703
0.00948857
0.00910097
0.00845539
0.00761372
0.00667333
0.0057481
0.00493216
0.00426352
0.00373655
0.00333621
0.00304785
0.00285323
0.00273117
0.00266198
0.00262893
0.00261887
0.00261336
0.00257865
0.00246726
0.00226075
0.00199387
0.00130973
0.00203633
0.00507185
0.00512421
0.0053927
0.00583684
0.00627927
0.00662792
0.00688829
0.00710474
0.00727603
0.00739994
0.00747446
0.00749407
0.00744452
0.00729897
0.00701904
0.00657097
0.00595289
0.00521
0.00443551
0.00374107
0.00319943
0.00281849
0.00256831
0.00241515
0.00233344
0.00230483
0.00231596
0.00235742
0.00242287
0.00250696
0.002601
0.00268572
0.00272985
0.00269737
0.00267248
0.00257288
0.0013307
0.00147954
0.001535
0.00156496
0.00137412
0.00136228
0.00138133
0.001402
0.00141984
0.00143493
0.0014433
0.0014408
0.00142702
0.00140206
0.00136628
0.00131995
0.00126322
0.00119632
0.00112051
0.00103968
0.000961123
0.000893273
0.000842484
0.000810708
0.000795927
0.000794597
0.000803687
0.000821277
0.000846312
0.000878264
0.000916934
0.000962365
0.00101481
0.00107477
0.0011428
0.00121891
0.00130553
0.00135419
0.00132668
0.00123149
0.00114292
)
;

boundaryField
{
    floor
    {
        type            compressible::alphatWallFunction;
        Prt             0.85;
        value           nonuniform List<scalar> 
36
(
0.000153154
8.22673e-05
9.61812e-05
0.000110524
0.000122233
0.00012763
0.00011999
0.000110881
0.000102849
9.60002e-05
9.01168e-05
8.50279e-05
8.0578e-05
7.66202e-05
7.3008e-05
6.95231e-05
6.58852e-05
6.22157e-05
5.58865e-05
5.58858e-05
6.45729e-05
7.19144e-05
8.17939e-05
0.00010784
0.000117728
0.000128718
0.000153152
0.000177114
0.000160293
0.000138055
8.22663e-05
0.000138054
7.94817e-05
0.0001552
8.18352e-05
0.000162936
)
;
    }
    ceiling
    {
        type            compressible::alphatWallFunction;
        Prt             0.85;
        value           nonuniform List<scalar> 
43
(
0.000208341
0.00021579
0.000219803
0.000194091
0.000192484
0.000195073
0.000197877
0.000200293
0.000202335
0.000203468
0.000203133
0.000201274
0.000197901
0.000193049
0.000186747
0.000178994
0.000169798
0.000159304
0.000148024
0.000136961
0.000127319
0.000120043
0.000115463
0.000113324
0.000113128
0.00011444
0.000116976
0.000120576
0.000125153
0.000130668
0.000137112
0.000144508
0.000152908
0.000162376
0.000172892
0.000184767
0.000191402
0.000187657
0.000174624
0.0001624
0.00040227
0.000426682
0.00028192
)
;
    }
    sWall
    {
        type            compressible::alphatWallFunction;
        Prt             0.85;
        value           uniform 0.000207285;
    }
    nWall
    {
        type            compressible::alphatWallFunction;
        Prt             0.85;
        value           nonuniform List<scalar> 6(0.000128509 0.000133342 0.000158608 0.00018502 0.000187879 0.000162073);
    }
    sideWalls
    {
        type            empty;
    }
    glass1
    {
        type            compressible::alphatWallFunction;
        Prt             0.85;
        value           nonuniform List<scalar> 9(0.000239764 0.000279026 0.000309856 0.000312127 0.000312408 0.000392718 0.000438548 0.000440232 0.000393601);
    }
    glass2
    {
        type            compressible::alphatWallFunction;
        Prt             0.85;
        value           nonuniform List<scalar> 2(0.000238756 0.00022559);
    }
    sun
    {
        type            compressible::alphatWallFunction;
        Prt             0.85;
        value           nonuniform List<scalar> 
14
(
0.000245487
0.000272633
0.000289412
0.000305446
0.000306187
0.000296294
0.000277755
0.000261164
0.000244513
0.000227915
0.000211918
0.000197911
0.000184411
0.000169998
)
;
    }
    Table_master
    {
        type            compressible::alphatWallFunction;
        Prt             0.85;
        value           nonuniform List<scalar> 9(0.000152297 0.000133855 0.000117138 0.000102867 9.09253e-05 8.10162e-05 7.283e-05 6.6313e-05 6.21911e-05);
    }
    Table_slave
    {
        type            compressible::alphatWallFunction;
        Prt             0.85;
        value           nonuniform List<scalar> 9(0.000180258 0.000169135 0.000160319 0.000152796 0.000145961 0.000139517 0.000132771 0.000125201 0.000116183);
    }
    inlet
    {
        type            fixedValue;
        value           uniform 1.94e-05;
    }
    outlet
    {
        type            zeroGradient;
    }
}


// ************************************************************************* //
