/*--------------------------------*- C++ -*----------------------------------*\
  =========                 |
  \\      /  F ield         | OpenFOAM: The Open Source CFD Toolbox
   \\    /   O peration     | Website:  https://openfoam.org
    \\  /    A nd           | Version:  6
     \\/     M anipulation  |
\*---------------------------------------------------------------------------*/
FoamFile
{
    version     2.0;
    format      ascii;
    class       volScalarField;
    location    "500";
    object      epsilon;
}
// * * * * * * * * * * * * * * * * * * * * * * * * * * * * * * * * * * * * * //

dimensions      [0 2 -3 0 0 0 0];

internalField   nonuniform List<scalar> 
458
(
0.000499343
0.000647938
0.000696896
0.000807867
0.000920718
0.00103689
0.00116145
0.00130335
0.00144638
0.00157159
0.00165073
0.0016477
0.00152707
0.00123025
0.000509321
5.63008e-05
9.51766e-05
0.000140082
0.000152208
0.00014517
0.000122368
9.96405e-05
8.14745e-05
6.73765e-05
5.63516e-05
4.76913e-05
4.0804e-05
3.51951e-05
3.04891e-05
2.63731e-05
2.25458e-05
2.00285e-05
1.52705e-05
0.00122016
0.00181649
0.000607824
0.0005954
0.000615629
0.000649692
0.000704412
0.000790886
0.000902908
0.00102212
0.00111346
0.00113909
0.00108298
0.000961361
0.000788193
0.00113612
0.000631207
0.000339113
5.77632e-05
0.000121182
0.000139138
0.00013651
0.000128074
0.000127926
0.000102671
8.01086e-05
6.28066e-05
4.97542e-05
3.99448e-05
3.25438e-05
2.6871e-05
2.26302e-05
2.01624e-05
1.93163e-05
4.67476e-05
3.23059e-05
0.00219281
0.00439383
0.000709217
0.000540044
0.000542447
0.00057655
0.000638275
0.000734897
0.000864503
0.00100289
0.00110697
0.00114436
0.00110539
0.000995064
0.000788095
0.000620401
0.000504526
0.000535584
0.000275168
0.000233953
0.000195306
0.000164291
0.000147301
0.000288369
0.000198088
0.000139051
0.000100765
7.54996e-05
5.84338e-05
4.66644e-05
3.84212e-05
3.27934e-05
2.59195e-05
2.27471e-05
8.63126e-05
5.02408e-05
0.00351715
0.00908529
0.00107045
0.000520512
0.000495864
0.000530589
0.000597886
0.000712027
0.000876648
0.00104324
0.00115599
0.00119556
0.00115751
0.00102767
0.000812451
0.000631911
0.000528048
0.000544458
0.000837521
0.000543431
0.000352049
0.000251591
0.000193705
0.000165858
0.000378582
0.000292861
0.000245538
0.00021589
0.000193346
0.000171889
0.000151634
0.000132028
0.0001111
6.96799e-05
4.52509e-05
0.000128565
7.34581e-05
0.00533381
0.016314
0.00211563
0.000587295
0.000472347
0.000493073
0.000567272
0.000728933
0.000977862
0.0011877
0.00130379
0.00133259
0.00127269
0.00109112
0.000830307
0.000604125
0.000467965
0.000432266
0.000432838
0.000358846
0.000289792
0.000235825
0.000192208
0.000157868
0.000146885
0.000138271
0.00013421
0.000130774
0.000125323
0.000116433
0.000105285
9.43484e-05
8.41768e-05
6.96908e-05
5.46755e-05
8.74664e-05
0.000119528
0.000135316
0.000161689
0.000157129
0.00788789
0.0244828
0.00511336
0.00114957
0.000652725
0.000560648
0.000591659
0.000859018
0.00123983
0.00146934
0.00156518
0.00156225
0.00145721
0.00121323
0.000865908
0.000558848
0.000379259
0.000317184
0.000303127
0.0002889
0.000261666
0.000225371
0.000188219
0.000157158
0.000141412
0.000140505
0.000145726
0.000150267
0.000150682
0.000144401
0.000129246
0.000110603
9.29929e-05
7.70754e-05
6.49184e-05
7.07797e-05
8.80333e-05
0.000137374
0.000497949
0.000313362
0.0109919
0.0293856
0.0114039
0.00451065
0.00238909
0.00151081
0.00122468
0.00152428
0.00181582
0.00194006
0.0019577
0.00188693
0.00171447
0.00138198
0.00092242
0.000525134
0.000311546
0.000250703
0.000252165
0.00025299
0.000235813
0.00020713
0.00017846
0.000158245
0.000152925
0.000161367
0.000175327
0.000189362
0.000200751
0.000206303
0.000201454
0.00017814
0.00015364
0.00013311
0.000121778
0.000127784
0.000157294
0.000246822
0.000992781
0.000610194
0.0117457
0.0316545
0.0187502
0.0134619
0.0091045
0.0058803
0.00414564
0.00335139
0.00293026
0.00269856
0.00251417
0.00230343
0.00202234
0.00156456
0.000958815
0.000474145
0.000260568
0.000220779
0.000224203
0.000222144
0.000206742
0.000186955
0.000172113
0.000167021
0.000173005
0.00018807
0.00020883
0.00023367
0.000262476
0.000295246
0.00033083
0.000363172
0.000375845
0.000407845
0.000484405
0.000689162
0.00116903
0.00190135
0.00655337
0.0014268
0.0109788
0.0185902
0.0156779
0.0123287
0.00965635
0.00745364
0.00584474
0.00469949
0.00398288
0.00353895
0.00313754
0.00273585
0.00231554
0.00167921
0.000874751
0.000393438
0.000251114
0.000220207
0.000213916
0.00020633
0.000195236
0.000185587
0.000181389
0.000184041
0.000193452
0.000209013
0.000230539
0.000259092
0.000297054
0.000347935
0.000416158
0.000506809
0.000626173
0.00079406
0.00104757
0.00139743
0.00180786
0.00219149
0.00252716
0.00125226
0.00422288
0.00498308
0.0055174
0.00562122
0.0054591
0.0052225
0.00492937
0.00441906
0.00363794
0.00295196
0.00239809
0.00148449
0.000726033
0.000416791
0.000316233
0.000283617
0.000270051
0.000260433
0.000251657
0.000244462
0.000239919
0.000238556
0.000240584
0.000246176
0.000255731
0.000270289
0.000291906
0.000324092
0.000372461
0.000445497
0.000551056
0.000695786
0.000884493
0.0010973
0.00126813
0.00130088
0.00115833
0.000628789
0.00619006
0.0187774
0.0126658
0.01099
0.00959842
0.00828958
0.00666109
0.00451205
0.00266133
0.00140154
0.000926635
0.000662544
0.000545473
0.000508789
0.000492559
0.000472637
0.000449593
0.000424914
0.000399883
0.000375817
0.000353919
0.000335293
0.000321052
0.000312434
0.000310876
0.00031799
0.000335655
0.000366292
0.000413328
0.000482533
0.000580402
0.000713585
0.000883741
0.00107368
0.00124657
0.00139118
0.000800509
0.000647676
0.00717285
0.00746757
0.0078379
0.00959341
0.00817992
0.00715091
0.00550933
0.0034176
0.00168206
0.00109514
0.00075655
0.000609652
0.000539943
0.000472801
0.000407851
0.000357318
0.000321902
0.000299279
0.000281325
0.000266971
0.00025634
0.000249618
0.000246908
0.000248281
0.000253862
0.000263882
0.000278715
0.000298977
0.000325736
0.000360937
0.000408278
0.000467348
0.000540667
0.000630214
0.000737788
0.000862814
0.000992015
0.000940023
0.000730202
0.000568133
)
;

boundaryField
{
    floor
    {
        Cmu             0.09;
        kappa           0.41;
        E               9.8;
        type            epsilonWallFunction;
        value           nonuniform List<scalar> 
36
(
0.000509321
5.63008e-05
9.51766e-05
0.000140082
0.000152208
0.00014517
0.000122368
9.96405e-05
8.14745e-05
6.73765e-05
5.63516e-05
4.76913e-05
4.0804e-05
3.51951e-05
3.04891e-05
2.63731e-05
2.25458e-05
2.00285e-05
1.52705e-05
1.52705e-05
3.23059e-05
5.02408e-05
7.34581e-05
0.000135316
0.000161689
0.000157129
0.000509321
0.00113612
0.000631207
0.000339113
5.63008e-05
0.000339113
5.77632e-05
0.000535584
0.000275168
0.000837521
)
;
    }
    ceiling
    {
        Cmu             0.09;
        kappa           0.41;
        E               9.8;
        type            epsilonWallFunction;
        value           nonuniform List<scalar> 
43
(
0.00717285
0.00746757
0.0078379
0.00959341
0.00817992
0.00715091
0.00550933
0.0034176
0.00168206
0.00109514
0.00075655
0.000609652
0.000539943
0.000472801
0.000407851
0.000357318
0.000321902
0.000299279
0.000281325
0.000266971
0.00025634
0.000249618
0.000246908
0.000248281
0.000253862
0.000263882
0.000278715
0.000298977
0.000325736
0.000360937
0.000408278
0.000467348
0.000540667
0.000630214
0.000737788
0.000862814
0.000992015
0.000940023
0.000730202
0.000568133
0.0109788
0.0185902
0.00619006
)
;
    }
    sWall
    {
        Cmu             0.09;
        kappa           0.41;
        E               9.8;
        type            epsilonWallFunction;
        value           uniform 0.00717285;
    }
    nWall
    {
        Cmu             0.09;
        kappa           0.41;
        E               9.8;
        type            epsilonWallFunction;
        value           nonuniform List<scalar> 6(0.000157129 0.000313362 0.000610194 0.000628789 0.000647676 0.000568133);
    }
    sideWalls
    {
        type            empty;
    }
    glass1
    {
        Cmu             0.09;
        kappa           0.41;
        E               9.8;
        type            epsilonWallFunction;
        value           nonuniform List<scalar> 9(0.000499343 0.00122016 0.00219281 0.00351715 0.00533381 0.00788789 0.0109919 0.0117457 0.0109788);
    }
    glass2
    {
        Cmu             0.09;
        kappa           0.41;
        E               9.8;
        type            epsilonWallFunction;
        value           nonuniform List<scalar> 2(0.0014268 0.00125226);
    }
    sun
    {
        Cmu             0.09;
        kappa           0.41;
        E               9.8;
        type            epsilonWallFunction;
        value           nonuniform List<scalar> 
14
(
0.000499343
0.000647938
0.000696896
0.000807867
0.000920718
0.00103689
0.00116145
0.00130335
0.00144638
0.00157159
0.00165073
0.0016477
0.00152707
0.00123025
)
;
    }
    Table_master
    {
        Cmu             0.09;
        kappa           0.41;
        E               9.8;
        type            epsilonWallFunction;
        value           nonuniform List<scalar> 9(0.000288369 0.000198088 0.000139051 0.000100765 7.54996e-05 5.84338e-05 4.66644e-05 3.84212e-05 3.27934e-05);
    }
    Table_slave
    {
        Cmu             0.09;
        kappa           0.41;
        E               9.8;
        type            epsilonWallFunction;
        value           nonuniform List<scalar> 9(0.000378582 0.000292861 0.000245538 0.00021589 0.000193346 0.000171889 0.000151634 0.000132028 0.0001111);
    }
    inlet
    {
        type            turbulentMixingLengthDissipationRateInlet;
        mixingLength    0.01;
        phi             phi;
        k               k;
        value           uniform 0.00377337;
    }
    outlet
    {
        type            zeroGradient;
    }
}


// ************************************************************************* //
