// -*- C++ -*-
// File generated by PyFoam - sorry for the ugliness

FoamFile
{
 version 2.0;
 format ascii;
 class volVectorField;
 location "1500";
 object U;
}

dimensions [ 0 1 -1 0 0 0 0 ];

internalField nonuniform List<vector> 458
(
  (0.0594151 0.0760515 0)
  (-0.148885 0.0156262 0)
  (-0.158597 0.0141386 0)
  (-0.185025 0.0115306 0)
  (-0.207555 0.00808828 0)
  (-0.225676 0.00430583 0)
  (-0.238712 0.000146167 0)
  (-0.245848 -0.00453574 0)
  (-0.245936 -0.00990959 0)
  (-0.237843 -0.016286 0)
  (-0.220411 -0.02377 0)
  (-0.192022 -0.0324468 0)
  (-0.152421 -0.0435086 0)
  (-0.111083 -0.0597489 0)
  (-0.101412 -0.0810033 0)
  (0.0509563 0.000107612 0)
  (0.0183505 -0.0162094 0)
  (0.0398551 -0.0154864 0)
  (0.0604096 -0.0123595 0)
  (0.0745412 -0.00900391 0)
  (0.0827992 -0.00526886 0)
  (0.0863855 -0.00320131 0)
  (0.0872353 -0.00249564 0)
  (0.087135 -0.00227895 0)
  (0.0867795 -0.00211281 0)
  (0.0861776 -0.0018989 0)
  (0.0851442 -0.00155741 0)
  (0.0833466 -0.000887469 0)
  (0.0800229 0.00055932 0)
  (0.0736573 0.00343637 0)
  (0.0624932 0.00711464 0)
  (0.047308 0.0112741 0)
  (0.00346913 0.023272 0)
  (0.245683 0.159902 0)
  (-0.153349 0.046169 0)
  (-0.132907 0.0431382 0)
  (-0.162316 0.0381408 0)
  (-0.185055 0.0320836 0)
  (-0.203405 0.0253533 0)
  (-0.216993 0.0176568 0)
  (-0.225152 0.0085965 0)
  (-0.226762 -0.00217618 0)
  (-0.220831 -0.0145718 0)
  (-0.20731 -0.0275488 0)
  (-0.186269 -0.0399995 0)
  (-0.160067 -0.0519538 0)
  (-0.136397 -0.0639246 0)
  (-0.12458 -0.0670966 0)
  (-0.102691 -0.031718 0)
  (-0.0602791 -0.0173047 0)
  (-0.0606984 -0.0153718 0)
  (0.07638 -0.0378461 0)
  (0.0379346 -0.0335241 0)
  (0.0480355 -0.0271548 0)
  (0.0629672 -0.0211785 0)
  (0.07348 -0.0151928 0)
  (0.0791778 -0.00542391 0)
  (0.0799279 0.000359722 0)
  (0.0792979 0.00256811 0)
  (0.0790905 0.00340157 0)
  (0.0792205 0.00386939 0)
  (0.0792973 0.00425931 0)
  (0.0792058 0.00480506 0)
  (0.0788945 0.00597026 0)
  (0.0777557 0.00882074 0)
  (0.073063 0.0162982 0)
  (0.0616013 0.0238174 0)
  (0.0480261 0.0308571 0)
  (-0.0228466 0.0494529 0)
  (0.412797 0.241726 0)
  (-0.186128 0.079232 0)
  (-0.10172 0.0716975 0)
  (-0.133279 0.0604478 0)
  (-0.15313 0.0496059 0)
  (-0.169584 0.0380403 0)
  (-0.182201 0.0249435 0)
  (-0.19024 0.00974145 0)
  (-0.192289 -0.0077953 0)
  (-0.186875 -0.0272846 0)
  (-0.174425 -0.0472101 0)
  (-0.155779 -0.0652925 0)
  (-0.133644 -0.080088 0)
  (-0.112245 -0.0900389 0)
  (-0.0926964 -0.0892714 0)
  (-0.068235 -0.0699292 0)
  (-0.0393754 -0.0587125 0)
  (-0.0364411 -0.0548364 0)
  (0.0693306 -0.0644722 0)
  (0.0380248 -0.0494346 0)
  (0.0451265 -0.0378508 0)
  (0.0564021 -0.0308719 0)
  (0.0648385 -0.0266581 0)
  (0.0712083 -0.0187039 0)
  (0.0667311 -0.0122824 0)
  (0.0625776 -0.00902041 0)
  (0.0615059 -0.00726551 0)
  (0.0619777 -0.0060574 0)
  (0.062853 -0.00508171 0)
  (0.0640672 -0.0041057 0)
  (0.0663137 -0.00264184 0)
  (0.0712376 0.00158169 0)
  (0.0713786 0.0216511 0)
  (0.0598398 0.0372789 0)
  (0.0518274 0.051352 0)
  (-0.0441145 0.07986 0)
  (0.557347 0.3088 0)
  (-0.232072 0.112044 0)
  (-0.0661279 0.0962628 0)
  (-0.100898 0.0796429 0)
  (-0.115467 0.0660934 0)
  (-0.128295 0.0518392 0)
  (-0.138869 0.035313 0)
  (-0.146237 0.0154828 0)
  (-0.148363 -0.00819777 0)
  (-0.142894 -0.0348401 0)
  (-0.131131 -0.061446 0)
  (-0.114629 -0.0843841 0)
  (-0.0959186 -0.101214 0)
  (-0.0775097 -0.109777 0)
  (-0.0593998 -0.107411 0)
  (-0.039005 -0.094566 0)
  (-0.016767 -0.0814104 0)
  (-0.0012014 -0.0687489 0)
  (0.0350637 -0.0208929 0)
  (0.0496527 -0.0553576 0)
  (0.0424167 -0.05226 0)
  (0.0417498 -0.0424091 0)
  (0.044839 -0.0353497 0)
  (0.0460906 -0.0293622 0)
  (0.0516873 -0.0193335 0)
  (0.0650738 -0.0143213 0)
  (0.0769288 -0.0114549 0)
  (0.0859995 -0.009415 0)
  (0.0927728 -0.00744609 0)
  (0.096975 -0.00517115 0)
  (0.0973857 -0.00235038 0)
  (0.0924335 0.00144837 0)
  (0.0800632 0.00686907 0)
  (0.0669686 0.029781 0)
  (0.0572456 0.0507171 0)
  (0.0597397 0.0717788 0)
  (-0.0513495 0.113311 0)
  (0.676325 0.362611 0)
  (-0.278617 0.142401 0)
  (-0.0293645 0.110612 0)
  (-0.065887 0.0918259 0)
  (-0.0740783 0.0772342 0)
  (-0.0817911 0.0616251 0)
  (-0.0888588 0.0428622 0)
  (-0.0942832 0.0194583 0)
  (-0.0951281 -0.00962091 0)
  (-0.0883205 -0.0428179 0)
  (-0.077033 -0.0749458 0)
  (-0.0634498 -0.100992 0)
  (-0.0493922 -0.118619 0)
  (-0.0363379 -0.126345 0)
  (-0.0239919 -0.123941 0)
  (-0.0112986 -0.113266 0)
  (0.00177628 -0.0982382 0)
  (0.0116719 -0.0815443 0)
  (0.0254487 -0.0606552 0)
  (0.0336682 -0.0596438 0)
  (0.0328347 -0.0524726 0)
  (0.0307326 -0.0436793 0)
  (0.0311891 -0.036865 0)
  (0.0332352 -0.0303669 0)
  (0.039296 -0.0208571 0)
  (0.0487218 -0.0156131 0)
  (0.057855 -0.0129775 0)
  (0.0657742 -0.0106985 0)
  (0.0724072 -0.00756413 0)
  (0.0773403 -0.00286326 0)
  (0.0798899 0.0036159 0)
  (0.0786148 0.0116057 0)
  (0.0735656 0.0216928 0)
  (0.0671564 0.0390345 0)
  (0.0618359 0.0593894 0)
  (0.0798975 0.0825264 0)
  (0.0422819 0.114867 0)
  (0.0934678 0.123035 0)
  (0.118916 0.127289 0)
  (-0.19785 0.151429 0)
  (0.756042 0.409427 0)
  (-0.317521 0.166159 0)
  (-0.0020097 0.107126 0)
  (-0.0270618 0.0967277 0)
  (-0.029039 0.0839872 0)
  (-0.0318491 0.067402 0)
  (-0.0346835 0.0473079 0)
  (-0.0367979 0.0221128 0)
  (-0.0329149 -0.0112952 0)
  (-0.0229129 -0.0509729 0)
  (-0.0128086 -0.0866592 0)
  (-0.00390775 -0.113232 0)
  (0.00346483 -0.12981 0)
  (0.00875072 -0.135705 0)
  (0.0126843 -0.132324 0)
  (0.0159385 -0.121533 0)
  (0.0186929 -0.10571 0)
  (0.0202444 -0.0870138 0)
  (0.0222072 -0.0672684 0)
  (0.0223806 -0.0565208 0)
  (0.0189287 -0.0489468 0)
  (0.0153549 -0.0424406 0)
  (0.014344 -0.0376202 0)
  (0.0157248 -0.0331952 0)
  (0.0199815 -0.0279719 0)
  (0.0264412 -0.0244658 0)
  (0.0334399 -0.0219553 0)
  (0.0401944 -0.0191409 0)
  (0.0465334 -0.0150482 0)
  (0.0522325 -0.00881035 0)
  (0.0573587 0.000303844 0)
  (0.0601922 0.0115355 0)
  (0.0607804 0.0242665 0)
  (0.0614703 0.0401014 0)
  (0.0631537 0.0581257 0)
  (0.0801474 0.0780892 0)
  (0.0779679 0.0875451 0)
  (0.0888583 0.0457911 0)
  (0.123434 0.00135679 0)
  (-0.219442 0.0784892 0)
  (0.78623 0.451742 0)
  (-0.33354 0.155688 0)
  (0.0173911 0.0580807 0)
  (0.0278923 0.0872787 0)
  (0.0286042 0.0912514 0)
  (0.026742 0.073056 0)
  (0.0273595 0.0483852 0)
  (0.0292799 0.0189055 0)
  (0.0417546 -0.0205676 0)
  (0.0528984 -0.0615443 0)
  (0.0587875 -0.0948315 0)
  (0.0602946 -0.118034 0)
  (0.0585188 -0.131405 0)
  (0.0541972 -0.135257 0)
  (0.0480814 -0.130732 0)
  (0.0409077 -0.119399 0)
  (0.0332953 -0.102929 0)
  (0.0253819 -0.0834688 0)
  (0.0177206 -0.0641588 0)
  (0.0102194 -0.0508863 0)
  (0.0030143 -0.0435787 0)
  (-0.00248935 -0.0394869 0)
  (-0.00511341 -0.0372562 0)
  (-0.00561629 -0.0351932 0)
  (-0.00406062 -0.0327082 0)
  (-0.00083106 -0.0304297 0)
  (0.00333429 -0.028155 0)
  (0.0077811 -0.0253436 0)
  (0.0125363 -0.0212423 0)
  (0.0177279 -0.0149113 0)
  (0.0237315 -0.00518938 0)
  (0.0321009 0.00780679 0)
  (0.0380954 0.0211592 0)
  (0.0447465 0.0350898 0)
  (0.0526356 0.0493768 0)
  (0.0688596 0.0647465 0)
  (0.0813934 0.0701515 0)
  (0.0930997 0.0503211 0)
  (0.150264 0.0512395 0)
  (-0.147368 0.137017 0)
  (0.883268 0.462864 0)
  (-0.102454 0.136197 0)
  (0.093851 -0.0242168 0)
  (0.149681 0.0156798 0)
  (0.136892 0.0497881 0)
  (0.122125 0.0448646 0)
  (0.119488 0.022649 0)
  (0.12259 -0.00867207 0)
  (0.134973 -0.0411789 0)
  (0.139545 -0.0709184 0)
  (0.135229 -0.0953084 0)
  (0.124931 -0.112691 0)
  (0.111127 -0.122491 0)
  (0.0952298 -0.123952 0)
  (0.0778406 -0.117985 0)
  (0.0596682 -0.106087 0)
  (0.0417223 -0.0895795 0)
  (0.0245819 -0.0703075 0)
  (0.00866483 -0.051911 0)
  (-0.00501213 -0.039791 0)
  (-0.0148605 -0.0355342 0)
  (-0.0218671 -0.0345843 0)
  (-0.0266755 -0.0345372 0)
  (-0.029875 -0.034283 0)
  (-0.031647 -0.0335619 0)
  (-0.0322671 -0.0324959 0)
  (-0.0321083 -0.0310193 0)
  (-0.0314143 -0.0289086 0)
  (-0.0301637 -0.0258187 0)
  (-0.0280721 -0.0212693 0)
  (-0.0243286 -0.0146955 0)
  (-0.0159952 -0.0054496 0)
  (-0.00358465 0.00611426 0)
  (0.00791936 0.0170379 0)
  (0.0204164 0.0242307 0)
  (0.0383468 0.0302363 0)
  (0.0563934 0.0260244 0)
  (0.0707751 0.00487204 0)
  (0.157132 0.0535879 0)
  (-0.414621 0.223327 0)
  (1.01517 0.4284 0)
  (0.482362 0.282796 0)
  (0.498745 0.191506 0)
  (0.499905 0.166844 0)
  (0.427091 0.147114 0)
  (0.35853 0.114199 0)
  (0.318164 0.0753445 0)
  (0.295379 0.0355801 0)
  (0.270549 -0.00459584 0)
  (0.240234 -0.0402655 0)
  (0.208785 -0.0681741 0)
  (0.178027 -0.0876202 0)
  (0.148847 -0.0987629 0)
  (0.120965 -0.100345 0)
  (0.0929929 -0.0942013 0)
  (0.0649044 -0.0826125 0)
  (0.0381752 -0.0669124 0)
  (0.0137288 -0.0486704 0)
  (-0.00792683 -0.0322515 0)
  (-0.0226051 -0.0253919 0)
  (-0.0334645 -0.0245307 0)
  (-0.0421701 -0.0256433 0)
  (-0.0495526 -0.0269662 0)
  (-0.0559914 -0.0278728 0)
  (-0.0616104 -0.0282397 0)
  (-0.0665735 -0.0280967 0)
  (-0.0711196 -0.0273999 0)
  (-0.0755101 -0.0259897 0)
  (-0.0800201 -0.0235371 0)
  (-0.0849735 -0.0194691 0)
  (-0.0907463 -0.0129658 0)
  (-0.0976385 -0.00326305 0)
  (-0.105139 0.00944979 0)
  (-0.114051 0.024125 0)
  (-0.131016 0.0419054 0)
  (-0.158761 0.064251 0)
  (-0.200284 0.0901774 0)
  (-0.251249 0.117698 0)
  (-0.321821 0.143409 0)
  (-0.614131 0.164437 0)
  (-0.523993 -0.0202813 0)
  (0.181822 0.112929 0)
  (0.255518 0.128428 0)
  (0.249684 0.11211 0)
  (0.248083 0.0807731 0)
  (0.244482 0.0434037 0)
  (0.23381 0.00884103 0)
  (0.217023 -0.0196895 0)
  (0.193932 -0.0419953 0)
  (0.167406 -0.0592622 0)
  (0.139912 -0.0711264 0)
  (0.111876 -0.0728119 0)
  (0.0810661 -0.0668919 0)
  (0.0482774 -0.0563181 0)
  (0.0173555 -0.0420934 0)
  (-0.0102917 -0.0249932 0)
  (-0.0278912 -0.0151279 0)
  (-0.0399983 -0.0125753 0)
  (-0.0501387 -0.0134864 0)
  (-0.0598473 -0.015092 0)
  (-0.0695489 -0.0162867 0)
  (-0.0792066 -0.0167529 0)
  (-0.0886869 -0.0164204 0)
  (-0.0978947 -0.0152471 0)
  (-0.10678 -0.0131404 0)
  (-0.115306 -0.00997571 0)
  (-0.123426 -0.00564636 0)
  (-0.131072 -0.000122088 0)
  (-0.13812 0.00652445 0)
  (-0.144044 0.0140887 0)
  (-0.147461 0.0241752 0)
  (-0.14988 0.0383499 0)
  (-0.15218 0.056583 0)
  (-0.154918 0.0773 0)
  (-0.155893 0.0932984 0)
  (-0.146141 0.0845841 0)
  (-0.13251 0.0100247 0)
  (-0.270003 -0.187112 0)
  (-0.214801 0.167684 0)
  (0.114931 0.102341 0)
  (0.0812366 0.0835103 0)
  (0.10157 0.0845415 0)
  (0.128312 0.0671546 0)
  (0.145783 0.0388702 0)
  (0.151915 0.0122712 0)
  (0.148956 -0.00855925 0)
  (0.136665 -0.0244534 0)
  (0.117361 -0.0376585 0)
  (0.0940439 -0.048612 0)
  (0.0686136 -0.0494083 0)
  (0.0409835 -0.0465518 0)
  (0.00984511 -0.0418825 0)
  (-0.0168384 -0.0386661 0)
  (-0.0311986 -0.0399002 0)
  (-0.0411349 -0.0431795 0)
  (-0.0491033 -0.0466926 0)
  (-0.0571571 -0.0497463 0)
  (-0.0661716 -0.0524198 0)
  (-0.076237 -0.0547891 0)
  (-0.0871033 -0.0567663 0)
  (-0.0984062 -0.0581949 0)
  (-0.109739 -0.0588991 0)
  (-0.120658 -0.0586562 0)
  (-0.130669 -0.0571379 0)
  (-0.139196 -0.0538455 0)
  (-0.14555 -0.0480464 0)
  (-0.148934 -0.0386759 0)
  (-0.14853 -0.0241876 0)
  (-0.144027 -0.0072393 0)
  (-0.134129 0.0123625 0)
  (-0.11776 0.0352748 0)
  (-0.0949967 0.0604566 0)
  (-0.0675034 0.0809009 0)
  (-0.0402315 0.0827313 0)
  (0.127916 -0.000701808 0)
  (-0.214336 -0.0997409 0)
  (0.0657261 -0.256998 0)
  (-0.337466 -0.0983161 0)
  (-0.274098 0.0732268 0)
  (-0.152666 0.0200294 0)
  (-0.117193 0.0316209 0)
  (-0.0543237 0.0497579 0)
  (0.0116199 0.0465657 0)
  (0.0502801 0.0301017 0)
  (0.0727655 0.0180074 0)
  (0.079593 0.0111171 0)
  (0.0736337 0.00671404 0)
  (0.0550196 0.00318663 0)
  (0.0264634 0.00145445 0)
  (-0.0243976 0.0575784 0)
  (-0.0388813 0.0888063 0)
  (-0.0509706 0.103235 0)
  (-0.0584015 0.114514 0)
  (-0.0617233 0.124783 0)
  (-0.0636967 0.132381 0)
  (-0.0659094 0.136719 0)
  (-0.0691028 0.138885 0)
  (-0.0733448 0.140073 0)
  (-0.0784819 0.140743 0)
  (-0.0843373 0.140829 0)
  (-0.0907471 0.140125 0)
  (-0.0975328 0.138479 0)
  (-0.104457 0.135829 0)
  (-0.111189 0.132147 0)
  (-0.117282 0.127362 0)
  (-0.122126 0.121287 0)
  (-0.124757 0.113606 0)
  (-0.12356 0.104016 0)
  (-0.115639 0.0972572 0)
  (-0.0984038 0.0946427 0)
  (-0.0708978 0.0970542 0)
  (-0.0363031 0.10479 0)
  (0.0204982 0.114169 0)
  (0.0631639 0.10688 0)
  (0.153312 0.0921313 0)
  (-0.242466 0.040992 0)
)
;

boundaryField
{
  floor
  {
    type noSlip;
  }
  ceiling
  {
    type noSlip;
  }
  sWall
  {
    type noSlip;
  }
  nWall
  {
    type noSlip;
  }
  sideWalls
  {
    type empty;
  }
  glass1
  {
    type noSlip;
  }
  glass2
  {
    type noSlip;
  }
  sun
  {
    type noSlip;
  }
  Table_master
  {
    type noSlip;
  }
  Table_slave
  {
    type noSlip;
  }
  inlet
  {
    type fixedValue;
    value uniform (0.980785 -0.19509 0);
  }
  outlet
  {
    type zeroGradient;
  }
} 	// ************************************************************************* //

