/*--------------------------------*- C++ -*----------------------------------*\
  =========                 |
  \\      /  F ield         | OpenFOAM: The Open Source CFD Toolbox
   \\    /   O peration     | Website:  https://openfoam.org
    \\  /    A nd           | Version:  6
     \\/     M anipulation  |
\*---------------------------------------------------------------------------*/
FoamFile
{
    version     2.0;
    format      ascii;
    class       volScalarField;
    location    "2300";
    object      epsilon;
}
// * * * * * * * * * * * * * * * * * * * * * * * * * * * * * * * * * * * * * //

dimensions      [0 2 -3 0 0 0 0];

internalField   nonuniform List<scalar> 
458
(
0.000139762
0.00016124
0.000154108
0.000170848
0.000186398
0.000200466
0.000213329
0.000225422
0.000237331
0.000249632
0.000258904
0.000264095
0.000265357
0.00026493
0.000263874
6.49671e-05
5.42903e-05
4.91949e-05
4.68115e-05
4.48512e-05
4.14865e-05
3.7863e-05
3.45669e-05
3.16686e-05
2.9087e-05
2.67601e-05
2.46316e-05
2.26422e-05
2.07194e-05
1.87796e-05
1.66761e-05
1.45447e-05
1.09227e-05
0.000493253
0.00101988
0.000152882
0.000133131
0.000132127
0.000133098
0.000135505
0.000140346
0.000148761
0.000161659
0.000175282
0.000187275
0.000196136
0.000204732
0.00022696
0.000285604
0.000225636
0.000186161
0.000109937
5.81889e-05
4.32068e-05
3.68561e-05
3.31225e-05
3.23656e-05
2.88824e-05
2.5892e-05
2.33199e-05
2.09693e-05
1.88063e-05
1.68046e-05
1.49374e-05
1.33054e-05
1.26024e-05
1.29942e-05
2.24923e-05
1.77337e-05
0.00110654
0.00321461
0.000251419
0.000138082
0.000133977
0.000139221
0.000147641
0.0001596
0.000175422
0.000194563
0.000213842
0.000227796
0.000232359
0.000229351
0.000226289
0.000221803
0.000207915
0.000307627
0.000162345
5.8769e-05
4.06904e-05
3.45002e-05
3.30197e-05
7.22914e-05
5.3721e-05
4.10604e-05
3.25501e-05
2.6754e-05
2.26926e-05
1.97839e-05
1.77372e-05
1.65177e-05
1.36319e-05
1.28728e-05
3.22416e-05
2.40107e-05
0.00212349
0.00749873
0.000541933
0.000155734
0.000140468
0.000150173
0.000164069
0.000181977
0.000205027
0.000233725
0.000263251
0.00028272
0.000285615
0.000273438
0.000251295
0.000221563
0.000191302
0.000201085
0.000266753
0.000102114
5.09901e-05
3.61376e-05
3.04838e-05
2.95216e-05
6.75737e-05
6.15316e-05
6.09051e-05
6.15891e-05
6.15032e-05
5.92973e-05
5.47783e-05
4.99984e-05
4.41895e-05
2.94344e-05
2.05688e-05
4.36227e-05
3.19807e-05
0.00368272
0.0140527
0.00134255
0.000210468
0.000149113
0.000156913
0.000174284
0.000199248
0.000235122
0.000285203
0.000335145
0.000363059
0.000362636
0.0003391
0.000300037
0.000252332
0.000206834
0.000175972
0.000147707
8.1929e-05
5.0883e-05
3.69189e-05
3.21435e-05
3.14959e-05
3.5758e-05
4.03234e-05
4.47694e-05
4.80733e-05
4.93075e-05
4.76864e-05
4.3288e-05
3.90796e-05
3.55665e-05
3.01782e-05
2.42586e-05
3.42014e-05
4.1574e-05
4.95714e-05
5.89721e-05
6.61618e-05
0.00595929
0.0210546
0.00358208
0.000506927
0.000226246
0.000192222
0.000197769
0.000222185
0.000271394
0.000368189
0.000446093
0.000475913
0.000463168
0.000421296
0.000362238
0.000296894
0.000237646
0.000189139
0.000140159
9.04064e-05
5.64029e-05
4.17824e-05
3.81213e-05
3.90894e-05
4.3757e-05
5.07814e-05
5.82516e-05
6.48128e-05
6.88548e-05
6.85698e-05
6.24206e-05
5.17413e-05
4.21054e-05
3.40347e-05
2.81741e-05
2.94744e-05
3.41404e-05
5.44328e-05
0.000276793
0.000154721
0.00895228
0.0251574
0.00884386
0.00240388
0.00103818
0.000568692
0.000418071
0.000383681
0.000418985
0.000570807
0.000639049
0.000637353
0.000590822
0.000518476
0.000433759
0.000348543
0.000275188
0.000216341
0.00016167
0.000106146
6.55451e-05
5.09854e-05
4.82424e-05
5.02364e-05
5.5531e-05
6.37188e-05
7.38288e-05
8.48835e-05
9.44694e-05
0.000100562
9.98466e-05
8.53496e-05
6.92552e-05
5.61461e-05
4.86722e-05
4.85763e-05
5.58505e-05
8.68433e-05
0.00041326
0.000270349
0.00978789
0.0298814
0.0160256
0.0105386
0.0061028
0.00335939
0.00202283
0.00141376
0.00119144
0.00108638
0.000985845
0.000872599
0.00075072
0.000626608
0.000506098
0.000397018
0.000310763
0.000247055
0.000189181
0.000123416
7.93983e-05
6.54811e-05
6.28049e-05
6.48093e-05
7.02538e-05
7.89983e-05
9.07336e-05
0.000105118
0.000121594
0.000139529
0.000157663
0.00017292
0.000168457
0.000170197
0.000193097
0.000259943
0.000422825
0.000696473
0.00280057
0.00073808
0.00916837
0.0159169
0.0145278
0.0110905
0.00820334
0.00582823
0.00411471
0.00298959
0.00227385
0.00176805
0.00140267
0.00112437
0.00090128
0.000714805
0.000555591
0.000424699
0.000334136
0.000275574
0.00021747
0.000141582
0.000100762
8.75488e-05
8.34255e-05
8.33087e-05
8.65471e-05
9.33419e-05
0.000103969
0.000118849
0.000138613
0.000164173
0.000196878
0.000238667
0.000291488
0.000364398
0.00048254
0.000657766
0.000883348
0.00111851
0.00132764
0.000711142
0.00730643
0.0143963
0.00882617
0.00617458
0.00449047
0.00334573
0.00255032
0.00197031
0.00152949
0.0011926
0.000930324
0.000720105
0.000547249
0.000414259
0.000346009
0.000313655
0.000256696
0.000178466
0.000145575
0.000131563
0.000122572
0.000115831
0.000111608
0.000110455
0.000112813
0.000119233
0.000130562
0.00014807
0.000173601
0.000209878
0.000260708
0.000329933
0.000424131
0.000542036
0.000660738
0.000731568
0.000724824
0.000431331
0.00545399
0.0111056
0.00718613
0.00522735
0.00391899
0.0029921
0.00228518
0.00175235
0.00135261
0.00104995
0.000817165
0.000631769
0.000478417
0.000376758
0.000408515
0.000458029
0.000424739
0.000355177
0.000317526
0.000290722
0.000265147
0.000240242
0.000218139
0.000200464
0.000187845
0.000180525
0.000178934
0.000184033
0.000197503
0.000221841
0.000260979
0.000318804
0.000397467
0.000491558
0.000589509
0.000677043
0.000631342
0.000452717
0.00267069
0.00345801
0.0042273
0.00520512
0.00441124
0.00379441
0.00285317
0.0022007
0.00167095
0.00124114
0.000938661
0.000717771
0.000541584
0.000393188
0.000264058
0.000159438
0.000153512
0.000176409
0.000174888
0.000155726
0.000139167
0.000126722
0.000118093
0.000113474
0.000112985
0.000116437
0.000123516
0.000133998
0.000147886
0.000165539
0.00018788
0.00021689
0.000252744
0.000295616
0.000347539
0.00040848
0.000482868
0.00046816
0.000372557
0.000300978
)
;

boundaryField
{
    floor
    {
        Cmu             0.09;
        kappa           0.41;
        E               9.8;
        type            epsilonWallFunction;
        value           nonuniform List<scalar> 
36
(
0.000263874
6.49671e-05
5.42903e-05
4.91949e-05
4.68115e-05
4.48512e-05
4.14865e-05
3.7863e-05
3.45669e-05
3.16686e-05
2.9087e-05
2.67601e-05
2.46316e-05
2.26422e-05
2.07194e-05
1.87796e-05
1.66761e-05
1.45447e-05
1.09227e-05
1.09227e-05
1.77337e-05
2.40107e-05
3.19807e-05
4.95714e-05
5.89721e-05
6.61618e-05
0.000263874
0.000285604
0.000225636
0.000186161
6.49671e-05
0.000186161
0.000109937
0.000307627
0.000162345
0.000266753
)
;
    }
    ceiling
    {
        Cmu             0.09;
        kappa           0.41;
        E               9.8;
        type            epsilonWallFunction;
        value           nonuniform List<scalar> 
43
(
0.00267069
0.00345801
0.0042273
0.00520512
0.00441124
0.00379441
0.00285317
0.0022007
0.00167095
0.00124114
0.000938661
0.000717771
0.000541584
0.000393188
0.000264058
0.000159438
0.000153512
0.000176409
0.000174888
0.000155726
0.000139167
0.000126722
0.000118093
0.000113474
0.000112985
0.000116437
0.000123516
0.000133998
0.000147886
0.000165539
0.00018788
0.00021689
0.000252744
0.000295616
0.000347539
0.00040848
0.000482868
0.00046816
0.000372557
0.000300978
0.00916837
0.0159169
0.00545399
)
;
    }
    sWall
    {
        Cmu             0.09;
        kappa           0.41;
        E               9.8;
        type            epsilonWallFunction;
        value           uniform 0.00267069;
    }
    nWall
    {
        Cmu             0.09;
        kappa           0.41;
        E               9.8;
        type            epsilonWallFunction;
        value           nonuniform List<scalar> 6(6.61618e-05 0.000154721 0.000270349 0.000431331 0.000452717 0.000300978);
    }
    sideWalls
    {
        type            empty;
    }
    glass1
    {
        Cmu             0.09;
        kappa           0.41;
        E               9.8;
        type            epsilonWallFunction;
        value           nonuniform List<scalar> 9(0.000139762 0.000493253 0.00110654 0.00212349 0.00368272 0.00595929 0.00895228 0.00978789 0.00916837);
    }
    glass2
    {
        Cmu             0.09;
        kappa           0.41;
        E               9.8;
        type            epsilonWallFunction;
        value           nonuniform List<scalar> 2(0.00073808 0.000711142);
    }
    sun
    {
        Cmu             0.09;
        kappa           0.41;
        E               9.8;
        type            epsilonWallFunction;
        value           nonuniform List<scalar> 
14
(
0.000139762
0.00016124
0.000154108
0.000170848
0.000186398
0.000200466
0.000213329
0.000225422
0.000237331
0.000249632
0.000258904
0.000264095
0.000265357
0.00026493
)
;
    }
    Table_master
    {
        Cmu             0.09;
        kappa           0.41;
        E               9.8;
        type            epsilonWallFunction;
        value           nonuniform List<scalar> 9(7.22914e-05 5.3721e-05 4.10604e-05 3.25501e-05 2.6754e-05 2.26926e-05 1.97839e-05 1.77372e-05 1.65177e-05);
    }
    Table_slave
    {
        Cmu             0.09;
        kappa           0.41;
        E               9.8;
        type            epsilonWallFunction;
        value           nonuniform List<scalar> 9(6.75737e-05 6.15316e-05 6.09051e-05 6.15891e-05 6.15032e-05 5.92973e-05 5.47783e-05 4.99984e-05 4.41895e-05);
    }
    inlet
    {
        type            turbulentMixingLengthDissipationRateInlet;
        mixingLength    0.01;
        phi             phi;
        k               k;
        value           uniform 0.000101881;
    }
    outlet
    {
        type            zeroGradient;
    }
}


// ************************************************************************* //
