/*--------------------------------*- C++ -*----------------------------------*\
  =========                 |
  \\      /  F ield         | OpenFOAM: The Open Source CFD Toolbox
   \\    /   O peration     | Website:  https://openfoam.org
    \\  /    A nd           | Version:  6
     \\/     M anipulation  |
\*---------------------------------------------------------------------------*/
FoamFile
{
    version     2.0;
    format      ascii;
    class       volScalarField;
    location    "2300";
    object      k;
}
// * * * * * * * * * * * * * * * * * * * * * * * * * * * * * * * * * * * * * //

dimensions      [0 2 -2 0 0 0 0];

internalField   nonuniform List<scalar> 
458
(
0.00106742
0.00117415
0.00113927
0.00122034
0.00129331
0.0013576
0.00141506
0.00146805
0.00151931
0.00157137
0.00161004
0.00163149
0.00163668
0.00163493
0.00163058
0.000640506
0.000568258
0.000532123
0.000514795
0.00050032
0.000474974
0.000446898
0.00042057
0.00039672
0.000374856
0.000354587
0.000335526
0.000317208
0.000298985
0.00028002
0.0002587
0.000236157
0.000195114
0.00247429
0.00464839
0.00167362
0.00169158
0.00175205
0.00182495
0.00190465
0.00199448
0.00209621
0.00220763
0.0023041
0.00235388
0.00232481
0.00219499
0.00196277
0.00171891
0.00146897
0.00129221
0.000909547
0.000801815
0.000785122
0.000781
0.000753542
0.000678537
0.000613289
0.000563525
0.000520114
0.000479516
0.000441028
0.000403889
0.000366855
0.000330474
0.000306773
0.000299008
0.000408943
0.000269524
0.00424016
0.0100575
0.00226924
0.0020544
0.00211529
0.0022193
0.00233506
0.00246733
0.0026182
0.0027786
0.002929
0.00302595
0.00303622
0.00296714
0.00285815
0.00265487
0.00219256
0.00180617
0.00117948
0.000993096
0.00092427
0.000885935
0.000836066
0.000687792
0.000564282
0.000471719
0.000404051
0.000354536
0.00031768
0.000289918
0.000269562
0.000257059
0.000252171
0.000269664
0.000516301
0.000329864
0.00654789
0.0187357
0.00331205
0.00229705
0.00232509
0.00245421
0.00259058
0.00274088
0.0029176
0.00312397
0.00332848
0.00346124
0.00348043
0.00339147
0.00321537
0.00293905
0.00256098
0.00223333
0.00164238
0.00151533
0.00113743
0.000956648
0.000866637
0.000805017
0.000657544
0.000617737
0.000613534
0.000618117
0.000617541
0.000602683
0.00057166
0.000537902
0.000495387
0.000397297
0.000339257
0.000619229
0.000399321
0.00945178
0.0307701
0.00584912
0.00258169
0.00244722
0.00257016
0.00271975
0.00289852
0.00313438
0.00344892
0.00375214
0.00392852
0.00393999
0.00380349
0.00354638
0.00319834
0.00283568
0.00256143
0.00224847
0.00160099
0.00120171
0.000976566
0.000884788
0.000861839
0.000892144
0.000959814
0.00102963
0.0010808
0.00109947
0.00107391
0.000996673
0.00089126
0.000772554
0.00062221
0.000487671
0.000565882
0.000548128
0.000534831
0.000600475
0.00064834
0.0130276
0.0435023
0.0126818
0.00385199
0.00285455
0.00278862
0.00288992
0.00307414
0.00337408
0.00389328
0.00430722
0.0044905
0.00445482
0.0042425
0.00389263
0.00345939
0.00303634
0.00266771
0.00223735
0.00171233
0.00126912
0.00102846
0.000953062
0.000963695
0.00103841
0.0011505
0.00126409
0.00135887
0.00141652
0.00141757
0.0013426
0.00118382
0.00100389
0.000815725
0.000653952
0.000593028
0.00056415
0.000714
0.00195584
0.00114226
0.0170879
0.0522183
0.0265316
0.0105849
0.00602771
0.00433923
0.00387037
0.00387979
0.00418483
0.00483737
0.00516344
0.00520383
0.00503263
0.00470029
0.00424464
0.00372573
0.00324272
0.00283263
0.00240166
0.00186661
0.00136497
0.00112974
0.00107042
0.00109481
0.00117226
0.00128775
0.00142111
0.00155661
0.00166823
0.00173984
0.00174415
0.00160635
0.0013933
0.00116698
0.00098816
0.000890234
0.000859106
0.00102856
0.00251949
0.00165709
0.0181354
0.056156
0.0382027
0.0287421
0.019414
0.0128263
0.00930786
0.00766304
0.00712935
0.00681866
0.00649986
0.00612409
0.00567606
0.00514882
0.00454988
0.00393129
0.00340507
0.00300459
0.00260126
0.00201808
0.001498
0.00127988
0.00122326
0.0012417
0.00130712
0.00140881
0.00153632
0.00168159
0.00183736
0.00200011
0.00216483
0.00231276
0.00229306
0.00219095
0.00220411
0.00245007
0.00309273
0.00402603
0.0092081
0.00323693
0.0173618
0.0250788
0.0260712
0.0235853
0.020482
0.0169269
0.0138235
0.0115253
0.00993239
0.00871147
0.00775898
0.00694894
0.00619555
0.00544615
0.00468442
0.00396842
0.00345111
0.00313112
0.00278004
0.00214761
0.00167683
0.00147808
0.00140511
0.00139142
0.00141806
0.00147864
0.00156853
0.00168448
0.00182428
0.00198601
0.0021671
0.00236326
0.00256507
0.00280783
0.00318455
0.00371017
0.00430535
0.00480589
0.00514154
0.00315769
0.0146649
0.0292791
0.0221832
0.0181661
0.0151812
0.0128792
0.0110952
0.00962995
0.00836503
0.00726042
0.0062689
0.00534561
0.00446749
0.0037255
0.00337385
0.00327418
0.00299354
0.00238126
0.00201597
0.00182681
0.00170702
0.00162205
0.00156663
0.00154032
0.00154229
0.00157243
0.00163228
0.00172536
0.00185734
0.00203683
0.00227465
0.00256348
0.00291296
0.00329411
0.00359938
0.00367156
0.00347459
0.0022626
0.0122803
0.0267728
0.0208351
0.0172623
0.0145703
0.0124517
0.0106286
0.00907995
0.00771299
0.00651746
0.00548075
0.00456169
0.00372593
0.00316622
0.00347815
0.00395613
0.00395589
0.00353455
0.00321702
0.00296329
0.00272812
0.0025066
0.00231101
0.00215161
0.00203228
0.00195398
0.00191822
0.0019285
0.00198994
0.00210704
0.00229457
0.00256059
0.00289278
0.00324299
0.0035563
0.00379909
0.00369025
0.00233678
0.00762926
0.00906325
0.010362
0.0119038
0.0106604
0.00964193
0.00797295
0.00670564
0.00558095
0.00457733
0.00379958
0.00317726
0.00263332
0.00212711
0.00163123
0.00116533
0.00113638
0.00124672
0.00123952
0.00114723
0.00106439
0.000999955
0.000954028
0.000928986
0.00092631
0.00094508
0.000983003
0.00103785
0.00110838
0.00119491
0.00130013
0.00143074
0.00158436
0.0017588
0.00195915
0.00218195
0.00243941
0.00238962
0.00205208
0.00178001
)
;

boundaryField
{
    floor
    {
        type            kqRWallFunction;
        value           nonuniform List<scalar> 
36
(
0.00163058
0.000640506
0.000568258
0.000532123
0.000514795
0.00050032
0.000474974
0.000446898
0.00042057
0.00039672
0.000374856
0.000354587
0.000335526
0.000317208
0.000298985
0.00028002
0.0002587
0.000236157
0.000195114
0.000195114
0.000269524
0.000329864
0.000399321
0.000534831
0.000600475
0.00064834
0.00163058
0.00171891
0.00146897
0.00129221
0.000640506
0.00129221
0.000909547
0.00180617
0.00117948
0.00164238
)
;
    }
    ceiling
    {
        type            kqRWallFunction;
        value           nonuniform List<scalar> 
43
(
0.00762926
0.00906325
0.010362
0.0119038
0.0106604
0.00964193
0.00797295
0.00670564
0.00558095
0.00457733
0.00379958
0.00317726
0.00263332
0.00212711
0.00163123
0.00116533
0.00113638
0.00124672
0.00123952
0.00114723
0.00106439
0.000999955
0.000954028
0.000928986
0.00092631
0.00094508
0.000983003
0.00103785
0.00110838
0.00119491
0.00130013
0.00143074
0.00158436
0.0017588
0.00195915
0.00218195
0.00243941
0.00238962
0.00205208
0.00178001
0.0173618
0.0250788
0.0122803
)
;
    }
    sWall
    {
        type            kqRWallFunction;
        value           uniform 0.00762926;
    }
    nWall
    {
        type            kqRWallFunction;
        value           nonuniform List<scalar> 6(0.00064834 0.00114226 0.00165709 0.0022626 0.00233678 0.00178001);
    }
    sideWalls
    {
        type            empty;
    }
    glass1
    {
        type            kqRWallFunction;
        value           nonuniform List<scalar> 9(0.00106742 0.00247429 0.00424016 0.00654789 0.00945178 0.0130276 0.0170879 0.0181354 0.0173618);
    }
    glass2
    {
        type            kqRWallFunction;
        value           nonuniform List<scalar> 2(0.00323693 0.00315769);
    }
    sun
    {
        type            kqRWallFunction;
        value           nonuniform List<scalar> 
14
(
0.00106742
0.00117415
0.00113927
0.00122034
0.00129331
0.0013576
0.00141506
0.00146805
0.00151931
0.00157137
0.00161004
0.00163149
0.00163668
0.00163493
)
;
    }
    Table_master
    {
        type            kqRWallFunction;
        value           nonuniform List<scalar> 9(0.000687792 0.000564282 0.000471719 0.000404051 0.000354536 0.00031768 0.000289918 0.000269562 0.000257059);
    }
    Table_slave
    {
        type            kqRWallFunction;
        value           nonuniform List<scalar> 9(0.000657544 0.000617737 0.000613534 0.000618117 0.000617541 0.000602683 0.00057166 0.000537902 0.000495387);
    }
    inlet
    {
        type            turbulentIntensityKineticEnergyInlet;
        intensity       0.05;
        value           uniform 0.0003375;
    }
    outlet
    {
        type            zeroGradient;
    }
}


// ************************************************************************* //
