/*--------------------------------*- C++ -*----------------------------------*\
  =========                 |
  \\      /  F ield         | OpenFOAM: The Open Source CFD Toolbox
   \\    /   O peration     | Website:  https://openfoam.org
    \\  /    A nd           | Version:  6
     \\/     M anipulation  |
\*---------------------------------------------------------------------------*/
FoamFile
{
    version     2.0;
    format      ascii;
    class       volScalarField;
    location    "2300";
    object      T;
}
// * * * * * * * * * * * * * * * * * * * * * * * * * * * * * * * * * * * * * //

dimensions      [0 0 0 1 0 0 0];

internalField   nonuniform List<scalar> 
458
(
304.057
303.779
303.77
303.768
303.767
303.766
303.765
303.763
303.761
303.759
303.755
303.75
303.742
303.734
303.724
303.655
303.649
303.646
303.643
303.642
303.641
303.639
303.638
303.637
303.636
303.634
303.633
303.631
303.63
303.628
303.626
303.623
303.627
304.257
303.812
303.791
303.795
303.799
303.802
303.805
303.806
303.806
303.804
303.797
303.786
303.768
303.745
303.718
303.699
303.685
303.678
303.647
303.641
303.638
303.637
303.636
303.633
303.63
303.626
303.623
303.619
303.616
303.613
303.61
303.607
303.606
303.605
303.605
303.615
304.455
303.857
303.817
303.827
303.84
303.851
303.862
303.87
303.875
303.876
303.869
303.852
303.825
303.79
303.751
303.716
303.688
303.668
303.645
303.642
303.642
303.643
303.644
303.639
303.633
303.628
303.622
303.616
303.611
303.606
303.601
303.597
303.596
303.595
303.595
303.608
304.645
303.914
303.843
303.856
303.876
303.898
303.918
303.936
303.949
303.954
303.948
303.927
303.891
303.842
303.789
303.739
303.696
303.664
303.65
303.643
303.645
303.648
303.651
303.652
303.652
303.65
303.648
303.647
303.645
303.642
303.639
303.636
303.632
303.618
303.604
303.596
303.604
304.821
303.988
303.873
303.877
303.903
303.931
303.961
303.988
304.011
304.024
304.022
303.998
303.953
303.893
303.826
303.761
303.706
303.667
303.647
303.643
303.648
303.655
303.659
303.661
303.662
303.66
303.659
303.657
303.654
303.65
303.646
303.641
303.636
303.626
303.612
303.6
303.6
303.599
303.598
303.64
304.971
304.085
303.932
303.903
303.921
303.95
303.982
304.015
304.048
304.072
304.076
304.052
304
303.929
303.852
303.776
303.713
303.668
303.645
303.643
303.652
303.661
303.667
303.67
303.67
303.669
303.667
303.664
303.661
303.656
303.65
303.644
303.637
303.628
303.617
303.605
303.599
303.596
303.595
303.639
305.093
304.246
304.094
304.009
303.981
303.983
304.003
304.031
304.064
304.1
304.107
304.077
304.018
303.942
303.858
303.778
303.711
303.664
303.642
303.643
303.656
303.667
303.674
303.677
303.677
303.677
303.675
303.671
303.666
303.661
303.653
303.645
303.637
303.629
303.619
303.609
303.602
303.598
303.597
303.633
305.296
304.667
304.503
304.349
304.225
304.151
304.119
304.114
304.128
304.141
304.124
304.076
304.004
303.921
303.835
303.756
303.694
303.652
303.636
303.644
303.661
303.673
303.68
303.683
303.684
303.684
303.682
303.679
303.674
303.668
303.661
303.653
303.643
303.634
303.628
303.621
303.617
303.618
303.626
303.744
305.58
305.306
305.009
304.774
304.586
304.446
304.35
304.288
304.247
304.19
304.113
304.025
303.936
303.85
303.771
303.705
303.656
303.629
303.627
303.645
303.665
303.677
303.685
303.689
303.691
303.692
303.692
303.69
303.687
303.684
303.681
303.679
303.681
303.686
303.698
303.717
303.742
303.771
303.795
303.851
297.071
301.509
302.98
303.502
303.724
303.818
303.844
303.845
303.825
303.792
303.75
303.706
303.661
303.625
303.605
303.603
303.621
303.649
303.668
303.681
303.689
303.695
303.699
303.702
303.704
303.706
303.707
303.708
303.71
303.713
303.717
303.723
303.734
303.749
303.768
303.789
303.806
303.823
297.994
301.354
302.447
303.028
303.328
303.473
303.536
303.557
303.57
303.574
303.572
303.563
303.552
303.548
303.564
303.59
303.625
303.65
303.668
303.68
303.689
303.697
303.703
303.708
303.712
303.716
303.72
303.723
303.726
303.729
303.733
303.738
303.745
303.756
303.769
303.782
303.783
303.806
300.332
300.255
300.25
302.143
302.691
303.018
303.287
303.366
303.405
303.424
303.437
303.449
303.46
303.47
303.481
303.508
303.574
303.606
303.628
303.644
303.656
303.667
303.676
303.683
303.691
303.697
303.703
303.708
303.713
303.718
303.722
303.726
303.731
303.735
303.741
303.747
303.759
303.764
303.762
303.795
)
;

boundaryField
{
    floor
    {
        type            wallHeatTransfer;
        Tinf            uniform 305.2;
        alphaWall       uniform 0.24;
        value           nonuniform List<scalar> 
36
(
303.902
303.915
303.92
303.923
303.925
303.926
303.93
303.935
303.94
303.945
303.95
303.954
303.959
303.963
303.968
303.974
303.981
303.989
304.013
304.013
303.968
303.941
303.918
303.884
303.873
303.901
303.902
303.876
303.874
303.877
303.915
303.877
303.878
303.846
303.856
303.836
)
;
    }
    ceiling
    {
        type            wallHeatTransfer;
        Tinf            uniform 303.2;
        alphaWall       uniform 0.24;
        value           nonuniform List<scalar> 
43
(
300.52
300.436
300.421
302.201
302.72
303.029
303.281
303.355
303.39
303.406
303.416
303.426
303.434
303.441
303.447
303.466
303.523
303.552
303.571
303.583
303.592
303.6
303.606
303.612
303.618
303.624
303.63
303.636
303.642
303.648
303.654
303.66
303.666
303.673
303.68
303.688
303.701
303.705
303.7
303.726
305.467
305.221
298.274
)
;
    }
    sWall
    {
        type            wallHeatTransfer;
        Tinf            uniform 315.2;
        alphaWall       uniform 0.36;
        value           uniform 301.754;
    }
    nWall
    {
        type            wallHeatTransfer;
        Tinf            uniform 307.2;
        alphaWall       uniform 0.36;
        value           nonuniform List<scalar> 6(304.465 304.325 304.238 304.336 304.316 304.359);
    }
    sideWalls
    {
        type            empty;
    }
    glass1
    {
        type            wallHeatTransfer;
        Tinf            uniform 315.2;
        alphaWall       uniform 4.3;
        value           nonuniform List<scalar> 9(312.411 311.672 311.175 310.773 310.439 310.151 309.912 309.954 310.151);
    }
    glass2
    {
        type            wallHeatTransfer;
        Tinf            uniform 307.2;
        alphaWall       uniform 4.3;
        value           nonuniform List<scalar> 2(305.986 306.032);
    }
    sun
    {
        type            wallHeatTransfer;
        Tinf            uniform 305.2;
        alphaWall       uniform 0.24;
        value           nonuniform List<scalar> 
14
(
304.217
303.972
303.966
303.96
303.955
303.951
303.947
303.943
303.939
303.935
303.93
303.924
303.918
303.91
)
;
    }
    Table_master
    {
        type            zeroGradient;
    }
    Table_slave
    {
        type            zeroGradient;
    }
    inlet
    {
        type            fixedValue;
        value           uniform 292.15;
    }
    outlet
    {
        type            zeroGradient;
    }
}


// ************************************************************************* //
