/*--------------------------------*- C++ -*----------------------------------*\
  =========                 |
  \\      /  F ield         | OpenFOAM: The Open Source CFD Toolbox
   \\    /   O peration     | Website:  https://openfoam.org
    \\  /    A nd           | Version:  6
     \\/     M anipulation  |
\*---------------------------------------------------------------------------*/
FoamFile
{
    version     2.0;
    format      ascii;
    class       volScalarField;
    location    "1400";
    object      epsilon;
}
// * * * * * * * * * * * * * * * * * * * * * * * * * * * * * * * * * * * * * //

dimensions      [0 2 -3 0 0 0 0];

internalField   nonuniform List<scalar> 
458
(
0.000139186
0.000160475
0.00015328
0.000169906
0.000185348
0.000199313
0.000212074
0.000224065
0.000235863
0.000248061
0.00025726
0.00026242
0.000263691
0.000263289
0.000262247
6.52451e-05
5.43879e-05
4.92269e-05
4.68428e-05
4.49007e-05
4.15393e-05
3.79131e-05
3.46158e-05
3.17156e-05
2.91314e-05
2.68014e-05
2.46692e-05
2.26755e-05
2.07478e-05
1.88027e-05
1.66937e-05
1.45586e-05
1.09308e-05
0.000492195
0.00101941
0.000152166
0.000132412
0.000131395
0.000132346
0.000134722
0.000139513
0.000147852
0.000160656
0.0001742
0.000186147
0.000195004
0.000203576
0.000225597
0.000283735
0.000224453
0.00018546
0.000110179
5.80713e-05
4.30987e-05
3.68185e-05
3.31366e-05
3.24029e-05
2.89258e-05
2.59434e-05
2.33759e-05
2.10248e-05
1.8858e-05
1.68506e-05
1.49765e-05
1.33367e-05
1.26268e-05
1.30118e-05
2.25407e-05
1.77631e-05
0.00110538
0.00321594
0.000250725
0.000137434
0.000133319
0.000138526
0.000146887
0.000158759
0.000174463
0.000193458
0.000212602
0.000226471
0.000231019
0.000228017
0.000224905
0.000220424
0.000206898
0.000305893
0.000162535
5.82943e-05
4.0464e-05
3.44174e-05
3.3005e-05
7.23322e-05
5.3721e-05
4.10436e-05
3.25324e-05
2.67405e-05
2.26842e-05
1.97802e-05
1.77376e-05
1.65226e-05
1.36404e-05
1.2884e-05
3.23479e-05
2.4065e-05
0.00212283
0.00750418
0.000541264
0.000155151
0.000139899
0.000149567
0.000163405
0.00018122
0.000204123
0.000232612
0.000261963
0.000281369
0.000284309
0.000272211
0.000250112
0.000220441
0.000190465
0.000200603
0.000266668
0.000101096
5.04789e-05
3.58978e-05
3.03514e-05
2.94297e-05
6.73208e-05
6.13828e-05
6.08443e-05
6.16007e-05
6.1573e-05
5.94071e-05
5.48861e-05
5.01044e-05
4.4291e-05
2.95111e-05
2.06218e-05
4.38062e-05
3.20761e-05
0.00368317
0.0140635
0.00134182
0.000209859
0.000148606
0.000156401
0.000173731
0.000198597
0.000234252
0.000283953
0.000333675
0.000361617
0.000361373
0.00033805
0.000299144
0.000251534
0.000206137
0.000175415
0.000147671
8.15278e-05
5.05642e-05
3.67086e-05
3.19982e-05
3.13944e-05
3.57025e-05
4.03121e-05
4.48025e-05
4.81523e-05
4.94268e-05
4.78291e-05
4.34249e-05
3.9193e-05
3.56661e-05
3.0266e-05
2.43294e-05
3.43227e-05
4.17368e-05
4.97639e-05
5.91863e-05
6.63544e-05
0.00596123
0.0210688
0.00358088
0.000505739
0.000225496
0.000191621
0.000197219
0.000221587
0.000270463
0.00036642
0.000444205
0.000474267
0.000461882
0.000420371
0.00036158
0.000296339
0.000237046
0.000188495
0.000139985
9.02802e-05
5.61904e-05
4.15879e-05
3.79538e-05
3.89532e-05
4.36621e-05
5.07336e-05
5.82578e-05
6.48914e-05
6.90079e-05
6.87869e-05
6.26669e-05
5.19376e-05
4.22571e-05
3.41525e-05
2.82659e-05
2.95714e-05
3.4259e-05
5.46172e-05
0.00027737
0.000155113
0.00895659
0.0251729
0.00884449
0.00239951
0.00103517
0.000566628
0.000416571
0.000382361
0.000416554
0.000568032
0.000636662
0.000635509
0.000589509
0.000517644
0.000433276
0.000348135
0.000274603
0.000215623
0.000161362
0.000106187
6.54063e-05
5.07832e-05
4.80233e-05
5.00406e-05
5.5376e-05
6.36149e-05
7.37795e-05
8.49359e-05
9.46254e-05
0.000100832
0.000100225
8.57094e-05
6.95318e-05
5.63601e-05
4.88538e-05
4.87615e-05
5.60793e-05
8.72036e-05
0.0004147
0.000271215
0.00979311
0.0299075
0.0160342
0.0105398
0.00609913
0.00335443
0.00201827
0.0014096
0.00118687
0.00108276
0.000983164
0.000870672
0.000749433
0.000625888
0.000505796
0.000396712
0.000310084
0.000246133
0.000188846
0.000123631
7.92824e-05
6.51923e-05
6.24869e-05
6.45248e-05
7.00278e-05
7.88425e-05
9.06564e-05
0.000105135
0.000121719
0.000139782
0.000158074
0.000173569
0.000169065
0.000170762
0.000193803
0.00026099
0.000424623
0.000699337
0.00280927
0.000740207
0.00917314
0.0159262
0.0145353
0.0110957
0.0082056
0.00582785
0.00411262
0.00298643
0.0022711
0.00176555
0.00140055
0.00112274
0.000900219
0.000714342
0.000555592
0.000424427
0.000333093
0.000274168
0.000217151
0.000141911
0.000100503
8.70757e-05
8.29305e-05
8.28727e-05
8.62041e-05
9.31031e-05
0.000103835
0.000118822
0.000138699
0.000164389
0.000197253
0.000239243
0.000292343
0.000365457
0.000483957
0.000659672
0.00088579
0.0011214
0.00133092
0.00071289
0.00731526
0.014403
0.0088276
0.00617361
0.00448808
0.00334257
0.00254712
0.00196765
0.00152747
0.00119123
0.00092958
0.000720018
0.000547681
0.00041364
0.0003438
0.000311111
0.000256595
0.000178235
0.000144821
0.000130619
0.000121633
0.000115008
0.000110959
0.000109999
0.000112548
0.000119142
0.000130631
0.000148289
0.000173968
0.000210403
0.000261419
0.000330866
0.000425316
0.000543472
0.000662321
0.00073307
0.000725993
0.000431661
0.00546312
0.0111153
0.00718871
0.00522732
0.00391827
0.00299082
0.00228394
0.0017513
0.00135197
0.00104967
0.000817237
0.000632319
0.000479411
0.000373887
0.000401915
0.000451444
0.000422372
0.000352818
0.000314927
0.000287997
0.000262464
0.000237779
0.000216029
0.000198774
0.000186577
0.000179644
0.000178393
0.000183785
0.000197517
0.000222108
0.000261491
0.000319578
0.000398526
0.000492889
0.000591087
0.000678741
0.00063146
0.000452935
0.00267493
0.00346326
0.0042338
0.00521236
0.00441516
0.00379561
0.0028549
0.00220283
0.00167371
0.00124451
0.000941672
0.000720585
0.000544346
0.000396057
0.000267108
0.000160928
0.000150303
0.000173398
0.000173061
0.000154291
0.000137838
0.000125473
0.000116961
0.000112496
0.000112177
0.000115799
0.000123037
0.000133664
0.000147687
0.000165468
0.000187933
0.000217074
0.000253108
0.000296174
0.000348306
0.000409467
0.000484146
0.000469289
0.000373337
0.000301477
)
;

boundaryField
{
    floor
    {
        Cmu             0.09;
        kappa           0.41;
        E               9.8;
        type            epsilonWallFunction;
        value           nonuniform List<scalar> 
36
(
0.000262247
6.52451e-05
5.43879e-05
4.92269e-05
4.68428e-05
4.49007e-05
4.15393e-05
3.79131e-05
3.46158e-05
3.17156e-05
2.91314e-05
2.68014e-05
2.46692e-05
2.26755e-05
2.07478e-05
1.88027e-05
1.66937e-05
1.45586e-05
1.09308e-05
1.09308e-05
1.77631e-05
2.4065e-05
3.20761e-05
4.97639e-05
5.91863e-05
6.63544e-05
0.000262247
0.000283735
0.000224453
0.00018546
6.52451e-05
0.00018546
0.000110179
0.000305893
0.000162535
0.000266668
)
;
    }
    ceiling
    {
        Cmu             0.09;
        kappa           0.41;
        E               9.8;
        type            epsilonWallFunction;
        value           nonuniform List<scalar> 
43
(
0.00267493
0.00346326
0.0042338
0.00521236
0.00441516
0.00379561
0.0028549
0.00220283
0.00167371
0.00124451
0.000941672
0.000720585
0.000544346
0.000396057
0.000267108
0.000160928
0.000150303
0.000173398
0.000173061
0.000154291
0.000137838
0.000125473
0.000116961
0.000112496
0.000112177
0.000115799
0.000123037
0.000133664
0.000147687
0.000165468
0.000187933
0.000217074
0.000253108
0.000296174
0.000348306
0.000409467
0.000484146
0.000469289
0.000373337
0.000301477
0.00917314
0.0159262
0.00546312
)
;
    }
    sWall
    {
        Cmu             0.09;
        kappa           0.41;
        E               9.8;
        type            epsilonWallFunction;
        value           uniform 0.00267493;
    }
    nWall
    {
        Cmu             0.09;
        kappa           0.41;
        E               9.8;
        type            epsilonWallFunction;
        value           nonuniform List<scalar> 6(6.63544e-05 0.000155113 0.000271215 0.000431661 0.000452935 0.000301477);
    }
    sideWalls
    {
        type            empty;
    }
    glass1
    {
        Cmu             0.09;
        kappa           0.41;
        E               9.8;
        type            epsilonWallFunction;
        value           nonuniform List<scalar> 9(0.000139186 0.000492195 0.00110538 0.00212283 0.00368317 0.00596123 0.00895659 0.00979311 0.00917314);
    }
    glass2
    {
        Cmu             0.09;
        kappa           0.41;
        E               9.8;
        type            epsilonWallFunction;
        value           nonuniform List<scalar> 2(0.000740207 0.00071289);
    }
    sun
    {
        Cmu             0.09;
        kappa           0.41;
        E               9.8;
        type            epsilonWallFunction;
        value           nonuniform List<scalar> 
14
(
0.000139186
0.000160475
0.00015328
0.000169906
0.000185348
0.000199313
0.000212074
0.000224065
0.000235863
0.000248061
0.00025726
0.00026242
0.000263691
0.000263289
)
;
    }
    Table_master
    {
        Cmu             0.09;
        kappa           0.41;
        E               9.8;
        type            epsilonWallFunction;
        value           nonuniform List<scalar> 9(7.23322e-05 5.3721e-05 4.10436e-05 3.25324e-05 2.67405e-05 2.26842e-05 1.97802e-05 1.77376e-05 1.65226e-05);
    }
    Table_slave
    {
        Cmu             0.09;
        kappa           0.41;
        E               9.8;
        type            epsilonWallFunction;
        value           nonuniform List<scalar> 9(6.73208e-05 6.13828e-05 6.08443e-05 6.16007e-05 6.1573e-05 5.94071e-05 5.48861e-05 5.01044e-05 4.4291e-05);
    }
    inlet
    {
        type            turbulentMixingLengthDissipationRateInlet;
        mixingLength    0.01;
        phi             phi;
        k               k;
        value           uniform 0.000101881;
    }
    outlet
    {
        type            zeroGradient;
    }
}


// ************************************************************************* //
