/*--------------------------------*- C++ -*----------------------------------*\
  =========                 |
  \\      /  F ield         | OpenFOAM: The Open Source CFD Toolbox
   \\    /   O peration     | Website:  https://openfoam.org
    \\  /    A nd           | Version:  6
     \\/     M anipulation  |
\*---------------------------------------------------------------------------*/
FoamFile
{
    version     2.0;
    format      ascii;
    class       volScalarField;
    location    "1700";
    object      epsilon;
}
// * * * * * * * * * * * * * * * * * * * * * * * * * * * * * * * * * * * * * //

dimensions      [0 2 -3 0 0 0 0];

internalField   nonuniform List<scalar> 
458
(
0.000289639
0.000356204
0.0003568
0.000403502
0.000449463
0.000493985
0.000538126
0.00058368
0.000632375
0.000671027
0.000691306
0.000683701
0.000643839
0.000579762
0.000507581
3.15665e-05
5.55107e-05
6.50072e-05
6.17009e-05
5.70434e-05
5.02912e-05
4.35616e-05
3.77899e-05
3.29714e-05
2.89731e-05
2.56326e-05
2.27937e-05
2.03325e-05
1.81364e-05
1.60881e-05
1.40419e-05
1.27634e-05
9.93394e-06
0.000854184
0.00144454
0.000334292
0.000307339
0.000312531
0.000323038
0.000339305
0.00036475
0.000402123
0.000442485
0.000475188
0.000486132
0.000466971
0.000429088
0.000421423
0.000517305
0.000275651
0.000202972
7.47889e-05
8.48829e-05
7.40872e-05
6.32712e-05
5.43473e-05
5.06665e-05
4.22405e-05
3.47939e-05
2.87912e-05
2.40173e-05
2.02392e-05
1.72159e-05
1.4797e-05
1.30146e-05
1.22164e-05
1.23545e-05
3.41681e-05
2.28819e-05
0.00170915
0.00403339
0.000471175
0.000299923
0.000296439
0.000312157
0.000338004
0.000376275
0.000427961
0.000485782
0.000532939
0.000551009
0.000533662
0.000494454
0.000461092
0.000435763
0.000318836
0.000441711
0.000257675
0.000154758
0.000103978
7.58155e-05
6.19658e-05
0.000112314
8.40967e-05
6.42044e-05
5.02854e-05
4.04231e-05
3.33034e-05
2.80629e-05
2.41679e-05
2.13324e-05
1.72477e-05
1.54146e-05
6.05794e-05
3.6041e-05
0.00298333
0.00882278
0.000866478
0.000318013
0.000292343
0.000312773
0.00034669
0.000397353
0.000469352
0.000550937
0.000610392
0.000624928
0.00059484
0.000538461
0.000473561
0.000401217
0.000309587
0.000332872
0.000525169
0.000294168
0.000159598
0.000100037
7.17175e-05
6.02113e-05
0.000134924
0.000114466
0.000105594
0.000101554
9.83782e-05
9.33657e-05
8.58306e-05
7.78693e-05
6.83387e-05
4.45569e-05
3.00436e-05
8.53984e-05
5.20855e-05
0.00482129
0.0159985
0.00193498
0.000414491
0.000306379
0.000317345
0.000354428
0.000423599
0.000541729
0.000666716
0.000737702
0.000736963
0.000679804
0.000594105
0.000494102
0.000382702
0.000275662
0.000206316
0.000174712
0.000131622
9.67538e-05
7.40461e-05
6.10136e-05
5.45112e-05
5.72768e-05
6.14239e-05
6.64629e-05
7.05976e-05
7.23746e-05
7.05945e-05
6.51051e-05
5.93708e-05
5.41735e-05
4.61774e-05
3.73245e-05
5.94507e-05
8.13759e-05
9.38385e-05
0.000111318
0.000113318
0.00743675
0.0237088
0.00482049
0.000968115
0.000503127
0.000417826
0.000414956
0.000483728
0.000703503
0.0008764
0.000936326
0.000897355
0.000796455
0.000671349
0.000539389
0.00040074
0.000271339
0.000178171
0.000124572
9.58442e-05
7.78685e-05
6.63926e-05
6.09646e-05
6.0511e-05
6.58423e-05
7.55981e-05
8.62935e-05
9.54716e-05
0.000101292
0.000101549
9.42058e-05
8.02538e-05
6.67763e-05
5.48835e-05
4.61762e-05
4.95792e-05
6.11079e-05
9.56965e-05
0.000395805
0.000237932
0.0106251
0.0282298
0.0108273
0.00399816
0.00209735
0.00129091
0.000960843
0.000903149
0.00114961
0.00125427
0.0012294
0.00111358
0.000944945
0.000769171
0.000603496
0.000437455
0.000282336
0.000170204
0.000108667
8.27989e-05
7.1804e-05
6.73621e-05
6.81593e-05
7.35214e-05
8.36092e-05
9.80753e-05
0.000114087
0.00012991
0.000143925
0.000153528
0.000154607
0.00013786
0.00011673
9.85199e-05
8.79228e-05
8.88919e-05
0.000102968
0.000155959
0.000734325
0.000446363
0.0113684
0.031138
0.0176586
0.0127419
0.00861374
0.00544663
0.00359803
0.00272554
0.00224139
0.00192528
0.00165869
0.00138106
0.00109857
0.000857703
0.00066179
0.000470518
0.000286934
0.000159081
9.69975e-05
7.8728e-05
7.40579e-05
7.50747e-05
8.04326e-05
8.97739e-05
0.000103141
0.00012039
0.000140811
0.000164018
0.000189947
0.000218505
0.000249004
0.000279192
0.000284008
0.000297498
0.000342826
0.00046206
0.00072872
0.00117889
0.00491735
0.00104598
0.0105381
0.0177094
0.0138532
0.010725
0.00842417
0.00648631
0.00495647
0.00389586
0.00312536
0.00256357
0.00207132
0.00159626
0.00117654
0.000883651
0.000685037
0.00047624
0.000263829
0.000141608
9.9526e-05
8.70854e-05
8.48097e-05
8.74198e-05
9.37561e-05
0.000103613
0.000117102
0.000134412
0.000155837
0.00018212
0.000214694
0.000255827
0.000308693
0.0003774
0.000466497
0.00058629
0.000774729
0.00104901
0.00139644
0.00175694
0.002076
0.000979017
0.00335161
0.00520323
0.00550012
0.00515476
0.00455877
0.00395174
0.00338196
0.00279927
0.00211583
0.00148551
0.00100093
0.000757418
0.000639608
0.000423678
0.000243172
0.000160182
0.000128429
0.000116402
0.000111943
0.000111572
0.000114452
0.000120399
0.000129407
0.000141549
0.00015703
0.000176389
0.000200749
0.000232145
0.000273996
0.000331876
0.000414405
0.000528762
0.00068568
0.000885854
0.00110199
0.00127095
0.00131448
0.000601476
0.00349776
0.00636999
0.00622419
0.00545982
0.00463397
0.00372957
0.00288288
0.00218745
0.00144735
0.000893864
0.000512086
0.00033887
0.000299671
0.000259696
0.000219545
0.000188827
0.000166983
0.000151096
0.000139559
0.000131824
0.000127787
0.000127465
0.000130943
0.000138448
0.000150456
0.000167785
0.000191708
0.000224125
0.000267835
0.00032681
0.000406334
0.000513204
0.000653674
0.000826896
0.00103351
0.00142799
0.000719062
0.000676587
0.0025933
0.00304029
0.00341157
0.00413292
0.00425886
0.00398778
0.00343588
0.00262192
0.00179158
0.00111515
0.000711463
0.000281566
0.00019972
0.000190455
0.000184649
0.000159115
0.00013493
0.000120101
0.000112891
0.000110633
0.000111778
0.000115718
0.000122243
0.000131308
0.000142965
0.000157361
0.000174758
0.000195581
0.000220521
0.000250748
0.000288346
0.000335731
0.00039367
0.00046461
0.000551592
0.000656889
0.000787104
0.00062577
0.000477313
0.000629129
)
;

boundaryField
{
    floor
    {
        Cmu             0.09;
        kappa           0.41;
        E               9.8;
        type            epsilonWallFunction;
        value           nonuniform List<scalar> 
36
(
0.000507581
3.15665e-05
5.55107e-05
6.50072e-05
6.17009e-05
5.70434e-05
5.02912e-05
4.35616e-05
3.77899e-05
3.29714e-05
2.89731e-05
2.56326e-05
2.27937e-05
2.03325e-05
1.81364e-05
1.60881e-05
1.40419e-05
1.27634e-05
9.93394e-06
9.93394e-06
2.28819e-05
3.6041e-05
5.20855e-05
9.38385e-05
0.000111318
0.000113318
0.000507581
0.000517305
0.000275651
0.000202972
3.15665e-05
0.000202972
7.47889e-05
0.000441711
0.000257675
0.000525169
)
;
    }
    ceiling
    {
        Cmu             0.09;
        kappa           0.41;
        E               9.8;
        type            epsilonWallFunction;
        value           nonuniform List<scalar> 
43
(
0.0025933
0.00304029
0.00341157
0.00413292
0.00425886
0.00398778
0.00343588
0.00262192
0.00179158
0.00111515
0.000711463
0.000281566
0.00019972
0.000190455
0.000184649
0.000159115
0.00013493
0.000120101
0.000112891
0.000110633
0.000111778
0.000115718
0.000122243
0.000131308
0.000142965
0.000157361
0.000174758
0.000195581
0.000220521
0.000250748
0.000288346
0.000335731
0.00039367
0.00046461
0.000551592
0.000656889
0.000787104
0.00062577
0.000477313
0.000629129
0.0105381
0.0177094
0.00349776
)
;
    }
    sWall
    {
        Cmu             0.09;
        kappa           0.41;
        E               9.8;
        type            epsilonWallFunction;
        value           uniform 0.0025933;
    }
    nWall
    {
        Cmu             0.09;
        kappa           0.41;
        E               9.8;
        type            epsilonWallFunction;
        value           nonuniform List<scalar> 6(0.000113318 0.000237932 0.000446363 0.000601476 0.000676587 0.000629129);
    }
    sideWalls
    {
        type            empty;
    }
    glass1
    {
        Cmu             0.09;
        kappa           0.41;
        E               9.8;
        type            epsilonWallFunction;
        value           nonuniform List<scalar> 9(0.000289639 0.000854184 0.00170915 0.00298333 0.00482129 0.00743675 0.0106251 0.0113684 0.0105381);
    }
    glass2
    {
        Cmu             0.09;
        kappa           0.41;
        E               9.8;
        type            epsilonWallFunction;
        value           nonuniform List<scalar> 2(0.00104598 0.000979017);
    }
    sun
    {
        Cmu             0.09;
        kappa           0.41;
        E               9.8;
        type            epsilonWallFunction;
        value           nonuniform List<scalar> 
14
(
0.000289639
0.000356204
0.0003568
0.000403502
0.000449463
0.000493985
0.000538126
0.00058368
0.000632375
0.000671027
0.000691306
0.000683701
0.000643839
0.000579762
)
;
    }
    Table_master
    {
        Cmu             0.09;
        kappa           0.41;
        E               9.8;
        type            epsilonWallFunction;
        value           nonuniform List<scalar> 9(0.000112314 8.40967e-05 6.42044e-05 5.02854e-05 4.04231e-05 3.33034e-05 2.80629e-05 2.41679e-05 2.13324e-05);
    }
    Table_slave
    {
        Cmu             0.09;
        kappa           0.41;
        E               9.8;
        type            epsilonWallFunction;
        value           nonuniform List<scalar> 9(0.000134924 0.000114466 0.000105594 0.000101554 9.83782e-05 9.33657e-05 8.58306e-05 7.78693e-05 6.83387e-05);
    }
    inlet
    {
        type            turbulentMixingLengthDissipationRateInlet;
        mixingLength    0.01;
        phi             phi;
        k               k;
        value           uniform 0.00129426;
    }
    outlet
    {
        type            zeroGradient;
    }
}


// ************************************************************************* //
