/*--------------------------------*- C++ -*----------------------------------*\
  =========                 |
  \\      /  F ield         | OpenFOAM: The Open Source CFD Toolbox
   \\    /   O peration     | Website:  https://openfoam.org
    \\  /    A nd           | Version:  6
     \\/     M anipulation  |
\*---------------------------------------------------------------------------*/
FoamFile
{
    version     2.0;
    format      ascii;
    class       surfaceScalarField;
    location    "1700";
    object      phi;
}
// * * * * * * * * * * * * * * * * * * * * * * * * * * * * * * * * * * * * * //

dimensions      [1 0 -1 0 0 0 0];

internalField   nonuniform List<scalar> 
850
(
-0.00285693
0.00291862
-0.00365976
0.000802868
-0.00435304
0.000693323
-0.0049595
0.000606488
-0.00544329
0.000483826
-0.00578386
0.00034061
-0.0059588
0.000174971
-0.00594058
-1.81916e-05
-0.00569517
-0.000245373
-0.00519878
-0.000496354
-0.00446068
-0.00073807
-0.00353085
-0.000929795
-0.00247867
-0.00105214
-0.00132796
-0.00115068
-0.00132589
-0.000521871
0.00052579
5.08858e-05
-0.000572719
0.000748401
-0.000697478
0.00123246
-0.000484026
0.00155464
-0.000322138
0.00172083
-0.000166147
0.00178241
-6.1544e-05
0.00180467
-2.22245e-05
0.00181037
-5.65897e-06
0.00180424
6.16916e-06
0.00178825
1.60326e-05
0.00176076
2.75249e-05
0.00171207
4.87261e-05
0.00161631
9.58041e-05
0.00143122
0.000185129
0.00114059
0.000290674
0.000798369
0.000342261
0.000803404
-0.00205165
0.00513494
-0.00294842
0.00169968
-0.00371469
0.00145962
-0.00433186
0.00122369
-0.00481854
0.000970543
-0.00517015
0.000692251
-0.00536773
0.00037259
-0.00538241
-3.48185e-06
-0.00518625
-0.000441497
-0.00476346
-0.000919117
-0.00413291
-0.00136858
-0.00335621
-0.00170647
-0.00252892
-0.0018794
-0.00181299
-0.00186657
-0.00160854
-0.00153031
-0.000852067
-0.000752439
-0.00058331
-0.000264033
-0.000570609
0.000842736
-0.000307289
0.0011455
-0.000875444
0.0013328
-0.000884741
0.00157133
-0.000722519
0.00177473
-0.000525509
0.00181015
-0.000201524
0.00181056
-6.19246e-05
0.00181405
-2.56724e-05
0.00181731
-8.87879e-06
0.00181799
5.52127e-06
0.00181623
1.78361e-05
0.00181158
3.22155e-05
0.00179997
6.03726e-05
0.00174795
0.000147862
0.00154488
0.000388245
0.00118806
0.000647534
0.000726061
0.000804297
0.00154221
-0.00146276
0.0068475
-0.00230394
0.00254089
-0.00300592
0.00216164
-0.00354861
0.00176641
-0.00398973
0.0014117
-0.00432708
0.00102963
-0.00453591
0.000581453
-0.00458114
4.17856e-05
-0.00442408
-0.000598523
-0.00404704
-0.00129613
-0.00347687
-0.00193872
-0.00278663
-0.00239667
-0.00207754
-0.00258846
-0.00145893
-0.00248515
-0.000937266
-0.00205194
-0.000343665
-0.00134601
9.88719e-05
-0.000706536
-0.000461151
0.00119435
-0.00148962
0.00146431
-0.00114537
0.00152328
-0.00094367
0.00162951
-0.000828716
0.00187208
-0.000768048
0.00167075
0.00160901
0.00158353
0.00157484
0.00158055
0.00159858
0.00163099
0.00169155
0.00183961
0.00156973
0.000658164
0.00120778
0.00100952
0.000673428
0.00133869
0.00223491
-0.00105018
0.00821845
-0.00177823
0.00326897
-0.00225151
0.00263495
-0.00263633
0.00215126
-0.00297639
0.0017518
-0.00326184
0.00131512
-0.00345973
0.000779378
-0.00352409
0.000106178
-0.00339687
-0.000725714
-0.00305816
-0.00163479
-0.00255228
-0.00244456
-0.00196294
-0.00298598
-0.00137843
-0.00317294
-0.000853069
-0.00301048
-0.000363202
-0.00254178
0.000169556
-0.00187873
0.000718945
-0.00125589
0.00117385
-0.000916026
0.00195183
-0.000766039
0.00144293
-0.000980691
0.00137515
-0.00107755
0.0013696
-0.00093809
0.00135395
-0.000813029
0.00124228
-0.000656348
0.00159249
-0.000350331
0.00183848
-0.000246113
0.00205417
-0.000215804
0.00224467
-0.000190618
0.00239268
-0.000148138
0.00246852
-7.59587e-05
0.0024332
3.52005e-05
0.00224361
0.000189473
0.00183164
0.00041185
0.00164621
0.000843624
0.00130414
0.00135163
0.000770462
0.0018724
0.00303022
-0.000756121
0.00935461
-0.00135748
0.00387037
-0.00146485
0.00274236
-0.00161519
0.00230164
-0.00180474
0.00194139
-0.00199563
0.00150604
-0.00214253
0.000926312
-0.00219489
0.000158572
-0.00207218
-0.000848389
-0.00176976
-0.00193717
-0.00135919
-0.00285509
-0.000920184
-0.00342495
-0.000513818
-0.00357927
-0.000161444
-0.00336283
0.000157499
-0.00286069
0.00048469
-0.00220589
0.000819403
-0.00159057
0.00107561
-0.0011722
0.00125602
-0.000946413
0.00121513
-0.000939767
0.00109576
-0.000958153
0.00103736
-0.000879656
0.00100757
-0.000783211
0.00102162
-0.00067036
0.00119629
-0.00052497
0.00138893
-0.000438717
0.00157406
-0.000400901
0.00174883
-0.000365353
0.0019023
-0.000301576
0.0020135
-0.000187133
0.00204994
-1.20899e-06
0.00198846
0.000250987
0.00184356
0.000556789
0.00171866
0.000968556
0.00161521
0.00145512
0.00148619
0.00200146
0.00238768
0.00212877
0.00164308
0.000769264
0.00170783
-4.10474e-05
0.00179526
-0.000674073
0.0104582
-0.00112127
0.0043176
-0.000699014
0.00232014
-0.000480113
0.00208277
-0.000490001
0.00195132
-0.000581288
0.00159737
-0.000647222
0.000992281
-0.00062729
0.000138675
-0.000462186
-0.00101346
-0.000208106
-0.00219121
5.69528e-05
-0.00312011
0.000283189
-0.00365115
0.000450899
-0.00374695
0.000557649
-0.00346954
0.000631633
-0.00293465
0.000707816
-0.00228205
0.000784831
-0.00166756
0.000828585
-0.00121592
0.000834424
-0.000952219
0.000765299
-0.000870609
0.000651905
-0.000844726
0.00057461
-0.000802327
0.000542012
-0.000750581
0.000564405
-0.00069272
0.000665664
-0.000626196
0.000808606
-0.000581627
0.000964076
-0.000556339
0.00112286
-0.000524109
0.00128012
-0.000458799
0.00142672
-0.000333697
0.00154398
-0.000118445
0.00160896
0.00018604
0.00163893
0.000526856
0.00169996
0.000907559
0.00186146
0.00129365
0.00215384
0.00170911
0.00245094
0.0018317
0.00197416
0.00124608
0.00110368
0.000829468
0.00296531
-0.00079203
0.0117239
-0.000741351
0.00426696
0.00043549
0.00114333
0.000989435
0.00152886
0.00108392
0.00185687
0.00106055
0.00162077
0.00108151
0.000971357
0.00122506
-4.84869e-06
0.00142517
-0.00121353
0.00156511
-0.00233111
0.00160707
-0.00316201
0.0015546
-0.00359864
0.00142792
-0.00362024
0.00123989
-0.00328148
0.00102401
-0.00271874
0.000816753
-0.00207476
0.000635238
-0.00148601
0.000482416
-0.00106306
0.000357621
-0.000827391
0.000235469
-0.000748424
0.00011819
-0.000727414
2.9949e-05
-0.000714054
-1.97363e-05
-0.000700863
-2.58503e-05
-0.000686574
1.81671e-05
-0.000670182
9.73672e-05
-0.000660795
0.000194789
-0.000653729
0.000305263
-0.000634551
0.000432083
-0.000585587
0.000584203
-0.000485785
0.000772368
-0.000306578
0.000964472
-6.03196e-06
0.00114441
0.000346953
0.00136211
0.000689887
0.00165809
0.000997701
0.00204747
0.00131977
0.00246287
0.00141633
0.0026291
0.00107989
0.0019975
0.0014611
0.0050302
0.00254924
0.00970358
0.00316505
0.00365117
0.00373707
0.000571342
0.00380479
0.00146117
0.0036378
0.00202389
0.00349956
0.00175903
0.00347936
0.000991587
0.00357793
-0.00010339
0.00360374
-0.0012393
0.00345956
-0.00218689
0.00315941
-0.00286181
0.0027515
-0.00319068
0.00227292
-0.00314162
0.00174211
-0.00275064
0.00120796
-0.00218457
0.000720825
-0.00158759
0.000318797
-0.00108395
2.26572e-05
-0.000766893
-0.000178424
-0.000626277
-0.000330232
-0.000596584
-0.000457859
-0.000599755
-0.000562792
-0.000609089
-0.000643756
-0.000619866
-0.000699833
-0.000630464
-0.000729832
-0.00064015
-0.000740381
-0.000650214
-0.000737767
-0.000656311
-0.000722922
-0.000649364
-0.000690614
-0.000617863
-0.000626891
-0.000549476
-0.000501474
-0.000431964
-0.000255512
-0.000251962
5.67411e-05
3.47322e-05
0.000392622
0.000354039
0.000770798
0.000619557
0.00120765
0.000882958
0.00161419
0.00100982
0.00171436
0.000979754
0.000719673
0.00245583
0.00605648
0.0102871
0.0139333
0.0133297
0.00117499
0.0117812
0.00300969
0.010288
0.00351714
0.00911101
0.00293603
0.00819558
0.00190705
0.00730443
0.000787793
0.00631769
-0.00025251
0.00528703
-0.00115617
0.00433779
-0.00191251
0.00346873
-0.00232158
0.00264188
-0.00231473
0.00179038
-0.00189911
0.00098278
-0.00137693
0.000289642
-0.000894421
-0.000212737
-0.000581541
-0.000527363
-0.000452234
-0.000727107
-0.000426501
-0.000887256
-0.000436403
-0.00103251
-0.000454468
-0.00116865
-0.000472914
-0.00129777
-0.000490717
-0.00142099
-0.00050721
-0.00153953
-0.000521577
-0.0016573
-0.00053241
-0.00177853
-0.000535054
-0.00190688
-0.000520977
-0.00204684
-0.000477869
-0.00220591
-0.000390373
-0.00239664
-0.000241204
-0.00263686
-1.17057e-05
-0.00290338
0.000301283
-0.00325506
0.000705747
-0.00385472
0.00121925
-0.00480898
0.00183725
-0.00627534
0.00247622
-0.00823622
0.00294066
-0.00829673
0.00251638
-0.00190405
0.00561031
0.00165828
0.00576903
0.00285106
0.00631714
0.00296912
0.00637682
0.00287644
0.00606145
0.00222249
0.00554952
0.0012998
0.00490598
0.000391107
0.00414369
-0.000393811
0.00344923
-0.00121801
0.00270747
-0.00157978
0.00193281
-0.00154005
0.00101094
-0.00097722
0.000135735
-0.000501697
-0.000493919
-0.000264738
-0.000858887
-0.000216542
-0.00107785
-0.000233241
-0.00124432
-0.000259994
-0.00139856
-0.000282138
-0.00155439
-0.000298605
-0.00171595
-0.000311315
-0.00188513
-0.000321506
-0.00206325
-0.000329056
-0.00225176
-0.00033304
-0.0024525
-0.000331633
-0.00266622
-0.000321304
-0.00289076
-0.000296402
-0.00311959
-0.000249004
-0.00334053
-0.000169408
-0.00353317
-4.85274e-05
-0.00367464
0.000129796
-0.0037711
0.000397781
-0.00384528
0.000779962
-0.00391808
0.00129208
-0.00399115
0.00191035
-0.0039947
0.0024798
-0.00361721
0.00256321
-0.00126731
0.000166509
-0.00308517
-0.001781
0.00349513
-0.00038017
0.00145028
0.000777518
0.00181151
0.00173875
0.00191527
0.00229617
0.00166514
0.00243663
0.00115942
0.00230139
0.000526408
0.00201609
-0.000108452
0.00170073
-0.000902645
0.00105162
-0.000930674
0.00025398
-0.000742396
-0.000522431
-0.000200785
-0.00105645
3.23532e-05
-0.00133271
1.15509e-05
-0.00148835
-6.08659e-05
-0.00160643
-0.000115136
-0.00172447
-0.000141925
-0.00185286
-0.000153716
-0.00199242
-0.00015901
-0.00214202
-0.000161683
-0.00230027
-0.000163221
-0.00246562
-0.000163677
-0.00263625
-0.000162371
-0.00280989
-0.000157966
-0.00298295
-0.000148211
-0.00314949
-0.000129829
-0.00329996
-9.84952e-05
-0.00342084
-4.8493e-05
-0.00349564
2.63083e-05
-0.00349532
0.000129504
-0.00338414
0.000286637
-0.00312234
0.000518192
-0.002683
0.000852782
-0.00207201
0.00129939
-0.00116506
0.00157289
0.0011479
0.000250278
0.00351856
-0.00220411
0.000526379
-0.00824884
-0.011212
-0.00767731
-0.00620006
-0.00436704
-0.0024334
-0.000751473
0.000424389
0.000968155
0.000878742
-4.56706e-06
-0.000920007
-0.00164827
-0.00183549
-0.0017899
-0.00176499
-0.00181221
-0.00191348
-0.00204145
-0.00218122
-0.00232639
-0.00247439
-0.00262416
-0.00277465
-0.00292414
-0.00306954
-0.00320554
-0.0033235
-0.0034105
-0.00344788
-0.00341085
-0.00327104
-0.00297452
-0.0024469
-0.00158513
-0.000277222
0.00130361
0.00156218
-0.000633976
)
;

boundaryField
{
    floor
    {
        type            calculated;
        value           nonuniform List<scalar> 
36
(
0
0
0
0
0
0
0
0
0
0
0
0
0
0
0
0
0
0
0
-4.99329e-06
-1.27032e-05
-1.92352e-05
-2.48009e-05
-2.46213e-05
-2.3659e-05
-2.31259e-05
-2.03016e-06
-3.99871e-06
-4.68646e-06
-5.03492e-06
-3.88033e-06
-7.62917e-06
-9.61797e-06
-1.05512e-05
-1.19824e-05
-1.19062e-05
)
;
    }
    ceiling
    {
        type            calculated;
        value           nonuniform List<scalar> 
43
(
-4.19844e-05
-4.07049e-05
-3.94894e-05
-2.69265e-05
-2.14489e-05
-1.83025e-05
-1.67301e-05
-1.63761e-05
-1.72972e-05
-1.90034e-05
-1.94654e-05
-1.52441e-05
-1.41052e-05
-1.353e-05
-1.32102e-05
-1.33293e-05
-1.36128e-05
-1.38321e-05
-1.39264e-05
-1.39117e-05
-1.38127e-05
-1.36454e-05
-1.34221e-05
-1.31545e-05
-1.28533e-05
-1.25276e-05
-1.21845e-05
-1.18288e-05
-1.14625e-05
-1.10845e-05
-1.0689e-05
-1.02718e-05
-9.84324e-06
-9.40294e-06
-8.9494e-06
-8.4827e-06
-7.91085e-06
-8.25587e-06
-7.92322e-06
-5.54224e-06
7.72115e-06
5.0372e-06
-5.58384e-05
)
;
    }
    sWall
    {
        type            calculated;
        value           uniform -0.000255756;
    }
    nWall
    {
        type            calculated;
        value           nonuniform List<scalar> 6(-6.42737e-05 -6.6325e-05 -6.73485e-05 -8.61611e-05 -9.29571e-05 -0.000102023);
    }
    sideWalls
    {
        type            empty;
        value           nonuniform 0();
    }
    glass1
    {
        type            calculated;
        value           nonuniform List<scalar> 9(-6.16561e-05 -0.000164633 -0.000249766 -0.000320731 -0.000379998 -0.000429484 -0.000473587 -0.00052892 -0.000591228);
    }
    glass2
    {
        type            calculated;
        value           nonuniform List<scalar> 2(-0.000306572 -0.000336165);
    }
    sun
    {
        type            calculated;
        value           uniform 0;
    }
    Table_master
    {
        type            calculated;
        value           nonuniform List<scalar> 9(-1.53681e-07 -1.53783e-07 -1.53817e-07 -1.53839e-07 -1.53852e-07 -1.53858e-07 -1.53858e-07 -1.53848e-07 -1.53808e-07);
    }
    Table_slave
    {
        type            calculated;
        value           nonuniform List<scalar> 9(1.53703e-07 1.53659e-07 1.53591e-07 1.5353e-07 1.53483e-07 1.53463e-07 1.53471e-07 1.53494e-07 1.53571e-07);
    }
    inlet
    {
        type            calculated;
        value           uniform -0.00609355;
    }
    outlet
    {
        type            calculated;
        value           nonuniform List<scalar> 2(0.00854662 0.00300387);
    }
}


// ************************************************************************* //
