/*--------------------------------*- C++ -*----------------------------------*=========                 |
  \      /  F ield         | OpenFOAM: The Open Source CFD Toolbox
   \    /   O peration     | Website:  https://openfoam.org
    \  /    A nd           | Version:  6
     \/     M anipulation  |
\*---------------------------------------------------------------------------*/
FoamFile
{
    version     2.0;
    format      ascii;
    class       volScalarField;
    location    "1700";
    object      PPD;
}
// * * * * * * * * * * * * * * * * * * * * * * * * * * * * * * * * * * * * * //

dimensions      [0 0 0 0 0 0 0];

internalField   nonuniform List<scalar> 
458
(
63.57787456256252
52.624869338358046
51.75237239455732
50.586497997313636
49.735707782052934
49.12856550188759
48.72252683899626
48.52947777810535
48.6488173056816
49.009712946426404
49.714566173729025
50.85627535144646
52.58001510583285
54.62738265630142
55.27976408734818
58.35911011302566
57.91879456324127
57.81512008038988
57.789197443944246
57.466714589095666
56.50693110655711
56.06461303112915
55.89530754379778
55.860964124344676
55.82947524364228
55.81926052028258
55.84233225123923
55.92157804809956
56.089812156952796
56.52498365811831
57.21851786477473
57.11468461082492
57.37422718130748
62.31013241184441
53.30172418196751
53.35158339726408
52.23131718272485
51.52754753507874
51.038977810099574
50.7181556306075
50.5722912654726
50.645233776769516
50.8329681815445
51.148006275225356
51.67243598618803
52.4693193107967
53.51170669495886
54.94308973368784
57.45206294902348
57.63362873255835
54.658606484579224
54.952844888861975
57.89287837377723
57.789197443944246
56.96996401555651
56.22540015330199
55.810765852061714
55.64510840089195
55.56593861697224
55.42670293056481
55.286443881374524
55.15173894352989
55.02985710332383
54.920622994516755
54.86329054385357
55.07651523123651
55.86896316221628
56.322655916986704
55.51283767594221
65.27220094585596
53.092077808489336
54.89282511161174
54.13792058320633
53.86624460836867
53.703083508628794
53.614918655645994
53.597768083698725
53.680743264012335
53.67555855720425
53.46498897694342
53.13424797325619
52.94203339013884
53.246000389761505
54.407525150053
57.24447284322776
57.24447284322776
57.50394626475773
52.963388992717654
55.94148590099094
56.55330647035468
56.3865805340345
56.094194039729594
55.807493197181444
56.20683271013935
56.485207637017886
56.4469755505668
56.25249581323723
56.01392862543622
55.7450265072349
55.39646111985662
54.876747165366645
54.59515727612678
55.0496955989188
54.447813561101434
52.201738229605425
69.57483669719166
53.15221977820988
56.05248818727838
55.95287246487627
56.40855017511601
56.87371511006733
57.27352241113165
57.59485200783606
57.747142668062885
57.42713766364907
56.36019499984877
54.81131581938158
53.50871956095108
53.03698468630566
53.819488523989534
56.05659431080674
57.296378721940016
57.4001738619107
56.630289834607815
55.36079336260163
56.27557221938817
57.06277891164191
57.41609501967716
57.841928322248116
57.96276037336378
56.99830874724821
56.10599834257523
55.44455839809674
54.94236852044001
54.57495833650206
54.41215665168741
54.61304482410016
55.30180773525639
55.42133134029456
54.90266604874229
52.87650591998643
50.39294676857996
74.14255059781749
54.102061247783
57.12125607218836
57.557786891517885
58.83059451984321
60.16521761008716
61.435517482650496
62.375916388484846
62.66249474927327
61.6750887349006
59.212968461645254
56.16881517486311
53.72967842407161
52.55326120848285
52.88893532095087
54.50214926634929
56.33356410689565
57.1964816816942
57.20707354112002
56.83512752975467
57.46602294919041
58.355618668319856
58.74718768797219
58.85060100445494
58.90229551371856
58.90229551371856
58.23629199810608
57.55898156348765
56.96476223318083
56.471530026909306
56.06948240680768
55.878216993537976
55.84608285922776
55.40043288676068
54.42429737867667
51.66100617069691
51.88907353683903
49.14533199513381
48.14630140185726
47.56957863045302
78.2094642649136
56.31068721094319
59.508755162394046
59.32729168944616
60.6322886420512
62.79681941612666
65.29598385788981
66.4896477554069
67.52416981889981
64.73210040148984
60.75133443604397
56.575921995606215
53.46574839750767
51.9769831566528
52.159606688708095
53.64479896654813
55.639716271866504
57.336120221903634
58.22965787407023
58.566138251407956
58.85060100445494
59.08316102200874
59.21228697446509
59.31554846903285
59.34135829775073
59.34135829775073
59.31554846903285
59.28973641141115
59.21228697446509
58.97840211735293
58.3700718614586
57.68785266232186
56.98412290404701
55.9500161693059
54.573707951072386
52.1379800705932
51.905055758817326
52.67678176359558
51.409275761941814
48.27910161239201
81.66366139918617
61.40677653796092
67.47292375700482
63.55981258670258
62.27004392504509
63.21461033806692
65.64237307742678
67.42606599070683
66.86483407229588
64.01980064957962
60.136143298109076
55.895524133474055
52.69139392714692
51.307128678553106
51.737796757655694
53.54418006210056
56.04448146163025
58.25555190542662
58.74718768797219
59.10899051722906
59.36716588662938
59.54775537470383
59.676678265178
59.72823082389652
59.75400350290876
59.75400350290876
59.72823082389652
59.676678265178
59.57354465118915
59.44457510487483
59.2381056531908
58.97982184546795
58.669606784159136
57.68684219586167
55.8836113465848
53.641682982422104
52.54018738182511
52.3383400660777
49.6204884458097
48.80726480588875
86.49578537581218
77.63329340330402
75.62725374280487
70.16581798311229
67.19538522837766
65.74391599528776
65.34398272226811
65.19749969183937
64.29410855261125
61.84686487754779
57.817527708516685
53.630441723613956
50.91218504206713
50.35276462413466
51.69067884262549
54.442434965596746
57.74944059100665
58.773044027014365
59.31554846903285
59.6508984073479
59.8570699614935
59.985847635251694
60.06308416823781
60.11456247829303
60.11456247829303
60.11456247829303
60.08882460174982
60.0373411886977
59.96009708321939
59.805541605566084
59.625116178447215
59.39297122473325
59.005659797086246
58.695469055617174
58.38499513087549
58.07425689905383
57.07392534714152
56.42233957822485
50.72426815640165
46.316353697556664
92.00445852428429
88.18651087241336
83.19555607335977
77.45078290196572
72.2520699377562
68.43697055607223
65.97866153997457
64.25515798554738
61.98218210826225
57.779205225218675
53.01567969221715
49.53195762894996
48.45082970517231
49.749980461330615
52.84706553772435
57.11716637521764
58.61787638531587
59.44457510487483
59.8570699614935
60.08882460174982
60.24321312384731
60.34608649973915
60.24920234624374
59.827541631293
59.42516210316196
59.052936618631726
58.647814200616494
58.25543419243302
57.84663470799866
57.43221891159667
56.97261512361033
56.43431297512975
55.857433969754574
55.3540822170515
54.59273034565855
53.67615127489308
52.759466214361204
52.066231026326534
51.21090752361753
49.34905962651514
83.46712061429642
10.90756894514847
7.9727005184101785
21.473557370100522
32.05795272826464
37.56282806187175
39.92316962091774
41.568598775951735
42.528963806896925
44.3655645590195
47.549915264794095
52.02922167188759
56.517260686224944
58.41087831326974
59.4961698506927
60.0373411886977
60.32037212787297
60.250199540302745
59.75335584477059
59.28639909320224
58.8127354574169
58.326721932403096
57.87562208613685
57.40323956202839
56.933881942367826
56.47251044962549
56.02968901381364
55.647278022702366
55.316823836178486
55.088950496988474
54.96950113672463
54.94256658563109
54.93874024299914
54.96061555641713
55.20358390861039
56.188598835733124
58.588357676348245
55.533401882876326
31.734376250373415
5.839167301680163
11.634377469961379
23.36962577427873
31.72523128108115
36.65876259020925
39.43511518839383
41.408721019462284
43.470321672590025
48.99055420588879
54.149354355398586
57.03679596771159
58.72132936053103
59.06274444361423
59.03919682439571
59.014600013529815
58.887090500810096
58.659501647581834
58.41114891510878
58.12260092089145
57.82347753635677
57.51664271109135
57.20583262547214
56.89571423374065
56.59292914431696
56.30763063241916
56.05375842836393
55.84883223328139
55.74550589045359
55.760756655081586
55.970915849583065
56.416187387415164
57.12278169937962
57.842920064515326
58.60249874600671
60.522425388551554
57.80249012265121
62.69047362944813
5.406469774371018
6.135862237281287
5.583646715893849
8.677805739515549
17.237191171373
26.728416039045698
36.7552559888199
40.66458807312508
41.272387707460425
38.20759080179228
39.0659893185647
51.12979136540578
53.822546463551525
54.520128692814495
54.99303102856568
55.13375160468275
55.07623631416556
54.97839661728814
54.94378635143582
54.95051943720292
54.96988312857983
55.01030457990817
55.05876933147113
55.10579174196444
55.1454471922054
55.148958241011826
55.17625049233978
55.212285441413144
55.27824645109173
55.40472468080384
55.63464696886375
56.026809321452305
56.729945432057775
57.9767719827176
60.19403630550511
62.673562370288835
63.00377740668009
59.81334131241964
57.56848383218673
52.714377982983514
)
;

boundaryField
{
    ".*"
    {
        type            zeroGradient;
    }
}


// ************************************************************************* //
