/*--------------------------------*- C++ -*----------------------------------*\
  =========                 |
  \\      /  F ield         | OpenFOAM: The Open Source CFD Toolbox
   \\    /   O peration     | Website:  https://openfoam.org
    \\  /    A nd           | Version:  6
     \\/     M anipulation  |
\*---------------------------------------------------------------------------*/
FoamFile
{
    version     2.0;
    format      ascii;
    class       surfaceScalarField;
    location    "2700";
    object      phi;
}
// * * * * * * * * * * * * * * * * * * * * * * * * * * * * * * * * * * * * * //

dimensions      [1 0 -1 0 0 0 0];

internalField   nonuniform List<scalar> 
850
(
-0.00294415
0.00299781
-0.00404699
0.00110277
-0.00484814
0.000801068
-0.00544063
0.000592421
-0.00579792
0.000357208
-0.00589948
0.000101484
-0.00572774
-0.000171811
-0.00528109
-0.00044673
-0.00459684
-0.000684327
-0.00374714
-0.000849778
-0.00281857
-0.000928641
-0.0018989
-0.000919752
-0.00107137
-0.000827596
-0.000410484
-0.000660954
-0.000409415
-0.000708016
0.000709828
-0.000422504
-0.000285554
0.000220077
-0.000642626
0.000801974
-0.000581942
0.00124162
-0.000439689
0.00149172
-0.000250142
0.00160258
-0.000110901
0.00165999
-5.74585e-05
0.00169445
-3.44983e-05
0.00171234
-1.79227e-05
0.00171653
-4.23338e-06
0.00170643
1.00638e-05
0.00167306
3.33367e-05
0.00159129
8.17382e-05
0.00141828
0.000172981
0.00112694
0.000291314
0.000725012
0.000401903
0.000727361
-0.00209707
0.0052399
-0.00312751
0.00213313
-0.00392685
0.00160033
-0.00449987
0.00116537
-0.00484492
0.000702178
-0.00494769
0.000204179
-0.00478874
-0.000330835
-0.00437573
-0.000859826
-0.00375754
-0.00130259
-0.00301219
-0.00159521
-0.00221892
-0.001722
-0.00144891
-0.00168984
-0.000762771
-0.00151381
-0.000205565
-0.00121823
0.000232323
-0.000847369
0.000652008
-0.000417709
0.000604341
4.9979e-05
0.000611418
0.00019613
0.000519103
0.000673812
-0.000763283
0.00102037
-0.000989234
0.00132824
-0.000889855
0.00157378
-0.000685277
0.00162962
-0.000306027
0.00163837
-0.000119696
0.00164891
-6.805e-05
0.00165776
-4.339e-05
0.00166306
-2.32567e-05
0.00166533
-6.54321e-06
0.00166404
1.1316e-05
0.00165555
4.17939e-05
0.00160937
0.000127884
0.00142696
0.000355361
0.00110088
0.000617361
0.000659019
0.000843741
0.00139279
-0.00146137
0.00692364
-0.00232576
0.00299744
-0.00301632
0.00229082
-0.00349313
0.0016421
-0.00377608
0.000985055
-0.00384375
0.00027177
-0.00365951
-0.000515159
-0.00324527
-0.00127415
-0.00266982
-0.00187813
-0.00202026
-0.00224485
-0.00136239
-0.00237995
-0.000746137
-0.00230617
-0.000208154
-0.00205187
0.000229579
-0.00165603
0.000540783
-0.00115864
0.000699006
-0.000575999
0.000616179
0.000132739
0.00123325
0.00139601
-0.000870662
0.00163941
-0.00100674
0.0016889
-0.00103877
0.00176897
-0.000969978
0.00197403
-0.00089038
0.0016681
0.00154852
0.00148057
0.00143729
0.00141415
0.00140772
0.00141915
0.00146106
0.00158907
0.00136732
0.000577079
0.00106699
0.000917656
0.000616401
0.00129431
0.00201924
-0.00101413
0.00822638
-0.00167867
0.00366191
-0.0021155
0.00272758
-0.00240546
0.00193198
-0.00254906
0.00112858
-0.00250077
0.000223413
-0.00222294
-0.000793067
-0.0017858
-0.00171137
-0.00127052
-0.00239349
-0.000755031
-0.00276044
-0.000274983
-0.00286009
0.000146315
-0.00272756
0.00049594
-0.00240157
0.0007803
-0.00194046
0.00100975
-0.00138815
0.00120523
-0.000771552
0.00147093
-0.000133018
0.00240792
0.000296197
0.00257666
-0.000163036
0.00230404
-0.000598106
0.00214146
-0.000844211
0.00197892
-0.000876284
0.00182514
-0.000816248
0.00158617
-0.000651456
0.00187502
-0.000289049
0.00201719
-0.000142364
0.00211223
-9.52295e-05
0.0021799
-6.78608e-05
0.00221447
-3.47568e-05
0.00220002
1.42631e-05
0.00211294
8.6896e-05
0.00191697
0.000195793
0.00154934
0.000367449
0.00139448
0.000731904
0.00112968
0.00118243
0.000736853
0.00168711
0.00276928
-0.000709135
0.00928055
-0.00119686
0.00414956
-0.00124975
0.00278039
-0.00125171
0.00193388
-0.00115452
0.00103132
-0.000860008
-7.11694e-05
-0.00042499
-0.00122816
1.65987e-05
-0.00215305
0.000401117
-0.00277811
0.000710283
-0.00306971
0.000943852
-0.00309376
0.00111046
-0.00289426
0.00123083
-0.00252202
0.00132446
-0.00203416
0.00141666
-0.00148042
0.00155414
-0.000909084
0.00181598
-0.000394924
0.00220532
-9.32003e-05
0.00226561
-0.000223381
0.00213919
-0.00047175
0.00193089
-0.000635964
0.00172849
-0.000673933
0.00154303
-0.000630832
0.00140527
-0.00051374
0.0014433
-0.000327111
0.00150374
-0.000202839
0.00155737
-0.000148891
0.00160844
-0.000118961
0.00165398
-8.03273e-05
0.00167971
-1.14907e-05
0.00166654
0.000100034
0.0016012
0.000261113
0.00148596
0.000482667
0.00140323
0.000814606
0.00135527
0.00123037
0.00134315
0.00169921
0.00218773
0.00192468
0.0014055
0.00079557
0.00119169
0.000226652
0.00125385
-0.000613557
0.0102868
-0.000924292
0.00446022
-0.000434847
0.00229087
5.46312e-05
0.00144433
0.000605846
0.000480043
0.00121461
-0.000680005
0.00170908
-0.00172272
0.00203773
-0.0024818
0.00219713
-0.00293761
0.0022324
-0.00310509
0.00216932
-0.00303077
0.00204038
-0.0027654
0.00188244
-0.00236416
0.00172969
-0.00188148
0.00161317
-0.00136395
0.00156648
-0.000862447
0.00161563
-0.000444134
0.00172395
-0.000201567
0.0017085
-0.000207979
0.00156857
-0.00033187
0.00136833
-0.000435771
0.00117053
-0.000476175
0.00100008
-0.000460425
0.000883121
-0.000396815
0.000855886
-0.000299907
0.000882869
-0.00022985
0.0009324
-0.000198447
0.000994519
-0.000181104
0.00106569
-0.000151516
0.00114065
-8.64767e-05
0.00120499
3.56766e-05
0.00124967
0.000216417
0.00128619
0.000446131
0.00136168
0.000739093
0.00152574
0.00106629
0.0018008
0.00142412
0.002117
0.00160846
0.00175159
0.00116096
0.00097573
0.00100249
0.00227994
-0.000612084
0.0113355
-0.00041847
0.00426654
0.000881
0.00099133
0.00195604
0.000369222
0.00290639
-0.000470377
0.00363543
-0.00140912
0.00403674
-0.00212412
0.00413214
-0.0025773
0.00398026
-0.00278584
0.0036539
-0.00277883
0.00321861
-0.00259558
0.00273432
-0.00228119
0.00225503
-0.00188494
0.00182473
-0.00145123
0.00147243
-0.00101169
0.0012205
-0.000610559
0.00107721
-0.000300879
0.00100665
-0.00013105
0.000916947
-0.000118318
0.000775503
-0.000190465
0.000605186
-0.000265492
0.000438273
-0.000309296
0.000297374
-0.000319557
0.00020249
-0.000301957
0.00017118
-0.000268621
0.000188664
-0.000247355
0.000232763
-0.000242564
0.00029343
-0.000241787
0.000371277
-0.000229378
0.000472009
-0.000187224
0.000597484
-8.9812e-05
0.000735795
7.80918e-05
0.000887417
0.000294493
0.00108125
0.000545244
0.00134159
0.000805929
0.00167697
0.00108873
0.00206161
0.0012238
0.00223485
0.0009877
0.0018302
0.00140713
0.00416175
0.00268182
0.00914293
0.00349802
0.00345026
0.00441039
7.88977e-05
0.00559502
-0.000815485
0.00640034
-0.00127578
0.00669991
-0.0017088
0.00658502
-0.00200934
0.00613768
-0.00213007
0.00544943
-0.00209771
0.00461749
-0.00194699
0.00373135
-0.00170953
0.00286393
-0.00141384
0.00207268
-0.00109373
0.00139913
-0.000777718
0.000861047
-0.000473634
0.000474168
-0.000223706
0.000235555
-6.22925e-05
0.000100681
3.7945e-06
-4.82735e-06
-1.284e-05
-0.000122728
-7.25951e-05
-0.000253196
-0.000135052
-0.000379788
-0.000182729
-0.000485721
-0.000213647
-0.000557963
-0.000229733
-0.000589634
-0.000236966
-0.000591593
-0.00024541
-0.000578007
-0.000256162
-0.000555462
-0.000264344
-0.000521555
-0.000263296
-0.000463995
-0.000244794
-0.000357127
-0.00019669
-0.000188316
-9.07306e-05
2.59802e-05
8.01848e-05
0.000284808
0.000286403
0.000591592
0.000499131
0.000953957
0.00072635
0.00133574
0.000841998
0.00153991
0.000783516
0.000934176
0.00201285
0.00531705
0.00967754
0.0131177
0.0125274
0.000669134
0.0118807
-0.000168952
0.0110468
-0.000441982
0.00996645
-0.000628568
0.00864863
-0.000691646
0.00720423
-0.000685779
0.00573435
-0.000627925
0.00432379
-0.000536498
0.00304043
-0.000426214
0.00192336
-0.000296796
0.000992557
-0.000162952
0.000250087
-3.52619e-05
-0.000287697
6.41442e-05
-0.00061966
0.000108244
-0.000796328
0.000114357
-0.000887447
9.48921e-05
-0.000954284
5.39746e-05
-0.00103146
4.56013e-06
-0.00112347
-4.30609e-05
-0.00121886
-8.73543e-05
-0.00130536
-0.000127168
-0.00137588
-0.00015922
-0.00142962
-0.000183241
-0.00147516
-0.000199872
-0.00152388
-0.000207457
-0.00158571
-0.00020252
-0.00166954
-0.000179474
-0.00178506
-0.000129286
-0.00194062
-4.11404e-05
-0.0021363
0.000104943
-0.00237444
0.000318307
-0.00270618
0.000618131
-0.00322736
0.0010203
-0.00402822
0.0015272
-0.00525447
0.00206823
-0.00688511
0.00241415
-0.00679272
0.00192045
-0.00123309
0.00342102
0.00200796
0.00297023
0.000281807
0.00332822
-0.000799965
0.00322614
-0.000526462
0.00275485
-0.000220326
0.00208179
-1.2693e-05
0.00131898
0.000134916
0.000557768
0.00022473
-0.000137985
0.000269564
-0.000712962
0.000278187
-0.00113991
0.000263991
-0.00142793
0.00025276
-0.00159852
0.000234726
-0.00169637
0.000206083
-0.00175411
0.000172081
-0.00179508
0.000135841
-0.00183862
9.74981e-05
-0.00189327
5.91943e-05
-0.0019585
2.21593e-05
-0.00203376
-1.20998e-05
-0.00211562
-4.53213e-05
-0.00220041
-7.443e-05
-0.00228721
-9.64552e-05
-0.00237823
-0.000108858
-0.00247696
-0.000108736
-0.00258654
-9.2941e-05
-0.00270809
-5.79376e-05
-0.00283891
1.52332e-06
-0.00296799
8.79291e-05
-0.00308156
0.000218513
-0.00318124
0.000417973
-0.00327205
0.000708925
-0.00335566
0.0011039
-0.00341577
0.0015873
-0.00343724
0.00208969
-0.0033116
0.0022885
-0.00188815
0.000496982
-0.00305801
-0.000160495
0.00224574
-0.000177315
0.000298719
-0.00096736
-9.84933e-06
-0.00154666
5.29006e-05
-0.00192646
0.000159521
-0.00217245
0.000233334
-0.00232515
0.000287648
-0.00242521
0.000324822
-0.00248733
0.000331702
-0.00251957
0.000310433
-0.00252895
0.000273368
-0.00251308
0.000236881
-0.00248141
0.000203058
-0.00244711
0.000171765
-0.00241884
0.000143808
-0.00240196
0.000118953
-0.00240036
9.58879e-05
-0.00241548
7.43046e-05
-0.00244785
5.45187e-05
-0.00249837
3.84183e-05
-0.00257059
2.68975e-05
-0.00266289
1.78595e-05
-0.00277053
1.11819e-05
-0.00288596
6.56319e-06
-0.00299896
4.25279e-06
-0.00309769
5.78438e-06
-0.00317005
1.44124e-05
-0.00320329
3.47576e-05
-0.00319709
8.17236e-05
-0.00313666
0.000158073
-0.00299565
0.000276958
-0.00274217
0.000455437
-0.00235287
0.000714588
-0.00179005
0.00102447
-0.0009025
0.00120213
0.000548505
0.000837487
0.0014218
-0.000376325
-0.0015674
-0.00533911
-0.00818456
-0.00590633
-0.00559697
-0.00560249
-0.00554842
-0.00539007
-0.00515992
-0.00487731
-0.00455931
-0.00423623
-0.00393618
-0.00367483
-0.00345136
-0.00326281
-0.00310639
-0.00297857
-0.00287609
-0.00279709
-0.00274002
-0.00270306
-0.00268251
-0.00267381
-0.00267449
-0.00268221
-0.00269489
-0.00271015
-0.00272405
-0.00272934
-0.00271415
-0.00265172
-0.00251257
-0.00225407
-0.00181657
-0.00111935
-0.000111731
0.00107397
0.00189478
0.00150081
)
;

boundaryField
{
    floor
    {
        type            calculated;
        value           nonuniform List<scalar> 
36
(
0
0
0
0
0
0
0
0
0
0
0
0
0
0
0
0
0
0
0
-2.37009e-06
-6.43167e-06
-1.00707e-05
-1.32064e-05
-1.33583e-05
-1.28644e-05
-1.20716e-05
-1.1282e-06
-2.04471e-06
-2.38234e-06
-2.82967e-06
-1.85347e-06
-4.32084e-06
-5.44388e-06
-5.72189e-06
-6.29013e-06
-5.76614e-06
)
;
    }
    ceiling
    {
        type            calculated;
        value           nonuniform List<scalar> 
43
(
-3.51429e-05
-3.38627e-05
-3.24208e-05
-1.05921e-05
-4.2767e-06
-1.13281e-06
1.19846e-06
3.21224e-06
5.0506e-06
6.83602e-06
8.62673e-06
1.0391e-05
1.20166e-05
1.3402e-05
1.45043e-05
1.53439e-05
1.59785e-05
1.64732e-05
1.688e-05
1.72327e-05
1.75554e-05
1.78687e-05
1.81922e-05
1.85383e-05
1.88967e-05
1.92368e-05
1.95123e-05
1.9675e-05
1.96932e-05
1.95606e-05
1.92897e-05
1.89131e-05
1.84517e-05
1.79266e-05
1.73672e-05
1.68394e-05
1.64115e-05
1.66734e-05
1.76404e-05
1.93329e-05
1.32285e-05
1.00743e-05
-7.72309e-05
)
;
    }
    sWall
    {
        type            calculated;
        value           uniform -0.000263263;
    }
    nWall
    {
        type            calculated;
        value           nonuniform List<scalar> 6(-5.01024e-05 -5.03752e-05 -5.16288e-05 -6.32295e-05 -6.88189e-05 -8.59307e-05);
    }
    sideWalls
    {
        type            empty;
        value           nonuniform 0();
    }
    glass1
    {
        type            calculated;
        value           nonuniform List<scalar> 9(-5.37316e-05 -0.000145094 -0.000222451 -0.00028868 -0.000345111 -0.000392798 -0.000436607 -0.000489353 -0.000547907);
    }
    glass2
    {
        type            calculated;
        value           nonuniform List<scalar> 2(-0.00022114 -0.000242585);
    }
    sun
    {
        type            calculated;
        value           uniform 0;
    }
    Table_master
    {
        type            calculated;
        value           nonuniform List<scalar> 9(-1.52345e-07 -1.52491e-07 -1.52535e-07 -1.52559e-07 -1.52573e-07 -1.52579e-07 -1.52575e-07 -1.52558e-07 -1.52512e-07);
    }
    Table_slave
    {
        type            calculated;
        value           nonuniform List<scalar> 9(1.52255e-07 1.52264e-07 1.5223e-07 1.52204e-07 1.52189e-07 1.52188e-07 1.52194e-07 1.52227e-07 1.52298e-07);
    }
    inlet
    {
        type            calculated;
        value           uniform -0.00475988;
    }
    outlet
    {
        type            calculated;
        value           nonuniform List<scalar> 2(0.00563759 0.00287939);
    }
}


// ************************************************************************* //
