/*--------------------------------*- C++ -*----------------------------------*\
  =========                 |
  \\      /  F ield         | OpenFOAM: The Open Source CFD Toolbox
   \\    /   O peration     | Website:  https://openfoam.org
    \\  /    A nd           | Version:  6
     \\/     M anipulation  |
\*---------------------------------------------------------------------------*/
FoamFile
{
    version     2.0;
    format      ascii;
    class       surfaceScalarField;
    location    "1200";
    object      phi;
}
// * * * * * * * * * * * * * * * * * * * * * * * * * * * * * * * * * * * * * //

dimensions      [1 0 -1 0 0 0 0];

internalField   nonuniform List<scalar> 
850
(
-0.00315478
0.00321571
-0.00434381
0.00118906
-0.00517598
0.000832205
-0.0057305
0.000554545
-0.00596246
0.000231989
-0.00583549
-0.000126945
-0.00532764
-0.000507815
-0.00447707
-0.000850535
-0.00338794
-0.0010891
-0.00219517
-0.00119274
-0.00103339
-0.00116175
-3.33194e-05
-0.00100005
0.000557861
-0.00059116
0.000678512
-0.000120632
0.000681306
-0.000949614
0.000953415
-0.000624197
-0.000325432
0.000154128
-0.000778337
0.000877027
-0.000722912
0.00142332
-0.000546306
0.00172369
-0.000300388
0.00184874
-0.000125066
0.00190965
-6.09263e-05
0.00194486
-3.52344e-05
0.00196236
-1.75242e-05
0.00196621
-3.86768e-06
0.00195641
9.77757e-06
0.00192342
3.29604e-05
0.00184001
8.33804e-05
0.00166004
0.000179941
0.0013587
0.000301309
0.000937392
0.000421268
0.000942141
-0.00225995
0.00563992
-0.00339299
0.00232213
-0.00425047
0.00168971
-0.00481308
0.00111719
-0.00505758
0.000476515
-0.00494953
-0.000234954
-0.00448052
-0.000976798
-0.00371245
-0.00161857
-0.00276582
-0.00203569
-0.00177054
-0.00218798
-0.000842324
-0.00208993
-7.43557e-05
-0.00176799
0.000524871
-0.00119037
0.000952202
-0.000547943
0.00161244
2.1089e-05
0.00147538
0.00014155
0.00104223
0.000438209
0.00105681
0.000139602
0.000825348
0.000625524
-0.000811363
0.0010428
-0.00119562
0.00142471
-0.00110483
0.00173454
-0.00085615
0.00180622
-0.000372075
0.00181562
-0.000134484
0.00182714
-7.24645e-05
0.00183696
-4.50643e-05
0.00184268
-2.32679e-05
0.00184512
-6.32879e-06
0.00184388
1.09939e-05
0.00183495
4.18572e-05
0.00178488
0.000133427
0.00158281
0.000381979
0.00123124
0.000652841
0.000771706
0.000880769
0.00172658
-0.00158294
0.00747458
-0.00254729
0.0032865
-0.00331778
0.00246023
-0.00381402
0.00161346
-0.00402684
0.000689369
-0.0038971
-0.000364657
-0.00342008
-0.00145379
-0.00269979
-0.00233881
-0.00187734
-0.0028581
-0.00106489
-0.00300039
-0.000343799
-0.00281098
0.000238344
-0.00235011
0.00072252
-0.00167452
0.00111929
-0.000944691
0.0014246
-0.000284205
0.00134587
0.000220298
0.000962316
0.000821776
0.00203195
0.00152562
-0.000685733
0.00177582
-0.00106158
0.0017894
-0.0012092
0.00188031
-0.00119574
0.0021564
-0.00113224
0.00178447
0.00165012
0.0015778
0.00153287
0.00150974
0.00150354
0.00151467
0.00155665
0.0016902
0.00142184
0.00065031
0.00108466
0.000989985
0.000622143
0.00134325
0.00236835
-0.00109628
0.00889756
-0.00184407
0.00403431
-0.00236868
0.00298487
-0.0026986
0.00194341
-0.00279558
0.000786382
-0.00255603
-0.000604173
-0.00203019
-0.00197959
-0.00137309
-0.00299585
-0.000716524
-0.00351461
-0.000128922
-0.00358795
0.000354249
-0.00329411
0.000733121
-0.00272895
0.00105132
-0.0019927
0.00131511
-0.00120846
0.00151008
-0.000479162
0.00158228
0.000148118
0.00168393
0.000720134
0.00268677
0.00102913
0.00252741
0.00017292
0.00231129
-0.000469605
0.00217847
-0.000928752
0.00203489
-0.00106562
0.00188262
-0.00104348
0.00160798
-0.000857604
0.00200357
-0.000395756
0.00220698
-0.000203587
0.00234765
-0.000140839
0.00245074
-0.000103264
0.00250786
-5.72978e-05
0.00249665
1.10368e-05
0.00238673
0.000109738
0.0021355
0.00025104
0.0016704
0.000464917
0.0014537
0.000866977
0.00111333
0.00133033
0.000641703
0.00181484
0.00303538
-0.000753659
0.010042
-0.0013009
0.00458158
-0.00143
0.003114
-0.00148139
0.00199482
-0.00131058
0.000615601
-0.000841175
-0.00107355
-0.000269275
-0.00255144
0.000249285
-0.00351435
0.000657781
-0.00392304
0.00094753
-0.00387764
0.00114324
-0.00348979
0.00127683
-0.00286251
0.0013782
-0.00209405
0.00146671
-0.00129696
0.00155813
-0.000570577
0.00168075
2.55131e-05
0.00193588
0.000465017
0.00236307
0.00060196
0.00237967
0.00015633
0.00227261
-0.000362533
0.00204473
-0.000700872
0.00181283
-0.000833719
0.00159473
-0.00082538
0.00143106
-0.000693954
0.00149003
-0.00045474
0.00157919
-0.000292772
0.00166057
-0.000222251
0.00173912
-0.000181844
0.00180924
-0.000127444
0.00185093
-3.06885e-05
0.00183865
0.000121985
0.00175615
0.000333501
0.00161239
0.000608642
0.00149508
0.000984251
0.00140532
0.00142006
0.00129627
0.00192384
0.00225907
0.00207254
0.00161373
0.000670112
0.00168352
-4.61935e-05
0.00177014
-0.000634375
0.0111215
-0.000976859
0.00492409
-0.000528512
0.00266568
-8.93493e-05
0.00155568
0.000558009
-3.17465e-05
0.00127767
-0.00179318
0.00178015
-0.00305386
0.00204515
-0.00377928
0.00212603
-0.00400385
0.00206828
-0.00381983
0.00192138
-0.00334285
0.00173883
-0.00267994
0.00156187
-0.00191708
0.00142281
-0.0011579
0.00134804
-0.000495802
0.001364
9.5658e-06
0.00150162
0.0003274
0.00172296
0.000380633
0.00177165
0.000107648
0.00164578
-0.000236659
0.00142844
-0.000483545
0.00119702
-0.000602302
0.00098683
-0.000615213
0.000837367
-0.000544515
0.000802767
-0.000420169
0.000841334
-0.000331371
0.000913283
-0.000294236
0.00100484
-0.000273436
0.00110964
-0.00023229
0.00121919
-0.000140274
0.00131168
2.94527e-05
0.00137367
0.000271465
0.00142296
0.000559311
0.00151052
0.000896652
0.00169485
0.00123569
0.00201052
0.00160813
0.00236794
0.00171508
0.00194447
0.00109354
0.00109973
0.000798504
0.00293463
-0.00063416
0.0122503
-0.000419756
0.00470972
0.000908442
0.0013375
0.00207744
0.000386698
0.00311007
-0.00106435
0.00374755
-0.00243062
0.00399793
-0.00330417
0.00390454
-0.00368581
0.0035583
-0.00365753
0.00305372
-0.0033152
0.00248245
-0.00277155
0.00192441
-0.00212189
0.00142773
-0.0014204
0.00103799
-0.000768169
0.000779565
-0.000237385
0.000679456
0.000109673
0.00072892
0.000277938
0.00084015
0.000269405
0.000858234
8.95599e-05
0.000754495
-0.00013293
0.000577107
-0.000306174
0.000376969
-0.000402187
0.000192603
-0.000430878
6.01325e-05
-0.00041208
1.1639e-05
-0.000371715
3.19899e-05
-0.000351764
9.30234e-05
-0.000355315
0.000180612
-0.000361071
0.000293854
-0.00034558
0.000438637
-0.000285106
0.000617901
-0.000149859
0.000811417
7.79029e-05
0.00101447
0.000356209
0.00125982
0.000651256
0.00157256
0.000922918
0.00197413
0.00120651
0.00243143
0.00125775
0.00263668
0.000888241
0.00201182
0.00142332
0.00501092
0.00297201
0.00983215
0.00383957
0.00384219
0.00450907
0.000668026
0.00571366
-0.000817878
0.0065139
-0.00186454
0.00666645
-0.0025831
0.00629996
-0.00293758
0.00556176
-0.00294753
0.00459701
-0.00269272
0.00352994
-0.00224808
0.00248198
-0.00172357
0.0015491
-0.00118903
0.000763917
-0.000635241
0.000192578
-0.000196858
-0.000130569
8.57378e-05
-0.000234507
0.000213599
-0.000205471
0.000248893
-0.000143731
0.000207652
-0.000144126
8.99371e-05
-0.000228938
-4.81427e-05
-0.000371756
-0.000163387
-0.000533683
-0.000240297
-0.000681432
-0.000283171
-0.000789081
-0.000304477
-0.000841912
-0.000318932
-0.000852155
-0.000341572
-0.000837502
-0.000370019
-0.000806211
-0.000392415
-0.000755678
-0.000396165
-0.000671478
-0.000369359
-0.000522674
-0.000298715
-0.000283484
-0.000161338
1.21975e-05
6.04785e-05
0.00033954
0.000323866
0.000686432
0.000575979
0.00105664
0.000836257
0.00138568
0.000928658
0.00148292
0.000790959
0.000723749
0.00218244
0.00603846
0.0104478
0.0142881
0.01294
0.00201616
0.0121179
4.2119e-06
0.0109771
-0.000723644
0.00951911
-0.00112498
0.00783447
-0.00125283
0.00606993
-0.00118292
0.00435571
-0.000978456
0.00275639
-0.000648763
0.00136256
-0.000329769
0.000212316
-3.8823e-05
-0.000593401
0.000170418
-0.00101531
0.000225013
-0.00116746
0.000237853
-0.00118881
0.000234926
-0.00115713
0.000217188
-0.00112403
0.000174529
-0.00113617
0.000102043
-0.00120451
2.01594e-05
-0.00131416
-5.37873e-05
-0.00144074
-0.000113758
-0.00156235
-0.000161615
-0.00166545
-0.000201435
-0.00174797
-0.000236461
-0.0018209
-0.000268697
-0.00189727
-0.00029371
-0.00198722
-0.000302517
-0.0021003
-0.000283148
-0.00224894
-0.000220767
-0.00245002
-9.76914e-05
-0.00271067
9.92675e-05
-0.0030307
0.000380453
-0.00347527
0.000768391
-0.00417472
0.00127538
-0.00521635
0.00187784
-0.00673329
0.00244555
-0.00862819
0.00268581
-0.00829941
0.00185362
-0.00192717
0.00464869
0.0041167
0.00323617
0.00141686
0.00328634
-0.000773806
0.00291785
-0.000756526
0.00212398
-0.000459032
0.00111886
-0.000177884
4.73218e-05
9.29961e-05
-0.000894148
0.00029261
-0.00155731
0.000333329
-0.00193352
0.000337333
-0.00208104
0.000317884
-0.00212935
0.00027328
-0.00212173
0.000230203
-0.00208536
0.000198512
-0.00204183
0.00017362
-0.00201299
0.000145641
-0.00201966
0.000108668
-0.0020662
6.66516e-05
-0.00214572
2.56723e-05
-0.00224527
-1.4261e-05
-0.00235066
-5.62803e-05
-0.00245658
-9.55746e-05
-0.00256659
-0.00012651
-0.00268787
-0.000147479
-0.00282559
-0.000156047
-0.00298051
-0.00014765
-0.00314839
-0.00011533
-0.00331834
-5.08718e-05
-0.00347204
5.59616e-05
-0.00360312
0.000230291
-0.00372092
0.000498199
-0.00383989
0.00088731
-0.00397284
0.00140828
-0.00410923
0.00201418
-0.00420495
0.00254122
-0.00409147
0.00257228
-0.00250283
0.000264921
-0.00434348
-0.000662143
0.00486208
-0.000202722
0.000957364
-0.00116466
0.000188033
-0.00200553
8.42311e-05
-0.00261756
0.000152898
-0.00302978
0.000234242
-0.0032387
0.000301828
-0.00328397
0.000337811
-0.00327018
0.000319476
-0.00320777
0.000274864
-0.00311518
0.000225243
-0.00302231
0.000180358
-0.00293969
0.000147533
-0.00286752
0.000126289
-0.00280542
0.000111467
-0.00275657
9.67407e-05
-0.0027264
7.84377e-05
-0.00271691
5.71022e-05
-0.00272556
3.42642e-05
-0.00274943
9.54288e-06
-0.00278705
-1.87212e-05
-0.00283907
-4.36165e-05
-0.00290416
-6.14774e-05
-0.00298048
-7.12165e-05
-0.00306454
-7.20454e-05
-0.00315022
-6.20257e-05
-0.00322809
-3.75177e-05
-0.00328619
7.16608e-06
-0.0033053
7.502e-05
-0.00325745
0.000182383
-0.00310849
0.000349186
-0.00281979
0.000598562
-0.00237265
0.00096108
-0.00176989
0.00141137
-0.000809299
0.00158058
0.000814714
0.000948216
0.00158278
-0.000503202
-0.00266528
-0.00857802
-0.0118992
-0.00698102
-0.00599705
-0.00579236
-0.00569499
-0.00553082
-0.00528644
-0.00497513
-0.00462816
-0.00429961
-0.00401567
-0.00378136
-0.00359195
-0.00343538
-0.00330004
-0.00317942
-0.00307336
-0.00298535
-0.00291838
-0.002874
-0.00285414
-0.00286245
-0.00289562
-0.00294666
-0.00300751
-0.00306929
-0.00312118
-0.00314873
-0.00313179
-0.00304724
-0.00285559
-0.00249743
-0.00189022
-0.000920826
0.000498464
0.00208652
0.00304214
0.00254664
)
;

boundaryField
{
    floor
    {
        type            calculated;
        value           nonuniform List<scalar> 
36
(
0
0
0
0
0
0
0
0
0
0
0
0
0
0
0
0
0
0
0
-4.78768e-06
-1.27754e-05
-1.96606e-05
-2.53762e-05
-2.48046e-05
-2.36474e-05
-2.31991e-05
-2.77549e-06
-4.4787e-06
-5.04055e-06
-5.79736e-06
-3.81956e-06
-8.773e-06
-1.15553e-05
-1.28104e-05
-1.45497e-05
-1.35425e-05
)
;
    }
    ceiling
    {
        type            calculated;
        value           nonuniform List<scalar> 
43
(
-5.97089e-05
-5.7804e-05
-5.62405e-05
-2.67316e-05
-1.67556e-05
-1.32314e-05
-1.13621e-05
-1.02164e-05
-9.55093e-06
-9.22829e-06
-9.13806e-06
-9.13363e-06
-9.12899e-06
-9.11004e-06
-9.09698e-06
-9.11959e-06
-9.20798e-06
-9.38226e-06
-9.63635e-06
-9.92624e-06
-1.0188e-05
-1.03761e-05
-1.0477e-05
-1.05094e-05
-1.04904e-05
-1.04285e-05
-1.0329e-05
-1.01952e-05
-1.00286e-05
-9.82788e-06
-9.58899e-06
-9.32174e-06
-9.02795e-06
-8.70914e-06
-8.36499e-06
-7.96945e-06
-7.53719e-06
-7.44903e-06
-7.75831e-06
-7.39123e-06
4.10604e-06
1.92116e-06
-8.32196e-05
)
;
    }
    sWall
    {
        type            calculated;
        value           uniform -0.000279758;
    }
    nWall
    {
        type            calculated;
        value           nonuniform List<scalar> 6(-6.34679e-05 -6.4807e-05 -6.45151e-05 -8.65695e-05 -9.5476e-05 -0.000111307);
    }
    sideWalls
    {
        type            empty;
        value           nonuniform 0();
    }
    glass1
    {
        type            calculated;
        value           nonuniform List<scalar> 9(-6.08971e-05 -0.000164228 -0.000251693 -0.000326671 -0.000390752 -0.000445049 -0.000494613 -0.000553881 -0.000619736);
    }
    glass2
    {
        type            calculated;
        value           nonuniform List<scalar> 2(-0.000303834 -0.000333828);
    }
    sun
    {
        type            calculated;
        value           uniform 0;
    }
    Table_master
    {
        type            calculated;
        value           nonuniform List<scalar> 9(-1.53868e-07 -1.54057e-07 -1.54115e-07 -1.54148e-07 -1.54169e-07 -1.5418e-07 -1.5418e-07 -1.54166e-07 -1.54119e-07);
    }
    Table_slave
    {
        type            calculated;
        value           nonuniform List<scalar> 9(1.53716e-07 1.53703e-07 1.53643e-07 1.53596e-07 1.53566e-07 1.5356e-07 1.53563e-07 1.53602e-07 1.53694e-07);
    }
    inlet
    {
        type            calculated;
        value           uniform -0.00674916;
    }
    outlet
    {
        type            calculated;
        value           nonuniform List<scalar> 2(0.00891738 0.00337894);
    }
}


// ************************************************************************* //
