// -*- C++ -*-
// File generated by PyFoam - sorry for the ugliness

FoamFile
{
 version 2.0;
 format ascii;
 class volVectorField;
 location "1200";
 object U;
}

dimensions [ 0 1 -1 0 0 0 0 ];

internalField nonuniform List<vector> 458
(
  (0.0265407 0.0911993 0)
  (-0.179074 0.0279604 0)
  (-0.208118 0.0166094 0)
  (-0.238189 0.00810451 0)
  (-0.254993 -0.00110989 0)
  (-0.256444 -0.0108351 0)
  (-0.241165 -0.0210733 0)
  (-0.210672 -0.0307943 0)
  (-0.168218 -0.0382007 0)
  (-0.119221 -0.0421771 0)
  (-0.069874 -0.0423742 0)
  (-0.0265237 -0.0384324 0)
  (0.0153029 -0.02136 0)
  (0.0286425 -0.00368499 0)
  (0.0143051 0.0240155 0)
  (-0.0126704 0.0100249 0)
  (-0.0355571 -0.0209519 0)
  (-0.00781819 -0.0350726 0)
  (0.0254441 -0.029857 0)
  (0.0494843 -0.0215244 0)
  (0.0671967 -0.0118504 0)
  (0.0774312 -0.0066766 0)
  (0.0817322 -0.00477531 0)
  (0.0832727 -0.00403978 0)
  (0.0840081 -0.0035702 0)
  (0.0843792 -0.00318078 0)
  (0.0842809 -0.00275468 0)
  (0.0834443 -0.00206985 0)
  (0.0811907 -0.00067452 0)
  (0.0760681 0.00205489 0)
  (0.0664239 0.00540745 0)
  (0.0541667 0.00951329 0)
  (-0.00178322 0.0267858 0)
  (0.20199 0.187261 0)
  (-0.163362 0.0763166 0)
  (-0.167051 0.0551481 0)
  (-0.198534 0.0372236 0)
  (-0.215854 0.0166381 0)
  (-0.21817 -0.00649855 0)
  (-0.204092 -0.0309729 0)
  (-0.176222 -0.052776 0)
  (-0.138598 -0.0678066 0)
  (-0.0966235 -0.0742429 0)
  (-0.0555043 -0.0721633 0)
  (-0.019659 -0.0619133 0)
  (0.0119002 -0.0397062 0)
  (0.0342718 -0.0139139 0)
  (0.0504114 0.0150981 0)
  (0.0697041 0.0290656 0)
  (0.0663211 0.0469621 0)
  (-0.0119058 0.0782316 0)
  (0.0623118 0.0441653 0)
  (0.0205575 -0.0275348 0)
  (0.0358011 -0.0449943 0)
  (0.05308 -0.0423274 0)
  (0.0682327 -0.0324446 0)
  (0.0765632 -0.0141203 0)
  (0.0786114 -0.00308191 0)
  (0.0784792 0.000963528 0)
  (0.0785358 0.00235455 0)
  (0.0788822 0.00307179 0)
  (0.079147 0.00357635 0)
  (0.0792035 0.00409971 0)
  (0.0790186 0.00511563 0)
  (0.078008 0.00767776 0)
  (0.0734911 0.014603 0)
  (0.0623258 0.0214473 0)
  (0.0530237 0.0284781 0)
  (-0.0435104 0.0566777 0)
  (0.362943 0.279751 0)
  (-0.175289 0.120055 0)
  (-0.12573 0.0885739 0)
  (-0.156553 0.0578112 0)
  (-0.172493 0.0238081 0)
  (-0.173669 -0.0139737 0)
  (-0.158181 -0.052849 0)
  (-0.130924 -0.0857491 0)
  (-0.0972271 -0.106315 0)
  (-0.0621806 -0.112972 0)
  (-0.029469 -0.106863 0)
  (-0.00163103 -0.0894653 0)
  (0.0213192 -0.0623071 0)
  (0.0398406 -0.0330905 0)
  (0.0548093 -0.00765527 0)
  (0.0620204 0.00666556 0)
  (0.0593726 0.0271613 0)
  (-0.0148851 0.0713789 0)
  (0.123879 -0.0182928 0)
  (0.0772087 -0.0445506 0)
  (0.072463 -0.0536037 0)
  (0.0778641 -0.0518656 0)
  (0.084389 -0.0465722 0)
  (0.0878377 -0.0336782 0)
  (0.0770229 -0.021153 0)
  (0.0685515 -0.0145361 0)
  (0.0654683 -0.010902 0)
  (0.0647326 -0.00856798 0)
  (0.0645016 -0.00696015 0)
  (0.0646268 -0.00565913 0)
  (0.0657569 -0.00406539 0)
  (0.0693058 0.000357133 0)
  (0.0684637 0.0202625 0)
  (0.0558054 0.0347709 0)
  (0.0562938 0.0478398 0)
  (-0.0817339 0.087909 0)
  (0.509161 0.353971 0)
  (-0.205681 0.158278 0)
  (-0.0824862 0.117761 0)
  (-0.111524 0.0763295 0)
  (-0.122896 0.0309182 0)
  (-0.118095 -0.0213687 0)
  (-0.0979288 -0.0748545 0)
  (-0.0710242 -0.116739 0)
  (-0.0429804 -0.139872 0)
  (-0.0170476 -0.144804 0)
  (0.00581982 -0.133841 0)
  (0.0235864 -0.111163 0)
  (0.0381376 -0.0807147 0)
  (0.0505261 -0.0478744 0)
  (0.0606657 -0.0175499 0)
  (0.0676785 0.00751168 0)
  (0.0778412 0.0331995 0)
  (0.0739478 0.0666139 0)
  (0.11789 0.0673144 0)
  (0.113709 -0.00578338 0)
  (0.0973933 -0.0383828 0)
  (0.0890593 -0.0485729 0)
  (0.0830723 -0.0487544 0)
  (0.0754497 -0.0426957 0)
  (0.0749346 -0.0253337 0)
  (0.0878453 -0.0162704 0)
  (0.0981411 -0.0114857 0)
  (0.103841 -0.00861116 0)
  (0.106967 -0.00631788 0)
  (0.10808 -0.00393786 0)
  (0.105779 -0.000927249 0)
  (0.0985287 0.00322829 0)
  (0.083847 0.00930073 0)
  (0.0670406 0.0307334 0)
  (0.0532739 0.0500359 0)
  (0.0659364 0.0689135 0)
  (-0.102626 0.117901 0)
  (0.636832 0.411033 0)
  (-0.24537 0.188663 0)
  (-0.040022 0.135147 0)
  (-0.0640635 0.0872044 0)
  (-0.0671193 0.0329282 0)
  (-0.0466054 -0.0340017 0)
  (-0.0204955 -0.0986543 0)
  (0.00344553 -0.143548 0)
  (0.022146 -0.163701 0)
  (0.0357542 -0.163806 0)
  (0.0453001 -0.148893 0)
  (0.0516978 -0.123097 0)
  (0.0563064 -0.0905518 0)
  (0.0602679 -0.0562509 0)
  (0.0642665 -0.0244574 0)
  (0.0691115 0.00270478 0)
  (0.0778363 0.0253332 0)
  (0.0900164 0.0339359 0)
  (0.104243 0.00337799 0)
  (0.102302 -0.0250363 0)
  (0.093388 -0.0377609 0)
  (0.0826945 -0.0418242 0)
  (0.0726194 -0.0404657 0)
  (0.0639908 -0.0334658 0)
  (0.0614054 -0.018775 0)
  (0.0651046 -0.0101752 0)
  (0.0695357 -0.00660113 0)
  (0.0731225 -0.00468895 0)
  (0.0762383 -0.00242155 0)
  (0.0788053 0.00130565 0)
  (0.0797977 0.00684775 0)
  (0.0781067 0.014523 0)
  (0.0733817 0.0250626 0)
  (0.0671242 0.0420255 0)
  (0.0598184 0.0607564 0)
  (0.0868875 0.0824377 0)
  (0.0246014 0.11581 0)
  (0.10047 0.143129 0)
  (0.127345 0.157026 0)
  (-0.174834 0.193594 0)
  (0.731917 0.457655 0)
  (-0.285865 0.207853 0)
  (-0.00624298 0.13156 0)
  (-0.0130499 0.0867759 0)
  (0.000780011 0.0212113 0)
  (0.045305 -0.0618864 0)
  (0.0710764 -0.122682 0)
  (0.0862257 -0.159291 0)
  (0.0921791 -0.173322 0)
  (0.091214 -0.168683 0)
  (0.0856572 -0.150181 0)
  (0.0778125 -0.122391 0)
  (0.0696164 -0.0892922 0)
  (0.0627361 -0.055543 0)
  (0.058289 -0.0252227 0)
  (0.0572103 -0.000876165 0)
  (0.0609117 0.0159296 0)
  (0.0696837 0.0187782 0)
  (0.0763021 0.00302018 0)
  (0.0745727 -0.0135297 0)
  (0.066666 -0.0249187 0)
  (0.0563971 -0.0302867 0)
  (0.0464379 -0.0305403 0)
  (0.0382703 -0.0262434 0)
  (0.0342265 -0.0183225 0)
  (0.0347245 -0.0131449 0)
  (0.0374191 -0.0109722 0)
  (0.0410082 -0.00966861 0)
  (0.0451979 -0.00752918 0)
  (0.0497212 -0.00327825 0)
  (0.0546445 0.00399436 0)
  (0.0581269 0.0140333 0)
  (0.0605072 0.0266354 0)
  (0.0632904 0.0423367 0)
  (0.065749 0.0593026 0)
  (0.0879399 0.0787901 0)
  (0.081128 0.0840742 0)
  (0.0990071 0.0331182 0)
  (0.126772 -0.0161331 0)
  (-0.212301 0.0965399 0)
  (0.796242 0.499859 0)
  (-0.305423 0.190207 0)
  (0.0304793 0.0726537 0)
  (0.0628538 0.04227 0)
  (0.116252 -0.0261729 0)
  (0.153924 -0.0939607 0)
  (0.172249 -0.140556 0)
  (0.173974 -0.164321 0)
  (0.162713 -0.168369 0)
  (0.142706 -0.156878 0)
  (0.11824 -0.134796 0)
  (0.0931767 -0.106434 0)
  (0.0700432 -0.074689 0)
  (0.0510851 -0.0436659 0)
  (0.0374322 -0.0171674 0)
  (0.029559 0.00206611 0)
  (0.0295354 0.0125693 0)
  (0.0342941 0.0130327 0)
  (0.0373355 0.00347063 0)
  (0.0355048 -0.00800596 0)
  (0.0291193 -0.0167505 0)
  (0.0205211 -0.0213015 0)
  (0.0118455 -0.0221543 0)
  (0.00469124 -0.020163 0)
  (0.000768994 -0.0165969 0)
  (0.000454624 -0.0144529 0)
  (0.00240006 -0.013966 0)
  (0.00560497 -0.0137825 0)
  (0.0098004 -0.0126056 0)
  (0.0150446 -0.00924481 0)
  (0.021924 -0.00236166 0)
  (0.0310045 0.00844346 0)
  (0.0393853 0.020959 0)
  (0.0489294 0.0346092 0)
  (0.0591133 0.0481787 0)
  (0.0785615 0.0629437 0)
  (0.0921684 0.0645566 0)
  (0.108219 0.0410373 0)
  (0.162079 0.0483834 0)
  (-0.145587 0.156767 0)
  (0.906985 0.495843 0)
  (-0.044965 0.167128 0)
  (0.127213 -0.0185841 0)
  (0.230281 -0.0776005 0)
  (0.277677 -0.108461 0)
  (0.291399 -0.133393 0)
  (0.283438 -0.148493 0)
  (0.257826 -0.151119 0)
  (0.219453 -0.142234 0)
  (0.174097 -0.123937 0)
  (0.12746 -0.100013 0)
  (0.0843076 -0.0736921 0)
  (0.0466622 -0.0461458 0)
  (0.0180594 -0.0209761 0)
  (-0.00145545 -0.00187588 0)
  (-0.00973537 0.00807321 0)
  (-0.00981352 0.0116559 0)
  (-0.00693314 0.0101128 0)
  (-0.00549496 0.00365241 0)
  (-0.00730606 -0.00398382 0)
  (-0.0125276 -0.00995084 0)
  (-0.0194791 -0.0134096 0)
  (-0.0264485 -0.0147836 0)
  (-0.0321177 -0.0148662 0)
  (-0.035516 -0.0145998 0)
  (-0.0366874 -0.0150188 0)
  (-0.0364769 -0.0160348 0)
  (-0.0354945 -0.016985 0)
  (-0.0338541 -0.0172052 0)
  (-0.0312822 -0.0160804 0)
  (-0.0270151 -0.0129194 0)
  (-0.0188349 -0.00691544 0)
  (-0.00505788 0.00201066 0)
  (0.0082307 0.0115937 0)
  (0.0215617 0.0180145 0)
  (0.0389136 0.023328 0)
  (0.053352 0.0166938 0)
  (0.0649249 -0.00375722 0)
  (0.150053 0.0631785 0)
  (-0.486105 0.260724 0)
  (1.06233 0.433474 0)
  (0.508315 0.282329 0)
  (0.522033 0.166647 0)
  (0.548049 0.0699566 0)
  (0.509473 -0.000252821 0)
  (0.444328 -0.0491321 0)
  (0.372581 -0.0767021 0)
  (0.297909 -0.0856068 0)
  (0.222658 -0.0806795 0)
  (0.150342 -0.0659608 0)
  (0.0858489 -0.0466413 0)
  (0.0319007 -0.0261846 0)
  (-0.0144173 -0.00592664 0)
  (-0.0383358 0.00445686 0)
  (-0.0486723 0.00882657 0)
  (-0.0513205 0.0102511 0)
  (-0.0504413 0.00995695 0)
  (-0.0485435 0.00787251 0)
  (-0.0480214 0.00391862 0)
  (-0.0498141 -0.000513785 0)
  (-0.0537901 -0.004304 0)
  (-0.0591722 -0.00712275 0)
  (-0.0647198 -0.00918464 0)
  (-0.0696145 -0.0108322 0)
  (-0.0735143 -0.0123683 0)
  (-0.0767136 -0.0139798 0)
  (-0.0798215 -0.0154554 0)
  (-0.0833364 -0.0163666 0)
  (-0.0876356 -0.0161892 0)
  (-0.0931438 -0.0142869 0)
  (-0.100502 -0.00985183 0)
  (-0.110625 -0.0019287 0)
  (-0.122837 0.00996013 0)
  (-0.137124 0.0257029 0)
  (-0.161078 0.0460285 0)
  (-0.197925 0.0710624 0)
  (-0.249943 0.098102 0)
  (-0.308896 0.123893 0)
  (-0.383722 0.144456 0)
  (-0.69014 0.157376 0)
  (-0.149134 0.0394156 0)
  (0.0878119 -0.0292718 0)
  (0.16696 -0.0687173 0)
  (0.142974 -0.0641729 0)
  (0.109576 -0.0484528 0)
  (0.071578 -0.0314438 0)
  (0.028015 -0.014598 0)
  (-0.0222013 0.00197802 0)
  (-0.0558317 0.00986046 0)
  (-0.077702 0.0133565 0)
  (-0.087805 0.0132167 0)
  (-0.091454 0.0111147 0)
  (-0.091842 0.00914646 0)
  (-0.0905474 0.00747751 0)
  (-0.0885444 0.00580052 0)
  (-0.086747 0.00361278 0)
  (-0.0862231 0.000608583 0)
  (-0.0875016 -0.00280207 0)
  (-0.090266 -0.0060639 0)
  (-0.0942454 -0.00882496 0)
  (-0.0987937 -0.0109506 0)
  (-0.103341 -0.0125731 0)
  (-0.107905 -0.0137403 0)
  (-0.112803 -0.0144818 0)
  (-0.118349 -0.0146516 0)
  (-0.124682 -0.0139136 0)
  (-0.131733 -0.0117705 0)
  (-0.139195 -0.00761876 0)
  (-0.146445 -0.000828779 0)
  (-0.15249 0.00892916 0)
  (-0.157212 0.0221888 0)
  (-0.161392 0.039905 0)
  (-0.166351 0.0618275 0)
  (-0.173071 0.0849054 0)
  (-0.178489 0.09918 0)
  (-0.170834 0.0818194 0)
  (-0.155237 -0.0114947 0)
  (-0.285456 -0.224768 0)
  (0.0348756 0.215239 0)
  (0.0205082 0.0568775 0)
  (-0.0306715 -0.000159503 0)
  (-0.0690914 0.00291984 0)
  (-0.100587 0.0134918 0)
  (-0.122871 0.0221178 0)
  (-0.135452 0.0283608 0)
  (-0.140543 0.0310989 0)
  (-0.141656 0.0304411 0)
  (-0.139872 0.0289164 0)
  (-0.136129 0.0271173 0)
  (-0.131961 0.0253021 0)
  (-0.128125 0.0243344 0)
  (-0.124737 0.0244669 0)
  (-0.121759 0.0255384 0)
  (-0.119291 0.0272204 0)
  (-0.1176 0.0291908 0)
  (-0.116831 0.0311649 0)
  (-0.116898 0.03266 0)
  (-0.117629 0.0329885 0)
  (-0.118923 0.0316517 0)
  (-0.120838 0.0294955 0)
  (-0.123357 0.0272426 0)
  (-0.126429 0.0251374 0)
  (-0.12994 0.0232955 0)
  (-0.133689 0.0218073 0)
  (-0.137377 0.0207741 0)
  (-0.140566 0.0203012 0)
  (-0.142493 0.0206325 0)
  (-0.142013 0.0235647 0)
  (-0.137428 0.0305556 0)
  (-0.127028 0.0428769 0)
  (-0.110163 0.0613009 0)
  (-0.0878524 0.0840715 0)
  (-0.0616214 0.103117 0)
  (-0.0338616 0.102004 0)
  (0.138138 0.0194736 0)
  (-0.211496 -0.136934 0)
  (-0.146125 -0.375366 0)
  (-0.47643 -0.140423 0)
  (-0.347576 0.0654055 0)
  (-0.300864 -0.0390568 0)
  (-0.257763 -0.0463383 0)
  (-0.248241 -0.0399986 0)
  (-0.24175 -0.0343314 0)
  (-0.232834 -0.0308612 0)
  (-0.220592 -0.029404 0)
  (-0.20618 -0.0304134 0)
  (-0.191684 -0.0339525 0)
  (-0.178523 -0.0382032 0)
  (-0.167376 -0.0424084 0)
  (-0.158329 -0.0465855 0)
  (-0.15096 -0.0508115 0)
  (-0.144702 -0.0553929 0)
  (-0.139173 -0.0607819 0)
  (-0.13427 -0.0672916 0)
  (-0.130085 -0.0747417 0)
  (-0.126735 -0.0822839 0)
  (-0.124303 -0.0886965 0)
  (-0.122903 -0.092918 0)
  (-0.122681 -0.0943688 0)
  (-0.123638 -0.0937143 0)
  (-0.125532 -0.0917257 0)
  (-0.128039 -0.0887017 0)
  (-0.130803 -0.0847743 0)
  (-0.133405 -0.0799132 0)
  (-0.135314 -0.0739217 0)
  (-0.135866 -0.0664061 0)
  (-0.134166 -0.0569486 0)
  (-0.128485 -0.0462087 0)
  (-0.115927 -0.0337832 0)
  (-0.0931445 -0.0188063 0)
  (-0.0586407 -1.10274e-05 0)
  (-0.0120612 0.024128 0)
  (0.0517902 0.0405416 0)
  (0.103473 0.0232742 0)
  (0.173304 -0.0228734 0)
  (-0.176993 -0.0985641 0)
)
;

boundaryField
{
  floor
  {
    type noSlip;
  }
  ceiling
  {
    type noSlip;
  }
  sWall
  {
    type noSlip;
  }
  nWall
  {
    type noSlip;
  }
  sideWalls
  {
    type empty;
  }
  glass1
  {
    type noSlip;
  }
  glass2
  {
    type noSlip;
  }
  sun
  {
    type noSlip;
  }
  Table_master
  {
    type noSlip;
  }
  Table_slave
  {
    type noSlip;
  }
  inlet
  {
    type fixedValue;
    value uniform (0.0382683 -0.092388 0);
  }
  outlet
  {
    type zeroGradient;
  }
} 	// ************************************************************************* //

