/*--------------------------------*- C++ -*----------------------------------*\
  =========                 |
  \\      /  F ield         | OpenFOAM: The Open Source CFD Toolbox
   \\    /   O peration     | Website:  https://openfoam.org
    \\  /    A nd           | Version:  6
     \\/     M anipulation  |
\*---------------------------------------------------------------------------*/
FoamFile
{
    version     2.0;
    format      ascii;
    class       volScalarField;
    location    "1300";
    object      k;
}
// * * * * * * * * * * * * * * * * * * * * * * * * * * * * * * * * * * * * * //

dimensions      [0 2 -2 0 0 0 0];

internalField   nonuniform List<scalar> 
458
(
0.000975435
0.0010369
0.000937034
0.00100525
0.00107306
0.00113585
0.00119418
0.00124962
0.00130438
0.00136174
0.00141124
0.00144791
0.00147129
0.00148643
0.00149367
0.00033092
0.000481863
0.000493758
0.000394804
0.000277859
0.000152213
9.58803e-05
9.73041e-05
0.000106737
0.000113379
0.000109091
9.90427e-05
8.74564e-05
9.56841e-05
0.000162649
0.000230468
0.000239493
0.000202559
0.00264418
0.00512345
0.00146585
0.00142789
0.00148935
0.00156642
0.00164971
0.00174108
0.00184153
0.00194847
0.00205108
0.0021243
0.00213627
0.0020446
0.00183311
0.00166633
0.00152
0.000803845
0.000595191
0.00100494
0.000898285
0.000790198
0.000618269
0.000410635
0.000312761
0.000278828
0.000278193
0.000274591
0.000245992
0.000195137
0.000142149
0.000137245
0.000366908
0.000622054
0.000871743
0.000427701
0.00485248
0.01193
0.00221627
0.00181353
0.00185096
0.00194033
0.00204038
0.00215186
0.00227562
0.00240743
0.0025355
0.00262607
0.00264971
0.00258793
0.00244959
0.00226953
0.00201574
0.0017319
0.00119873
0.00184169
0.00128445
0.00105121
0.000939619
0.000453301
0.000329327
0.000270554
0.000233927
0.000206544
0.000183717
0.000161904
0.000140705
0.000164671
0.000789901
0.00133174
0.00126391
0.000498831
0.00769623
0.0223724
0.00357872
0.00214626
0.00213535
0.00225177
0.00238345
0.00252592
0.00268104
0.00284711
0.00301522
0.00314
0.00319175
0.00315959
0.0030403
0.00283196
0.00254247
0.00216734
0.00178345
0.00172673
0.00125257
0.000995292
0.000848219
0.000766217
0.000738877
0.000755672
0.000805539
0.000898471
0.00104639
0.00115894
0.00125627
0.00130593
0.00126892
0.00124715
0.00140566
0.0019574
0.0013246
0.0111012
0.0357303
0.00652205
0.00254566
0.00236236
0.00249155
0.00266459
0.00286011
0.00307839
0.003319
0.00356352
0.00374292
0.00383056
0.00383265
0.00375817
0.00361696
0.00342709
0.00316031
0.00266639
0.00191943
0.00142742
0.00115642
0.00105211
0.00104353
0.00108183
0.0011464
0.0012637
0.00145365
0.00174537
0.00200757
0.00224919
0.00239678
0.00238629
0.0021515
0.0019305
0.00191097
0.00191323
0.00166212
0.00142643
0.0015673
0.0150597
0.0487237
0.0133051
0.00388073
0.00282137
0.00280242
0.00297492
0.00321599
0.00350263
0.0038461
0.00417898
0.00437776
0.00444155
0.00440823
0.00430632
0.00415129
0.00392946
0.00355822
0.00297361
0.00229197
0.00173151
0.0013773
0.00119706
0.00111749
0.00109862
0.00113585
0.00124309
0.00145039
0.00183008
0.00225459
0.00266711
0.00300019
0.0031953
0.00314582
0.00277001
0.00242285
0.00219061
0.00197255
0.00196239
0.00162682
0.0193574
0.0570603
0.0268021
0.0106507
0.00552962
0.00410953
0.00389938
0.00404517
0.00431712
0.00472752
0.0050276
0.00511052
0.00503753
0.00487556
0.00466371
0.00442378
0.00414372
0.00375047
0.00319867
0.00256789
0.00200363
0.0015965
0.00134892
0.00120661
0.00113409
0.0011254
0.0011933
0.00141784
0.00189238
0.00244463
0.00300064
0.00350688
0.00395246
0.00432456
0.0042141
0.00388225
0.00363593
0.00335461
0.00344241
0.00239711
0.0203664
0.0618833
0.0406665
0.0297665
0.0192683
0.0121991
0.00869474
0.00722818
0.00671604
0.0065425
0.00628659
0.00596041
0.00560235
0.00523272
0.00485996
0.00448886
0.00411375
0.00369851
0.00320778
0.00267032
0.00216802
0.0017633
0.00149719
0.00133885
0.00125226
0.00120218
0.00118926
0.00140716
0.00203201
0.00271428
0.00334049
0.00395264
0.00462332
0.00546655
0.00661933
0.00755106
0.00847275
0.00849777
0.0121238
0.00413601
0.0192982
0.0274843
0.0279301
0.0250815
0.0214366
0.0173137
0.0137862
0.011208
0.00948248
0.00824387
0.00730095
0.00655038
0.00591764
0.00535523
0.00483573
0.00434615
0.00388012
0.00342791
0.00297958
0.0025426
0.00214524
0.00182014
0.00159265
0.00146807
0.0014227
0.00135829
0.00119895
0.00133118
0.00211066
0.00290512
0.00351485
0.00405357
0.00456931
0.00505772
0.00550998
0.00593209
0.00623704
0.00633149
0.00642576
0.00390325
0.0160405
0.0295573
0.0224115
0.0181236
0.0148388
0.0122887
0.0103528
0.0088693
0.00768692
0.00671696
0.00589922
0.00518914
0.00455729
0.00398685
0.00347006
0.00300397
0.00258811
0.00222575
0.0019254
0.00170025
0.00156622
0.00153426
0.00158292
0.00156011
0.00119235
0.00109812
0.00191885
0.00279446
0.00333743
0.00380787
0.00428309
0.00472713
0.00509471
0.00527661
0.00516635
0.00476629
0.00422315
0.00270832
0.0137274
0.0275577
0.0210603
0.0171645
0.0143041
0.0120138
0.0101218
0.00857487
0.00730897
0.00622434
0.00529437
0.00449792
0.00381398
0.00322546
0.00272044
0.00229218
0.00193795
0.00165761
0.00145269
0.0013262
0.00128139
0.00131354
0.00138124
0.00135831
0.00108882
0.000815036
0.00136134
0.0019593
0.00237533
0.0028968
0.00355692
0.00429231
0.00503174
0.00559926
0.00575576
0.00565723
0.00441033
0.00279772
0.00863201
0.0101285
0.011519
0.012974
0.0112263
0.00982249
0.00820459
0.0069882
0.00596397
0.00509374
0.00434821
0.00375301
0.00325729
0.00282695
0.00244481
0.00210251
0.00179671
0.00152696
0.00129417
0.00109929
0.000942389
0.000822351
0.000737428
0.000685412
0.000660539
0.000644203
0.00060776
0.000583807
0.000765679
0.000925556
0.0010844
0.00129395
0.00158989
0.00201531
0.00251411
0.00314754
0.00339043
0.00323576
0.002738
0.00230444
)
;

boundaryField
{
    floor
    {
        type            kqRWallFunction;
        value           nonuniform List<scalar> 
36
(
0.00149367
0.00033092
0.000481863
0.000493758
0.000394804
0.000277859
0.000152213
9.58803e-05
9.73041e-05
0.000106737
0.000113379
0.000109091
9.90427e-05
8.74564e-05
9.56841e-05
0.000162649
0.000230468
0.000239493
0.000202559
0.000202559
0.000427701
0.000498831
0.0013246
0.00166212
0.00142643
0.0015673
0.00149367
0.00166633
0.00152
0.000803845
0.00033092
0.000803845
0.000595191
0.0017319
0.00119873
0.00178345
)
;
    }
    ceiling
    {
        type            kqRWallFunction;
        value           nonuniform List<scalar> 
43
(
0.00863201
0.0101285
0.011519
0.012974
0.0112263
0.00982249
0.00820459
0.0069882
0.00596397
0.00509374
0.00434821
0.00375301
0.00325729
0.00282695
0.00244481
0.00210251
0.00179671
0.00152696
0.00129417
0.00109929
0.000942389
0.000822351
0.000737428
0.000685412
0.000660539
0.000644203
0.00060776
0.000583807
0.000765679
0.000925556
0.0010844
0.00129395
0.00158989
0.00201531
0.00251411
0.00314754
0.00339043
0.00323576
0.002738
0.00230444
0.0192982
0.0274843
0.0137274
)
;
    }
    sWall
    {
        type            kqRWallFunction;
        value           uniform 0.00863201;
    }
    nWall
    {
        type            kqRWallFunction;
        value           nonuniform List<scalar> 6(0.0015673 0.00162682 0.00239711 0.00270832 0.00279772 0.00230444);
    }
    sideWalls
    {
        type            empty;
    }
    glass1
    {
        type            kqRWallFunction;
        value           nonuniform List<scalar> 9(0.000975435 0.00264418 0.00485248 0.00769623 0.0111012 0.0150597 0.0193574 0.0203664 0.0192982);
    }
    glass2
    {
        type            kqRWallFunction;
        value           nonuniform List<scalar> 2(0.00413601 0.00390325);
    }
    sun
    {
        type            kqRWallFunction;
        value           nonuniform List<scalar> 
14
(
0.000975435
0.0010369
0.000937034
0.00100525
0.00107306
0.00113585
0.00119418
0.00124962
0.00130438
0.00136174
0.00141124
0.00144791
0.00147129
0.00148643
)
;
    }
    Table_master
    {
        type            kqRWallFunction;
        value           nonuniform List<scalar> 9(0.000453301 0.000329327 0.000270554 0.000233927 0.000206544 0.000183717 0.000161904 0.000140705 0.000164671);
    }
    Table_slave
    {
        type            kqRWallFunction;
        value           nonuniform List<scalar> 9(0.000738877 0.000755672 0.000805539 0.000898471 0.00104639 0.00115894 0.00125627 0.00130593 0.00126892);
    }
    inlet
    {
        type            turbulentIntensityKineticEnergyInlet;
        intensity       0.05;
        value           uniform 0.0003375;
    }
    outlet
    {
        type            zeroGradient;
    }
}


// ************************************************************************* //
