/*--------------------------------*- C++ -*----------------------------------*\
  =========                 |
  \\      /  F ield         | OpenFOAM: The Open Source CFD Toolbox
   \\    /   O peration     | Website:  https://openfoam.org
    \\  /    A nd           | Version:  6
     \\/     M anipulation  |
\*---------------------------------------------------------------------------*/
FoamFile
{
    version     2.0;
    format      ascii;
    class       volScalarField;
    location    "1300";
    object      T;
}
// * * * * * * * * * * * * * * * * * * * * * * * * * * * * * * * * * * * * * //

dimensions      [0 0 0 1 0 0 0];

internalField   nonuniform List<scalar> 
458
(
303.32
302.998
302.989
302.991
302.992
302.993
302.994
302.994
302.994
302.994
302.993
302.991
302.987
302.981
302.976
302.738
302.73
302.735
302.727
302.686
302.469
302.292
302.276
302.278
302.278
302.275
302.275
302.282
302.29
302.302
302.306
302.3
302.307
303.545
303.032
303.004
303.009
303.015
303.02
303.024
303.027
303.029
303.03
303.028
303.022
303.01
302.994
302.972
302.954
302.937
302.941
302.759
302.75
302.753
302.76
302.719
302.61
302.514
302.455
302.412
302.372
302.346
302.332
302.327
302.327
302.354
302.353
302.329
302.316
303.759
303.084
303.029
303.037
303.05
303.062
303.072
303.081
303.088
303.091
303.089
303.081
303.063
303.037
303.004
302.969
302.938
302.917
302.802
302.8
302.811
302.819
302.816
302.666
302.598
302.556
302.524
302.497
302.469
302.442
302.412
302.383
302.433
302.406
302.362
302.336
303.958
303.152
303.057
303.065
303.085
303.105
303.124
303.141
303.155
303.163
303.165
303.156
303.134
303.101
303.059
303.012
302.961
302.912
302.877
302.852
302.855
302.858
302.86
302.859
302.86
302.862
302.865
302.871
302.877
302.881
302.884
302.885
302.882
302.856
302.772
302.674
302.619
304.14
303.236
303.092
303.089
303.113
303.14
303.168
303.194
303.218
303.234
303.242
303.236
303.214
303.178
303.133
303.082
303.031
302.983
302.945
302.917
302.902
302.892
302.886
302.881
302.879
302.88
302.883
302.889
302.896
302.903
302.907
302.909
302.907
302.893
302.857
302.794
302.725
302.728
302.772
302.883
304.296
303.341
303.16
303.12
303.136
303.164
303.196
303.229
303.261
303.289
303.306
303.305
303.285
303.249
303.202
303.15
303.097
303.048
303.006
302.972
302.946
302.926
302.911
302.9
302.894
302.892
302.895
302.901
302.909
302.918
302.925
302.928
302.926
302.916
302.893
302.853
302.806
302.779
302.774
302.799
304.422
303.514
303.338
303.237
303.195
303.199
303.222
303.251
303.285
303.322
303.35
303.355
303.336
303.3
303.254
303.203
303.152
303.104
303.061
303.023
302.991
302.962
302.939
302.92
302.908
302.902
302.903
302.909
302.919
302.93
302.939
302.943
302.941
302.932
302.911
302.882
302.847
302.818
302.798
302.813
304.638
303.956
303.776
303.603
303.459
303.373
303.336
303.33
303.342
303.369
303.386
303.382
303.358
303.322
303.278
303.231
303.185
303.141
303.1
303.063
303.029
302.997
302.968
302.943
302.923
302.912
302.909
302.915
302.925
302.939
302.949
302.954
302.954
302.947
302.932
302.901
302.876
302.856
302.843
302.971
304.94
304.647
304.355
304.112
303.903
303.743
303.631
303.557
303.513
303.482
303.443
303.398
303.351
303.305
303.26
303.218
303.179
303.143
303.11
303.079
303.051
303.022
302.995
302.967
302.941
302.922
302.915
302.918
302.927
302.943
302.956
302.964
302.969
302.972
302.975
302.981
302.992
303.014
303.04
303.108
297.293
301.314
302.611
303.039
303.206
303.271
303.292
303.29
303.281
303.262
303.238
303.211
303.184
303.157
303.132
303.108
303.086
303.065
303.045
303.025
303.003
302.98
302.956
302.935
302.922
302.92
302.924
302.942
302.957
302.969
302.979
302.987
302.993
303.001
303.012
303.028
303.042
303.053
298.221
301.182
302.182
302.663
302.896
303.007
303.058
303.078
303.084
303.086
303.083
303.078
303.07
303.062
303.053
303.044
303.034
303.025
303.015
303.004
302.992
302.977
302.962
302.945
302.933
302.926
302.918
302.932
302.947
302.959
302.97
302.979
302.988
302.997
303.006
303.016
303.01
303.036
300.147
300.083
300.079
301.793
302.328
302.641
302.816
302.884
302.919
302.938
302.947
302.954
302.96
302.965
302.969
302.972
302.974
302.975
302.976
302.975
302.974
302.972
302.97
302.966
302.961
302.955
302.948
302.936
302.919
302.928
302.939
302.948
302.957
302.966
302.975
302.985
302.991
302.995
302.993
303.026
)
;

boundaryField
{
    floor
    {
        type            wallHeatTransfer;
        Tinf            uniform 305.2;
        alphaWall       uniform 0.24;
        value           nonuniform List<scalar> 
36
(
303.252
303.251
303.186
303.186
303.214
303.239
303.189
303.163
303.149
303.128
303.114
303.121
303.144
303.178
303.162
303.051
302.981
302.968
303.008
303.008
302.869
302.858
302.954
303.023
303.078
303.166
303.252
303.222
303.216
303.292
303.251
303.292
303.179
303.185
303.124
303.147
)
;
    }
    ceiling
    {
        type            wallHeatTransfer;
        Tinf            uniform 303.2;
        alphaWall       uniform 0.24;
        value           nonuniform List<scalar> 
43
(
300.338
300.265
300.252
301.868
302.377
302.675
302.841
302.906
302.94
302.958
302.968
302.975
302.982
302.988
302.993
302.997
303
303.003
303.005
303.007
303.007
303.007
303.006
303.004
303.001
302.996
302.991
302.982
302.963
302.968
302.975
302.981
302.987
302.992
302.998
303.005
303.01
303.014
303.013
303.044
304.861
304.591
298.477
)
;
    }
    sWall
    {
        type            wallHeatTransfer;
        Tinf            uniform 315.2;
        alphaWall       uniform 0.36;
        value           uniform 301.518;
    }
    nWall
    {
        type            wallHeatTransfer;
        Tinf            uniform 307.2;
        alphaWall       uniform 0.36;
        value           nonuniform List<scalar> 6(303.629 303.549 303.464 303.643 303.621 303.655);
    }
    sideWalls
    {
        type            empty;
    }
    glass1
    {
        type            wallHeatTransfer;
        Tinf            uniform 315.2;
        alphaWall       uniform 4.3;
        value           nonuniform List<scalar> 9(312.309 311.369 310.755 310.289 309.932 309.642 309.41 309.469 309.694);
    }
    glass2
    {
        type            wallHeatTransfer;
        Tinf            uniform 307.2;
        alphaWall       uniform 4.3;
        value           nonuniform List<scalar> 2(305.611 305.687);
    }
    sun
    {
        type            wallHeatTransfer;
        Tinf            uniform 305.2;
        alphaWall       uniform 0.24;
        value           nonuniform List<scalar> 
14
(
303.592
303.31
303.314
303.307
303.301
303.296
303.291
303.287
303.282
303.278
303.273
303.268
303.263
303.257
)
;
    }
    Table_master
    {
        type            zeroGradient;
    }
    Table_slave
    {
        type            zeroGradient;
    }
    inlet
    {
        type            fixedValue;
        value           uniform 292.15;
    }
    outlet
    {
        type            zeroGradient;
    }
}


// ************************************************************************* //
