/*--------------------------------*- C++ -*----------------------------------*\
  =========                 |
  \\      /  F ield         | OpenFOAM: The Open Source CFD Toolbox
   \\    /   O peration     | Website:  https://openfoam.org
    \\  /    A nd           | Version:  6
     \\/     M anipulation  |
\*---------------------------------------------------------------------------*/
FoamFile
{
    version     2.0;
    format      ascii;
    class       volScalarField;
    location    "2600";
    object      alphat;
}
// * * * * * * * * * * * * * * * * * * * * * * * * * * * * * * * * * * * * * //

dimensions      [1 -1 -1 0 0 0 0];

internalField   nonuniform List<scalar> 
458
(
0.00136864
0.00151318
0.00157634
0.00166202
0.00174209
0.00182056
0.0019029
0.00198425
0.00205563
0.00210777
0.00212781
0.00209908
0.0019299
0.00165956
0.00139191
0.000621129
0.000740716
0.000877185
0.000965108
0.00097726
0.000903572
0.00082359
0.000755181
0.000698418
0.000650965
0.000610973
0.000576853
0.00054711
0.000520725
0.000495875
0.000470233
0.000440128
0.0003985
0.00174079
0.00416898
0.0039905
0.00459128
0.00523756
0.00588629
0.00642973
0.00693171
0.0074735
0.00801721
0.00850636
0.00886615
0.00894247
0.00830449
0.00564059
0.00178267
0.00151573
0.00122227
0.000606974
0.001573
0.00249214
0.00317961
0.00337847
0.00227113
0.00185701
0.00158791
0.00139793
0.00125891
0.0011544
0.00107508
0.00101452
0.000940954
0.000860703
0.000782096
0.000705639
0.000416003
0.00204903
0.00566091
0.00501112
0.00581337
0.00628128
0.00661596
0.00687015
0.00717201
0.00761203
0.00821326
0.00896509
0.00975791
0.010365
0.0103246
0.00938574
0.00705857
0.00510452
0.00151192
0.000704927
0.00170703
0.00270103
0.00369422
0.00399967
0.00123355
0.00105414
0.000904906
0.000784925
0.000689113
0.000612551
0.000551229
0.000502757
0.000470835
0.000554807
0.000655288
0.000730368
0.00042166
0.00234116
0.00696745
0.00507632
0.00603889
0.00621732
0.00616954
0.00614687
0.00629108
0.00664481
0.00728362
0.00822368
0.0092636
0.0100938
0.0104375
0.0102271
0.00930987
0.00761676
0.00405278
0.00168273
0.00183234
0.00250625
0.00365524
0.00488069
0.00520022
0.00143833
0.00130485
0.00120037
0.0011151
0.00104059
0.000970784
0.000901831
0.00083066
0.000752882
0.000668185
0.000633438
0.000729152
0.000436648
0.00264096
0.00865496
0.00525034
0.00588485
0.00604779
0.0057804
0.00559793
0.00567285
0.00598207
0.00665883
0.00772353
0.00880049
0.00962754
0.0100536
0.0101047
0.00980893
0.00894008
0.00717193
0.00595223
0.00617525
0.00675545
0.00748287
0.00806192
0.00814092
0.00697907
0.00620246
0.00564712
0.00510661
0.00452865
0.00392241
0.00329041
0.0026351
0.00197579
0.00139376
0.000997974
0.000861545
0.000567302
0.000482534
0.000606284
0.000702768
0.00296938
0.0106065
0.00672764
0.00566088
0.00591444
0.0058513
0.00548552
0.00550868
0.00578391
0.00648613
0.00755806
0.00866547
0.00946444
0.00983559
0.00990984
0.0098784
0.00973146
0.00933459
0.00925957
0.00978323
0.0102479
0.0105416
0.0105612
0.0102454
0.00954731
0.00878511
0.0079962
0.00717379
0.00632612
0.00545951
0.00457471
0.00368132
0.00281012
0.00204102
0.0014735
0.00115025
0.00083813
0.000679347
0.00091467
0.000717045
0.00328605
0.0120117
0.00927836
0.0067128
0.00604556
0.0060717
0.00580773
0.00565172
0.00585508
0.00660073
0.00775152
0.00889848
0.00966355
0.00997352
0.0100832
0.0103483
0.0108108
0.0112017
0.0116508
0.0121283
0.0123302
0.0122139
0.011819
0.0111959
0.0104085
0.00955054
0.00865262
0.00773671
0.0068183
0.005911
0.00501077
0.00414295
0.00333554
0.00263025
0.002066
0.00166869
0.00133617
0.00113922
0.0010471
0.000801196
0.00336402
0.0107327
0.0094787
0.00834108
0.00745016
0.0068835
0.00615697
0.00577443
0.00604095
0.00698507
0.0082972
0.00946936
0.0101504
0.0104191
0.0107223
0.0114308
0.0120977
0.0125211
0.0128497
0.0130081
0.0128649
0.0124013
0.0116964
0.0108343
0.00990344
0.00897516
0.00806316
0.00716573
0.00628825
0.00544456
0.00465476
0.00395307
0.00336718
0.00289419
0.00247555
0.00223915
0.00210862
0.00201057
0.00263654
0.00112905
0.00329623
0.00396429
0.00448863
0.00478706
0.00485962
0.00480845
0.00482874
0.0052517
0.00627155
0.00776816
0.00928533
0.0103206
0.0107382
0.0110276
0.0115905
0.012033
0.0122828
0.0124318
0.0124467
0.0122293
0.0117289
0.0109805
0.010071
0.00909693
0.00814065
0.00724128
0.00639229
0.00557479
0.00477764
0.00400086
0.0032671
0.0026409
0.00219629
0.00194209
0.00182548
0.00179079
0.00178597
0.00176605
0.00170461
0.00121839
0.00109195
0.0019702
0.00278576
0.00362459
0.00474725
0.00633144
0.00812779
0.00978373
0.0108148
0.0110521
0.0110715
0.0110057
0.0109711
0.0109035
0.0108322
0.0107037
0.0104168
0.00991716
0.00923147
0.00844233
0.00764095
0.00689201
0.00622149
0.00562208
0.00507378
0.004561
0.00407622
0.00361786
0.00318968
0.00280144
0.00246965
0.00221842
0.00206798
0.00200804
0.00199137
0.00197303
0.00187704
0.00134079
0.00224438
0.00504209
0.00664736
0.00863293
0.0103811
0.0110546
0.0114639
0.011656
0.0111991
0.0103856
0.00959892
0.00900638
0.00860689
0.00837107
0.00821367
0.00804597
0.00781114
0.00749742
0.00713215
0.00675697
0.00640456
0.00609024
0.00581477
0.00557063
0.00534682
0.00513056
0.00490711
0.00466063
0.00437783
0.00405403
0.00369874
0.00333668
0.00300054
0.00271601
0.00248007
0.00239403
0.00291758
0.00148483
0.00282534
0.00288853
0.00295531
0.00340902
0.00326186
0.00304716
0.00276929
0.00254609
0.00242046
0.00226987
0.0021071
0.0019401
0.00180454
0.00172226
0.00168019
0.0016597
0.00164798
0.00163677
0.0016218
0.00160244
0.00158047
0.00155838
0.001538
0.00151998
0.00150387
0.00148856
0.00147266
0.00145481
0.00143382
0.00140903
0.00138058
0.00134971
0.00131875
0.00129072
0.00126809
0.00125019
0.00122718
0.00120899
0.00121573
0.00120146
)
;

boundaryField
{
    floor
    {
        type            compressible::alphatWallFunction;
        Prt             0.85;
        value           nonuniform List<scalar> 
36
(
0.000196469
8.76242e-05
0.000105258
0.000124967
0.000137471
0.000139189
0.000128736
0.000117275
0.000107367
9.90644e-05
9.20608e-05
8.611e-05
8.09954e-05
7.65063e-05
7.24987e-05
6.87011e-05
6.47573e-05
6.00918e-05
5.35726e-05
5.35719e-05
5.63239e-05
5.72102e-05
5.95512e-05
6.66574e-05
8.54358e-05
9.97322e-05
0.000196467
0.000248706
0.000213182
0.000173302
8.76232e-05
0.0001733
8.55105e-05
0.000212669
0.00010001
0.000235485
)
;
    }
    ceiling
    {
        type            compressible::alphatWallFunction;
        Prt             0.85;
        value           nonuniform List<scalar> 
43
(
0.000382628
0.000390554
0.000398912
0.000455247
0.000437125
0.000410512
0.000375756
0.000347565
0.000331581
0.000312299
0.000291303
0.000269574
0.000251788
0.000240923
0.000235346
0.000232626
0.000231067
0.000229575
0.000227582
0.000224999
0.000222064
0.000219107
0.000216376
0.000213956
0.000211791
0.00020973
0.000207589
0.00020518
0.000202345
0.00019899
0.000195132
0.000190935
0.000186714
0.000182882
0.000179782
0.000177325
0.000174163
0.000171659
0.000172594
0.000170631
0.000441512
0.000523256
0.000308722
)
;
    }
    sWall
    {
        type            compressible::alphatWallFunction;
        Prt             0.85;
        value           uniform 0.000381451;
    }
    nWall
    {
        type            compressible::alphatWallFunction;
        Prt             0.85;
        value           nonuniform List<scalar> 6(9.95815e-05 0.000101667 0.000113901 0.000189436 0.000208937 0.000170357);
    }
    sideWalls
    {
        type            empty;
    }
    glass1
    {
        type            compressible::alphatWallFunction;
        Prt             0.85;
        value           nonuniform List<scalar> 9(0.00018903 0.000238298 0.000278312 0.000315696 0.000353596 0.000394628 0.000433779 0.000443471 0.000435346);
    }
    glass2
    {
        type            compressible::alphatWallFunction;
        Prt             0.85;
        value           nonuniform List<scalar> 2(0.000159741 0.000172127);
    }
    sun
    {
        type            compressible::alphatWallFunction;
        Prt             0.85;
        value           nonuniform List<scalar> 
14
(
0.000193316
0.000212829
0.000221296
0.00023272
0.000243338
0.000253691
0.000264503
0.000275135
0.000284427
0.00029119
0.000293785
0.000290065
0.000268037
0.000232396
)
;
    }
    Table_master
    {
        type            compressible::alphatWallFunction;
        Prt             0.85;
        value           nonuniform List<scalar> 9(0.000174913 0.000150028 0.000128955 0.000111714 9.77202e-05 8.63681e-05 7.71499e-05 6.97731e-05 6.48666e-05);
    }
    Table_slave
    {
        type            compressible::alphatWallFunction;
        Prt             0.85;
        value           nonuniform List<scalar> 9(0.000202821 0.000184688 0.000170348 0.000158538 0.000148134 0.000138308 0.00012852 0.000118324 0.000107061);
    }
    inlet
    {
        type            fixedValue;
        value           uniform 1.94e-05;
    }
    outlet
    {
        type            zeroGradient;
    }
}


// ************************************************************************* //
