/*--------------------------------*- C++ -*----------------------------------*\
  =========                 |
  \\      /  F ield         | OpenFOAM: The Open Source CFD Toolbox
   \\    /   O peration     | Website:  https://openfoam.org
    \\  /    A nd           | Version:  6
     \\/     M anipulation  |
\*---------------------------------------------------------------------------*/
FoamFile
{
    version     2.0;
    format      ascii;
    class       volScalarField;
    location    "2600";
    object      k;
}
// * * * * * * * * * * * * * * * * * * * * * * * * * * * * * * * * * * * * * //

dimensions      [0 2 -2 0 0 0 0];

internalField   nonuniform List<scalar> 
458
(
0.00277333
0.00338503
0.00367322
0.00408326
0.00448605
0.00489913
0.00535217
0.00581939
0.00624547
0.00656616
0.00669187
0.00651321
0.00550716
0.00407321
0.00286587
0.000572652
0.000814149
0.00114151
0.00138171
0.00141686
0.00121137
0.00100653
0.000846366
0.000724006
0.000629044
0.000554198
0.000494093
0.000444513
0.000402727
0.00036526
0.000328513
0.000287853
0.000236051
0.00449089
0.00799219
0.00530805
0.00571248
0.0062405
0.00687952
0.00763674
0.00854061
0.0095337
0.010424
0.0109862
0.0110594
0.010371
0.00897944
0.00645328
0.00470136
0.00339919
0.00221071
0.000546929
0.0011903
0.00196959
0.00237329
0.002485
0.0020747
0.0016248
0.00127594
0.00102357
0.000840155
0.000705095
0.000604041
0.000526474
0.000458985
0.000405904
0.000370511
0.00035057
0.000257259
0.00622859
0.0133607
0.00601375
0.00596337
0.00628773
0.00677294
0.00744638
0.0083448
0.00937771
0.0103979
0.0112546
0.0117408
0.0115362
0.0105599
0.00902363
0.0072071
0.00567595
0.0033829
0.000737449
0.00182295
0.0024433
0.002864
0.00298146
0.0022571
0.0016485
0.00121497
0.000914302
0.000704845
0.000557037
0.000451186
0.000375407
0.000329317
0.000314356
0.000317786
0.000347328
0.000264328
0.00814013
0.0206495
0.00685806
0.00577414
0.00583469
0.00615951
0.00678633
0.00774253
0.00878035
0.00987902
0.0109795
0.0117085
0.01168
0.0108938
0.00966865
0.00830871
0.00696707
0.00504612
0.00419164
0.00344245
0.00337877
0.00361722
0.00385329
0.00383934
0.00307013
0.00252746
0.00213942
0.00184668
0.00160849
0.00140022
0.00120861
0.00102557
0.000842668
0.000584263
0.000420645
0.000391
0.000283482
0.0103701
0.0306679
0.00918487
0.00575375
0.0054394
0.00569531
0.00656421
0.00776019
0.00878797
0.00994358
0.0112087
0.0119526
0.0118232
0.0108815
0.00958847
0.00836027
0.00728234
0.00630767
0.00589414
0.00560446
0.00547667
0.00543291
0.0053062
0.0049808
0.00445007
0.00395091
0.00355033
0.00317778
0.00279675
0.00240362
0.00200109
0.001596
0.00120158
0.000826458
0.000553386
0.000442547
0.000323511
0.00034643
0.000547863
0.000735919
0.0131235
0.041928
0.0154839
0.00716745
0.00586528
0.00593001
0.00747614
0.00869655
0.00958166
0.010731
0.0120073
0.012732
0.0123804
0.0110638
0.0094202
0.00804389
0.00717965
0.0068017
0.00682325
0.00695606
0.00696188
0.00677877
0.00636936
0.00576196
0.00508164
0.00449812
0.00400185
0.00353657
0.00307413
0.0026102
0.00214883
0.00170353
0.00129457
0.000941401
0.000677905
0.000530585
0.000421091
0.000395218
0.000907685
0.000765651
0.0160876
0.0493545
0.0264804
0.0140597
0.0102076
0.0094065
0.0102896
0.0105888
0.0110706
0.0121732
0.0134925
0.0141016
0.0133863
0.0115518
0.00946232
0.00791703
0.00723744
0.00726737
0.00760803
0.00784596
0.0077706
0.00737138
0.00672638
0.00593774
0.00514466
0.00447657
0.0039261
0.00342938
0.00295679
0.00250797
0.0020822
0.00169912
0.00137193
0.00110651
0.000906976
0.000783878
0.000713715
0.000746632
0.00115039
0.000955655
0.016883
0.0493652
0.0349289
0.026269
0.0203441
0.0171443
0.0145697
0.0131277
0.0131537
0.0143592
0.0157402
0.016031
0.0146581
0.012087
0.00954775
0.0079789
0.00753297
0.00772576
0.00803546
0.00809025
0.00777928
0.00715747
0.00635555
0.00550725
0.0047396
0.0041096
0.0035847
0.00312016
0.00270194
0.00233688
0.00203681
0.00181373
0.00166793
0.00158998
0.0015696
0.00168566
0.00200975
0.0026284
0.00653295
0.00189868
0.0162407
0.0234493
0.0221896
0.0200585
0.0177283
0.0156533
0.0141679
0.0140427
0.0154151
0.0175124
0.0188872
0.0182379
0.015524
0.0118425
0.00924702
0.00811852
0.00783071
0.0078909
0.00792554
0.00771566
0.00722709
0.00654173
0.00577411
0.00502885
0.00437365
0.00381866
0.0033358
0.0028997
0.0025047
0.0021615
0.00189301
0.00173056
0.00170042
0.00180867
0.00204453
0.00239014
0.0028077
0.00320881
0.00348343
0.00221372
0.00530503
0.0081998
0.0103634
0.0123073
0.0147545
0.0181834
0.0214726
0.0233722
0.0226601
0.0188376
0.0134473
0.0102072
0.00875449
0.00823438
0.0080856
0.00801358
0.00783926
0.00749082
0.00699731
0.00643688
0.00588374
0.00538203
0.0049416
0.00454709
0.00417581
0.00381044
0.00344228
0.00307281
0.00271788
0.00241145
0.00220192
0.00213687
0.0022405
0.0024951
0.00282678
0.00312172
0.00315264
0.00268399
0.00727392
0.0280264
0.0304313
0.0346715
0.0373433
0.0354031
0.0321726
0.0278359
0.0221588
0.0165343
0.0123707
0.010205
0.00925584
0.0088975
0.00878192
0.00874249
0.00869019
0.0085793
0.00840542
0.00819063
0.007964
0.00774852
0.00755497
0.00738134
0.0072138
0.00702877
0.00679513
0.00647933
0.00605632
0.00552515
0.00492232
0.0043227
0.00381802
0.0034705
0.00325029
0.00333057
0.00508673
0.00329156
0.0116368
0.0121612
0.0127298
0.0170248
0.0156493
0.0137131
0.0113672
0.00963128
0.00871676
0.00767417
0.00661826
0.00561389
0.00485872
0.00442689
0.00421403
0.00411247
0.00405503
0.00400045
0.00392798
0.00383501
0.00373071
0.00362717
0.00353289
0.00345047
0.00337757
0.00330897
0.00323849
0.00316021
0.00306946
0.002964
0.00284528
0.00271923
0.00259568
0.00248629
0.00239967
0.00233226
0.00224722
0.00218142
0.00220654
0.00215618
)
;

boundaryField
{
    floor
    {
        type            kqRWallFunction;
        value           nonuniform List<scalar> 
36
(
0.00286587
0.000572652
0.000814149
0.00114151
0.00138171
0.00141686
0.00121137
0.00100653
0.000846366
0.000724006
0.000629044
0.000554198
0.000494093
0.000444513
0.000402727
0.00036526
0.000328513
0.000287853
0.000236051
0.000236051
0.000257259
0.000264328
0.000283482
0.00034643
0.000547863
0.000735919
0.00286587
0.00470136
0.00339919
0.00221071
0.000572652
0.00221071
0.000546929
0.0033829
0.000737449
0.00419164
)
;
    }
    ceiling
    {
        type            kqRWallFunction;
        value           nonuniform List<scalar> 
43
(
0.0116368
0.0121612
0.0127298
0.0170248
0.0156493
0.0137131
0.0113672
0.00963128
0.00871676
0.00767417
0.00661826
0.00561389
0.00485872
0.00442689
0.00421403
0.00411247
0.00405503
0.00400045
0.00392798
0.00383501
0.00373071
0.00362717
0.00353289
0.00345047
0.00337757
0.00330897
0.00323849
0.00316021
0.00306946
0.002964
0.00284528
0.00271923
0.00259568
0.00248629
0.00239967
0.00233226
0.00224722
0.00218142
0.00220654
0.00215618
0.0162407
0.0234493
0.00727392
)
;
    }
    sWall
    {
        type            kqRWallFunction;
        value           uniform 0.0116368;
    }
    nWall
    {
        type            kqRWallFunction;
        value           nonuniform List<scalar> 6(0.000735919 0.000765651 0.000955655 0.00268399 0.00329156 0.00215618);
    }
    sideWalls
    {
        type            empty;
    }
    glass1
    {
        type            kqRWallFunction;
        value           nonuniform List<scalar> 9(0.00277333 0.00449089 0.00622859 0.00814013 0.0103701 0.0131235 0.0160876 0.016883 0.0162407);
    }
    glass2
    {
        type            kqRWallFunction;
        value           nonuniform List<scalar> 2(0.00189868 0.00221372);
    }
    sun
    {
        type            kqRWallFunction;
        value           nonuniform List<scalar> 
14
(
0.00277333
0.00338503
0.00367322
0.00408326
0.00448605
0.00489913
0.00535217
0.00581939
0.00624547
0.00656616
0.00669187
0.00651321
0.00550716
0.00407321
)
;
    }
    Table_master
    {
        type            kqRWallFunction;
        value           nonuniform List<scalar> 9(0.0022571 0.0016485 0.00121497 0.000914302 0.000704845 0.000557037 0.000451186 0.000375407 0.000329317);
    }
    Table_slave
    {
        type            kqRWallFunction;
        value           nonuniform List<scalar> 9(0.00307013 0.00252746 0.00213942 0.00184668 0.00160849 0.00140022 0.00120861 0.00102557 0.000842668);
    }
    inlet
    {
        type            turbulentIntensityKineticEnergyInlet;
        intensity       0.05;
        value           uniform 0.0018375;
    }
    outlet
    {
        type            zeroGradient;
    }
}


// ************************************************************************* //
