/*--------------------------------*- C++ -*----------------------------------*\
  =========                 |
  \\      /  F ield         | OpenFOAM: The Open Source CFD Toolbox
   \\    /   O peration     | Website:  https://openfoam.org
    \\  /    A nd           | Version:  6
     \\/     M anipulation  |
\*---------------------------------------------------------------------------*/
FoamFile
{
    version     2.0;
    format      ascii;
    class       volScalarField;
    location    "2600";
    object      nut;
}
// * * * * * * * * * * * * * * * * * * * * * * * * * * * * * * * * * * * * * //

dimensions      [0 2 -1 0 0 0 0];

internalField   nonuniform List<scalar> 
458
(
0.00118259
0.00130652
0.00136099
0.00143494
0.00150405
0.00157177
0.00164284
0.00171304
0.00177465
0.00181964
0.00183697
0.00181229
0.00166649
0.0014332
0.00120215
0.000537348
0.000640712
0.000758669
0.000834683
0.000845229
0.000781539
0.000712401
0.000653267
0.000604202
0.000563185
0.000528619
0.00049913
0.000473425
0.000450623
0.000429148
0.000406989
0.00038097
0.000344989
0.00150489
0.00359996
0.00344555
0.00396424
0.0045222
0.00508224
0.00555133
0.00598452
0.00645191
0.0069209
0.00734312
0.00765442
0.00772171
0.00717182
0.00487163
0.00153972
0.00130923
0.00105583
0.00052514
0.00136057
0.00215513
0.00274961
0.00292174
0.00196421
0.00160617
0.00137351
0.00120927
0.00108909
0.000998753
0.000930203
0.000877872
0.000814279
0.000744893
0.000676924
0.000610815
0.000360157
0.0017723
0.00488893
0.00432721
0.00502
0.00542412
0.00571316
0.00593259
0.0061929
0.00657202
0.00709002
0.00773855
0.00842383
0.00895004
0.00891684
0.00810689
0.00609714
0.00440942
0.00130609
0.000609836
0.00147611
0.0023354
0.00319434
0.00345887
0.00106682
0.000911716
0.000782707
0.000678986
0.00059616
0.000529978
0.000476971
0.000435075
0.00040749
0.000480208
0.000567223
0.000632269
0.000365075
0.00202609
0.00601837
0.00438401
0.00521548
0.00536993
0.00532898
0.00530952
0.00543368
0.00573785
0.00628761
0.00709808
0.00799669
0.00871594
0.00901506
0.00883479
0.00804298
0.00658042
0.00350136
0.00145385
0.00158332
0.00216602
0.00315977
0.0042202
0.00449753
0.00124421
0.0011289
0.00103863
0.000964958
0.000900581
0.000840255
0.000780651
0.000719115
0.000651844
0.000578513
0.000548419
0.000631291
0.000378074
0.00228684
0.00747772
0.00453488
0.0050831
0.00522445
0.00499416
0.004837
0.00490127
0.0051665
0.00574838
0.00666601
0.00759658
0.00831349
0.00868461
0.00873089
0.00847629
0.00772563
0.00619771
0.00514408
0.00533758
0.00584031
0.00647085
0.00697348
0.00704358
0.00603967
0.00536852
0.00488857
0.00442122
0.00392124
0.0033966
0.00284951
0.00228212
0.00171117
0.00120704
0.000864215
0.000746024
0.000491239
0.000417978
0.000525613
0.000609168
0.00257258
0.00916655
0.00581198
0.00489028
0.00510991
0.00505632
0.00474122
0.00476051
0.0049958
0.00559921
0.00652285
0.0074798
0.0081732
0.00849799
0.00856522
0.00853954
0.00841294
0.0080701
0.00800613
0.00846054
0.00886444
0.0091209
0.00914017
0.00886896
0.0082663
0.00760761
0.00692535
0.00621371
0.00547994
0.00472954
0.0039632
0.00318928
0.00243447
0.00176806
0.0012763
0.000996205
0.000725848
0.000588431
0.000792478
0.000621355
0.00284833
0.010386
0.00801896
0.00580103
0.00522465
0.00524803
0.0050207
0.00488447
0.00505694
0.00569735
0.00668902
0.00768086
0.00834642
0.00861992
0.00871892
0.00895035
0.00935132
0.00969
0.01008
0.0104953
0.0106725
0.0105745
0.0102349
0.00969723
0.00901668
0.00827449
0.00749723
0.00670411
0.00590861
0.00512255
0.00434246
0.00359033
0.00289049
0.0022791
0.00178997
0.00144556
0.0011574
0.000986846
0.000907159
0.000694224
0.0029179
0.00929211
0.00820214
0.00721529
0.00644364
0.00595377
0.00532422
0.0049899
0.00521549
0.00602678
0.00715847
0.00817413
0.00876975
0.0090097
0.00927729
0.00989306
0.0104714
0.0108387
0.011125
0.0112646
0.0111431
0.0107438
0.0101349
0.00938924
0.00858343
0.00777945
0.00698934
0.00621169
0.00545119
0.00471987
0.00403516
0.00342676
0.00291872
0.00250851
0.0021454
0.00194032
0.00182705
0.00174214
0.00228471
0.000978617
0.00286186
0.00343883
0.0038912
0.0041473
0.00420805
0.00416193
0.00417461
0.0045338
0.00540867
0.00669751
0.00800946
0.0089118
0.00928374
0.00954373
0.0100361
0.0104216
0.010639
0.0107691
0.0107837
0.0105973
0.0101656
0.00951844
0.00873112
0.00788734
0.00705863
0.00627905
0.00554303
0.00483421
0.00414297
0.00346933
0.00283296
0.00228986
0.00190424
0.00168376
0.0015826
0.00155253
0.00154842
0.00153126
0.00147808
0.00105664
0.000931219
0.00168539
0.00238752
0.00310846
0.00407374
0.00543836
0.0069907
0.00842857
0.00933267
0.00955392
0.0095844
0.00953398
0.00950686
0.00944959
0.0093887
0.0092784
0.00903085
0.00859896
0.00800545
0.00732186
0.00662733
0.00597801
0.00539656
0.00487668
0.00440108
0.00395623
0.00353564
0.00313795
0.00276643
0.00242958
0.00214171
0.00192374
0.00179323
0.00174125
0.00172685
0.00171107
0.00162803
0.0011634
0.0019152
0.00431492
0.00569894
0.00741192
0.00892793
0.00952248
0.00989228
0.0100739
0.00969114
0.00899558
0.0083192
0.00780798
0.00746284
0.00725913
0.00712328
0.00697851
0.0067755
0.00650397
0.00618756
0.00586237
0.0055568
0.00528415
0.00504514
0.00483326
0.00463898
0.00445122
0.0042572
0.00404318
0.00379766
0.00351658
0.00320822
0.00289403
0.00260238
0.00235555
0.00215093
0.00207646
0.00253095
0.00128834
0.00242238
0.00247636
0.00253358
0.00292997
0.00280909
0.00262956
0.00239409
0.00220372
0.00209651
0.00196716
0.00182682
0.00168251
0.00156525
0.00149406
0.00145769
0.00144002
0.00142992
0.00142027
0.00140734
0.00139059
0.00137155
0.00135239
0.0013347
0.00131904
0.00130503
0.00129171
0.00127788
0.00126235
0.00124409
0.00122253
0.00119779
0.00117096
0.00114406
0.0011197
0.00110003
0.00108447
0.00106452
0.00104882
0.00105482
0.00104272
)
;

boundaryField
{
    floor
    {
        type            nutkWallFunction;
        Cmu             0.09;
        kappa           0.41;
        E               9.8;
        value           nonuniform List<scalar> 
36
(
0.000144277
6.44525e-05
7.74108e-05
9.18938e-05
0.000101084
0.000102351
9.46698e-05
8.62475e-05
7.89664e-05
7.28648e-05
6.77179e-05
6.33446e-05
5.95859e-05
5.62869e-05
5.33418e-05
5.05509e-05
4.76523e-05
4.4223e-05
3.94307e-05
3.94306e-05
4.14574e-05
4.21117e-05
4.38369e-05
4.90833e-05
6.29532e-05
7.34788e-05
0.000144277
0.000182637
0.000156563
0.00012729
6.44525e-05
0.00012729
6.29028e-05
0.000156205
7.35621e-05
0.00017298
)
;
    }
    ceiling
    {
        type            nutkWallFunction;
        Cmu             0.09;
        kappa           0.41;
        E               9.8;
        value           nonuniform List<scalar> 
43
(
0.000278919
0.000284673
0.000290761
0.000332617
0.000319984
0.000301085
0.000276061
0.000255628
0.000244036
0.000229959
0.000214572
0.000198612
0.000185536
0.000177545
0.000173447
0.000171451
0.000170311
0.000169218
0.000167755
0.000165855
0.000163693
0.000161514
0.000159498
0.000157712
0.000156112
0.000154589
0.000153005
0.000151224
0.000149128
0.000146649
0.000143798
0.000140698
0.000137581
0.000134752
0.000132462
0.000130648
0.000128317
0.00012648
0.000127185
0.000125768
0.000325703
0.0003857
0.000224062
)
;
    }
    sWall
    {
        type            nutkWallFunction;
        Cmu             0.09;
        kappa           0.41;
        E               9.8;
        value           uniform 0.000278986;
    }
    nWall
    {
        type            nutkWallFunction;
        Cmu             0.09;
        kappa           0.41;
        E               9.8;
        value           nonuniform List<scalar> 6(7.3475e-05 7.49952e-05 8.40064e-05 0.000139826 0.000154208 0.000125774);
    }
    sideWalls
    {
        type            empty;
    }
    glass1
    {
        type            nutkWallFunction;
        Cmu             0.09;
        kappa           0.41;
        E               9.8;
        value           nonuniform List<scalar> 9(0.000142146 0.000178932 0.000208782 0.000236658 0.000264908 0.000295477 0.000324641 0.000331959 0.000326085);
    }
    glass2
    {
        type            nutkWallFunction;
        Cmu             0.09;
        kappa           0.41;
        E               9.8;
        value           nonuniform List<scalar> 2(0.000118223 0.000127402);
    }
    sun
    {
        type            nutkWallFunction;
        Cmu             0.09;
        kappa           0.41;
        E               9.8;
        value           nonuniform List<scalar> 
14
(
0.000142022
0.000156248
0.000162455
0.000170838
0.000178628
0.000186223
0.000194156
0.000201955
0.00020877
0.000213731
0.00021564
0.000212923
0.000196785
0.00017064
)
;
    }
    Table_master
    {
        type            nutkWallFunction;
        Cmu             0.09;
        kappa           0.41;
        E               9.8;
        value           nonuniform List<scalar> 9(0.000128581 0.000110296 9.48105e-05 8.2142e-05 7.1859e-05 6.35174e-05 5.67439e-05 5.13236e-05 4.77192e-05);
    }
    Table_slave
    {
        type            nutkWallFunction;
        Cmu             0.09;
        kappa           0.41;
        E               9.8;
        value           nonuniform List<scalar> 9(0.000149129 0.000135815 0.000125285 0.000116612 0.000108971 0.000101754 9.45618e-05 8.70684e-05 7.87884e-05);
    }
    inlet
    {
        type            calculated;
        value           uniform 0.000234787;
    }
    outlet
    {
        type            calculated;
        value           nonuniform List<scalar> 2(0.00242238 0.00247636);
    }
}


// ************************************************************************* //
