/*--------------------------------*- C++ -*----------------------------------*=========                 |
  \      /  F ield         | OpenFOAM: The Open Source CFD Toolbox
   \    /   O peration     | Website:  https://openfoam.org
    \  /    A nd           | Version:  6
     \/     M anipulation  |
\*---------------------------------------------------------------------------*/
FoamFile
{
    version     2.0;
    format      ascii;
    class       volScalarField;
    location    "2600";
    object      PMV;
}
// * * * * * * * * * * * * * * * * * * * * * * * * * * * * * * * * * * * * * //

dimensions      [0 0 0 0 0 0 0];

internalField   nonuniform List<scalar> 
458
(
2.0498535075994564
1.8740581236436031
1.847339905279647
1.8276287996564438
1.8147610723300853
1.8074835782928118
1.8057537313206113
1.8115824828627238
1.8254111404283935
1.8507092964400038
1.8915943288783683
1.9484144761413982
2.0029442170823932
2.017804891758599
2.025113475307305
2.2731076365517566
2.2521287727796344
2.2354326245487317
2.2301837668184743
2.2363868862010126
2.242352259295743
2.238300838547482
2.2397242851042276
2.2451985966304036
2.2520328758328567
2.259455902641321
2.2674028890512887
2.27653241882444
2.2869941715300635
2.3003359067120632
2.319103867365044
2.3464320238056473
2.3744811900643326
2.0330756229183304
1.886311957633921
1.8703895711616196
1.851088205831073
1.8388635561963844
1.8307771982889447
1.8274136590140855
1.8287853986578873
1.8325189049588058
1.8432783977903022
1.8669596357599645
1.910331967459643
1.9789342870874773
2.01588759181875
2.0015029702650073
1.985842027129627
2.001980307929283
2.0338663026824753
2.2802567469303705
2.24211196040571
2.2120459842249116
2.198722055844387
2.1983217002582434
2.2077168871057506
2.2173138467767726
2.227354526941048
2.2367466202725534
2.2470668534804954
2.2575587143262856
2.2686891180722664
2.2794441837681294
2.2917929208092387
2.306091267345091
2.324931831164222
2.3489897617649356
2.37104414551352
2.0700730174885904
1.8880795725817088
1.8932144541843692
1.8848492479675505
1.8798867400290526
1.8757289922784108
1.87283696905376
1.867126742404358
1.8523092498455047
1.834168127216336
1.833889453510362
1.868324007444695
1.9363451410581756
1.9972897324782055
2.0125948629014836
2.0057533498611524
2.0057756150965766
1.9990387362061885
2.2650035910706805
2.174031682494638
2.1441419707287825
2.1480691345922462
2.162697535414653
2.1754847933938626
2.2011435586125176
2.2245968315332103
2.2433514650213993
2.260000598629094
2.2766817328780315
2.2937079364875794
2.3096793778424867
2.3216373587585157
2.330803609846872
2.3412857363654314
2.349441839109774
2.356444660667899
2.1364265676803433
1.893007718517625
1.9114899468893305
1.92100995543466
1.9345994449087522
1.9442571045806214
1.9460605086659846
1.9298873754265913
1.8821577485911203
1.8258152234478922
1.8016804322338427
1.8341584840116998
1.9061444277973127
1.9773252723002173
2.018148046358008
2.018761391659944
2.003195537611493
1.9787644791281491
1.9750502073656393
2.006390719470458
2.041116429778084
2.0818407285163305
2.1275557558857585
2.172881416818574
2.2089995101377733
2.225253309381115
2.2392705714182224
2.255990666014786
2.27426677083613
2.293163155665576
2.312785355713734
2.333444212632362
2.3582355839698157
2.367563019010532
2.3627866221656175
2.353173521627066
2.346969010567201
2.2165085862512703
1.9090600254046592
1.9278618532555571
1.951788602979906
1.9910695709816975
2.0305226761222124
2.047408067871316
1.9996787276542993
1.906625849443262
1.8146823392409783
1.7749871170121176
1.8084274999973993
1.8882886610209886
1.974477811103324
2.036230704431595
2.055285593782116
2.0435268406394678
2.026984406700612
2.033582580671882
2.056412601488214
2.093031829460397
2.1382880405219113
2.1875150037538087
2.235679794630376
2.276743982396105
2.304531332401007
2.327699543883702
2.348517082305888
2.3668695575965173
2.3823831613948383
2.3950772618080745
2.405413247814848
2.4114399393000783
2.404836349384625
2.3865319779300656
2.363762817767149
2.3493830598444103
2.4049424946929054
2.560793930252643
2.4639505224537883
2.2982802122851242
1.9410473205028957
1.9581768892961926
1.9767776260289747
2.025582765818965
2.0920503857173927
2.12219784357879
2.022506817857039
1.9040156729385205
1.7967938390759517
1.7523554876295215
1.7905384085879583
1.8861285350987353
1.9946283856283027
2.07939865214299
2.120501704572702
2.1217200498191637
2.113956758227591
2.1261137703786352
2.1563576732733014
2.195448760091232
2.2408060300147743
2.287834819782562
2.332285940482157
2.370966338268309
2.3996533596463836
2.4181615690493405
2.4333368253060046
2.4451871812493033
2.4541896520501036
2.459873698123053
2.461768079621568
2.458926450821604
2.4446570094463165
2.418947850994883
2.389238902124436
2.3692014776342107
2.3891851405609708
2.4296744284680765
2.45741519052873
2.378745340654229
2.0152736479798232
2.0515312457975985
2.030447972126105
2.047240854327811
2.089356884281513
2.0752359314369992
1.9947151180969576
1.8686873355323244
1.757847828426542
1.7231027737262887
1.7828659517111858
1.9081571108811877
2.04648609981361
2.1568492202555465
2.219683949097246
2.2335240308280713
2.237221653609754
2.254401154691111
2.2874753526586873
2.3266192173017486
2.3640258596385437
2.396804818196687
2.425276666347462
2.4489780999638966
2.46697684634199
2.480230265295135
2.4906382473400024
2.498677431036171
2.5038776711851662
2.5062409999844744
2.504350357875709
2.497258966505743
2.4849617656575065
2.4623859312160654
2.4303205849913843
2.404370783489977
2.4034072990952047
2.406266738823622
2.443025235815467
2.4956852629118007
2.280055002550117
2.220397558284221
2.1403004588198393
2.1151037466736935
2.1098959374981536
2.0581654549076256
1.9324431092994814
1.7803883268105962
1.6816094355502318
1.6867520039567847
1.7981471181471347
1.9711214916115933
2.1461909111170074
2.269770896471167
2.311219259519146
2.326927745248553
2.33834728241336
2.3611737614659014
2.3925314540965426
2.4262251985512004
2.456084483687366
2.481649819567919
2.5024595485110286
2.5171089078013207
2.5279711119137525
2.535995941497919
2.542130376723651
2.5463761596682626
2.5477912124649946
2.5468478555456096
2.542130376723651
2.5345800304486636
2.5223045959299024
2.504823034112811
2.488746247697823
2.474551470223413
2.4682755136008763
2.4394780988394316
2.4132756241468916
2.6679428852057496
2.5310030914731785
2.4176676457634603
2.310135491175704
2.2289448350598366
2.1604300346842695
1.9688184727596885
1.738325177282373
1.5829259432366831
1.561359556741562
1.6718723654858778
1.8768928401521845
2.1134273190740296
2.3012190584762098
2.377331991985322
2.4028737180887454
2.4133809573690526
2.429050475732231
2.4531386042767633
2.4803892685209052
2.505548325999996
2.525342988508653
2.540326878601996
2.5502426474336883
2.557736841555094
2.5627072320008035
2.5662861305710174
2.56867726958477
2.5691749368355956
2.5670375968118946
2.5614259081737876
2.5523613733466304
2.540795181046537
2.527723828227177
2.5147367461522525
2.5048636850250015
2.5001881344695045
2.5008139079347718
2.498632897544331
2.4981814983126647
-0.37207026717123604
0.15974499724668445
0.4920079920854023
0.623798068136177
0.7448779097581189
0.9304278914798645
1.1866103250799225
1.4915274065039736
1.8118526561479966
2.131286310460714
2.336358027502633
2.4100682442561308
2.4462772024995365
2.4640629744235483
2.4787983434351473
2.496364840096524
2.517330281945769
2.5392167826120082
2.5585680007771185
2.5731917374210393
2.5833680079610146
2.589786616747831
2.5935104136801614
2.5954937435805014
2.595649604108058
2.593885158367617
2.5901119467114473
2.58472757762799
2.5771411406652187
2.568241478255114
2.5584411455624996
2.549641592663607
2.543224687532226
2.54003113960599
2.542244242838616
2.554695052582004
2.588876991087937
2.616172286103575
-0.20820745057162024
0.43992348793026936
0.832896117834767
1.1314731640633313
1.3789363648328445
1.6136277451965308
1.8685668554310726
2.088867838874058
2.2398109812932177
2.364305160210402
2.449168202648278
2.493232545918312
2.5175996991849643
2.5341634929149413
2.5490922484599157
2.564626064876833
2.5799664171487207
2.594457786706774
2.606114863014563
2.6140659356237332
2.618959265364977
2.620882257859914
2.6208656036308
2.6188775003027325
2.6158828252900292
2.611355162904161
2.6058377786068343
2.598955531446818
2.5919705359034464
2.5847750378471948
2.579450035693641
2.5768063443015756
2.5790802141128446
2.58906023931611
2.603362873941567
2.6137037560721694
2.592089381555626
2.619764882372512
0.40918887852113184
0.418990872172591
0.4760413899814153
0.9472016327474526
1.349984338199194
1.7166520604940536
2.0167270988358834
2.2047749327188093
2.3193928487006485
2.406480357887425
2.4697309655446276
2.51619572607138
2.547146968045655
2.5671563870639
2.5812993823032118
2.5921906858463144
2.6013945997532
2.6099242254337787
2.6166582385107007
2.621604312365013
2.6242769075189716
2.625285399164367
2.6236110176118057
2.6208895629985585
2.617113628042194
2.612257756835873
2.6068411927928556
2.600320283828079
2.5938047966144224
2.586274552477047
2.5794611399281124
2.572408567489188
2.5663221473670133
2.56067930977208
2.5563255604508766
2.5526160665322823
2.5533125993246273
2.56392016291304
2.581870191340978
2.6176939659070317
)
;

boundaryField
{
    ".*"
    {
        type            zeroGradient;
    }
}


// ************************************************************************* //
