/*--------------------------------*- C++ -*----------------------------------*\
  =========                 |
  \\      /  F ield         | OpenFOAM: The Open Source CFD Toolbox
   \\    /   O peration     | Website:  https://openfoam.org
    \\  /    A nd           | Version:  6
     \\/     M anipulation  |
\*---------------------------------------------------------------------------*/
FoamFile
{
    version     2.0;
    format      ascii;
    class       volScalarField;
    location    "2600";
    object      T;
}
// * * * * * * * * * * * * * * * * * * * * * * * * * * * * * * * * * * * * * //

dimensions      [0 0 0 1 0 0 0];

internalField   nonuniform List<scalar> 
458
(
304.317
304.091
304.077
304.072
304.068
304.064
304.059
304.055
304.05
304.047
304.052
304.072
304.121
304.152
304.176
304.686
304.642
304.607
304.596
304.609
304.625
304.644
304.662
304.681
304.7
304.719
304.738
304.758
304.778
304.799
304.823
304.852
304.899
304.458
304.114
304.089
304.084
304.081
304.076
304.069
304.059
304.041
304.024
304.022
304.051
304.106
304.148
304.172
304.186
304.203
304.225
304.701
304.621
304.558
304.555
304.573
304.59
304.61
304.632
304.653
304.676
304.699
304.723
304.746
304.771
304.796
304.823
304.857
304.905
304.611
304.149
304.111
304.113
304.117
304.118
304.114
304.097
304.059
304.012
303.993
304.027
304.099
304.157
304.19
304.207
304.218
304.23
304.669
304.534
304.503
304.521
304.557
304.573
304.594
304.617
304.643
304.671
304.701
304.733
304.765
304.795
304.822
304.846
304.873
304.914
304.774
304.196
304.139
304.149
304.169
304.187
304.193
304.171
304.1
304.01
303.965
304.004
304.094
304.175
304.225
304.244
304.252
304.252
304.268
304.306
304.36
304.431
304.509
304.581
304.638
304.681
304.717
304.751
304.784
304.816
304.847
304.876
304.906
304.906
304.9
304.902
304.926
304.939
304.259
304.171
304.181
304.217
304.259
304.29
304.261
304.147
304.009
303.941
303.984
304.094
304.206
304.282
304.315
304.321
304.323
304.346
304.389
304.454
304.532
304.614
304.691
304.758
304.811
304.856
304.894
304.926
304.952
304.972
304.987
304.994
304.983
304.959
304.94
304.942
305.046
305.302
305.256
305.093
304.343
304.222
304.214
304.249
304.307
304.37
304.324
304.168
303.998
303.918
303.968
304.107
304.26
304.37
304.423
304.438
304.448
304.482
304.541
304.612
304.691
304.77
304.841
304.902
304.952
304.991
305.023
305.048
305.067
305.079
305.083
305.077
305.056
305.023
304.99
304.975
305.024
305.107
305.156
305.236
304.483
304.345
304.313
304.327
304.373
304.423
304.339
304.141
303.949
303.876
303.958
304.147
304.351
304.498
304.574
304.603
304.622
304.665
304.73
304.803
304.877
304.946
305.006
305.056
305.094
305.122
305.144
305.161
305.172
305.177
305.173
305.158
305.132
305.095
305.057
305.03
305.045
305.081
305.127
305.437
304.872
304.711
304.608
304.562
304.574
304.508
304.294
304.019
303.826
303.807
303.97
304.238
304.502
304.679
304.766
304.799
304.823
304.871
304.937
305.008
305.071
305.125
305.169
305.2
305.223
305.24
305.253
305.262
305.265
305.263
305.253
305.237
305.211
305.174
305.14
305.115
305.123
305.146
305.218
305.725
305.455
305.26
305.069
304.915
304.782
304.426
303.992
303.68
303.596
303.743
304.06
304.434
304.745
304.905
304.973
305.002
305.033
305.08
305.137
305.194
305.242
305.28
305.306
305.325
305.337
305.345
305.35
305.351
305.347
305.337
305.322
305.305
305.289
305.278
305.278
305.291
305.314
305.333
305.382
300.289
301.218
301.783
301.98
302.164
302.452
302.858
303.347
303.864
304.389
304.825
305.033
305.126
305.167
305.197
305.231
305.272
305.316
305.356
305.387
305.409
305.423
305.431
305.435
305.435
305.431
305.423
305.412
305.397
305.38
305.362
305.347
305.338
305.337
305.347
305.369
305.407
305.533
300.468
301.33
301.874
302.311
302.824
303.311
303.841
304.319
304.699
304.986
305.169
305.26
305.309
305.341
305.369
305.398
305.427
305.455
305.478
305.494
305.504
305.508
305.508
305.504
305.498
305.489
305.478
305.464
305.449
305.432
305.416
305.401
305.389
305.382
305.383
305.405
305.451
305.518
301.884
301.86
301.857
302.626
303.229
303.85
304.399
304.757
304.979
305.148
305.269
305.357
305.415
305.452
305.478
305.498
305.515
305.531
305.544
305.554
305.56
305.563
305.561
305.557
305.551
305.543
305.534
305.523
305.512
305.499
305.487
305.474
305.462
305.45
305.44
305.432
305.434
305.457
305.501
305.582
)
;

boundaryField
{
    floor
    {
        type            wallHeatTransfer;
        Tinf            uniform 305.2;
        alphaWall       uniform 0.24;
        value           nonuniform List<scalar> 
36
(
304.276
304.776
304.728
304.688
304.673
304.684
304.703
304.724
304.744
304.765
304.784
304.804
304.823
304.842
304.861
304.88
304.902
304.928
304.969
304.969
304.972
304.979
304.986
305.078
305.284
305.247
304.276
304.268
304.294
304.33
304.776
304.33
304.79
304.319
304.754
304.346
)
;
    }
    ceiling
    {
        type            wallHeatTransfer;
        Tinf            uniform 303.2;
        alphaWall       uniform 0.24;
        value           nonuniform List<scalar> 
43
(
301.957
301.933
301.929
302.653
303.228
303.816
304.331
304.663
304.867
305.019
305.124
305.195
305.239
305.266
305.286
305.303
305.318
305.331
305.341
305.349
305.352
305.352
305.348
305.343
305.335
305.326
305.316
305.304
305.292
305.278
305.263
305.247
305.232
305.218
305.206
305.197
305.194
305.213
305.252
305.323
305.601
305.361
300.651
)
;
    }
    sWall
    {
        type            wallHeatTransfer;
        Tinf            uniform 315.2;
        alphaWall       uniform 0.36;
        value           uniform 302.966;
    }
    nWall
    {
        type            wallHeatTransfer;
        Tinf            uniform 307.2;
        alphaWall       uniform 0.36;
        value           nonuniform List<scalar> 6(305.69 305.607 305.552 305.772 305.741 305.833);
    }
    sideWalls
    {
        type            empty;
    }
    glass1
    {
        type            wallHeatTransfer;
        Tinf            uniform 315.2;
        alphaWall       uniform 4.3;
        value           nonuniform List<scalar> 9(311.575 311.114 310.814 310.585 310.391 310.204 310.053 310.106 310.297);
    }
    glass2
    {
        type            wallHeatTransfer;
        Tinf            uniform 307.2;
        alphaWall       uniform 4.3;
        value           nonuniform List<scalar> 2(306.603 306.627);
    }
    sun
    {
        type            wallHeatTransfer;
        Tinf            uniform 305.2;
        alphaWall       uniform 0.24;
        value           nonuniform List<scalar> 
14
(
304.404
304.192
304.177
304.168
304.16
304.153
304.146
304.139
304.132
304.128
304.133
304.152
304.203
304.241
)
;
    }
    Table_master
    {
        type            zeroGradient;
    }
    Table_slave
    {
        type            zeroGradient;
    }
    inlet
    {
        type            fixedValue;
        value           uniform 299.15;
    }
    outlet
    {
        type            zeroGradient;
    }
}


// ************************************************************************* //
