/*--------------------------------*- C++ -*----------------------------------*\
  =========                 |
  \\      /  F ield         | OpenFOAM: The Open Source CFD Toolbox
   \\    /   O peration     | Website:  https://openfoam.org
    \\  /    A nd           | Version:  6
     \\/     M anipulation  |
\*---------------------------------------------------------------------------*/
FoamFile
{
    version     2.0;
    format      ascii;
    class       volVectorField;
    location    "2600";
    object      U;
}
// * * * * * * * * * * * * * * * * * * * * * * * * * * * * * * * * * * * * * //

dimensions      [0 1 -1 0 0 0 0];

internalField   nonuniform List<vector> 
458
(
(0.0117239 0.0898039 0)
(-0.175422 0.0321248 0)
(-0.213296 0.0208766 0)
(-0.250365 0.0124808 0)
(-0.276102 0.0038538 0)
(-0.289009 -0.00535927 0)
(-0.286182 -0.0155663 0)
(-0.265556 -0.0273444 0)
(-0.226672 -0.0397722 0)
(-0.172246 -0.0506353 0)
(-0.109468 -0.0572607 0)
(-0.0486282 -0.0564563 0)
(0.0136909 -0.0348966 0)
(0.0378858 -0.00679859 0)
(0.0421756 0.0320923 0)
(-0.0324549 0.0129673 0)
(-0.0411853 -0.00731725 0)
(-0.0250664 -0.0216021 0)
(-0.00225326 -0.0280264 0)
(0.0264806 -0.0236711 0)
(0.0441453 -0.0132964 0)
(0.0568829 -0.00755508 0)
(0.0641891 -0.00546684 0)
(0.0680732 -0.00467871 0)
(0.0706163 -0.00416166 0)
(0.0725828 -0.00371322 0)
(0.0739977 -0.00324533 0)
(0.0746013 -0.0025683 0)
(0.0735687 -0.00121792 0)
(0.0695468 0.00135838 0)
(0.0608151 0.00513482 0)
(0.0456322 0.0109963 0)
(0.0260735 0.0220475 0)
(0.171246 0.182624 0)
(-0.156844 0.0833601 0)
(-0.171145 0.0645403 0)
(-0.208548 0.0486454 0)
(-0.234243 0.0311608 0)
(-0.248102 0.0111308 0)
(-0.247248 -0.0124898 0)
(-0.22966 -0.0394202 0)
(-0.195653 -0.0662593 0)
(-0.148471 -0.0873932 0)
(-0.0950983 -0.0971949 0)
(-0.0439618 -0.0912514 0)
(0.00294554 -0.0627757 0)
(0.0382049 -0.0234252 0)
(0.0669561 0.0197503 0)
(0.0876274 0.0245413 0)
(0.0752018 0.0350278 0)
(0.0345138 0.0535704 0)
(-0.00651397 0.0367495 0)
(-0.000767004 -0.00334071 0)
(0.0249023 -0.0339447 0)
(0.0383611 -0.0399977 0)
(0.0527025 -0.0357087 0)
(0.0596352 -0.0181385 0)
(0.0618584 -0.00640025 0)
(0.0625126 -0.00200562 0)
(0.0630916 -0.0004995 0)
(0.0636819 0.00029809 0)
(0.0641067 0.000875545 0)
(0.064364 0.00153776 0)
(0.0644897 0.00290077 0)
(0.063765 0.00566497 0)
(0.0601584 0.0117848 0)
(0.0512773 0.019313 0)
(0.036324 0.0293708 0)
(0.0135095 0.0449183 0)
(0.320428 0.272648 0)
(-0.163093 0.129299 0)
(-0.127482 0.102436 0)
(-0.162563 0.0755559 0)
(-0.18603 0.0469367 0)
(-0.200124 0.0145611 0)
(-0.200892 -0.0230448 0)
(-0.185105 -0.0652949 0)
(-0.154472 -0.106204 0)
(-0.113356 -0.136065 0)
(-0.0687497 -0.146867 0)
(-0.0274019 -0.134757 0)
(0.0101568 -0.0980327 0)
(0.0404951 -0.0538546 0)
(0.0662156 -0.0138396 0)
(0.0804177 0.0109087 0)
(0.0766124 0.0399704 0)
(0.0486246 0.0874448 0)
(0.0307414 0.0011234 0)
(0.0607962 -0.0335682 0)
(0.0708753 -0.0486063 0)
(0.0759797 -0.0515221 0)
(0.0818121 -0.0494451 0)
(0.0806327 -0.0380612 0)
(0.0666274 -0.0246013 0)
(0.0557894 -0.0170758 0)
(0.050712 -0.0128536 0)
(0.0480872 -0.0101472 0)
(0.0460223 -0.00832242 0)
(0.0443333 -0.00696098 0)
(0.0435229 -0.00536296 0)
(0.0454765 -0.000898958 0)
(0.0460405 0.0153888 0)
(0.0396109 0.0291662 0)
(0.0288459 0.0452654 0)
(0.00273022 0.0680269 0)
(0.460371 0.344541 0)
(-0.188441 0.167143 0)
(-0.0811982 0.134558 0)
(-0.112478 0.0996375 0)
(-0.130243 0.0637678 0)
(-0.142482 0.0220169 0)
(-0.143167 -0.0288095 0)
(-0.12701 -0.0867615 0)
(-0.0992837 -0.141003 0)
(-0.0654668 -0.177825 0)
(-0.0313395 -0.188392 0)
(-0.000670291 -0.170472 0)
(0.0262373 -0.129215 0)
(0.049669 -0.0802229 0)
(0.0700133 -0.0333688 0)
(0.0857991 0.00562054 0)
(0.0993395 0.0423171 0)
(0.113188 0.0851216 0)
(0.148633 0.061326 0)
(0.140354 0.0140734 0)
(0.127936 -0.0197705 0)
(0.115352 -0.0386656 0)
(0.102286 -0.0443828 0)
(0.0886032 -0.041156 0)
(0.0833656 -0.0238717 0)
(0.0918917 -0.0142277 0)
(0.0977693 -0.00899172 0)
(0.0979852 -0.00573192 0)
(0.094946 -0.00327159 0)
(0.0901419 -0.00117088 0)
(0.0835458 0.000920673 0)
(0.0742797 0.00352348 0)
(0.0607499 0.0073159 0)
(0.0457581 0.022227 0)
(0.0366961 0.0381513 0)
(0.0295114 0.0579193 0)
(-0.000730133 0.0900056 0)
(0.588117 0.398657 0)
(-0.226729 0.194767 0)
(-0.034356 0.153224 0)
(-0.060029 0.11419 0)
(-0.0686888 0.0752739 0)
(-0.07622 0.0285544 0)
(-0.072292 -0.0328892 0)
(-0.052855 -0.105713 0)
(-0.0292404 -0.169353 0)
(-0.00568514 -0.20866 0)
(0.0152289 -0.216077 0)
(0.0317798 -0.193796 0)
(0.046403 -0.150641 0)
(0.0597266 -0.0988282 0)
(0.0718218 -0.0489799 0)
(0.0833788 -0.00688134 0)
(0.0963496 0.027325 0)
(0.113965 0.0464704 0)
(0.128823 0.0190701 0)
(0.128151 -0.00626592 0)
(0.120084 -0.0220339 0)
(0.108338 -0.030226 0)
(0.0946894 -0.0317114 0)
(0.0813052 -0.0263919 0)
(0.0734186 -0.0119472 0)
(0.0714037 -0.00246018 0)
(0.0693609 0.00234862 0)
(0.0658556 0.00510095 0)
(0.0617738 0.0072241 0)
(0.0575962 0.00932958 0)
(0.0532191 0.0119308 0)
(0.0483559 0.0156836 0)
(0.0427497 0.0215142 0)
(0.0373216 0.0324207 0)
(0.0347829 0.0455979 0)
(0.0395756 0.0637075 0)
(0.0315696 0.0939079 0)
(0.0578123 0.0705598 0)
(-0.0222917 -0.0334281 0)
(-0.226904 -0.0431964 0)
(0.688707 0.44166 0)
(-0.270211 0.209913 0)
(0.00476484 0.149959 0)
(-0.00744199 0.117379 0)
(-0.00481567 0.081378 0)
(-0.0065197 0.0326701 0)
(0.0119102 -0.0423269 0)
(0.0346518 -0.1256 0)
(0.0511326 -0.189484 0)
(0.0613719 -0.224431 0)
(0.0660307 -0.227912 0)
(0.0669818 -0.203146 0)
(0.0664517 -0.158444 0)
(0.0657941 -0.105537 0)
(0.0661074 -0.0554976 0)
(0.0685255 -0.0148376 0)
(0.0747114 0.0143803 0)
(0.0858403 0.027265 0)
(0.0941195 0.0160295 0)
(0.0936497 0.00168494 0)
(0.0873619 -0.00965178 0)
(0.0772129 -0.0164994 0)
(0.0654862 -0.0182353 0)
(0.0539737 -0.0146827 0)
(0.0452038 -0.00628769 0)
(0.0396723 0.000708089 0)
(0.0358318 0.00485799 0)
(0.0326211 0.00731399 0)
(0.0298542 0.00920721 0)
(0.0277023 0.0111964 0)
(0.0262568 0.0138568 0)
(0.0256392 0.0178504 0)
(0.0259958 0.0238909 0)
(0.0279366 0.0329139 0)
(0.0324415 0.0439611 0)
(0.0437986 0.0583628 0)
(0.05181 0.0770866 0)
(0.0751719 0.0662512 0)
(0.0917511 0.0426437 0)
(-0.0927475 0.0153335 0)
(0.754683 0.479743 0)
(-0.296162 0.189564 0)
(0.0394598 0.0970991 0)
(0.0549009 0.0971748 0)
(0.0652218 0.0747686 0)
(0.074252 0.0215183 0)
(0.107805 -0.064396 0)
(0.129338 -0.142649 0)
(0.136302 -0.198167 0)
(0.131202 -0.225092 0)
(0.117458 -0.22273 0)
(0.0990406 -0.194831 0)
(0.0797149 -0.149316 0)
(0.0620975 -0.0971846 0)
(0.0486373 -0.049626 0)
(0.040817 -0.0131564 0)
(0.0395541 0.0104536 0)
(0.0448486 0.0201671 0)
(0.0493207 0.0152005 0)
(0.0487565 0.00564324 0)
(0.0442831 -0.00251225 0)
(0.036563 -0.00719978 0)
(0.0272009 -0.00804398 0)
(0.0177899 -0.00522447 0)
(0.00982001 0.000309302 0)
(0.00472105 0.00513776 0)
(0.00188492 0.00799946 0)
(8.02057e-05 0.00956645 0)
(-0.000851163 0.0106157 0)
(-0.000747927 0.011653 0)
(0.000700726 0.0131805 0)
(0.00390149 0.0157638 0)
(0.0091671 0.020019 0)
(0.0167255 0.0264324 0)
(0.0265988 0.0343894 0)
(0.0409302 0.0445056 0)
(0.0572554 0.0547113 0)
(0.0799537 0.0476595 0)
(0.117343 0.0391753 0)
(-0.0550017 0.0765729 0)
(0.860259 0.474763 0)
(-0.0497417 0.164253 0)
(0.121557 0.0244666 0)
(0.179047 0.0115272 0)
(0.182383 -0.0066931 0)
(0.201752 -0.056914 0)
(0.229788 -0.11006 0)
(0.238009 -0.158589 0)
(0.22532 -0.192588 0)
(0.196691 -0.205302 0)
(0.158338 -0.195191 0)
(0.11636 -0.164836 0)
(0.0759996 -0.120544 0)
(0.0407953 -0.0722777 0)
(0.0151413 -0.0313542 0)
(0.000311124 -0.00329363 0)
(-0.00386375 0.0118146 0)
(-0.000991668 0.0170237 0)
(0.00193282 0.0140207 0)
(0.00165229 0.00798742 0)
(-0.00199618 0.00282322 0)
(-0.00759788 0.00017279 0)
(-0.0145296 0.000189619 0)
(-0.021332 0.00233507 0)
(-0.0262632 0.00542196 0)
(-0.0290323 0.00792322 0)
(-0.0303392 0.00933656 0)
(-0.0307173 0.0098861 0)
(-0.0302415 0.00984433 0)
(-0.0287265 0.00942418 0)
(-0.0258116 0.00887309 0)
(-0.0210406 0.0085314 0)
(-0.0140646 0.00884066 0)
(-0.00476364 0.0102658 0)
(0.00768833 0.0126671 0)
(0.0210672 0.016215 0)
(0.0361249 0.0180344 0)
(0.0506842 0.0102099 0)
(0.11244 0.0485015 0)
(-0.368825 0.162254 0)
(1.00483 0.427982 0)
(0.488373 0.292204 0)
(0.509813 0.261254 0)
(0.512878 0.189685 0)
(0.480329 0.114268 0)
(0.449239 0.0376049 0)
(0.409215 -0.0393112 0)
(0.360583 -0.100793 0)
(0.301733 -0.13784 0)
(0.234767 -0.14933 0)
(0.165333 -0.138893 0)
(0.0989066 -0.1112 0)
(0.040441 -0.0723747 0)
(-0.00688238 -0.0324434 0)
(-0.0337909 -0.00655567 0)
(-0.0461141 0.00687438 0)
(-0.0480391 0.0130374 0)
(-0.0460756 0.0149356 0)
(-0.0439758 0.0134001 0)
(-0.0438543 0.0103735 0)
(-0.045974 0.00767345 0)
(-0.0495422 0.0062457 0)
(-0.0535801 0.00619954 0)
(-0.0570927 0.00708721 0)
(-0.0594062 0.00828958 0)
(-0.0605241 0.00916966 0)
(-0.0608758 0.00944718 0)
(-0.0609027 0.00913236 0)
(-0.060978 0.00833902 0)
(-0.0615209 0.00730042 0)
(-0.0630982 0.00648894 0)
(-0.0664564 0.00674244 0)
(-0.0724624 0.00923513 0)
(-0.0821153 0.015154 0)
(-0.0968364 0.0253222 0)
(-0.118774 0.0397249 0)
(-0.150048 0.0561641 0)
(-0.191525 0.0701 0)
(-0.252372 0.0768994 0)
(-0.462849 0.0654294 0)
(0.518238 -0.0198444 0)
(0.480256 0.0653364 0)
(0.441838 0.0569572 0)
(0.401178 0.0138203 0)
(0.363139 -0.0297753 0)
(0.307366 -0.0618784 0)
(0.237721 -0.0789516 0)
(0.160574 -0.0803887 0)
(0.0844887 -0.0680331 0)
(0.013732 -0.0433008 0)
(-0.0427538 -0.0131201 0)
(-0.0726352 0.00361097 0)
(-0.0865023 0.0113168 0)
(-0.0903486 0.0147812 0)
(-0.0899793 0.0166658 0)
(-0.0879469 0.0175755 0)
(-0.0860813 0.0174832 0)
(-0.085402 0.0169469 0)
(-0.0859605 0.0166517 0)
(-0.0872297 0.0170057 0)
(-0.0885535 0.0180472 0)
(-0.0894159 0.019546 0)
(-0.0895866 0.0212202 0)
(-0.089147 0.0228383 0)
(-0.0883432 0.0243013 0)
(-0.0874331 0.0256111 0)
(-0.0866517 0.0268152 0)
(-0.0862272 0.0279894 0)
(-0.0863708 0.0292525 0)
(-0.0872143 0.0308585 0)
(-0.0887039 0.0334296 0)
(-0.090482 0.0381903 0)
(-0.0918879 0.046766 0)
(-0.0922901 0.0600461 0)
(-0.0905893 0.0752597 0)
(-0.0813233 0.0795369 0)
(-0.061864 0.0431456 0)
(-0.124424 -0.162815 0)
(0.237644 0.345004 0)
(-0.0114245 0.203194 0)
(0.0276026 0.111545 0)
(0.0376293 0.0351901 0)
(0.0302629 -0.0109977 0)
(0.0281261 -0.0325193 0)
(-0.000247611 -0.0390181 0)
(-0.0396711 -0.0381903 0)
(-0.078009 -0.0341437 0)
(-0.107414 -0.0310483 0)
(-0.123379 -0.0306899 0)
(-0.128289 -0.0326104 0)
(-0.129154 -0.034854 0)
(-0.1276 -0.0366787 0)
(-0.124795 -0.0380621 0)
(-0.121409 -0.0397858 0)
(-0.118138 -0.0425459 0)
(-0.115455 -0.0463539 0)
(-0.113423 -0.0507705 0)
(-0.111813 -0.0552561 0)
(-0.110299 -0.0594242 0)
(-0.10862 -0.0631499 0)
(-0.106657 -0.0665247 0)
(-0.104433 -0.0697428 0)
(-0.102064 -0.0729299 0)
(-0.0996877 -0.0760205 0)
(-0.097412 -0.0786842 0)
(-0.0952593 -0.0802721 0)
(-0.0930948 -0.0798129 0)
(-0.0905101 -0.0761176 0)
(-0.0866465 -0.0680338 0)
(-0.0799924 -0.0548591 0)
(-0.0683804 -0.0369869 0)
(-0.0499935 -0.0169762 0)
(-0.0265072 -0.00113708 0)
(0.0135597 -0.01474 0)
(0.0939197 -0.083358 0)
(-0.0735241 -0.130472 0)
(-0.560545 -0.581123 0)
(-0.715226 -0.144352 0)
(-0.523405 0.220583 0)
(-0.451772 0.12537 0)
(-0.295883 0.0856211 0)
(-0.226035 0.071149 0)
(-0.197699 0.0789829 0)
(-0.191693 0.0930689 0)
(-0.194444 0.10519 0)
(-0.198578 0.11767 0)
(-0.197931 0.129029 0)
(-0.193485 0.140368 0)
(-0.18641 0.150361 0)
(-0.178653 0.157777 0)
(-0.171562 0.16355 0)
(-0.165105 0.168489 0)
(-0.158903 0.173451 0)
(-0.152651 0.179221 0)
(-0.146395 0.186141 0)
(-0.140344 0.194023 0)
(-0.134655 0.202347 0)
(-0.129357 0.210546 0)
(-0.124368 0.218243 0)
(-0.119552 0.225346 0)
(-0.114785 0.23199 0)
(-0.109992 0.238404 0)
(-0.105144 0.244752 0)
(-0.100226 0.251046 0)
(-0.0951968 0.257093 0)
(-0.0899288 0.262462 0)
(-0.0841326 0.26651 0)
(-0.0772214 0.268523 0)
(-0.0681809 0.26801 0)
(-0.05575 0.265157 0)
(-0.0393144 0.261392 0)
(-0.0198848 0.25985 0)
(0.00667138 0.262849 0)
(0.0309446 0.272765 0)
(0.107269 0.299216 0)
(-0.247618 0.317552 0)
)
;

boundaryField
{
    floor
    {
        type            noSlip;
    }
    ceiling
    {
        type            noSlip;
    }
    sWall
    {
        type            noSlip;
    }
    nWall
    {
        type            noSlip;
    }
    sideWalls
    {
        type            empty;
    }
    glass1
    {
        type            noSlip;
    }
    glass2
    {
        type            noSlip;
    }
    sun
    {
        type            noSlip;
    }
    Table_master
    {
        type            noSlip;
    }
    Table_slave
    {
        type            noSlip;
    }
    inlet
    {
        type            fixedValue;
        value           uniform (0.646716 -0.267878 0);
    }
    outlet
    {
        type            zeroGradient;
    }
}


// ************************************************************************* //
