/*--------------------------------*- C++ -*----------------------------------*\
  =========                 |
  \\      /  F ield         | OpenFOAM: The Open Source CFD Toolbox
   \\    /   O peration     | Website:  https://openfoam.org
    \\  /    A nd           | Version:  6
     \\/     M anipulation  |
\*---------------------------------------------------------------------------*/
FoamFile
{
    version     2.0;
    format      ascii;
    class       volScalarField;
    location    "600";
    object      k;
}
// * * * * * * * * * * * * * * * * * * * * * * * * * * * * * * * * * * * * * //

dimensions      [0 2 -2 0 0 0 0];

internalField   nonuniform List<scalar> 
458
(
0.0024942
0.0029681
0.00311631
0.00343928
0.0037529
0.00406262
0.0043821
0.00473228
0.00507343
0.00536377
0.00554496
0.00554194
0.00527344
0.00457897
0.00253917
0.000589086
0.000838441
0.00108758
0.00115146
0.00111807
0.000999392
0.000872918
0.000764547
0.000674663
0.000599819
0.000537277
0.000484662
0.000439427
0.000399371
0.000362357
0.000325854
0.000299101
0.000247733
0.00452437
0.00831307
0.00460424
0.00486604
0.0052475
0.00569748
0.00622498
0.00683368
0.00754527
0.00828827
0.0088946
0.00918482
0.00905431
0.00847883
0.00706017
0.00434886
0.00293355
0.00193314
0.000600425
0.00132679
0.00172229
0.00190188
0.0018983
0.0016437
0.00136544
0.00113781
0.000960056
0.000820249
0.000708404
0.000616345
0.000538745
0.000473245
0.000427743
0.000402351
0.000664834
0.000401981
0.00668656
0.0150455
0.00550976
0.00531489
0.00554349
0.00586875
0.00628989
0.00684854
0.00756561
0.0083443
0.00900627
0.00942063
0.00951458
0.0092094
0.00807967
0.00645111
0.00503971
0.00263564
0.00170898
0.00204772
0.00222755
0.0023021
0.0022328
0.0017655
0.00137351
0.0010846
0.000875113
0.000722004
0.00060849
0.000523515
0.000459651
0.000413541
0.000387867
0.000392528
0.000956008
0.000535478
0.0091606
0.024493
0.00674595
0.00538615
0.00540767
0.005599
0.00590358
0.00643499
0.00721843
0.00804663
0.00872572
0.00920051
0.00941228
0.00918258
0.0082761
0.00713016
0.00603054
0.00450806
0.00356368
0.00334753
0.00318477
0.00307294
0.00292855
0.00269166
0.00210863
0.00177172
0.00157221
0.00144124
0.00133841
0.00123757
0.00113833
0.00103817
0.000925603
0.000712705
0.000572613
0.00123171
0.000687968
0.0120905
0.0373542
0.00985228
0.00563059
0.00527706
0.00533229
0.00557606
0.0062364
0.00728988
0.00822417
0.00890279
0.00937589
0.00957084
0.00918275
0.00812871
0.00690829
0.00591847
0.00518745
0.00503121
0.0045655
0.00417344
0.00383465
0.00348289
0.00309964
0.00274381
0.00254604
0.00245222
0.00238371
0.00229552
0.00216166
0.00196212
0.00172327
0.00146142
0.00115823
0.000889029
0.0010559
0.00110478
0.00103254
0.00116028
0.00114102
0.0156927
0.0513544
0.018257
0.00770349
0.00603125
0.00563759
0.00568271
0.00666207
0.00807926
0.00900853
0.00961261
0.0100154
0.0100986
0.00949512
0.00807535
0.00644024
0.00527883
0.00480426
0.004765
0.0047224
0.00451245
0.00414636
0.00370476
0.00327424
0.00298137
0.00288433
0.00287813
0.00287385
0.00282976
0.002718
0.00250608
0.00221344
0.00188671
0.00154447
0.00124587
0.00111678
0.00109296
0.00140804
0.00320857
0.00181962
0.0195748
0.0604052
0.0332874
0.017619
0.0117518
0.00903622
0.0081541
0.00906209
0.00994091
0.0104334
0.0107849
0.0110158
0.0109481
0.010099
0.00824152
0.00613599
0.00477847
0.00443469
0.00457344
0.00462055
0.00440918
0.00401581
0.0035783
0.00321375
0.00302481
0.00301797
0.0030885
0.00316387
0.00321447
0.00321713
0.00314056
0.00290226
0.00258328
0.00223705
0.00194799
0.00178568
0.00178415
0.00217077
0.00483632
0.00283509
0.0204584
0.0593934
0.0435623
0.0353403
0.0271661
0.0203648
0.0164521
0.0143143
0.0130591
0.012548
0.0123967
0.0123083
0.012006
0.010826
0.00841763
0.00585706
0.00445681
0.00421102
0.00427888
0.00421039
0.0039371
0.00357304
0.00324694
0.00303917
0.00297841
0.00303469
0.00315124
0.00329657
0.00346396
0.00365503
0.0038688
0.00407632
0.00412871
0.00411875
0.00427723
0.00492952
0.00644091
0.00840049
0.0173732
0.00499866
0.0195563
0.0277773
0.0271858
0.0252622
0.0230463
0.020357
0.0179131
0.0160078
0.0149033
0.014455
0.0140659
0.0136267
0.013031
0.0113404
0.00809188
0.00538323
0.00430091
0.0039932
0.00386062
0.00366723
0.00340401
0.00314732
0.00296223
0.00287179
0.00286695
0.00292385
0.00302213
0.0031556
0.00332858
0.00354845
0.00381918
0.00413701
0.00450175
0.00496332
0.00561009
0.00642101
0.00721419
0.00773728
0.00803259
0.00458582
0.005888
0.00939077
0.0125686
0.0146206
0.0157467
0.0165064
0.0170934
0.0169017
0.0156049
0.0143721
0.0133361
0.0106723
0.00734572
0.00538286
0.00448761
0.00407244
0.00382138
0.00360653
0.00340532
0.00323396
0.00310542
0.00301925
0.00296791
0.0029435
0.00294166
0.00296417
0.00301944
0.00312269
0.00329678
0.00357234
0.00395781
0.00443209
0.0049708
0.00546597
0.00569644
0.00543829
0.0047082
0.00289325
0.0133615
0.0292139
0.0254553
0.0257971
0.0255436
0.0248847
0.0225901
0.0176614
0.0127232
0.00928357
0.0075369
0.00629282
0.0055649
0.00517575
0.00490956
0.0046422
0.00437781
0.00411989
0.00387371
0.00364698
0.00344564
0.00327396
0.00313654
0.00303967
0.00299118
0.00299864
0.00306795
0.00320284
0.00340442
0.00369929
0.0040936
0.00458438
0.0051401
0.00566241
0.0060301
0.00624741
0.00427817
0.00294911
0.0147267
0.0151304
0.0156287
0.0178794
0.0160766
0.0147028
0.0123597
0.00899254
0.00561398
0.00421869
0.00328931
0.00283333
0.00260133
0.00237824
0.00215378
0.00197194
0.00183835
0.00174858
0.00167598
0.00161699
0.00157307
0.00154557
0.00153517
0.00154215
0.00156678
0.00160949
0.00167102
0.00175274
0.00185733
0.00199007
0.00216123
0.00236558
0.00260736
0.00288815
0.00320836
0.00356154
0.00391244
0.00377515
0.00318965
0.00269853
)
;

boundaryField
{
    floor
    {
        type            kqRWallFunction;
        value           nonuniform List<scalar> 
36
(
0.00253917
0.000589086
0.000838441
0.00108758
0.00115146
0.00111807
0.000999392
0.000872918
0.000764547
0.000674663
0.000599819
0.000537277
0.000484662
0.000439427
0.000399371
0.000362357
0.000325854
0.000299101
0.000247733
0.000247733
0.000401981
0.000535478
0.000687968
0.00103254
0.00116028
0.00114102
0.00253917
0.00434886
0.00293355
0.00193314
0.000589086
0.00193314
0.000600425
0.00263564
0.00170898
0.00356368
)
;
    }
    ceiling
    {
        type            kqRWallFunction;
        value           nonuniform List<scalar> 
43
(
0.0147267
0.0151304
0.0156287
0.0178794
0.0160766
0.0147028
0.0123597
0.00899254
0.00561398
0.00421869
0.00328931
0.00283333
0.00260133
0.00237824
0.00215378
0.00197194
0.00183835
0.00174858
0.00167598
0.00161699
0.00157307
0.00154557
0.00153517
0.00154215
0.00156678
0.00160949
0.00167102
0.00175274
0.00185733
0.00199007
0.00216123
0.00236558
0.00260736
0.00288815
0.00320836
0.00356154
0.00391244
0.00377515
0.00318965
0.00269853
0.0195563
0.0277773
0.0133615
)
;
    }
    sWall
    {
        type            kqRWallFunction;
        value           uniform 0.0147267;
    }
    nWall
    {
        type            kqRWallFunction;
        value           nonuniform List<scalar> 6(0.00114102 0.00181962 0.00283509 0.00289325 0.00294911 0.00269853);
    }
    sideWalls
    {
        type            empty;
    }
    glass1
    {
        type            kqRWallFunction;
        value           nonuniform List<scalar> 9(0.0024942 0.00452437 0.00668656 0.0091606 0.0120905 0.0156927 0.0195748 0.0204584 0.0195563);
    }
    glass2
    {
        type            kqRWallFunction;
        value           nonuniform List<scalar> 2(0.00499866 0.00458582);
    }
    sun
    {
        type            kqRWallFunction;
        value           nonuniform List<scalar> 
14
(
0.0024942
0.0029681
0.00311631
0.00343928
0.0037529
0.00406262
0.0043821
0.00473228
0.00507343
0.00536377
0.00554496
0.00554194
0.00527344
0.00457897
)
;
    }
    Table_master
    {
        type            kqRWallFunction;
        value           nonuniform List<scalar> 9(0.0017655 0.00137351 0.0010846 0.000875113 0.000722004 0.00060849 0.000523515 0.000459651 0.000413541);
    }
    Table_slave
    {
        type            kqRWallFunction;
        value           nonuniform List<scalar> 9(0.00210863 0.00177172 0.00157221 0.00144124 0.00133841 0.00123757 0.00113833 0.00103817 0.000925603);
    }
    inlet
    {
        type            turbulentIntensityKineticEnergyInlet;
        intensity       0.05;
        value           uniform 0.00375;
    }
    outlet
    {
        type            zeroGradient;
    }
}


// ************************************************************************* //
