/*--------------------------------*- C++ -*----------------------------------*\
  =========                 |
  \\      /  F ield         | OpenFOAM: The Open Source CFD Toolbox
   \\    /   O peration     | Website:  https://openfoam.org
    \\  /    A nd           | Version:  6
     \\/     M anipulation  |
\*---------------------------------------------------------------------------*/
FoamFile
{
    version     2.0;
    format      ascii;
    class       volScalarField;
    location    "1200";
    object      nut;
}
// * * * * * * * * * * * * * * * * * * * * * * * * * * * * * * * * * * * * * //

dimensions      [0 2 -1 0 0 0 0];

internalField   nonuniform List<scalar> 
458
(
0.00165733
0.00230042
0.0022246
0.00213933
0.00206575
0.00200261
0.00194678
0.00189594
0.00184823
0.00180135
0.00175308
0.00170075
0.00164028
0.00156329
0.0014644
0.000154714
0.000144123
0.000141995
0.000141785
0.000140044
0.000140263
0.000142174
0.000145241
0.000136192
0.000124368
0.000115346
0.000110886
0.00011555
0.000126011
0.000139994
0.000164099
0.000177001
0.000170681
0.00246649
0.00305887
0.00317817
0.00310717
0.00302638
0.00298049
0.00295681
0.00293834
0.00289654
0.00282768
0.00272891
0.00259602
0.00241822
0.00217024
0.00182201
0.00142031
0.00130523
0.00109512
0.000254375
0.000400099
0.000503347
0.000512416
0.000431042
0.000357307
0.00033422
0.000317905
0.000274304
0.000217855
0.000170069
0.000146516
0.000164042
0.000197179
0.000415958
0.000582181
0.000526565
0.000262841
0.0027532
0.00369996
0.0034903
0.00316957
0.00303158
0.00303591
0.00311219
0.00320126
0.00326035
0.00326941
0.00321412
0.00308568
0.00287855
0.00258582
0.00223048
0.00192599
0.00173055
0.0011657
0.000383482
0.0010396
0.00108534
0.000965679
0.000667813
0.000300408
0.00025367
0.000227028
0.000206571
0.000188905
0.000172691
0.000157457
0.000168282
0.000315422
0.000940863
0.00105195
0.00104735
0.000391595
0.00287474
0.0042359
0.00337315
0.00275429
0.00273123
0.00300322
0.00338126
0.00370177
0.00384392
0.00383353
0.00370894
0.00350248
0.0032308
0.00289669
0.00252914
0.00221905
0.00196616
0.00147955
0.000978786
0.00101009
0.00124425
0.00121978
0.000974979
0.000694362
0.00047179
0.000491024
0.0005119
0.000533259
0.000556031
0.000581548
0.00061148
0.000648266
0.000682975
0.00144171
0.0017688
0.00171236
0.000612448
0.00296038
0.00441901
0.00274947
0.0023295
0.00318659
0.00420457
0.00494923
0.00531073
0.00513556
0.00471517
0.00426772
0.00385494
0.0034662
0.00307387
0.00268749
0.00236621
0.00209134
0.00168011
0.00131347
0.00123137
0.00176456
0.00219421
0.00227048
0.00231787
0.00238419
0.00249438
0.0025952
0.00267903
0.00274624
0.00280107
0.00284766
0.00288814
0.00291776
0.0029787
0.00293284
0.00271206
0.00195776
0.00088429
0.000819826
0.000725604
0.00303873
0.00420644
0.00204381
0.00283115
0.00473707
0.00551841
0.00587024
0.00596466
0.00566898
0.00502992
0.00443266
0.00393747
0.00350604
0.00309929
0.00272309
0.00240883
0.0021312
0.00177036
0.00150005
0.00157529
0.00219557
0.00274582
0.00293314
0.0030697
0.0032177
0.00336749
0.00349623
0.00358541
0.00362352
0.00361527
0.00357882
0.00352786
0.00346736
0.00340569
0.00336184
0.00335332
0.00328945
0.00300048
0.00231265
0.000868723
0.00313301
0.0036687
0.00184439
0.00264358
0.00465761
0.00521721
0.00532433
0.00527829
0.00506596
0.00465264
0.0042008
0.00377857
0.00339099
0.00302563
0.00269015
0.00238899
0.00211431
0.00181058
0.00163714
0.0018896
0.00251091
0.00297434
0.00317285
0.00335178
0.00354417
0.00374846
0.00394453
0.0041031
0.00418172
0.00415704
0.0040519
0.00389438
0.00370418
0.00350775
0.00333133
0.00316799
0.00296318
0.00264112
0.00220687
0.000866049
0.00326347
0.00342587
0.00218062
0.00196074
0.00366889
0.00426639
0.00433394
0.00431127
0.0042174
0.00403133
0.00377096
0.00348306
0.00319052
0.00290048
0.00261947
0.00234448
0.00209024
0.00185379
0.00177474
0.00218605
0.00275766
0.00307266
0.00329778
0.0035215
0.00375037
0.0039806
0.00422529
0.00448735
0.00471475
0.00481243
0.00475964
0.00456497
0.0042287
0.00377282
0.00324967
0.00272492
0.00227128
0.0019364
0.00167007
0.00114722
0.00349224
0.00392769
0.00346938
0.0021102
0.00270731
0.00345738
0.00359438
0.0036152
0.00356995
0.00349134
0.00335952
0.00319127
0.00299979
0.00279221
0.00257128
0.00233818
0.0021209
0.00194974
0.00197294
0.00255799
0.00299162
0.00330732
0.00365785
0.00393536
0.00414697
0.0043145
0.00448585
0.00471206
0.00501626
0.00530986
0.0055521
0.00569364
0.0057263
0.0057005
0.00565218
0.00548655
0.00493584
0.00399832
0.00337829
0.00143099
0.00515626
0.00284298
0.00284499
0.00317723
0.00329895
0.00336463
0.00337579
0.00333605
0.00325711
0.00315588
0.00303359
0.00288908
0.00272055
0.00253243
0.00235736
0.00225455
0.0024409
0.0032257
0.00366699
0.00416836
0.00458347
0.00482656
0.00495549
0.00502769
0.00509401
0.00519086
0.00533396
0.00548028
0.00567256
0.00591396
0.00615705
0.00635933
0.00650137
0.00650166
0.00618783
0.00552671
0.00449897
0.00150903
0.00238922
0.00295959
0.00339687
0.00322652
0.00314117
0.00306758
0.0029935
0.00290526
0.00281683
0.00274669
0.00268081
0.0026091
0.00252471
0.00242886
0.00234347
0.00233457
0.00272106
0.00356209
0.0043227
0.00503027
0.00554357
0.00577442
0.00583561
0.00583741
0.00584236
0.0058689
0.00590122
0.00586022
0.00579331
0.0057585
0.00579226
0.00589345
0.00601541
0.00597428
0.00560109
0.00493085
0.00423263
0.00161213
0.00151861
0.00139564
0.00130875
0.00109917
0.00109335
0.00108229
0.00108124
0.00108155
0.00108251
0.00108445
0.0010851
0.00108328
0.00107948
0.00107345
0.00106471
0.00105315
0.00103993
0.0010284
0.00104624
0.00110706
0.00117787
0.00124671
0.00130627
0.00135345
0.00137883
0.00138788
0.00138893
0.00138753
0.00138544
0.00138666
0.00138385
0.00137694
0.00136744
0.00135531
0.00133688
0.00131299
0.00128429
0.00123349
0.00120551
0.00126272
)
;

boundaryField
{
    floor
    {
        type            nutkWallFunction;
        Cmu             0.09;
        kappa           0.41;
        E               9.8;
        value           nonuniform List<scalar> 
36
(
0.000174205
1.27013e-05
1.11117e-05
1.07904e-05
1.07591e-05
1.0496e-05
1.05295e-05
1.08188e-05
1.12818e-05
9.91119e-06
8.09981e-06
6.70062e-06
6.00244e-06
6.72975e-06
8.3532e-06
1.04887e-05
1.41006e-05
1.60023e-05
1.50731e-05
1.50729e-05
2.82272e-05
4.56193e-05
7.38852e-05
0.000107023
9.92899e-05
8.78552e-05
0.000174205
0.000169221
0.000156133
0.000131891
1.27011e-05
0.000131891
2.70448e-05
0.000140088
4.45445e-05
0.000118245
)
;
    }
    ceiling
    {
        type            nutkWallFunction;
        Cmu             0.09;
        kappa           0.41;
        E               9.8;
        value           nonuniform List<scalar> 
43
(
0.000180375
0.00016646
0.00015653
0.00013236
0.000131682
0.000130391
0.000130269
0.000130305
0.000130418
0.000130644
0.000130719
0.000130507
0.000130063
0.000129359
0.000128338
0.000126986
0.000125436
0.000124083
0.000126175
0.000133277
0.00014149
0.000149421
0.000156244
0.000161623
0.000164508
0.000165536
0.000165655
0.000165495
0.000165258
0.000165397
0.000165077
0.000164292
0.000163212
0.000161834
0.000159734
0.000157009
0.000153728
0.0001479
0.000144679
0.000151257
0.000391187
0.000435697
0.00027557
)
;
    }
    sWall
    {
        type            nutkWallFunction;
        Cmu             0.09;
        kappa           0.41;
        E               9.8;
        value           uniform 0.000180414;
    }
    nWall
    {
        type            nutkWallFunction;
        Cmu             0.09;
        kappa           0.41;
        E               9.8;
        value           nonuniform List<scalar> 6(8.78541e-05 0.000105164 0.000104845 0.00017923 0.000190781 0.000151267);
    }
    sideWalls
    {
        type            empty;
    }
    glass1
    {
        type            nutkWallFunction;
        Cmu             0.09;
        kappa           0.41;
        E               9.8;
        value           nonuniform List<scalar> 9(0.00019604 0.000284206 0.000314645 0.000327445 0.000336429 0.000344623 0.000354453 0.000368008 0.000391645);
    }
    glass2
    {
        type            nutkWallFunction;
        Cmu             0.09;
        kappa           0.41;
        E               9.8;
        value           nonuniform List<scalar> 2(0.000137963 0.000170455);
    }
    sun
    {
        type            nutkWallFunction;
        Cmu             0.09;
        kappa           0.41;
        E               9.8;
        value           nonuniform List<scalar> 
14
(
0.000195846
0.000266095
0.000257928
0.000248712
0.000240728
0.000233853
0.000227755
0.000222185
0.000216944
0.00021178
0.000206448
0.000200649
0.000193924
0.000185322
)
;
    }
    Table_master
    {
        type            nutkWallFunction;
        Cmu             0.09;
        kappa           0.41;
        E               9.8;
        value           nonuniform List<scalar> 9(3.33938e-05 2.6947e-05 2.32018e-05 2.02858e-05 1.77358e-05 1.53661e-05 1.31111e-05 1.47078e-05 3.54351e-05);
    }
    Table_slave
    {
        type            nutkWallFunction;
        Cmu             0.09;
        kappa           0.41;
        E               9.8;
        value           nonuniform List<scalar> 9(5.60622e-05 5.85343e-05 6.12039e-05 6.39212e-05 6.68038e-05 7.00164e-05 7.37633e-05 7.83377e-05 8.26251e-05);
    }
    inlet
    {
        type            calculated;
        value           uniform 0.000100623;
    }
    outlet
    {
        type            calculated;
        value           nonuniform List<scalar> 2(0.00151861 0.00139564);
    }
}


// ************************************************************************* //
