// -*- C++ -*-
// File generated by PyFoam - sorry for the ugliness

FoamFile
{
 version 2.0;
 format ascii;
 class volVectorField;
 location "1200";
 object U;
}

dimensions [ 0 1 -1 0 0 0 0 ];

internalField nonuniform List<vector> 458
(
  (0.0246326 0.192287 0)
  (0.159748 -0.223352 0)
  (0.279616 -0.156207 0)
  (0.395018 -0.101156 0)
  (0.466081 -0.0686208 0)
  (0.50048 -0.0489793 0)
  (0.515286 -0.0352063 0)
  (0.518791 -0.0245395 0)
  (0.512029 -0.0151102 0)
  (0.495137 -0.00604073 0)
  (0.467345 0.00356742 0)
  (0.426883 0.0150331 0)
  (0.369833 0.0313628 0)
  (0.283665 0.0632216 0)
  (0.214857 0.153294 0)
  (0.0381806 0.00237317 0)
  (-0.0135382 0.00290325 0)
  (-0.00483142 0.00215973 0)
  (-0.00698687 0.00213929 0)
  (-0.0103807 0.00144079 0)
  (-0.0130948 -0.000639289 0)
  (-0.0138262 -0.00188664 0)
  (-0.0118972 -0.00213286 0)
  (-0.0100125 -0.00177032 0)
  (-0.00777445 -0.00176159 0)
  (-0.00507023 -0.00223286 0)
  (-0.00143072 -0.00341593 0)
  (0.00537696 -0.00560154 0)
  (0.00809166 -0.00244165 0)
  (0.00914937 0.000645245 0)
  (0.00803054 0.000498392 0)
  (0.0125759 0.000537692 0)
  (-0.0261283 0.00342112 0)
  (0.53233 -0.158966 0)
  (0.279543 -0.245149 0)
  (0.335452 -0.170374 0)
  (0.403512 -0.0930569 0)
  (0.436368 -0.0482002 0)
  (0.450801 -0.0219207 0)
  (0.457816 -0.00258222 0)
  (0.459192 0.0140075 0)
  (0.452291 0.0284833 0)
  (0.437 0.0423534 0)
  (0.412855 0.0570991 0)
  (0.379577 0.0744914 0)
  (0.338544 0.0973587 0)
  (0.294829 0.131396 0)
  (0.272041 0.195816 0)
  (0.265417 0.164234 0)
  (0.149267 0.121932 0)
  (0.0380882 0.0764707 0)
  (0.0279118 -0.00191832 0)
  (0.00824994 0.00157394 0)
  (0.00715894 0.00210646 0)
  (0.00896018 0.00264052 0)
  (0.00929843 0.00498711 0)
  (0.00806338 0.00584518 0)
  (0.00526038 0.00385041 0)
  (0.000854355 -0.000208626 0)
  (-0.000415046 -0.00163328 0)
  (-0.000897405 -0.00209052 0)
  (-0.000646523 -0.00319663 0)
  (0.00154683 -0.00609507 0)
  (0.00395219 -0.0103753 0)
  (0.00333637 -0.00270696 0)
  (0.00447113 0.00646608 0)
  (0.000879761 0.00569205 0)
  (-0.00945382 0.00318281 0)
  (-0.0421843 -0.00142907 0)
  (0.635259 -0.40901 0)
  (0.141866 -0.345511 0)
  (0.246093 -0.211175 0)
  (0.300864 -0.122898 0)
  (0.310158 -0.0762658 0)
  (0.315171 -0.0470432 0)
  (0.321335 -0.0241265 0)
  (0.326743 -0.00272957 0)
  (0.32719 0.0196934 0)
  (0.321987 0.0434562 0)
  (0.310699 0.0690237 0)
  (0.293407 0.0970176 0)
  (0.271572 0.128177 0)
  (0.247465 0.162658 0)
  (0.230033 0.198988 0)
  (0.207195 0.163345 0)
  (0.138773 0.135114 0)
  (0.0743928 0.122147 0)
  (-0.0227976 0.00192232 0)
  (-0.0124435 -0.0020213 0)
  (-0.00899422 -0.00178553 0)
  (-0.00378508 -0.00276618 0)
  (0.00060167 -0.0048549 0)
  (0.018003 -0.00127732 0)
  (0.0213761 -0.00215191 0)
  (0.0222794 -0.00426736 0)
  (0.0212384 -0.00600705 0)
  (0.0192325 -0.0076131 0)
  (0.0164114 -0.00930213 0)
  (0.0123783 -0.0114982 0)
  (0.00221371 -0.0143428 0)
  (-0.0101072 -0.00558381 0)
  (0.00956275 7.52693e-05 0)
  (0.0137834 0.00673307 0)
  (0.0154845 0.00991125 0)
  (-3.26539e-05 0.00619736 0)
  (0.676611 -0.548792 0)
  (-0.0627761 -0.370768 0)
  (0.149412 -0.207318 0)
  (0.184315 -0.123298 0)
  (0.172692 -0.0797783 0)
  (0.174513 -0.0487651 0)
  (0.181983 -0.0237799 0)
  (0.189152 2.72696e-05 0)
  (0.196925 0.0249885 0)
  (0.200562 0.0518984 0)
  (0.199881 0.081133 0)
  (0.194768 0.112576 0)
  (0.185642 0.145605 0)
  (0.172496 0.178602 0)
  (0.161184 0.208526 0)
  (0.146011 0.198326 0)
  (0.111447 0.183453 0)
  (0.0820384 0.171729 0)
  (0.0373983 0.104814 0)
  (-0.0530671 0.0044756 0)
  (-0.0327844 -0.00442312 0)
  (-0.0310641 -0.00446055 0)
  (-0.033075 -0.00535857 0)
  (-0.0374144 -0.00706584 0)
  (-0.039038 -0.00516074 0)
  (-0.0353759 -0.00549822 0)
  (-0.0311622 -0.00632028 0)
  (-0.0259571 -0.00723632 0)
  (-0.0196349 -0.0082809 0)
  (-0.0122297 -0.00953681 0)
  (-0.00379873 -0.0110171 0)
  (0.00758321 -0.0122384 0)
  (0.0188459 -0.0129898 0)
  (0.0248306 -0.0108618 0)
  (0.0306099 -0.00116772 0)
  (0.0333056 0.0110741 0)
  (0.0347007 0.032283 0)
  (0.689024 -0.617406 0)
  (-0.212423 -0.386808 0)
  (0.102573 -0.221867 0)
  (0.0910825 -0.124332 0)
  (0.0569311 -0.083745 0)
  (0.0628603 -0.0553047 0)
  (0.0720161 -0.0323445 0)
  (0.0792376 -0.00916999 0)
  (0.0887903 0.0175091 0)
  (0.0949042 0.0477726 0)
  (0.0985124 0.0809596 0)
  (0.0994788 0.116002 0)
  (0.097902 0.151698 0)
  (0.0933664 0.186502 0)
  (0.0906929 0.218177 0)
  (0.0847661 0.22259 0)
  (0.0674769 0.214423 0)
  (0.052297 0.197786 0)
  (0.0254557 0.124988 0)
  (-0.0183884 0.0327059 0)
  (-0.0245698 0.0026997 0)
  (-0.0312365 -0.000627402 0)
  (-0.0349376 -0.00168747 0)
  (-0.0368857 -0.00281433 0)
  (-0.0367746 -0.00319645 0)
  (-0.0348635 -0.00465372 0)
  (-0.0321438 -0.00625183 0)
  (-0.0287896 -0.00788078 0)
  (-0.0248383 -0.00960556 0)
  (-0.0203005 -0.011552 0)
  (-0.0151484 -0.0137326 0)
  (-0.00913595 -0.015673 0)
  (-0.00222394 -0.0168841 0)
  (0.00574604 -0.0168338 0)
  (0.016835 -0.0110141 0)
  (0.0354069 0.00204832 0)
  (0.0609258 0.0255509 0)
  (0.08492 0.0153865 0)
  (0.0927928 0.0154886 0)
  (-0.0562386 0.037739 0)
  (0.651672 -0.627612 0)
  (-0.264699 -0.393177 0)
  (0.0513188 -0.225906 0)
  (0.00616845 -0.0937832 0)
  (-0.0364131 -0.0803782 0)
  (-0.0243434 -0.0611722 0)
  (-0.0173684 -0.0411751 0)
  (-0.0115309 -0.0182479 0)
  (-0.00408944 0.00937354 0)
  (0.000497767 0.0421438 0)
  (0.00523348 0.0775362 0)
  (0.0095247 0.114357 0)
  (0.013405 0.151673 0)
  (0.0161546 0.187947 0)
  (0.0220798 0.22072 0)
  (0.0247232 0.230425 0)
  (0.0191028 0.226193 0)
  (0.0160926 0.209579 0)
  (0.00487194 0.14094 0)
  (-0.0153656 0.0474188 0)
  (-0.019115 0.0138613 0)
  (-0.0273274 0.00472294 0)
  (-0.0313985 0.000571467 0)
  (-0.0330035 -0.00233513 0)
  (-0.0329744 -0.00455275 0)
  (-0.0320663 -0.00672285 0)
  (-0.0308723 -0.00869689 0)
  (-0.0296931 -0.0105055 0)
  (-0.0287149 -0.0123153 0)
  (-0.0280438 -0.0143425 0)
  (-0.0276865 -0.016708 0)
  (-0.0274823 -0.0192873 0)
  (-0.0270471 -0.0217529 0)
  (-0.0254093 -0.0235 0)
  (-0.0203286 -0.0234407 0)
  (-0.00956263 -0.0220061 0)
  (0.012355 -0.0190933 0)
  (0.0349591 -0.016575 0)
  (0.0737071 0.0156903 0)
  (-0.0754883 0.0779521 0)
  (0.542289 -0.573583 0)
  (-0.242224 -0.360148 0)
  (-0.0652667 -0.199681 0)
  (-0.0689547 -0.0681356 0)
  (-0.120677 -0.0793485 0)
  (-0.108861 -0.0668825 0)
  (-0.10351 -0.0473641 0)
  (-0.0984878 -0.0228425 0)
  (-0.0931313 0.00602105 0)
  (-0.0887078 0.0381765 0)
  (-0.0828374 0.0725956 0)
  (-0.0754924 0.10868 0)
  (-0.0666304 0.145401 0)
  (-0.0565203 0.180991 0)
  (-0.0425503 0.212067 0)
  (-0.0306842 0.225082 0)
  (-0.0243874 0.224698 0)
  (-0.0155145 0.209191 0)
  (-0.0138926 0.144576 0)
  (-0.018623 0.0574 0)
  (-0.0187641 0.0221305 0)
  (-0.0235721 0.00917932 0)
  (-0.0258452 0.00256583 0)
  (-0.0264365 -0.00187889 0)
  (-0.0261647 -0.00507364 0)
  (-0.0258586 -0.0074144 0)
  (-0.0260257 -0.00908294 0)
  (-0.027045 -0.0102727 0)
  (-0.0293017 -0.0112335 0)
  (-0.0331862 -0.0123204 0)
  (-0.0389721 -0.0138773 0)
  (-0.0467033 -0.016081 0)
  (-0.0558298 -0.0188456 0)
  (-0.0651548 -0.0220041 0)
  (-0.0729479 -0.0257613 0)
  (-0.0774161 -0.0311399 0)
  (-0.0759752 -0.0377899 0)
  (-0.0624569 -0.0385441 0)
  (0.0138224 0.00125014 0)
  (-0.140803 0.14872 0)
  (0.370275 -0.448362 0)
  (-0.312116 -0.285849 0)
  (-0.270339 -0.192798 0)
  (-0.159507 -0.0583907 0)
  (-0.221242 -0.0901818 0)
  (-0.196462 -0.0775311 0)
  (-0.187875 -0.0549144 0)
  (-0.182419 -0.0278997 0)
  (-0.177441 0.0020019 0)
  (-0.171452 0.0332753 0)
  (-0.163737 0.0656633 0)
  (-0.152978 0.0992559 0)
  (-0.138876 0.133299 0)
  (-0.121285 0.166077 0)
  (-0.0993603 0.194148 0)
  (-0.0775864 0.209128 0)
  (-0.058836 0.211696 0)
  (-0.0390151 0.196946 0)
  (-0.0263283 0.137407 0)
  (-0.0203633 0.0593853 0)
  (-0.0167816 0.0254733 0)
  (-0.0173653 0.0111805 0)
  (-0.0167558 0.00328828 0)
  (-0.015288 -0.00175029 0)
  (-0.0142901 -0.00481938 0)
  (-0.0141456 -0.00644852 0)
  (-0.0150906 -0.00701191 0)
  (-0.0173841 -0.00667518 0)
  (-0.0215125 -0.00552649 0)
  (-0.0282068 -0.00376878 0)
  (-0.0382302 -0.0015819 0)
  (-0.0531079 0.00020424 0)
  (-0.0736431 0.000502714 0)
  (-0.0996223 -0.00158077 0)
  (-0.129838 -0.00635911 0)
  (-0.161892 -0.0131895 0)
  (-0.190599 -0.0195961 0)
  (-0.212643 -0.0208445 0)
  (-0.251189 -0.0122341 0)
  (-0.391191 0.0112433 0)
  (0.128005 -0.328902 0)
  (-0.568627 -0.296373 0)
  (-0.720882 -0.299682 0)
  (-0.206572 -0.159656 0)
  (-0.305666 -0.12304 0)
  (-0.264553 -0.0915471 0)
  (-0.255345 -0.0620551 0)
  (-0.252415 -0.0345041 0)
  (-0.249937 -0.00679109 0)
  (-0.243673 0.0229242 0)
  (-0.234092 0.0531459 0)
  (-0.219676 0.083571 0)
  (-0.200084 0.113829 0)
  (-0.175135 0.142662 0)
  (-0.145066 0.16736 0)
  (-0.113103 0.182731 0)
  (-0.0821472 0.187084 0)
  (-0.0519577 0.173988 0)
  (-0.0293931 0.121627 0)
  (-0.0145526 0.0548793 0)
  (-0.00714428 0.0252932 0)
  (-0.00410523 0.0122039 0)
  (-0.000713584 0.00464143 0)
  (0.00230951 3.38988e-05 0)
  (0.00344479 -0.00220374 0)
  (0.0033715 -0.00295747 0)
  (0.00233684 -0.00262796 0)
  (0.000557092 -0.00125833 0)
  (-0.00186584 0.00127512 0)
  (-0.00444876 0.00501801 0)
  (-0.00796871 0.00975731 0)
  (-0.012364 0.0149922 0)
  (-0.017627 0.0195579 0)
  (-0.0234585 0.022032 0)
  (-0.0294309 0.0211133 0)
  (-0.0350414 0.0160314 0)
  (-0.0384866 0.00509731 0)
  (-0.0377228 -0.0204609 0)
  (-0.0564754 -0.077742 0)
  (-0.310375 -0.160945 0)
  (-1.47966 -0.313571 0)
  (-0.113799 -0.2468 0)
  (-0.299491 -0.146748 0)
  (-0.294038 -0.0901317 0)
  (-0.299503 -0.0473211 0)
  (-0.303733 -0.012775 0)
  (-0.304113 0.0150757 0)
  (-0.299039 0.0364973 0)
  (-0.288488 0.0564524 0)
  (-0.271314 0.0770614 0)
  (-0.247001 0.0980593 0)
  (-0.215515 0.118472 0)
  (-0.17759 0.136353 0)
  (-0.135721 0.148447 0)
  (-0.0930478 0.152299 0)
  (-0.0522702 0.141756 0)
  (-0.0187712 0.0992072 0)
  (0.00696139 0.0423687 0)
  (0.0163792 0.0209369 0)
  (0.0212318 0.0107763 0)
  (0.0245719 0.00298296 0)
  (0.0253001 -0.00153501 0)
  (0.0245344 -0.00333607 0)
  (0.0231104 -0.00360207 0)
  (0.0214622 -0.00273395 0)
  (0.0199181 -0.000765225 0)
  (0.0188616 0.00231733 0)
  (0.0185268 0.00589581 0)
  (0.0188836 0.0103986 0)
  (0.0202442 0.015245 0)
  (0.0226921 0.0191269 0)
  (0.0262717 0.0204383 0)
  (0.0312226 0.0180281 0)
  (0.0379793 0.0125283 0)
  (0.0482593 0.00534587 0)
  (0.0640511 -0.00469631 0)
  (0.0794849 -0.0395861 0)
  (-0.0372182 -0.120023 0)
  (-0.165599 0.0353439 0)
  (-0.0807829 -0.214835 0)
  (-0.236951 -0.155569 0)
  (-0.290157 -0.131737 0)
  (-0.323649 -0.115992 0)
  (-0.342635 -0.100468 0)
  (-0.349965 -0.081697 0)
  (-0.346916 -0.0572184 0)
  (-0.335177 -0.0319647 0)
  (-0.314886 -0.00927597 0)
  (-0.285694 0.011811 0)
  (-0.247685 0.031455 0)
  (-0.20168 0.0489944 0)
  (-0.149787 0.0628714 0)
  (-0.0952878 0.07069 0)
  (-0.0424009 0.0653716 0)
  (0.0108058 0.0180807 0)
  (0.040606 -0.0355754 0)
  (0.0507687 -0.0648573 0)
  (0.0525161 -0.0793548 0)
  (0.0503427 -0.0832784 0)
  (0.0467064 -0.0799746 0)
  (0.0431905 -0.0756473 0)
  (0.040449 -0.0723286 0)
  (0.0383957 -0.0701459 0)
  (0.0369512 -0.0686804 0)
  (0.0364276 -0.067198 0)
  (0.0370439 -0.0625392 0)
  (0.0391859 -0.05626 0)
  (0.0433207 -0.0498311 0)
  (0.0494113 -0.0452701 0)
  (0.0568529 -0.0449018 0)
  (0.0646996 -0.0503395 0)
  (0.0723318 -0.0587182 0)
  (0.0791265 -0.0648059 0)
  (0.0838095 -0.0681517 0)
  (0.108139 -0.0785411 0)
  (-0.00742422 -0.125326 0)
  (0.68156 0.204245 0)
  (0.104686 -0.298959 0)
  (-0.243101 0.199762 0)
  (-0.130595 0.127392 0)
  (-0.234073 0.150018 0)
  (-0.288488 0.16832 0)
  (-0.32732 0.178702 0)
  (-0.352471 0.183357 0)
  (-0.365565 0.183043 0)
  (-0.366703 0.17829 0)
  (-0.355871 0.174131 0)
  (-0.333598 0.173835 0)
  (-0.300212 0.176718 0)
  (-0.256072 0.182458 0)
  (-0.20224 0.190909 0)
  (-0.141534 0.201942 0)
  (-0.0790072 0.215265 0)
  (-0.0163827 0.230164 0)
  (0.0417977 0.243386 0)
  (0.0666564 0.254308 0)
  (0.077213 0.260687 0)
  (0.0799539 0.261556 0)
  (0.0786972 0.256916 0)
  (0.0756027 0.247542 0)
  (0.0719795 0.239839 0)
  (0.0682003 0.235517 0)
  (0.0646018 0.233983 0)
  (0.0615914 0.234111 0)
  (0.0595376 0.234838 0)
  (0.058745 0.231528 0)
  (0.0599439 0.22611 0)
  (0.0632495 0.219772 0)
  (0.068219 0.213853 0)
  (0.0736014 0.210091 0)
  (0.0772927 0.210466 0)
  (0.0764321 0.211818 0)
  (0.0682983 0.207842 0)
  (0.0500073 0.198659 0)
  (0.114143 0.189936 0)
  (-0.355787 0.322865 0)
)
;

boundaryField
{
  floor
  {
    type noSlip;
  }
  ceiling
  {
    type noSlip;
  }
  sWall
  {
    type noSlip;
  }
  nWall
  {
    type noSlip;
  }
  sideWalls
  {
    type empty;
  }
  glass1
  {
    type noSlip;
  }
  glass2
  {
    type noSlip;
  }
  sun
  {
    type noSlip;
  }
  Table_master
  {
    type noSlip;
  }
  Table_slave
  {
    type noSlip;
  }
  inlet
  {
    type fixedValue;
    value uniform (0.646716 -0.267878 0);
  }
  outlet
  {
    type zeroGradient;
  }
} 	// ************************************************************************* //

