/*--------------------------------*- C++ -*----------------------------------*\
  =========                 |
  \\      /  F ield         | OpenFOAM: The Open Source CFD Toolbox
   \\    /   O peration     | Website:  https://openfoam.org
    \\  /    A nd           | Version:  6
     \\/     M anipulation  |
\*---------------------------------------------------------------------------*/
FoamFile
{
    version     2.0;
    format      ascii;
    class       volScalarField;
    location    "700";
    object      alphat;
}
// * * * * * * * * * * * * * * * * * * * * * * * * * * * * * * * * * * * * * //

dimensions      [1 -1 -1 0 0 0 0];

internalField   nonuniform List<scalar> 
458
(
0.000877086
0.000896839
0.000793846
0.000821352
0.000853914
0.000885356
0.000915407
0.000944666
0.000974224
0.00100521
0.00103142
0.00105153
0.00106531
0.00107418
0.0010768
0.000468019
0.000502656
0.000466985
0.00033265
0.000266826
0.00025781
0.000259716
0.000262693
0.000266626
0.000276608
0.000300715
0.00034523
0.000416572
0.000543983
0.000721769
0.000842356
0.000835636
0.000702215
0.00155432
0.00276255
0.00189677
0.00265558
0.00289865
0.00312473
0.00335672
0.00357434
0.00375019
0.00385756
0.00389902
0.00382668
0.00357123
0.00302392
0.00210833
0.00117698
0.00109301
0.000871572
0.000571767
0.00160043
0.00144226
0.00109301
0.00060004
0.000564727
0.000545459
0.000463945
0.000391456
0.000357536
0.000412597
0.000595066
0.000936103
0.00143273
0.00215147
0.00244662
0.00235288
0.000804566
0.00213111
0.00464397
0.00202111
0.00373218
0.00440859
0.00470259
0.00495476
0.00517737
0.00535748
0.00547825
0.00554457
0.00551343
0.00532511
0.0049006
0.00419079
0.00326989
0.00222747
0.00119236
0.00100234
0.00264351
0.00205213
0.00155217
0.0010885
0.000369547
0.00028402
0.00024396
0.000226357
0.000277326
0.000403958
0.000544954
0.000700923
0.000937354
0.00264754
0.00284965
0.0022126
0.000911165
0.00266171
0.00690651
0.00237299
0.00386009
0.00520651
0.00557763
0.00582256
0.00604182
0.00623788
0.00640141
0.00654359
0.00665193
0.00667167
0.00650691
0.0060246
0.00510145
0.00372917
0.00225267
0.00134415
0.00249091
0.00233187
0.00194615
0.00162274
0.00135368
0.00108982
0.00111931
0.00115098
0.00118264
0.00121368
0.00124484
0.00127869
0.00132073
0.00139611
0.00320903
0.00403257
0.00393247
0.00137073
0.00314148
0.0092473
0.00317995
0.00349553
0.00539321
0.00588985
0.006118
0.00631065
0.00649525
0.00668015
0.0069034
0.00720502
0.00755389
0.00788344
0.00809495
0.00808441
0.00777389
0.00714162
0.00628158
0.0054955
0.0050869
0.00500396
0.0050023
0.00494584
0.00491443
0.00495372
0.00500588
0.0050511
0.00507716
0.00508882
0.00510984
0.00516828
0.00527389
0.00542603
0.00548379
0.00530922
0.00426453
0.00192846
0.00171294
0.00149045
0.00358118
0.011239
0.0046346
0.00319006
0.00490066
0.00562754
0.00591069
0.00607859
0.00619207
0.00628971
0.00651069
0.00690337
0.0074447
0.00808528
0.00873785
0.00929285
0.0096343
0.00964946
0.00931846
0.00877211
0.00820542
0.00774598
0.0074293
0.00720228
0.00702084
0.00686722
0.00672913
0.00658547
0.00641601
0.00622337
0.00603922
0.00589806
0.00580144
0.00572507
0.00568501
0.0056691
0.00548308
0.00513689
0.00360734
0.00163669
0.00398565
0.012616
0.00717801
0.00381095
0.00368496
0.00455434
0.00520723
0.00556244
0.00567516
0.00560045
0.00573034
0.00604351
0.00654907
0.0072469
0.00808479
0.0089514
0.00969153
0.0101313
0.0102086
0.00999333
0.00963733
0.00927876
0.00897779
0.00872045
0.00847668
0.00823594
0.00800077
0.00775744
0.00747185
0.00711985
0.00671748
0.00630773
0.00591995
0.00555699
0.00520927
0.00483412
0.00436478
0.00382362
0.00315508
0.00159029
0.00406949
0.0127418
0.00957292
0.00684653
0.00484539
0.00426524
0.00471672
0.00520154
0.00523438
0.00511713
0.00510315
0.00521436
0.00547126
0.00591683
0.00659077
0.00747121
0.00843344
0.00919363
0.00964391
0.00980328
0.00976997
0.0096626
0.00955597
0.00946768
0.00938562
0.00929385
0.00918591
0.0090578
0.00888503
0.00862253
0.00823568
0.00770361
0.00702325
0.00623555
0.00542803
0.00459316
0.00378755
0.00316415
0.00270507
0.00176368
0.003935
0.00470015
0.00576179
0.00586111
0.0053766
0.00481526
0.00446759
0.0043303
0.00429729
0.00433094
0.00440402
0.00449992
0.0046259
0.00481655
0.00513416
0.00564803
0.00636748
0.00716258
0.00786267
0.00836736
0.00867948
0.00886445
0.00899169
0.00910886
0.00924729
0.00942693
0.00964668
0.0098747
0.0100603
0.0101624
0.0101645
0.0100789
0.00992813
0.00969355
0.00916849
0.00824709
0.00682301
0.0053421
0.00485805
0.00190576
0.00668526
0.00844698
0.00664066
0.00575676
0.00520444
0.00484402
0.00460452
0.00443916
0.00432213
0.00423723
0.0041779
0.0041505
0.004178
0.00430261
0.004576
0.00501889
0.00558345
0.00617065
0.00669414
0.00711938
0.00745489
0.00773111
0.00799026
0.00828094
0.00864316
0.00908001
0.00953438
0.00990894
0.0101641
0.0102934
0.0103079
0.0102103
0.00996839
0.00931547
0.00806694
0.00633161
0.00486027
0.0018502
0.00411061
0.00860848
0.00691833
0.00606516
0.00547726
0.00502645
0.00466726
0.00436989
0.00409427
0.00383254
0.00359718
0.00339839
0.00324702
0.00315765
0.00315106
0.0032522
0.0034787
0.00382231
0.00424137
0.00467755
0.00508285
0.00543615
0.00574537
0.0060414
0.00636749
0.00676025
0.00721882
0.00767587
0.008082
0.00838703
0.00855874
0.0085722
0.00836161
0.00762146
0.00627481
0.00451188
0.00329818
0.00163781
0.00265252
0.003041
0.0034848
0.00354581
0.00301054
0.00269651
0.00245367
0.00225179
0.00207942
0.00192995
0.00180136
0.00168947
0.00158992
0.00150035
0.00141962
0.00134741
0.001284
0.00123015
0.00118698
0.00115562
0.00113661
0.00112935
0.00113207
0.00114239
0.00115822
0.00117843
0.0012033
0.00123424
0.00127339
0.00132606
0.0013899
0.00145899
0.00152394
0.0015726
0.00158933
0.00158186
0.00154612
0.00148387
0.00142113
0.00155864
)
;

boundaryField
{
    floor
    {
        type            compressible::alphatWallFunction;
        Prt             0.85;
        value           nonuniform List<scalar> 
36
(
0.000152944
6.42208e-05
6.95406e-05
6.4064e-05
4.28803e-05
3.21057e-05
3.05982e-05
3.09123e-05
3.14106e-05
3.20684e-05
3.37252e-05
3.76883e-05
4.49017e-05
5.62392e-05
7.5851e-05
0.000102287
0.000119778
0.000118812
9.94131e-05
9.94119e-05
0.000114312
0.000129578
0.000193388
0.000267493
0.000239123
0.000209416
0.000152942
0.000166854
0.000155196
0.000123946
6.422e-05
0.000123944
8.0026e-05
0.000168961
0.000142499
0.000189752
)
;
    }
    ceiling
    {
        type            compressible::alphatWallFunction;
        Prt             0.85;
        value           nonuniform List<scalar> 
43
(
0.000360903
0.000409646
0.000464548
0.000472033
0.000405836
0.000366438
0.000335643
0.000309795
0.00028753
0.000268062
0.000251182
0.000236385
0.00022313
0.000211125
0.000200236
0.000190437
0.000181783
0.000174395
0.000168446
0.000164109
0.000161472
0.000160463
0.000160839
0.00016227
0.00016446
0.000167253
0.000170682
0.000174939
0.000180311
0.00018751
0.000196195
0.000205546
0.000214293
0.000220823
0.000223068
0.000222074
0.000217293
0.000208931
0.00020045
0.000218942
0.00051957
0.000611562
0.000540785
)
;
    }
    sWall
    {
        type            compressible::alphatWallFunction;
        Prt             0.85;
        value           uniform 0.000359767;
    }
    nWall
    {
        type            compressible::alphatWallFunction;
        Prt             0.85;
        value           nonuniform List<scalar> 6(0.000209127 0.000228867 0.00022274 0.000257189 0.000229123 0.00021855);
    }
    sideWalls
    {
        type            empty;
    }
    glass1
    {
        type            compressible::alphatWallFunction;
        Prt             0.85;
        value           nonuniform List<scalar> 9(0.000120861 0.000212615 0.00028749 0.000354627 0.000414245 0.000468129 0.000517139 0.000527399 0.000511468);
    }
    glass2
    {
        type            compressible::alphatWallFunction;
        Prt             0.85;
        value           nonuniform List<scalar> 2(0.00024371 0.000262373);
    }
    sun
    {
        type            compressible::alphatWallFunction;
        Prt             0.85;
        value           nonuniform List<scalar> 
14
(
0.000124762
0.00012756
0.000112769
0.000116741
0.000121423
0.000125924
0.000130208
0.000134363
0.000138545
0.000142913
0.000146596
0.000149415
0.000151342
0.00015258
)
;
    }
    Table_master
    {
        type            compressible::alphatWallFunction;
        Prt             0.85;
        value           nonuniform List<scalar> 9(4.89728e-05 3.51404e-05 2.84788e-05 2.54973e-05 3.39783e-05 5.43562e-05 7.61272e-05 9.94036e-05 0.000133533);
    }
    Table_slave
    {
        type            compressible::alphatWallFunction;
        Prt             0.85;
        value           nonuniform List<scalar> 9(0.000155016 0.000159132 0.000163537 0.000167926 0.000172217 0.00017651 0.000181156 0.000186903 0.000197135);
    }
    inlet
    {
        type            fixedValue;
        value           uniform 1.94e-05;
    }
    outlet
    {
        type            zeroGradient;
    }
}


// ************************************************************************* //
