/*--------------------------------*- C++ -*----------------------------------*\
  =========                 |
  \\      /  F ield         | OpenFOAM: The Open Source CFD Toolbox
   \\    /   O peration     | Website:  https://openfoam.org
    \\  /    A nd           | Version:  6
     \\/     M anipulation  |
\*---------------------------------------------------------------------------*/
FoamFile
{
    version     2.0;
    format      ascii;
    class       volScalarField;
    location    "700";
    object      epsilon;
}
// * * * * * * * * * * * * * * * * * * * * * * * * * * * * * * * * * * * * * //

dimensions      [0 2 -3 0 0 0 0];

internalField   nonuniform List<scalar> 
458
(
0.000149831
0.000159549
0.000110649
0.000122564
0.000137737
0.000153529
0.000169709
0.000186518
0.000204591
0.000224749
0.000242798
0.000257277
0.000267515
0.000274233
0.00027622
2.2598e-05
2.79809e-05
2.24393e-05
8.10378e-06
4.17822e-06
3.76556e-06
3.84778e-06
3.98208e-06
4.16481e-06
4.65146e-06
5.97778e-06
9.05024e-06
1.59352e-05
3.54901e-05
8.28883e-05
0.00013178
0.000128604
7.62689e-05
0.000836242
0.00198018
0.000173752
9.88438e-05
0.000101929
0.000109582
0.000118266
0.000128509
0.000141172
0.000157088
0.000175065
0.00019454
0.000214404
0.000233642
0.000263166
0.000360644
0.000288685
0.000146364
4.12036e-05
0.000136667
7.01244e-05
3.01992e-05
1.19321e-05
5.42615e-06
3.98293e-06
3.32779e-06
2.93726e-06
3.56768e-06
6.74817e-06
1.37649e-05
2.96641e-05
6.76034e-05
0.000129731
0.000149784
0.000202302
0.000114695
0.00216111
0.00658605
0.000466923
0.000121783
0.000107211
0.000113798
0.000123681
0.000135854
0.000150471
0.000167593
0.000186349
0.000205348
0.000223561
0.000240381
0.000257891
0.000283646
0.000316056
0.000374666
0.000222012
0.000349317
0.000140118
0.00010898
9.43845e-05
1.10729e-05
5.02851e-06
3.18824e-06
2.54475e-06
4.65342e-06
1.43937e-05
3.54523e-05
7.56454e-05
0.000181409
0.000233849
0.000235831
0.000278944
0.000166563
0.00422073
0.0141812
0.00112854
0.000171229
0.000119779
0.000125309
0.000137922
0.000153569
0.000171775
0.000192246
0.000213713
0.000233679
0.000251483
0.000267204
0.000281514
0.000298494
0.000329969
0.000403118
0.000536327
0.000317667
0.00017781
0.000155938
0.000173842
0.000212476
0.000286418
0.000310368
0.000337529
0.000366218
0.000395889
0.000427222
0.000463059
0.00051026
0.00060244
0.000403299
0.000384582
0.000427448
0.000568638
0.00695466
0.023775
0.00234325
0.000261357
0.000137392
0.0001401
0.000157499
0.000180173
0.000206858
0.000236622
0.000265402
0.000289516
0.000309912
0.00032742
0.000339703
0.000342695
0.000332884
0.000306986
0.000258495
0.000184669
0.000150656
0.000144296
0.000153566
0.000169647
0.000188747
0.000208977
0.00023435
0.000265592
0.000303487
0.000350014
0.00040921
0.00048596
0.00057893
0.000646339
0.000755678
0.000870367
0.000961918
0.00158273
0.00110833
0.00072982
0.0103225
0.0320759
0.0043011
0.000473196
0.000184983
0.000173017
0.000195122
0.000227725
0.000267677
0.000313277
0.000346957
0.000368235
0.000385103
0.000403247
0.00042199
0.000435289
0.000432885
0.000402533
0.000343299
0.000274468
0.00022254
0.000196195
0.000191294
0.000198645
0.000213483
0.000235685
0.000267133
0.000308408
0.000359647
0.000422491
0.000501945
0.000605099
0.000736552
0.000898474
0.00111125
0.00139233
0.00165513
0.00197673
0.0011741
0.00097002
0.0142519
0.0353595
0.00805058
0.00153254
0.000509468
0.000342246
0.000340176
0.000375022
0.000427039
0.000483537
0.000492087
0.000480739
0.000468794
0.000466848
0.000476815
0.000492832
0.000500648
0.000482317
0.000432682
0.000366196
0.000306038
0.000266751
0.000249236
0.000248157
0.000260211
0.000286135
0.000328182
0.000386493
0.000458019
0.0005389
0.000629468
0.000736099
0.000866395
0.00102501
0.00121278
0.00141163
0.00155169
0.00154903
0.0012362
0.000891139
0.0152093
0.0446634
0.0195959
0.00896116
0.00363399
0.00162427
0.0011152
0.000975632
0.000945231
0.000852596
0.0007463
0.000651141
0.00057673
0.000526628
0.000501865
0.000499984
0.000508968
0.000504857
0.000475694
0.000426822
0.000374562
0.000333437
0.000309047
0.000300995
0.000309131
0.000336957
0.000390717
0.000475056
0.000587992
0.000719051
0.000853643
0.000981183
0.00109693
0.00120022
0.00130341
0.00140866
0.00152702
0.00168604
0.00183173
0.00122186
0.0137988
0.0234369
0.0210733
0.0146484
0.00932272
0.00576181
0.00366831
0.00249704
0.00179382
0.00133911
0.00103827
0.000832221
0.000687259
0.000585052
0.00051651
0.00047715
0.000461558
0.000456663
0.000447665
0.000427314
0.000399323
0.000372326
0.000352832
0.000343839
0.000347334
0.000367155
0.000410317
0.000486196
0.000604017
0.000768065
0.000975963
0.00120934
0.00147171
0.00175067
0.00198111
0.00211978
0.00221635
0.00257022
0.00413944
0.00154459
0.017547
0.022445
0.0110043
0.00652938
0.00419199
0.00284746
0.00203129
0.00150882
0.00115841
0.000915084
0.000741032
0.000614112
0.000521639
0.000456798
0.000415899
0.000394823
0.00038685
0.000384243
0.000382171
0.000379992
0.000379298
0.000382043
0.000390328
0.000407223
0.000437501
0.000487333
0.000562561
0.000665676
0.000795342
0.000943382
0.00109691
0.00123396
0.00132642
0.0013446
0.0012484
0.0010901
0.00113885
0.00141082
0.0156459
0.0179537
0.00895865
0.0056198
0.00380525
0.00269117
0.00197161
0.00148777
0.00115099
0.000909682
0.000732634
0.000600777
0.000502271
0.000429809
0.000379045
0.000347473
0.000333276
0.000334077
0.000346366
0.000366063
0.000389641
0.000414952
0.00044156
0.0004708
0.000505638
0.000549871
0.000606101
0.000674975
0.000757825
0.000850082
0.000940805
0.00101161
0.00103472
0.000992685
0.000902622
0.000805714
0.000770103
0.000979162
0.00420508
0.00633317
0.00953019
0.0100261
0.00613185
0.00440412
0.00331714
0.00256334
0.00201829
0.00161344
0.00131181
0.00108212
0.000901787
0.000757729
0.000641819
0.00054872
0.000474784
0.000417469
0.000374994
0.000346
0.000329149
0.00032282
0.000325083
0.000333974
0.000347948
0.000366372
0.000389929
0.000420653
0.000461821
0.000521364
0.00060016
0.000693976
0.000790616
0.000868589
0.000896447
0.000883691
0.000825012
0.000729187
0.000640092
0.000844058
)
;

boundaryField
{
    floor
    {
        Cmu             0.09;
        kappa           0.41;
        E               9.8;
        type            epsilonWallFunction;
        value           nonuniform List<scalar> 
36
(
0.00027622
2.2598e-05
2.79809e-05
2.24393e-05
8.10378e-06
4.17822e-06
3.76556e-06
3.84778e-06
3.98208e-06
4.16481e-06
4.65146e-06
5.97778e-06
9.05024e-06
1.59352e-05
3.54901e-05
8.28883e-05
0.00013178
0.000128604
7.62689e-05
7.62689e-05
0.000114695
0.000166563
0.000568638
0.00158273
0.00110833
0.00072982
0.00027622
0.000360644
0.000288685
0.000146364
2.2598e-05
0.000146364
4.12036e-05
0.000374666
0.000222012
0.000536327
)
;
    }
    ceiling
    {
        Cmu             0.09;
        kappa           0.41;
        E               9.8;
        type            epsilonWallFunction;
        value           nonuniform List<scalar> 
43
(
0.00420508
0.00633317
0.00953019
0.0100261
0.00613185
0.00440412
0.00331714
0.00256334
0.00201829
0.00161344
0.00131181
0.00108212
0.000901787
0.000757729
0.000641819
0.00054872
0.000474784
0.000417469
0.000374994
0.000346
0.000329149
0.00032282
0.000325083
0.000333974
0.000347948
0.000366372
0.000389929
0.000420653
0.000461821
0.000521364
0.00060016
0.000693976
0.000790616
0.000868589
0.000896447
0.000883691
0.000825012
0.000729187
0.000640092
0.000844058
0.0137988
0.0234369
0.0156459
)
;
    }
    sWall
    {
        Cmu             0.09;
        kappa           0.41;
        E               9.8;
        type            epsilonWallFunction;
        value           uniform 0.00420508;
    }
    nWall
    {
        Cmu             0.09;
        kappa           0.41;
        E               9.8;
        type            epsilonWallFunction;
        value           nonuniform List<scalar> 6(0.00072982 0.00097002 0.000891139 0.00141082 0.000979162 0.000844058);
    }
    sideWalls
    {
        type            empty;
    }
    glass1
    {
        Cmu             0.09;
        kappa           0.41;
        E               9.8;
        type            epsilonWallFunction;
        value           nonuniform List<scalar> 9(0.000149831 0.000836242 0.00216111 0.00422073 0.00695466 0.0103225 0.0142519 0.0152093 0.0137988);
    }
    glass2
    {
        Cmu             0.09;
        kappa           0.41;
        E               9.8;
        type            epsilonWallFunction;
        value           nonuniform List<scalar> 2(0.00122186 0.00154459);
    }
    sun
    {
        Cmu             0.09;
        kappa           0.41;
        E               9.8;
        type            epsilonWallFunction;
        value           nonuniform List<scalar> 
14
(
0.000149831
0.000159549
0.000110649
0.000122564
0.000137737
0.000153529
0.000169709
0.000186518
0.000204591
0.000224749
0.000242798
0.000257277
0.000267515
0.000274233
)
;
    }
    Table_master
    {
        Cmu             0.09;
        kappa           0.41;
        E               9.8;
        type            epsilonWallFunction;
        value           nonuniform List<scalar> 9(1.10729e-05 5.02851e-06 3.18824e-06 2.54475e-06 4.65342e-06 1.43937e-05 3.54523e-05 7.56454e-05 0.000181409);
    }
    Table_slave
    {
        Cmu             0.09;
        kappa           0.41;
        E               9.8;
        type            epsilonWallFunction;
        value           nonuniform List<scalar> 9(0.000286418 0.000310368 0.000337529 0.000366218 0.000395889 0.000427222 0.000463059 0.00051026 0.00060244);
    }
    inlet
    {
        type            turbulentMixingLengthDissipationRateInlet;
        mixingLength    0.01;
        phi             phi;
        k               k;
        value           uniform 0.017547;
    }
    outlet
    {
        type            zeroGradient;
    }
}


// ************************************************************************* //
