/*--------------------------------*- C++ -*----------------------------------*\
  =========                 |
  \\      /  F ield         | OpenFOAM: The Open Source CFD Toolbox
   \\    /   O peration     | Website:  https://openfoam.org
    \\  /    A nd           | Version:  6
     \\/     M anipulation  |
\*---------------------------------------------------------------------------*/
FoamFile
{
    version     2.0;
    format      ascii;
    class       surfaceScalarField;
    location    "700";
    object      phi;
}
// * * * * * * * * * * * * * * * * * * * * * * * * * * * * * * * * * * * * * //

dimensions      [1 0 -1 0 0 0 0];

internalField   nonuniform List<scalar> 
850
(
-0.00252154
0.0025937
-0.0025787
5.72982e-05
-0.00273149
0.000152941
-0.00297247
0.000241137
-0.00322173
0.000249428
-0.00343965
0.000218088
-0.00360165
0.000162179
-0.0036877
8.62286e-05
-0.00367892
-8.59517e-06
-0.00355492
-0.000123799
-0.00329684
-0.000257887
-0.00289102
-0.000405624
-0.00230763
-0.000583181
-0.00142522
-0.000882204
-0.0014214
-0.000997108
0.00100435
-0.00104632
4.91752e-05
-0.000876692
-0.000169673
-0.000824944
-5.18113e-05
-0.000916399
9.14007e-05
-0.000948606
3.21723e-05
-0.000883825
-6.48088e-05
-0.000749332
-0.000134512
-0.000545281
-0.000204068
-0.000280041
-0.000265254
-2.70779e-05
-0.000252962
9.54067e-05
-0.000122441
9.11639e-06
8.63331e-05
-8.42096e-05
9.34385e-05
0.000128194
-0.000212241
0.000576201
-0.000447851
0.00079953
-0.000223152
0.000805325
-0.00183161
0.0046087
-0.00235861
0.00058445
-0.00272404
0.000518534
-0.0030315
0.000548768
-0.00331186
0.000529967
-0.00355245
0.000458868
-0.00373773
0.000347648
-0.00385264
0.000201339
-0.00388311
2.20829e-05
-0.00381877
-0.000187929
-0.00365049
-0.000425949
-0.00336586
-0.000690043
-0.00295561
-0.000993223
-0.00249587
-0.00134173
-0.00234907
-0.00156799
-0.000854141
-0.00148799
0.000532315
-0.00137904
0.000554007
0.00055445
0.0004689
0.000421451
0.000182209
0.000146236
0.000105602
7.33986e-05
2.11025e-05
-0.0001531
0.000317929
-0.000356036
0.000235076
-0.000417898
-2.96586e-06
-0.000404706
-0.000147704
-0.000360007
-0.000248758
-0.000292951
-0.000332267
-0.000266993
-0.000278793
-0.000290988
-9.8259e-05
-0.000329409
0.000124964
-0.000320581
8.48011e-05
-4.47655e-05
-0.000487927
0.000196929
-0.000689408
0.000231012
-0.000257082
0.00105184
-0.0013577
0.00623616
-0.00207908
0.00130599
-0.00254699
0.000986619
-0.0028928
0.000894755
-0.00319051
0.000827859
-0.00344362
0.000712176
-0.00364491
0.000549135
-0.00378485
0.000341488
-0.0038542
9.16443e-05
-0.00384777
-0.000194139
-0.00376768
-0.000505826
-0.00362242
-0.000835084
-0.00343846
-0.00117697
-0.00327777
-0.00150221
-0.00312709
-0.00171845
-0.00281133
-0.00180354
-0.00233541
-0.00185477
-0.00176415
-0.000455501
0.000945591
-0.00071455
0.000441389
-0.000747877
0.000139084
-0.00063009
-9.65183e-05
1.68061e-05
-0.000328816
0.00025208
0.000249315
0.000101802
-0.000146788
-0.000478773
-0.000757098
-0.000854814
-0.000729333
-0.000644095
-0.000316697
-0.000815197
-0.000856022
-0.000149931
-0.00127247
0.000159552
-0.000197312
-0.00101591
0.0075922
-0.00180787
0.00209811
-0.00228139
0.00146031
-0.00262749
0.00124103
-0.00291347
0.00111403
-0.00315013
0.000949029
-0.00333836
0.000737558
-0.00347429
0.000477626
-0.00355227
0.000169832
-0.00356964
-0.000176554
-0.00353889
-0.000536362
-0.00348787
-0.000885888
-0.00345393
-0.0012107
-0.00347151
-0.0014844
-0.00352352
-0.00166624
-0.00357646
-0.00175039
-0.00371328
-0.00171776
-0.00421174
-0.00126552
-0.00361868
-0.000574085
-0.00286092
0.000187951
-0.00276826
0.00034887
-0.00278035
0.000151306
-0.00281711
-5.9627e-05
-0.002946
-0.000199793
-0.00273739
-0.000208642
-0.00248867
-0.000248755
-0.00218552
-0.000303175
-0.00182996
-0.000355581
-0.00142834
-0.000401613
-0.000988033
-0.000440286
-0.000512692
-0.000475286
2.66667e-06
-0.000515266
0.000583832
-0.000581028
0.000475926
-0.000706996
0.000762288
-0.000435995
0.000941204
-1.90652e-05
0.000766595
-0.000757185
0.00874963
-0.0015767
0.0029178
-0.00197188
0.00185567
-0.00228355
0.00155287
-0.00252717
0.00135785
-0.00271213
0.00113418
-0.00284793
0.000873555
-0.00293719
0.000567078
-0.00297772
0.00021057
-0.00296798
-0.000186091
-0.00293125
-0.000572889
-0.00290748
-0.000909448
-0.00293091
-0.00118706
-0.00301778
-0.00139733
-0.00315644
-0.00152737
-0.00333938
-0.00156724
-0.00358813
-0.00146882
-0.00373525
-0.00111821
-0.00368984
-0.00061933
-0.00332698
-0.000174758
-0.00297799
2.00907e-08
-0.00278091
-4.56321e-05
-0.00268712
-0.000153281
-0.00263599
-0.000250798
-0.0025243
-0.000320211
-0.00237654
-0.000396377
-0.00219933
-0.000480238
-0.0019935
-0.00056123
-0.00176566
-0.000629227
-0.00152489
-0.000680775
-0.00127542
-0.000724427
-0.00101095
-0.000779357
-0.000726082
-0.000865466
-0.000456001
-0.000976618
0.000127345
-0.00101883
0.00105801
-0.000949134
0.00264743
-0.000822143
0.0034014
-0.00073477
0.00264498
0.000777616
0.00272322
-0.000701605
0.0099046
-0.00149634
0.0037127
-0.00163307
0.00199257
-0.0018634
0.00178338
-0.00205106
0.00154569
-0.00215533
0.00123864
-0.00219996
0.000918373
-0.00219901
0.00056633
-0.00215412
0.00016587
-0.00206971
-0.000270308
-0.0019894
-0.000653007
-0.00195563
-0.000943026
-0.00199096
-0.00115153
-0.00209698
-0.00129112
-0.0022591
-0.00136506
-0.00246144
-0.00136471
-0.00267474
-0.00125534
-0.0027903
-0.00100247
-0.00275045
-0.000659007
-0.00256467
-0.000360373
-0.00236161
-0.000202884
-0.00222901
-0.000178096
-0.0021641
-0.000218048
-0.00213652
-0.00027826
-0.00211286
-0.000343738
-0.00208792
-0.000421187
-0.00206237
-0.000505624
-0.0020387
-0.000584686
-0.0020222
-0.000645445
-0.00201774
-0.000684894
-0.00202341
-0.000718344
-0.00202537
-0.000776928
-0.00199871
-0.000891625
-0.00190065
-0.00107415
-0.00160464
-0.00131427
-0.000925631
-0.00162753
0.00023355
-0.00198064
0.0013587
-0.00185906
0.00182425
0.00031293
0.00461005
-0.000983374
0.0113897
-0.00130227
0.00403175
-0.000958701
0.00164917
-0.00113568
0.00196055
-0.00135079
0.00176099
-0.00138449
0.00127253
-0.00131294
0.000847005
-0.00118826
0.000441839
-0.00101439
-7.80607e-06
-0.000836809
-0.000447702
-0.000725344
-0.000764286
-0.000697982
-0.000970203
-0.000755463
-0.00109386
-0.000887368
-0.00115903
-0.00107443
-0.00117781
-0.00129042
-0.00114854
-0.00149471
-0.00105086
-0.0016257
-0.0008713
-0.00164325
-0.000641276
-0.00157119
-0.000432273
-0.00147518
-0.000298731
-0.001409
-0.000244119
-0.00138714
-0.000239769
-0.00140438
-0.000260888
-0.00145271
-0.000295287
-0.00153313
-0.000340629
-0.00164946
-0.000389131
-0.00180664
-0.000427296
-0.00200977
-0.000442019
-0.002261
-0.000433293
-0.00255485
-0.000424064
-0.0028748
-0.000456511
-0.00319627
-0.000569667
-0.00348698
-0.000782931
-0.00368684
-0.0011139
-0.0037052
-0.00160864
-0.00341124
-0.00227404
-0.00249983
-0.00276987
-0.000532621
-0.00165351
0.00415239
0.00178254
0.0101673
0.00219077
0.00362367
0.00162853
0.00221157
0.000947535
0.00264171
0.000427796
0.00228091
0.000252172
0.00144834
0.000322957
0.000776407
0.000526227
0.000238757
0.00075408
-0.000235471
0.000879895
-0.000573335
0.000902848
-0.000787059
0.000843166
-0.000910344
0.000717465
-0.000967985
0.00053663
-0.000978015
0.000312396
-0.0009534
6.47743e-05
-0.000900744
-0.000167643
-0.000818272
-0.000338956
-0.000699811
-0.000425282
-0.000554777
-0.000441811
-0.000415575
-0.000427075
-0.000313301
-0.000415879
-0.000255158
-0.000425661
-0.000229838
-0.000463238
-0.000223172
-0.00053372
-0.000224675
-0.000646547
-0.000227673
-0.000812345
-0.000223183
-0.00104088
-0.000198566
-0.00134116
-0.000141471
-0.00172158
-5.25433e-05
-0.00219479
4.95384e-05
-0.00278098
0.000130077
-0.00349134
0.00014111
-0.00430019
2.63273e-05
-0.005186
-0.000227702
-0.00621253
-0.000581734
-0.00755707
-0.000929143
-0.00903483
-0.00129179
-0.00825866
-0.00242937
-0.0037354
0.0107946
0.0144193
0.0106201
0.00601094
0.0079526
0.00530933
0.00624882
0.00398484
0.00516233
0.002535
0.0044793
0.0014596
0.00400052
0.000717709
0.0035813
0.000183924
0.00321022
-0.000202088
0.00288639
-0.000463053
0.00259474
-0.000618522
0.00231924
-0.000692319
0.0020484
-0.000707001
0.00177629
-0.00068112
0.00150514
-0.000629426
0.00124937
-0.000562343
0.0010336
-0.00048387
0.000877196
-0.000398203
0.000778789
-0.000317001
0.000719342
-0.00025369
0.0006774
-0.000213055
0.000638354
-0.000190635
0.000593607
-0.000178276
0.000536979
-0.000167907
0.00046227
-0.000152829
0.000365855
-0.000126631
0.000250969
-8.35235e-05
0.000129994
-2.02965e-05
1.1762e-05
6.59454e-05
-0.000107254
0.000168855
-0.000235745
0.000258898
-0.000394692
0.0003004
-0.000625225
0.000257195
-0.000915792
6.31768e-05
-0.00123242
-0.000264827
-0.00158082
-0.000580483
-0.0018994
-0.000972966
-0.00194621
-0.0023823
-0.00528867
0.00181919
0.00410085
0.00308852
0.00404014
0.00427344
0.00280006
0.00473716
0.00207143
0.00484336
0.00135356
0.00481416
0.000747068
0.004693
0.000305237
0.0044881
2.9767e-06
0.00422397
-0.000198764
0.00393178
-0.000326173
0.00363343
-0.000393816
0.00334212
-0.000415524
0.00306455
-0.000403392
0.00280325
-0.000367969
0.0025601
-0.000319028
0.00234143
-0.000265034
0.00215669
-0.000213301
0.00201058
-0.000170725
0.00189913
-0.000142087
0.00181366
-0.000127422
0.00174557
-0.000122381
0.00168816
-0.000120717
0.00163667
-0.000116262
0.00158792
-0.000103932
0.00154131
-7.98849e-05
0.00149977
-4.18377e-05
0.00146947
1.01649e-05
0.00146204
7.35612e-05
0.00148478
0.00014633
0.00153213
0.000211804
0.00158918
0.000243627
0.0016385
0.000208162
0.00164601
5.59649e-05
0.00164703
-0.000265554
0.00187294
-0.000806115
0.00264817
-0.00174791
0.00294359
-0.00267744
-0.00225689
-0.000758071
0.00486091
0.00163597
0.00164623
0.0030431
0.00139308
0.00395734
0.00115733
0.00452411
0.000786937
0.00481497
0.000456365
0.00490742
0.000212935
0.00486046
5.00894e-05
0.00472392
-6.20774e-05
0.00453191
-0.000134012
0.0043119
-0.000173655
0.00408472
-0.000188188
0.0038651
-0.000183621
0.00366251
-0.00016523
0.00348183
-0.000138187
0.00332489
-0.000107943
0.00319186
-8.01048e-05
0.003081
-5.97063e-05
0.00298864
-4.95667e-05
0.00291032
-4.89447e-05
0.00284226
-5.41609e-05
0.00278222
-6.05152e-05
0.00272991
-6.37881e-05
0.00268698
-6.08467e-05
0.00265669
-4.9438e-05
0.00264285
-2.78514e-05
0.00265129
1.87985e-06
0.00269295
3.20705e-05
0.00277091
6.85477e-05
0.00287946
0.000103453
0.00300096
0.000122349
0.00310423
0.000105128
0.00314134
1.91109e-05
0.00309741
-0.000221362
0.00303008
-0.00073851
0.00317599
-0.00189356
0.00315422
-0.00265539
0.00100428
-0.00453787
-0.0055411
-0.000676718
0.000974127
0.00237312
0.00353737
0.00433209
0.00479703
0.00501927
0.00507939
0.00502803
0.00490544
0.00474393
0.00456861
0.0043986
0.00424775
0.00412469
0.00403262
0.0039691
0.00392662
0.00389485
0.00386419
0.00382873
0.00378728
0.00374288
0.00370173
0.00367227
0.00366466
0.00368698
0.00373963
0.00382883
0.00395301
0.00409622
0.00422246
0.00426311
0.00406388
0.00334834
0.00147895
-0.00115041
)
;

boundaryField
{
    floor
    {
        type            calculated;
        value           nonuniform List<scalar> 
36
(
0
0
0
0
0
0
0
0
0
0
0
0
0
0
0
0
0
0
0
-5.60879e-06
-1.53198e-05
-2.31014e-05
-2.24273e-05
-1.83544e-05
-2.04442e-05
-2.28353e-05
-3.6164e-06
-6.73506e-06
-7.21217e-06
-8.57332e-06
-7.25919e-06
-1.29373e-05
-1.89968e-05
-1.70734e-05
-2.11013e-05
-1.88168e-05
)
;
    }
    ceiling
    {
        type            calculated;
        value           nonuniform List<scalar> 
43
(
-3.56983e-06
-3.70136e-06
-3.32856e-06
-4.47101e-06
-5.77616e-06
-6.77466e-06
-7.64066e-06
-8.42817e-06
-9.16731e-06
-9.87911e-06
-1.05786e-05
-1.12798e-05
-1.19928e-05
-1.27221e-05
-1.34675e-05
-1.4224e-05
-1.49813e-05
-1.57235e-05
-1.64292e-05
-1.70749e-05
-1.76421e-05
-1.81259e-05
-1.8537e-05
-1.88963e-05
-1.92243e-05
-1.95323e-05
-1.98188e-05
-2.00715e-05
-2.02755e-05
-2.03995e-05
-2.04756e-05
-2.05486e-05
-2.06696e-05
-2.0897e-05
-2.13234e-05
-2.19105e-05
-2.27449e-05
-2.39313e-05
-2.57445e-05
-2.4294e-05
9.21028e-07
-8.69371e-07
-1.83585e-06
)
;
    }
    sWall
    {
        type            calculated;
        value           uniform -0.000178416;
    }
    nWall
    {
        type            calculated;
        value           nonuniform List<scalar> 6(-5.51186e-05 -6.21753e-05 -7.46528e-05 -8.79027e-05 -0.000106661 -0.00012145);
    }
    sideWalls
    {
        type            empty;
        value           nonuniform 0();
    }
    glass1
    {
        type            calculated;
        value           nonuniform List<scalar> 9(-7.20296e-05 -0.000183262 -0.000269635 -0.000339996 -0.000400123 -0.000453249 -0.000501598 -0.000560068 -0.000628106);
    }
    glass2
    {
        type            calculated;
        value           nonuniform List<scalar> 2(-0.000370591 -0.000392638);
    }
    sun
    {
        type            calculated;
        value           uniform 0;
    }
    Table_master
    {
        type            calculated;
        value           nonuniform List<scalar> 9(-1.56469e-07 -1.56546e-07 -1.56599e-07 -1.56646e-07 -1.56581e-07 -1.56403e-07 -1.56228e-07 -1.56064e-07 -1.55875e-07);
    }
    Table_slave
    {
        type            calculated;
        value           nonuniform List<scalar> 9(1.54733e-07 1.54806e-07 1.54888e-07 1.54988e-07 1.55105e-07 1.55236e-07 1.55379e-07 1.55528e-07 1.55467e-07);
    }
    inlet
    {
        type            calculated;
        value           uniform 9.10478e-05;
    }
    outlet
    {
        type            calculated;
        value           nonuniform List<scalar> 2(0.00472 0.00100708);
    }
}


// ************************************************************************* //
