/*--------------------------------*- C++ -*----------------------------------*=========                 |
  \      /  F ield         | OpenFOAM: The Open Source CFD Toolbox
   \    /   O peration     | Website:  https://openfoam.org
    \  /    A nd           | Version:  6
     \/     M anipulation  |
\*---------------------------------------------------------------------------*/
FoamFile
{
    version     2.0;
    format      ascii;
    class       volScalarField;
    location    "700";
    object      PPD;
}
// * * * * * * * * * * * * * * * * * * * * * * * * * * * * * * * * * * * * * //

dimensions      [0 0 0 0 0 0 0];

internalField   nonuniform List<scalar> 
458
(
33.40850182882869
24.3253929689007
25.811605637677488
25.324288979709834
24.853042889256116
24.444981285849238
24.14808226526324
24.004889903352833
24.01509399561735
24.247716391311016
24.679491612974985
25.497822881530467
26.8439239659063
28.055380029705177
26.831607916762266
20.175207170362697
19.393695961297
18.829069771062606
17.89159810874996
17.032765449786737
16.456632613257923
16.055870580943832
15.763624373798649
15.575773409770761
15.503965876087832
15.67671732488759
16.29249599105796
17.450694064665498
18.97744898772295
20.695724190503114
20.538674734300557
19.764944372979997
19.444048241961227
32.1323199809013
24.354736277358782
26.95647257894035
26.13321222573792
25.734858635650056
25.478916447900232
25.325640257746088
25.276471684709378
25.34025281956481
25.533481709810104
25.794537483243175
26.12312624958649
26.474570466234553
26.56121625307739
26.40917064854625
28.564587710535932
28.84355405263176
26.20063269180588
16.40402521858087
20.451755919780453
20.020716306485724
19.093393484085382
17.528867790735163
15.880051125271436
15.134536115837534
14.730343599955887
14.442835577295824
14.347967850512418
14.744143101243381
15.792672070293378
17.622997371114167
20.037843932946018
22.584053529619553
21.385087503478985
19.96939050785477
17.13981548115467
35.41936270605734
24.267910317664104
28.999300091980842
27.692815574629478
27.50684095770218
27.48195922710802
27.562334138817207
27.710167682796538
27.877352662629065
28.068703742248005
28.183800360271093
28.124121039049385
27.74769190147829
26.943984949909023
25.883269712536432
25.105225354148814
24.01417436128652
21.73942867086312
18.12848595332771
21.690040821538915
21.708063238162893
21.92505834938531
21.690040821538915
16.59180815923463
15.749115276431283
15.120460330751015
14.524536181667585
14.307458516331181
15.290020408491628
17.0788508076692
19.29324997232351
22.289687573500075
25.160454605119725
22.36305765125978
20.625829958991076
14.5693001306701
40.17156621709692
24.82216000155597
31.078485174421004
29.481245029833687
29.645532049718668
30.028029126711573
30.504597019306303
31.03089083210905
31.500157201412165
31.858591348606268
32.03149756128262
31.828396856633987
31.069400860761334
29.79197887580935
28.0845354161885
26.16416991408525
23.896018910483335
21.493439660311935
20.3287016747463
21.873479287619418
22.249130342652265
23.91990396291125
24.474639096857672
24.596285140631664
24.920163585295356
25.48969287184407
26.22411030908063
27.196647913383288
28.519718925927492
28.84355405263176
28.84355405263176
28.864772011791658
28.90723223515957
28.547355951937462
27.316823845805317
25.53612079112318
25.081771361164144
45.480068965047465
25.996880475717845
32.608190886661106
31.231456711888995
31.84710664716785
32.7945215470872
33.842849914419304
34.94516277108984
35.95569501539312
36.784659310534266
37.22373197038495
37.10391964508566
36.314992074710666
34.91132772209558
33.01491524293584
30.82453834484744
28.4777733562195
26.472749135321962
25.316894771659676
25.02288396076885
25.703025235451207
26.782347229772142
27.322452616422808
27.417684148966742
27.462908345700157
27.609344043575632
27.84091640655771
28.22254971235695
28.800622589121616
29.611052257225893
30.50070991763961
30.76315915609264
31.0707476177042
31.247183155899677
31.158904661722502
30.56621802916476
29.355012407776627
24.27162228463507
20.046072280441493
20.327546491811944
50.61563120681153
27.803622270478172
34.06351742780757
32.93422610500481
33.99394714737606
35.56874023790843
37.35101675141613
39.23059513348297
41.01224527019108
42.59652063824538
43.47909278475276
43.58621704733709
42.92628866220628
41.61115650123929
39.760320419988865
37.53784157543758
35.22200830336406
33.23488926949676
31.899596258572103
31.347407313904554
31.382130381627377
31.58703782870657
31.602576367496724
31.358638851885573
31.007148644646392
30.604542418060518
30.172337546981623
29.838785183276812
29.642781534424557
29.70223916002722
29.98643725817763
30.426840516247495
30.925104266792303
31.496905742989497
32.32934956197981
33.55347639761504
33.94521700835648
33.071679041969446
25.288655874572214
21.573501222936727
55.07875238568741
31.845917804477978
39.564378214306394
35.989980620381274
36.686683542429115
38.943614936687105
41.62328026152877
44.14027149242031
46.01718614492512
47.80817251614374
49.01751501833622
49.6884299415713
49.8175887241785
49.20992350657514
47.657949197693284
45.69638550789182
43.537938124236646
41.584070432673826
40.09554338014927
39.213254093795115
38.7580562365461
38.16332814829022
37.53909702320825
36.942624952398745
36.27907842946722
35.55016157812719
34.3201719558397
33.042231493269114
31.938316872077777
31.162740177166427
30.749583142606824
30.62897170875148
30.63243815883328
30.690973114124134
30.754467222611737
30.726708775784928
30.506247383055126
30.64157762404362
35.62043378599434
18.589347113911813
62.512102089173
49.65228662559128
51.99977038171512
44.22045712941248
44.070818023429915
43.888125308404966
44.898918972685934
46.42534384660194
48.47657713502106
50.12773513393897
51.31851037270503
52.12231267938427
52.58938247123283
52.667246498893995
52.27797895853636
51.344425245310845
49.869263816701334
48.14218184878088
46.42534384660194
44.8735790215349
43.560909007703955
42.50839889121987
41.63707789093738
40.82069544286014
39.98511564298228
39.05826622430529
37.99488170251835
36.895069390333646
35.99619330897464
35.597003268811534
34.13350001328578
33.08346360991632
32.24349917684283
31.519208911917076
30.910845558270708
30.23542497914778
29.644094217445556
29.211286050576334
27.999796311345023
23.944008786340603
72.68021652824493
66.08609414866828
61.30089919090089
54.8706800051763
50.03467519752229
47.765799698816956
46.89095282001321
46.83207509525462
47.21052890483035
47.963198536237364
48.92054346744252
49.917335353292806
50.846907140476134
51.70776028024185
52.430680485658115
52.9418779554743
53.20566383957452
52.71915847852986
51.31851037270503
49.843425453316414
48.47657713502106
47.269488235070774
46.19566065626854
45.228651082198986
44.29173932790217
43.309656562730666
42.184130838335506
40.94405648942702
39.667180270743806
38.597752159132
37.898752906907575
37.634876776337215
37.77872196775585
38.23560509815155
38.96115146146887
39.91166833893771
40.68058983634373
41.101706248289275
37.49861972699257
30.58974051538847
61.24625148062008
60.74932688422507
56.14361497598343
53.742993398474994
51.959204236318634
50.891752275472804
50.442287158941774
50.31844050171727
50.466165425849056
50.77119325350218
51.162730861407034
51.59740474272447
51.98028951866891
52.30381910610908
52.43172063710715
52.38220644207136
52.07346534198574
51.54295508764823
50.8190572137783
50.06420142038984
49.27668321718905
48.505948764903366
47.770920929379386
46.986829799657
46.16468216802706
45.20401162366482
44.145231193071666
42.908494359688
41.66189635158356
40.58112287240975
39.65804791886124
39.11775582999454
39.05145153408847
39.39015825713983
39.43811102064376
37.59796326020246
34.481351410861635
35.834480292225734
62.44507939695734
62.06532115075546
60.89252671259431
58.26639379561042
55.86183583384069
54.291941579346954
53.46190538695143
53.074891389529704
52.87929492750592
52.84315644940023
52.877225587987105
52.953482527434666
53.01695429218489
53.06981219106525
53.01052504045053
52.80052240912917
52.46375365660361
51.97830132216558
51.35713217435532
50.64180174514178
49.86882653654696
49.09316683036884
48.28343226164754
47.45715899425358
46.52405655787177
45.472075180331714
44.24299638184976
42.86811897256693
41.3690776084995
39.85240168298018
38.45775969582547
37.351757769875235
36.675106120511785
36.657704020358686
37.09246530444268
36.333447163175364
34.76294036215931
39.98380503791899
66.25861967427076
64.43703690188744
63.38722540378909
65.01821366922849
65.28214266103251
61.511727928730494
58.57089141626576
56.77693558997225
55.725601277646625
55.10927723445212
54.73067223135864
54.46226132071087
54.25797961110801
54.08100303442624
53.898690819307525
53.65700343566179
53.367141605027804
52.99657854978776
52.581648193290555
52.08509226504653
51.5291471658132
50.96035881707218
50.333383740657254
49.7055910280338
49.01659592254273
48.31447427378326
47.53650280791685
46.7038954829401
45.78434366093607
44.770713861564516
43.61631610449483
42.31670550553381
40.95636689617824
39.62036314168456
38.46079779999111
37.567942387488245
37.057285703537396
35.82696718124727
35.79926613374734
27.34596003891859
)
;

boundaryField
{
    ".*"
    {
        type            zeroGradient;
    }
}


// ************************************************************************* //
