/*--------------------------------*- C++ -*----------------------------------*\
  =========                 |
  \\      /  F ield         | OpenFOAM: The Open Source CFD Toolbox
   \\    /   O peration     | Website:  https://openfoam.org
    \\  /    A nd           | Version:  6
     \\/     M anipulation  |
\*---------------------------------------------------------------------------*/
FoamFile
{
    version     2.0;
    format      ascii;
    class       volScalarField;
    location    "2200";
    object      nut;
}
// * * * * * * * * * * * * * * * * * * * * * * * * * * * * * * * * * * * * * //

dimensions      [0 2 -1 0 0 0 0];

internalField   nonuniform List<scalar> 
458
(
0.000696226
0.000723356
0.000703969
0.000728057
0.000749426
0.00076778
0.000783742
0.000798029
0.000811405
0.0008248
0.000835425
0.000842051
0.000844922
0.000845977
0.000845791
0.000434495
0.000478015
0.000507048
0.000528116
0.000533344
0.000518265
0.000498321
0.000478815
0.000460745
0.000443848
0.000427868
0.000412569
0.000397677
0.000382786
0.000367328
0.000350169
0.000333367
0.000302029
0.00109705
0.00176771
0.00147448
0.00176022
0.00188648
0.00201656
0.00214417
0.00225926
0.00234755
0.00239003
0.00239448
0.0023316
0.00216512
0.00184529
0.0013439
0.000871894
0.000820037
0.000768349
0.00062867
0.00116347
0.00165495
0.00191525
0.00186895
0.00142488
0.00126384
0.00117416
0.00109821
0.00102504
0.000954116
0.000884245
0.000811313
0.000731068
0.000657484
0.000597789
0.0006669
0.000361284
0.00146183
0.00274044
0.00161694
0.00255058
0.00278628
0.00294464
0.00307165
0.0031718
0.00324729
0.0032941
0.00331517
0.00329446
0.00320849
0.00303229
0.00274136
0.00230646
0.001664
0.00091599
0.000744523
0.00214824
0.00249576
0.00239727
0.00201026
0.000600877
0.000527913
0.000468547
0.000424075
0.00039171
0.000367759
0.000349643
0.00033644
0.000329566
0.000406156
0.000495244
0.000760941
0.000408654
0.00183516
0.00419693
0.00164472
0.00286152
0.00330353
0.00345955
0.0035507
0.00360685
0.00364319
0.00366709
0.00368278
0.00368503
0.00365757
0.00357938
0.00341392
0.00309344
0.00253026
0.00169214
0.000909352
0.00246641
0.0025714
0.00245556
0.00221062
0.00184978
0.000534656
0.00053667
0.000549628
0.000563955
0.000574717
0.000577677
0.000568837
0.000552531
0.000532267
0.000516476
0.000522149
0.000836072
0.000467674
0.00221425
0.00609632
0.00217576
0.0026801
0.00350966
0.00372033
0.00379681
0.00381982
0.00381811
0.00381506
0.00381857
0.00383797
0.00385113
0.00383346
0.00375971
0.00361517
0.00342419
0.00321617
0.00292854
0.00271985
0.00247261
0.00223987
0.00205119
0.00195481
0.00189099
0.00198763
0.00208966
0.00217457
0.00222711
0.00223324
0.00217699
0.0019852
0.00167293
0.00131691
0.00101969
0.000929507
0.000735245
0.000566091
0.000593087
0.000607348
0.00260071
0.0081292
0.00393142
0.00250068
0.00316255
0.00361753
0.00383086
0.00391642
0.00391169
0.00385737
0.00383384
0.00386742
0.00390188
0.00390492
0.00385095
0.00372665
0.00354347
0.00330267
0.00298344
0.00264126
0.00236457
0.00214894
0.00200679
0.00197095
0.00204322
0.00218956
0.00233449
0.00246008
0.00255319
0.00260398
0.00260431
0.0025276
0.00230558
0.00196006
0.00157675
0.00123991
0.000977293
0.000973017
0.0014024
0.000798434
0.00297643
0.0098022
0.00708039
0.00408927
0.00300404
0.00289348
0.003236
0.00361314
0.00387004
0.00382181
0.00381644
0.00385618
0.00388774
0.00388771
0.00383464
0.00371286
0.00352031
0.00325005
0.00291925
0.00260296
0.00235659
0.00215321
0.00201657
0.00198495
0.00204589
0.00216849
0.00230724
0.00243995
0.00255555
0.00264127
0.00270163
0.00273788
0.00266093
0.00240592
0.00206355
0.00171471
0.00141576
0.00131311
0.00162094
0.000977341
0.00306496
0.00962598
0.00823583
0.00703542
0.00545317
0.00425464
0.00370774
0.0036261
0.00377841
0.0038391
0.00383983
0.0038394
0.00383595
0.00380956
0.00373712
0.0036011
0.003396
0.0031293
0.00283589
0.00258029
0.00238313
0.0021852
0.00204125
0.00200156
0.00204221
0.00213011
0.00223483
0.00233989
0.00244009
0.00253602
0.00263882
0.00276361
0.00289981
0.0028679
0.00263695
0.00247705
0.00246729
0.0025268
0.00314617
0.00135012
0.00299519
0.00359531
0.00424016
0.00454294
0.00460946
0.00439358
0.00411264
0.00390246
0.00379698
0.00374111
0.00373118
0.00373546
0.00372498
0.00367625
0.00357256
0.00340556
0.00317876
0.00291483
0.00266632
0.0024903
0.0023719
0.00219485
0.00204601
0.00198863
0.00199777
0.00204369
0.00210294
0.00216137
0.00221189
0.0022512
0.00227699
0.00228489
0.00226746
0.0022239
0.00217452
0.00215346
0.00212748
0.00205547
0.00195659
0.00132386
0.00268804
0.00536751
0.00500053
0.00476142
0.00453317
0.00433619
0.00418464
0.00406289
0.00394566
0.00382425
0.00368659
0.00352191
0.00332321
0.00308892
0.00282707
0.00256833
0.00238432
0.00232143
0.0023076
0.00218031
0.00203592
0.00194589
0.00190757
0.00190529
0.00192185
0.00194414
0.00196423
0.00197892
0.00198913
0.00199914
0.00201534
0.00203565
0.0020395
0.00201924
0.00194464
0.00178987
0.0015806
0.00109116
0.00252391
0.00580964
0.00539428
0.00506026
0.00478475
0.00454444
0.00431031
0.00408729
0.00385341
0.00357827
0.00329114
0.00300614
0.00272964
0.00246466
0.00221824
0.00202476
0.00200137
0.00216496
0.00233746
0.00233807
0.00222639
0.00208175
0.00195794
0.00187844
0.0018414
0.00183654
0.00185472
0.00188967
0.00193615
0.00198656
0.00202665
0.0020791
0.00212793
0.00214822
0.00213262
0.00208492
0.00200466
0.0011058
0.00199234
0.00216872
0.00231812
0.00248118
0.00233672
0.00220969
0.00201641
0.00185746
0.00170823
0.00156658
0.00143673
0.00132583
0.00122376
0.00112492
0.00102561
0.000922896
0.000814528
0.000702568
0.000606648
0.000589334
0.000601396
0.00060207
0.000597272
0.000597088
0.000606995
0.000627087
0.000654839
0.000687812
0.000724532
0.000764521
0.000808269
0.000857496
0.000915709
0.000975906
0.00103833
0.00110098
0.0011679
0.00114985
0.00105992
0.000979973
)
;

boundaryField
{
    floor
    {
        type            nutkWallFunction;
        Cmu             0.09;
        kappa           0.41;
        E               9.8;
        value           nonuniform List<scalar> 
36
(
0.000102408
5.12273e-05
5.68915e-05
6.06136e-05
6.32937e-05
6.39552e-05
6.20384e-05
5.94933e-05
5.6992e-05
5.46636e-05
5.24762e-05
5.03978e-05
4.83988e-05
4.64441e-05
4.44802e-05
4.24311e-05
4.01436e-05
3.78897e-05
3.36454e-05
3.36453e-05
4.1627e-05
4.78861e-05
5.55587e-05
6.80926e-05
7.1481e-05
7.32629e-05
0.000102408
0.000105535
9.93123e-05
9.30626e-05
5.12273e-05
9.30626e-05
7.59127e-05
0.000110793
9.01665e-05
0.000110006
)
;
    }
    ceiling
    {
        type            nutkWallFunction;
        Cmu             0.09;
        kappa           0.41;
        E               9.8;
        value           nonuniform List<scalar> 
43
(
0.000232469
0.000251588
0.000267656
0.000285192
0.000269794
0.000256158
0.00023523
0.000217852
0.000201388
0.000185613
0.000171015
0.000158432
0.000146747
0.000135327
0.000123737
0.000111614
9.86526e-05
8.50462e-05
7.31785e-05
7.10012e-05
7.25093e-05
7.25961e-05
7.1998e-05
7.19758e-05
7.32141e-05
7.57175e-05
7.91593e-05
8.32259e-05
8.77271e-05
9.25983e-05
9.7893e-05
0.000103811
0.000110758
0.000117888
0.00012523
0.000132546
0.000140309
0.00013822
0.000127757
0.000118369
0.000339659
0.000401771
0.000289464
)
;
    }
    sWall
    {
        type            nutkWallFunction;
        Cmu             0.09;
        kappa           0.41;
        E               9.8;
        value           uniform 0.000232532;
    }
    nWall
    {
        type            nutkWallFunction;
        Cmu             0.09;
        kappa           0.41;
        E               9.8;
        value           nonuniform List<scalar> 6(7.32582e-05 9.6709e-05 0.000118064 0.00013141 0.000133114 0.000118374);
    }
    sideWalls
    {
        type            empty;
    }
    glass1
    {
        type            nutkWallFunction;
        Cmu             0.09;
        kappa           0.41;
        E               9.8;
        value           nonuniform List<scalar> 9(8.42212e-05 0.000132197 0.000174071 0.000215723 0.000257077 0.00029846 0.000338076 0.000347341 0.000340063);
    }
    glass2
    {
        type            nutkWallFunction;
        Cmu             0.09;
        kappa           0.41;
        E               9.8;
        value           nonuniform List<scalar> 2(0.000161262 0.00015827);
    }
    sun
    {
        type            nutkWallFunction;
        Cmu             0.09;
        kappa           0.41;
        E               9.8;
        value           nonuniform List<scalar> 
14
(
8.4259e-05
8.75834e-05
8.52096e-05
8.81574e-05
9.07628e-05
9.29937e-05
9.49286e-05
9.66565e-05
9.82711e-05
9.98848e-05
0.000101163
0.000101959
0.000102303
0.00010243
)
;
    }
    Table_master
    {
        type            nutkWallFunction;
        Cmu             0.09;
        kappa           0.41;
        E               9.8;
        value           nonuniform List<scalar> 9(7.24518e-05 6.32625e-05 5.56703e-05 4.99048e-05 4.56615e-05 4.2493e-05 4.0079e-05 3.83098e-05 3.73854e-05);
    }
    Table_slave
    {
        type            nutkWallFunction;
        Cmu             0.09;
        kappa           0.41;
        E               9.8;
        value           nonuniform List<scalar> 9(6.41201e-05 6.43765e-05 6.60164e-05 6.78238e-05 6.9178e-05 6.95504e-05 6.84398e-05 6.6385e-05 6.3821e-05);
    }
    inlet
    {
        type            calculated;
        value           uniform 0.000100623;
    }
    outlet
    {
        type            calculated;
        value           nonuniform List<scalar> 2(0.00199234 0.00216872);
    }
}


// ************************************************************************* //
