/*--------------------------------*- C++ -*----------------------------------*\
  =========                 |
  \\      /  F ield         | OpenFOAM: The Open Source CFD Toolbox
   \\    /   O peration     | Website:  https://openfoam.org
    \\  /    A nd           | Version:  6
     \\/     M anipulation  |
\*---------------------------------------------------------------------------*/
FoamFile
{
    version     2.0;
    format      ascii;
    class       surfaceScalarField;
    location    "2200";
    object      phi;
}
// * * * * * * * * * * * * * * * * * * * * * * * * * * * * * * * * * * * * * //

dimensions      [1 0 -1 0 0 0 0];

internalField   nonuniform List<scalar> 
850
(
-0.00253485
0.0025949
-0.00295188
0.000417052
-0.00344737
0.000495509
-0.00393439
0.000487043
-0.00436626
0.0004319
-0.00472294
0.000356698
-0.00498763
0.000264716
-0.00514142
0.000153813
-0.00516212
2.07206e-05
-0.00502168
-0.000140413
-0.00469242
-0.000329237
-0.00415434
-0.000538055
-0.003364
-0.000790327
-0.00213341
-0.00123057
-0.00213188
0.000289893
-0.000287278
0.000654013
-0.000364079
0.00102342
-0.000369366
0.00142334
-0.000399888
0.00180198
-0.000378603
0.0019848
-0.000182793
0.00203123
-4.63901e-05
0.00203396
-2.69672e-06
0.00201981
1.41812e-05
0.00199266
2.71837e-05
0.0019554
3.72875e-05
0.00190763
4.78077e-05
0.00184006
6.75977e-05
0.00172767
0.000112421
0.00152898
0.000198723
0.00122124
0.000307772
0.000813209
0.000408065
0.000816562
-0.00187015
0.00462394
-0.00256452
0.00111145
-0.00319529
0.00112631
-0.00372427
0.00101604
-0.00417971
0.000887367
-0.00456056
0.000737569
-0.00485606
0.000560234
-0.00505049
0.000348269
-0.00512574
9.60005e-05
-0.00506892
-0.000197211
-0.00487357
-0.00052456
-0.00453466
-0.000876949
-0.00405686
-0.00126811
-0.00358335
-0.00170405
-0.00383386
-0.00188134
-0.00237541
-0.0014555
-0.000979528
-0.00139276
-0.000971217
0.000616313
-0.00089754
0.000761694
-0.000509432
0.000946811
-0.000554453
0.00125497
-0.00070802
0.00158889
-0.000712493
0.00166286
-0.000256727
0.00166767
-5.11693e-05
0.00166848
-3.46953e-06
0.00166537
1.73177e-05
0.00165807
3.452e-05
0.00164887
4.65181e-05
0.00163839
5.83274e-05
0.00162323
8.27876e-05
0.00157318
0.000162503
0.00139375
0.000378192
0.00107907
0.000622489
0.000668262
0.000818904
0.00149386
-0.00138323
0.00624581
-0.00214166
0.0018699
-0.00274539
0.00173006
-0.00322138
0.00149206
-0.00363269
0.00129871
-0.00398264
0.00108755
-0.00426164
0.000839254
-0.00445521
0.000541864
-0.00454696
0.000187774
-0.00452206
-0.000222081
-0.00437275
-0.000673845
-0.00410781
-0.00114187
-0.00377498
-0.00160091
-0.00349013
-0.00198888
-0.00322651
-0.00214494
-0.00255896
-0.00212303
-0.00168975
-0.00226195
-0.00265359
-0.000186113
-0.000702501
8.38997e-05
-0.000779417
0.000425494
-0.000896018
0.000752719
-0.00103521
0.00131119
-0.00127093
0.00105464
0.00100366
0.00100038
0.00101788
0.00105259
0.0010993
0.00115782
0.0012408
0.0014035
0.00122607
0.000555653
0.00096339
0.00088521
0.000559183
0.00122315
0.00206702
-0.00103188
0.00758107
-0.00176561
0.00260366
-0.00219495
0.00215942
-0.00255413
0.00185126
-0.00287932
0.00162392
-0.00316746
0.00137572
-0.00340831
0.00108012
-0.00358725
0.000720834
-0.0036844
0.000284948
-0.00367661
-0.000229848
-0.00355584
-0.000794587
-0.00334844
-0.00134924
-0.00311317
-0.00183616
-0.00290741
-0.00219462
-0.00268108
-0.00237125
-0.00237432
-0.00242977
-0.00217153
-0.00246471
-0.0026716
-0.0021535
-0.0012732
-0.00138949
-0.000726917
-0.00124876
-0.000291459
-0.00121485
3.52728e-05
-0.00122272
0.000201891
-0.0012018
2.01012e-05
-0.00108911
0.000576823
-0.000556844
0.00100252
-0.00042582
0.00138246
-0.000380057
0.00172557
-0.000343235
0.00201758
-0.000292138
0.00222748
-0.000210023
0.00230472
-7.73626e-05
0.00219185
0.000112752
0.00182329
0.000368438
0.00159101
0.000787964
0.00123198
0.00124427
0.000736492
0.00171867
0.00282144
-0.000768453
0.00870625
-0.00143722
0.00327245
-0.00158603
0.00230826
-0.00178925
0.0020545
-0.00200258
0.00183728
-0.00220104
0.0015742
-0.00237214
0.00125125
-0.00250521
0.000853931
-0.00258135
0.000361107
-0.00256684
-0.000244325
-0.00245335
-0.000908059
-0.0022836
-0.00151896
-0.00211056
-0.00200918
-0.00196106
-0.0023441
-0.00181372
-0.00251857
-0.00166913
-0.00257434
-0.00160702
-0.00252681
-0.00151197
-0.00224853
-0.00104962
-0.00185182
-0.000656242
-0.00164212
-0.000337287
-0.00153378
-0.000122857
-0.00143712
-1.20888e-05
-0.00131254
5.06886e-05
-0.00115185
0.000377162
-0.000883286
0.000703576
-0.000752203
0.00101255
-0.000688998
0.00130505
-0.00063571
0.00157184
-0.000558894
0.00179226
-0.000430418
0.00193137
-0.000216441
0.00194692
9.72244e-05
0.00184095
0.000474443
0.00171228
0.000916664
0.00157915
0.00137743
0.00144655
0.00185131
0.00226446
0.00200356
0.00150655
0.000775795
0.00143875
8.51435e-05
0.00151149
-0.000693799
0.00980144
-0.00125742
0.0038361
-0.000971526
0.00202238
-0.00092361
0.00200661
-0.00102718
0.00194087
-0.00113668
0.00168373
-0.00121335
0.00132794
-0.00126028
0.00090089
-0.00126973
0.000370581
-0.00120907
-0.000304957
-0.00108893
-0.00102818
-0.000962036
-0.00164583
-0.000865759
-0.00210544
-0.000808324
-0.00240151
-0.000777061
-0.00254982
-0.000771616
-0.00257977
-0.000795458
-0.00250295
-0.000750062
-0.00229391
-0.000583452
-0.00201842
-0.000406731
-0.00181883
-0.000268169
-0.00167232
-0.000189839
-0.00151542
-0.000151286
-0.00135106
-0.000100782
-0.00120232
7.12473e-05
-0.00105528
0.000285999
-0.000966924
0.000511433
-0.000914402
0.000740884
-0.000865132
0.000970132
-0.000788113
0.00119345
-0.000653709
0.00139804
-0.000421001
0.00154307
-4.77763e-05
0.00160743
0.000410104
0.00166305
0.000861071
0.00178439
0.00125612
0.00201627
0.00161946
0.00228261
0.00173726
0.00184602
0.00121241
0.00102167
0.000909533
0.00259028
-0.000896688
0.0111387
-0.000972722
0.00391215
-7.49168e-05
0.0011246
0.000271141
0.00166058
0.0002124
0.00199963
0.000128013
0.00176815
0.00012284
0.00133314
0.000175312
0.000848443
0.00028289
0.000263027
0.000420258
-0.0004423
0.000530086
-0.00113798
0.00057603
-0.00169175
0.000551573
-0.00208096
0.000469631
-0.00231955
0.000350046
-0.00243022
0.000206879
-0.00243659
5.82046e-05
-0.00235427
-4.80668e-05
-0.00218763
-9.3788e-05
-0.00197269
-0.000127453
-0.00178515
-0.000174684
-0.00162507
-0.000243704
-0.00144637
-0.000308756
-0.00128597
-0.000339305
-0.00117174
-0.000301499
-0.00109306
-0.000218649
-0.00104974
-0.000108735
-0.00102429
2.1689e-05
-0.000995527
0.000171583
-0.000937979
0.00034533
-0.000827428
0.000553408
-0.000629053
0.000802469
-0.00029681
0.00104548
0.000167121
0.00126567
0.000640906
0.00153355
0.000988269
0.00187135
0.00128169
0.0022452
0.00136344
0.00240775
0.00104989
0.00187677
0.00144055
0.00452553
0.00210447
0.009525
0.00259608
0.00342056
0.00284112
0.000879578
0.00269595
0.00180578
0.00239454
0.00230106
0.00220327
0.00195944
0.00213604
0.0014004
0.00216647
0.000818034
0.00228974
0.000139781
0.00240541
-0.000557938
0.00240086
-0.00113341
0.00227326
-0.00156414
0.00205319
-0.00186087
0.00177511
-0.00204145
0.00146824
-0.00212334
0.0011541
-0.00212244
0.000850209
-0.00205037
0.000576918
-0.00191433
0.000339252
-0.00173501
0.000114759
-0.00156065
-0.000107581
-0.00140272
-0.000322012
-0.00123191
-0.000503489
-0.00110446
-0.0006405
-0.0010347
-0.000728741
-0.00100479
-0.000781126
-0.000997329
-0.000809624
-0.00099576
-0.000820845
-0.000984278
-0.000812477
-0.00094632
-0.000774041
-0.000865837
-0.000678126
-0.000724941
-0.000470071
-0.000504839
-0.000123979
-0.000178946
0.000266051
0.000250904
0.000652891
0.000601457
0.00106897
0.000865637
0.00147291
0.000959531
0.00167502
0.000847802
0.000982468
0.00213313
0.00576174
0.0100596
0.0134702
0.0122626
0.00208717
0.00999333
0.00407506
0.00835184
0.00394257
0.00720471
0.00310659
0.00639966
0.00220548
0.00587534
0.00134238
0.00544729
0.00056785
0.00498166
-9.22817e-05
0.00447864
-0.000630369
0.00395631
-0.00104179
0.00342742
-0.00133198
0.00290299
-0.001517
0.00239394
-0.00161428
0.00190987
-0.00163836
0.00145736
-0.00159785
0.0010384
-0.00149536
0.000646182
-0.00134279
0.000268121
-0.00118258
-0.000102174
-0.0010324
-0.000439412
-0.000894635
-0.000724321
-0.000819514
-0.000966314
-0.000792671
-0.0011758
-0.000795264
-0.00136465
-0.000808453
-0.00154306
-0.000817316
-0.00171941
-0.000807901
-0.00190047
-0.000765229
-0.00209349
-0.000672796
-0.00230684
-0.000511559
-0.00255092
-0.00026074
-0.002823
9.31715e-05
-0.00312651
0.000554434
-0.00362244
0.00109742
-0.0044618
0.00170503
-0.0057891
0.00228686
-0.00753822
0.00259695
-0.00738075
0.00197569
-0.0013397
0.00302653
0.00342038
0.00410473
0.00299687
0.00540841
0.0026389
0.00580822
0.00270679
0.00583329
0.00218042
0.00576131
0.00141438
0.00561369
0.000715479
0.00535355
0.000167873
0.0049711
-0.000247903
0.00449028
-0.000560955
0.00394729
-0.000788976
0.00337446
-0.000944159
0.00279822
-0.00103803
0.00223954
-0.00107968
0.0017125
-0.0010708
0.00121771
-0.00100057
0.000738891
-0.000863961
0.000272686
-0.000716369
-0.000174934
-0.000584759
-0.000568806
-0.000500725
-0.000911825
-0.000476457
-0.00122627
-0.000478189
-0.00152574
-0.00049576
-0.00181828
-0.000515884
-0.00210865
-0.000526917
-0.00239859
-0.000517932
-0.00268593
-0.000477861
-0.00296346
-0.000395236
-0.0032167
-0.000258288
-0.00342553
-5.18799e-05
-0.00357821
0.000245878
-0.00367379
0.000650044
-0.00375042
0.00117407
-0.00382062
0.00177526
-0.00388045
0.00234673
-0.00380999
0.00252652
-0.00233015
0.00049588
-0.00359501
-0.000369087
0.00383344
0.00127068
0.00135711
0.00229222
0.00161736
0.00316429
0.00183473
0.00386296
0.00148175
0.00433041
0.000946941
0.00454216
0.000503741
0.00453576
0.000174289
0.00435066
-6.2791e-05
0.00402241
-0.000232692
0.00358977
-0.000356333
0.00308856
-0.000442934
0.00255015
-0.000499611
0.00200271
-0.000532229
0.00147385
-0.000541931
0.000990093
-0.000516799
0.000519365
-0.000393223
7.93089e-05
-0.000276297
-0.000291687
-0.000213731
-0.000626856
-0.000165516
-0.000952005
-0.00015127
-0.00126815
-0.000162008
-0.00157841
-0.000185471
-0.00188483
-0.00020943
-0.00218675
-0.000224963
-0.00247813
-0.00022652
-0.00274618
-0.00020978
-0.00297148
-0.000169913
-0.00312888
-0.000100854
-0.00318531
4.58022e-06
-0.00311863
0.000179221
-0.002898
0.000429446
-0.00249983
0.00077593
-0.00191753
0.00119299
-0.00102074
0.00144996
0.000533724
0.000972092
0.00142752
-0.000397889
-0.00208514
-0.0061621
-0.00836026
-0.00449564
-0.00312723
-0.00150372
0.000333841
0.00181588
0.00276208
0.00326444
0.00343692
0.00337197
0.00313676
0.00277756
0.00233138
0.0018281
0.00129172
0.000745082
0.000222931
-0.000176149
-0.00045828
-0.000678173
-0.000850443
-0.00100904
-0.00117879
-0.00137224
-0.00158973
-0.0018227
-0.00205711
-0.00227461
-0.00245207
-0.00256025
-0.00256277
-0.00239038
-0.00196752
-0.00119795
-1.11531e-05
0.0014327
0.00239854
0.001994
)
;

boundaryField
{
    floor
    {
        type            calculated;
        value           nonuniform List<scalar> 
36
(
0
0
0
0
0
0
0
0
0
0
0
0
0
0
0
0
0
0
0
-3.3213e-06
-9.00273e-06
-1.39427e-05
-1.79011e-05
-1.78487e-05
-1.73132e-05
-1.66338e-05
-1.50552e-06
-2.92737e-06
-3.10304e-06
-3.2854e-06
-2.57291e-06
-5.00442e-06
-6.02128e-06
-7.35495e-06
-8.89966e-06
-8.89023e-06
)
;
    }
    ceiling
    {
        type            calculated;
        value           nonuniform List<scalar> 
43
(
-3.44448e-05
-3.28567e-05
-3.11815e-05
-1.12834e-05
-6.14998e-06
-2.81853e-06
-2.73892e-07
7.50285e-07
1.38957e-06
1.82594e-06
2.17503e-06
2.52287e-06
2.88191e-06
3.26411e-06
3.68396e-06
4.16101e-06
4.72072e-06
5.36502e-06
5.86826e-06
5.86506e-06
6.204e-06
6.79407e-06
7.36166e-06
7.78005e-06
8.01445e-06
8.08556e-06
8.04005e-06
7.92131e-06
7.75897e-06
7.56972e-06
7.36023e-06
7.12856e-06
6.86264e-06
6.61579e-06
6.39514e-06
6.21918e-06
6.13569e-06
6.28242e-06
6.68209e-06
7.80401e-06
1.35011e-05
9.9898e-06
-4.39773e-05
)
;
    }
    sWall
    {
        type            calculated;
        value           uniform -0.000241908;
    }
    nWall
    {
        type            calculated;
        value           nonuniform List<scalar> 6(-5.60757e-05 -5.70916e-05 -5.84501e-05 -7.48189e-05 -8.231e-05 -9.89133e-05);
    }
    sideWalls
    {
        type            empty;
        value           nonuniform 0();
    }
    glass1
    {
        type            calculated;
        value           nonuniform List<scalar> 9(-6.00283e-05 -0.000158868 -0.000238625 -0.000303366 -0.000356702 -0.000401376 -0.000440539 -0.000490753 -0.000548063);
    }
    glass2
    {
        type            calculated;
        value           nonuniform List<scalar> 2(-0.000253709 -0.000279283);
    }
    sun
    {
        type            calculated;
        value           uniform 0;
    }
    Table_master
    {
        type            calculated;
        value           nonuniform List<scalar> 9(-1.52951e-07 -1.5308e-07 -1.53115e-07 -1.53126e-07 -1.53129e-07 -1.53126e-07 -1.53119e-07 -1.53102e-07 -1.53056e-07);
    }
    Table_slave
    {
        type            calculated;
        value           nonuniform List<scalar> 9(1.53178e-07 1.53062e-07 1.52935e-07 1.5282e-07 1.52723e-07 1.52656e-07 1.52635e-07 1.52643e-07 1.52692e-07);
    }
    inlet
    {
        type            calculated;
        value           uniform -0.00435975;
    }
    outlet
    {
        type            calculated;
        value           nonuniform List<scalar> 2(0.00643846 0.00223102);
    }
}


// ************************************************************************* //
