/*--------------------------------*- C++ -*----------------------------------*\
  =========                 |
  \\      /  F ield         | OpenFOAM: The Open Source CFD Toolbox
   \\    /   O peration     | Website:  https://openfoam.org
    \\  /    A nd           | Version:  6
     \\/     M anipulation  |
\*---------------------------------------------------------------------------*/
FoamFile
{
    version     2.0;
    format      ascii;
    class       volScalarField;
    location    "2800";
    object      epsilon;
}
// * * * * * * * * * * * * * * * * * * * * * * * * * * * * * * * * * * * * * //

dimensions      [0 2 -3 0 0 0 0];

internalField   nonuniform List<scalar> 
458
(
0.000325685
0.00041432
0.000426607
0.000488208
0.00055002
0.000611302
0.000673678
0.000740081
0.000806354
0.000856264
0.000878834
0.000864424
0.000811152
0.000730513
0.000641356
2.61743e-05
5.19586e-05
6.95755e-05
6.48988e-05
5.71327e-05
4.74734e-05
3.88702e-05
3.20347e-05
2.6695e-05
2.24946e-05
1.91638e-05
1.6498e-05
1.43114e-05
1.24592e-05
1.08121e-05
9.23524e-06
8.07027e-06
5.99513e-06
0.000893727
0.00138656
0.000392329
0.000372364
0.000386674
0.000407743
0.000436182
0.000476104
0.000526599
0.000575156
0.000607632
0.000610544
0.000579313
0.000530143
0.000523892
0.0007029
0.000358265
0.000166689
4.01977e-05
9.02495e-05
8.7162e-05
7.50394e-05
6.24467e-05
5.52041e-05
4.37493e-05
3.41726e-05
2.68491e-05
2.13174e-05
1.71352e-05
1.39737e-05
1.15629e-05
9.80412e-06
8.80081e-06
8.43052e-06
1.79557e-05
1.27619e-05
0.00171951
0.00367891
0.000527571
0.000359632
0.000367113
0.00039872
0.000444024
0.000505661
0.00058177
0.000655731
0.000706279
0.000718166
0.000688115
0.000630097
0.000574368
0.000520345
0.000396357
0.000498556
0.000325548
0.000202888
0.000140475
0.000102387
8.06977e-05
0.000132168
9.1442e-05
6.52448e-05
4.81376e-05
3.66683e-05
2.87593e-05
2.31697e-05
1.91531e-05
1.62774e-05
1.25077e-05
1.04631e-05
3.00467e-05
1.92903e-05
0.00291589
0.00790373
0.000929046
0.000377569
0.000360145
0.000401494
0.000465158
0.000556169
0.000670816
0.000773044
0.000833873
0.000843788
0.000804282
0.000729388
0.00064149
0.000540194
0.000439689
0.000431328
0.000790024
0.000419332
0.000239344
0.000154013
0.000108157
8.587e-05
0.000176665
0.000133918
0.000109293
9.35053e-05
8.17599e-05
7.1302e-05
6.23206e-05
5.37419e-05
4.47146e-05
2.73409e-05
1.75806e-05
4.27728e-05
2.66623e-05
0.00462208
0.0142244
0.00200522
0.000496551
0.000384608
0.000419472
0.000501792
0.000652788
0.000834432
0.000961773
0.00101671
0.00100906
0.000944991
0.000839578
0.000708072
0.000564611
0.000430066
0.000331625
0.000279259
0.000216134
0.000162024
0.000121412
9.29286e-05
7.44939e-05
6.89745e-05
6.38081e-05
5.99937e-05
5.66135e-05
5.28489e-05
4.8195e-05
4.32828e-05
3.85789e-05
3.4266e-05
2.80284e-05
2.15152e-05
3.2765e-05
4.25988e-05
6.13172e-05
9.07242e-05
0.000119808
0.00703341
0.0210553
0.00474285
0.00112895
0.000663971
0.000607878
0.000678525
0.000953897
0.00117905
0.00127795
0.00128661
0.00123464
0.00113247
0.000986033
0.000806893
0.000616555
0.000444123
0.000314019
0.000230507
0.000176675
0.000136945
0.000106453
8.48091e-05
7.11764e-05
6.51582e-05
6.38263e-05
6.4072e-05
6.39978e-05
6.25207e-05
5.87139e-05
5.19335e-05
4.43493e-05
3.72458e-05
3.08798e-05
2.60828e-05
2.84028e-05
3.78494e-05
5.01436e-05
0.000133334
0.000128944
0.0098641
0.0250663
0.0100034
0.00403657
0.00246042
0.00183825
0.00169683
0.00184283
0.0018673
0.0017992
0.00168801
0.00154976
0.00137878
0.00116918
0.000929448
0.000685892
0.000472329
0.000314746
0.000216111
0.000158459
0.000122411
9.79691e-05
8.25434e-05
7.46145e-05
7.27961e-05
7.48031e-05
7.81025e-05
8.13795e-05
8.38107e-05
8.41386e-05
8.01986e-05
7.04235e-05
6.04155e-05
5.19224e-05
4.72757e-05
4.90378e-05
6.14305e-05
8.93782e-05
0.000181933
0.000190622
0.0104764
0.0273889
0.0155562
0.0112672
0.00816752
0.00594495
0.00461577
0.00366028
0.00299955
0.00254986
0.00222509
0.00195088
0.00167439
0.00137153
0.00104892
0.000740137
0.000481551
0.000300319
0.000195919
0.000140279
0.000113117
9.76915e-05
8.97004e-05
8.69324e-05
8.78536e-05
9.12714e-05
9.64229e-05
0.000103308
0.000112265
0.000123395
0.000135985
0.000145877
0.000150321
0.000162061
0.000189386
0.000264144
0.000434921
0.000729495
0.00235915
0.000768394
0.00964561
0.0160083
0.0136976
0.0104277
0.00803483
0.00628694
0.00503465
0.00415705
0.00356126
0.00312347
0.00274704
0.00236945
0.0019615
0.00152566
0.00108989
0.000710965
0.000420744
0.000247651
0.000172682
0.000138526
0.000122761
0.000115202
0.000111848
0.000110663
0.000110738
0.000112056
0.000115315
0.00012182
0.000133163
0.000150956
0.000176782
0.000212624
0.000262148
0.000335038
0.000445061
0.000599118
0.000785721
0.000968622
0.00112281
0.000703407
0.00396435
0.00946607
0.00776277
0.00665294
0.00590798
0.00528905
0.00462763
0.0039346
0.00325242
0.00258928
0.00195185
0.00135857
0.000820994
0.0004676
0.000293751
0.000216585
0.000187632
0.000178508
0.000176622
0.00017577
0.000173788
0.000169592
0.000162668
0.000153575
0.000144021
0.00013665
0.000134549
0.000140825
0.000158545
0.00018858
0.000233852
0.000298802
0.00038774
0.000497055
0.000604797
0.000673456
0.000688038
0.000481805
0.0028207
0.00687391
0.00643497
0.0055053
0.00508806
0.00462563
0.00404711
0.00340888
0.00273582
0.00206515
0.00148687
0.00102263
0.000689087
0.000496825
0.000410632
0.000383961
0.000385036
0.000394852
0.000404565
0.000410023
0.000409845
0.000402666
0.000386556
0.000361281
0.000329059
0.000294418
0.000262985
0.00023991
0.000229362
0.000234206
0.000256256
0.000297745
0.000358963
0.000433505
0.000502217
0.000581786
0.000702667
0.000529801
0.00170174
0.00214873
0.0025121
0.0031691
0.00308906
0.00291873
0.00261148
0.00217261
0.00176025
0.00147119
0.00125352
0.00104012
0.000825371
0.000632819
0.000481668
0.000379742
0.000319532
0.000286088
0.00026713
0.000255084
0.000245833
0.000237712
0.000228882
0.000218081
0.000205887
0.000193692
0.000183404
0.000177006
0.00017625
0.000182675
0.000195524
0.000214652
0.000240909
0.000275651
0.000319977
0.000374806
0.000410205
0.000387775
0.000329524
0.000283724
)
;

boundaryField
{
    floor
    {
        Cmu             0.09;
        kappa           0.41;
        E               9.8;
        type            epsilonWallFunction;
        value           nonuniform List<scalar> 
36
(
0.000641356
2.61743e-05
5.19586e-05
6.95755e-05
6.48988e-05
5.71327e-05
4.74734e-05
3.88702e-05
3.20347e-05
2.6695e-05
2.24946e-05
1.91638e-05
1.6498e-05
1.43114e-05
1.24592e-05
1.08121e-05
9.23524e-06
8.07027e-06
5.99513e-06
5.99513e-06
1.27619e-05
1.92903e-05
2.66623e-05
6.13172e-05
9.07242e-05
0.000119808
0.000641356
0.0007029
0.000358265
0.000166689
2.61743e-05
0.000166689
4.01977e-05
0.000498556
0.000325548
0.000790024
)
;
    }
    ceiling
    {
        Cmu             0.09;
        kappa           0.41;
        E               9.8;
        type            epsilonWallFunction;
        value           nonuniform List<scalar> 
43
(
0.00170174
0.00214873
0.0025121
0.0031691
0.00308906
0.00291873
0.00261148
0.00217261
0.00176025
0.00147119
0.00125352
0.00104012
0.000825371
0.000632819
0.000481668
0.000379742
0.000319532
0.000286088
0.00026713
0.000255084
0.000245833
0.000237712
0.000228882
0.000218081
0.000205887
0.000193692
0.000183404
0.000177006
0.00017625
0.000182675
0.000195524
0.000214652
0.000240909
0.000275651
0.000319977
0.000374806
0.000410205
0.000387775
0.000329524
0.000283724
0.00964561
0.0160083
0.0028207
)
;
    }
    sWall
    {
        Cmu             0.09;
        kappa           0.41;
        E               9.8;
        type            epsilonWallFunction;
        value           uniform 0.00170174;
    }
    nWall
    {
        Cmu             0.09;
        kappa           0.41;
        E               9.8;
        type            epsilonWallFunction;
        value           nonuniform List<scalar> 6(0.000119808 0.000128944 0.000190622 0.000481805 0.000529801 0.000283724);
    }
    sideWalls
    {
        type            empty;
    }
    glass1
    {
        Cmu             0.09;
        kappa           0.41;
        E               9.8;
        type            epsilonWallFunction;
        value           nonuniform List<scalar> 9(0.000325685 0.000893727 0.00171951 0.00291589 0.00462208 0.00703341 0.0098641 0.0104764 0.00964561);
    }
    glass2
    {
        Cmu             0.09;
        kappa           0.41;
        E               9.8;
        type            epsilonWallFunction;
        value           nonuniform List<scalar> 2(0.000768394 0.000703407);
    }
    sun
    {
        Cmu             0.09;
        kappa           0.41;
        E               9.8;
        type            epsilonWallFunction;
        value           nonuniform List<scalar> 
14
(
0.000325685
0.00041432
0.000426607
0.000488208
0.00055002
0.000611302
0.000673678
0.000740081
0.000806354
0.000856264
0.000878834
0.000864424
0.000811152
0.000730513
)
;
    }
    Table_master
    {
        Cmu             0.09;
        kappa           0.41;
        E               9.8;
        type            epsilonWallFunction;
        value           nonuniform List<scalar> 9(0.000132168 9.1442e-05 6.52448e-05 4.81376e-05 3.66683e-05 2.87593e-05 2.31697e-05 1.91531e-05 1.62774e-05);
    }
    Table_slave
    {
        Cmu             0.09;
        kappa           0.41;
        E               9.8;
        type            epsilonWallFunction;
        value           nonuniform List<scalar> 9(0.000176665 0.000133918 0.000109293 9.35053e-05 8.17599e-05 7.1302e-05 6.23206e-05 5.37419e-05 4.47146e-05);
    }
    inlet
    {
        type            turbulentMixingLengthDissipationRateInlet;
        mixingLength    0.01;
        phi             phi;
        k               k;
        value           uniform 0.000101881;
    }
    outlet
    {
        type            zeroGradient;
    }
}


// ************************************************************************* //
