/*--------------------------------*- C++ -*----------------------------------*\
  =========                 |
  \\      /  F ield         | OpenFOAM: The Open Source CFD Toolbox
   \\    /   O peration     | Website:  https://openfoam.org
    \\  /    A nd           | Version:  6
     \\/     M anipulation  |
\*---------------------------------------------------------------------------*/
FoamFile
{
    version     2.0;
    format      ascii;
    class       volScalarField;
    location    "1500";
    object      epsilon;
}
// * * * * * * * * * * * * * * * * * * * * * * * * * * * * * * * * * * * * * //

dimensions      [0 2 -3 0 0 0 0];

internalField   nonuniform List<scalar> 
458
(
0.000178156
0.000212067
0.000208426
0.000232986
0.000256213
0.000277794
0.000298192
0.000318124
0.000338628
0.000357952
0.000371506
0.000376978
0.000374191
0.000367254
0.000360187
4.01697e-05
4.74465e-05
4.70255e-05
4.51317e-05
4.25112e-05
3.86237e-05
3.46533e-05
3.11297e-05
2.80811e-05
2.54709e-05
2.32052e-05
2.12047e-05
1.93962e-05
1.77006e-05
1.60281e-05
1.42381e-05
1.24586e-05
9.37002e-06
0.00057163
0.00108017
0.000200024
0.000179731
0.000180201
0.000183359
0.000188898
0.000198363
0.000213491
0.00023313
0.000252109
0.000265853
0.000271755
0.000276512
0.000306686
0.00039757
0.000285196
0.000210977
0.000104419
6.91978e-05
5.26501e-05
4.26659e-05
3.60929e-05
3.37929e-05
2.90579e-05
2.49259e-05
2.14954e-05
1.8662e-05
1.6302e-05
1.4306e-05
1.26011e-05
1.1253e-05
1.07747e-05
1.12609e-05
2.01765e-05
1.57336e-05
0.00121434
0.00324461
0.000301372
0.000179563
0.000176121
0.000184254
0.000197266
0.000216008
0.000241103
0.000271053
0.000299386
0.000317631
0.000320965
0.000314514
0.000311918
0.00030674
0.000266248
0.00040363
0.000173259
8.78655e-05
5.85389e-05
4.43735e-05
3.8264e-05
7.67674e-05
5.77716e-05
4.44366e-05
3.51204e-05
2.85437e-05
2.38201e-05
2.03736e-05
1.78723e-05
1.61877e-05
1.3109e-05
1.20089e-05
2.90875e-05
2.15555e-05
0.00223873
0.00741159
0.000601709
0.000193833
0.00017704
0.000189606
0.000208562
0.000234624
0.000270161
0.00031456
0.000354764
0.000376004
0.000373513
0.000353872
0.000327568
0.000294056
0.000243407
0.000236467
0.000301135
0.000155294
8.37963e-05
5.46523e-05
4.14849e-05
3.69406e-05
8.51222e-05
7.35814e-05
6.88331e-05
6.64748e-05
6.41301e-05
6.03438e-05
5.54414e-05
5.0245e-05
4.40226e-05
2.86903e-05
1.95771e-05
3.88189e-05
2.86529e-05
0.00378248
0.0137884
0.00142932
0.000252435
0.000182526
0.000191465
0.000213783
0.000249591
0.000306378
0.000382108
0.000441748
0.000463906
0.000449386
0.00041093
0.00036199
0.000307792
0.000245323
0.000191206
0.000144699
9.70368e-05
6.66538e-05
4.91995e-05
4.08045e-05
3.75119e-05
4.00017e-05
4.30407e-05
4.61299e-05
4.81752e-05
4.8368e-05
4.61821e-05
4.21673e-05
3.83e-05
3.48299e-05
2.93246e-05
2.3303e-05
3.11182e-05
3.70822e-05
4.44674e-05
5.31614e-05
6.06755e-05
0.00602911
0.0206678
0.0037284
0.000590503
0.000277257
0.000234658
0.000240741
0.000278611
0.000376717
0.000506504
0.000580361
0.000590285
0.000551645
0.000487098
0.000414328
0.000342441
0.000271788
0.000202507
0.000137288
9.1233e-05
6.45072e-05
5.08421e-05
4.59539e-05
4.56128e-05
4.90184e-05
5.47986e-05
6.07826e-05
6.54119e-05
6.74891e-05
6.56236e-05
5.85824e-05
4.92263e-05
4.05182e-05
3.29613e-05
2.7309e-05
2.76701e-05
3.1195e-05
4.92008e-05
0.000259485
0.000144597
0.00893596
0.0247179
0.00892853
0.00267364
0.00123152
0.000709833
0.00053131
0.000503768
0.000650006
0.00077323
0.000803971
0.00076511
0.000683167
0.000582469
0.000482778
0.000393831
0.000311666
0.000228685
0.000150032
9.52749e-05
6.86658e-05
5.85657e-05
5.69808e-05
5.87893e-05
6.34038e-05
7.06255e-05
7.92673e-05
8.75798e-05
9.43583e-05
9.75312e-05
9.44191e-05
8.07806e-05
6.66322e-05
5.48083e-05
4.77414e-05
4.70758e-05
5.3073e-05
8.1125e-05
0.000381687
0.000252496
0.00972094
0.0288678
0.0157395
0.0105748
0.00638283
0.00370588
0.00235114
0.00173736
0.00149178
0.00132607
0.00116956
0.00100713
0.000840357
0.000683738
0.000552132
0.000447912
0.000355125
0.000257169
0.000163346
0.00010181
8.04493e-05
7.46945e-05
7.42673e-05
7.63718e-05
8.09691e-05
8.82993e-05
9.81583e-05
0.000110127
0.000123826
0.000138607
0.00015326
0.000163671
0.000161713
0.000165951
0.000187026
0.000248893
0.000399039
0.000647777
0.00260222
0.000692724
0.00909285
0.0156757
0.0142774
0.0109134
0.00815285
0.00591124
0.00429252
0.00323271
0.00249181
0.00196496
0.0015662
0.00124321
0.000969628
0.000753229
0.000599764
0.000493936
0.000395693
0.000278263
0.000168738
0.000119946
0.000105588
0.00010146
9.98619e-05
9.95608e-05
0.00010122
0.000105706
0.000113686
0.000125721
0.000142404
0.000164502
0.0001932
0.00023019
0.000277386
0.000346202
0.000456118
0.00061918
0.000830234
0.0010524
0.00125219
0.000674095
0.00682483
0.0139183
0.00875939
0.00627283
0.00468424
0.00359095
0.00279617
0.00217132
0.00167533
0.00127721
0.000951368
0.000732221
0.000611796
0.000543145
0.00044425
0.000289731
0.000202039
0.000172904
0.000164321
0.00015901
0.000152305
0.00014426
0.000136322
0.000130081
0.000126892
0.000127898
0.000134209
0.000147122
0.000168398
0.000200654
0.000246792
0.000310907
0.00039926
0.000511168
0.000626158
0.000699086
0.000701539
0.000429474
0.00499196
0.0104625
0.00701732
0.005203
0.00399032
0.00308556
0.00236716
0.00180951
0.00137084
0.00102643
0.000744336
0.000662968
0.000704094
0.000755352
0.000667442
0.000521903
0.000438478
0.00040247
0.000385417
0.000369811
0.000349094
0.000322907
0.000293731
0.000264839
0.000239169
0.000218918
0.000205638
0.000200604
0.00020525
0.000221475
0.000253436
0.000303945
0.000374848
0.000461327
0.000552125
0.000634478
0.000641011
0.000456197
0.00246903
0.00319742
0.00389228
0.00479588
0.00413868
0.00358274
0.00277012
0.00204182
0.00145827
0.00100724
0.000728328
0.000514935
0.00033115
0.000233396
0.00027271
0.000299643
0.000286607
0.000248179
0.000217255
0.000197259
0.000183125
0.000171163
0.00016047
0.000151639
0.000145593
0.000143012
0.000144232
0.00014937
0.000158536
0.000172056
0.000190774
0.000216582
0.00024789
0.000286108
0.000333113
0.00038869
0.000454991
0.000442518
0.000355541
0.00029073
)
;

boundaryField
{
    floor
    {
        Cmu             0.09;
        kappa           0.41;
        E               9.8;
        type            epsilonWallFunction;
        value           nonuniform List<scalar> 
36
(
0.000360187
4.01697e-05
4.74465e-05
4.70255e-05
4.51317e-05
4.25112e-05
3.86237e-05
3.46533e-05
3.11297e-05
2.80811e-05
2.54709e-05
2.32052e-05
2.12047e-05
1.93962e-05
1.77006e-05
1.60281e-05
1.42381e-05
1.24586e-05
9.37002e-06
9.37002e-06
1.57336e-05
2.15555e-05
2.86529e-05
4.44674e-05
5.31614e-05
6.06755e-05
0.000360187
0.00039757
0.000285196
0.000210977
4.01697e-05
0.000210977
0.000104419
0.00040363
0.000173259
0.000301135
)
;
    }
    ceiling
    {
        Cmu             0.09;
        kappa           0.41;
        E               9.8;
        type            epsilonWallFunction;
        value           nonuniform List<scalar> 
43
(
0.00246903
0.00319742
0.00389228
0.00479588
0.00413868
0.00358274
0.00277012
0.00204182
0.00145827
0.00100724
0.000728328
0.000514935
0.00033115
0.000233396
0.00027271
0.000299643
0.000286607
0.000248179
0.000217255
0.000197259
0.000183125
0.000171163
0.00016047
0.000151639
0.000145593
0.000143012
0.000144232
0.00014937
0.000158536
0.000172056
0.000190774
0.000216582
0.00024789
0.000286108
0.000333113
0.00038869
0.000454991
0.000442518
0.000355541
0.00029073
0.00909285
0.0156757
0.00499196
)
;
    }
    sWall
    {
        Cmu             0.09;
        kappa           0.41;
        E               9.8;
        type            epsilonWallFunction;
        value           uniform 0.00246903;
    }
    nWall
    {
        Cmu             0.09;
        kappa           0.41;
        E               9.8;
        type            epsilonWallFunction;
        value           nonuniform List<scalar> 6(6.06755e-05 0.000144597 0.000252496 0.000429474 0.000456197 0.00029073);
    }
    sideWalls
    {
        type            empty;
    }
    glass1
    {
        Cmu             0.09;
        kappa           0.41;
        E               9.8;
        type            epsilonWallFunction;
        value           nonuniform List<scalar> 9(0.000178156 0.00057163 0.00121434 0.00223873 0.00378248 0.00602911 0.00893596 0.00972094 0.00909285);
    }
    glass2
    {
        Cmu             0.09;
        kappa           0.41;
        E               9.8;
        type            epsilonWallFunction;
        value           nonuniform List<scalar> 2(0.000692724 0.000674095);
    }
    sun
    {
        Cmu             0.09;
        kappa           0.41;
        E               9.8;
        type            epsilonWallFunction;
        value           nonuniform List<scalar> 
14
(
0.000178156
0.000212067
0.000208426
0.000232986
0.000256213
0.000277794
0.000298192
0.000318124
0.000338628
0.000357952
0.000371506
0.000376978
0.000374191
0.000367254
)
;
    }
    Table_master
    {
        Cmu             0.09;
        kappa           0.41;
        E               9.8;
        type            epsilonWallFunction;
        value           nonuniform List<scalar> 9(7.67674e-05 5.77716e-05 4.44366e-05 3.51204e-05 2.85437e-05 2.38201e-05 2.03736e-05 1.78723e-05 1.61877e-05);
    }
    Table_slave
    {
        Cmu             0.09;
        kappa           0.41;
        E               9.8;
        type            epsilonWallFunction;
        value           nonuniform List<scalar> 9(8.51222e-05 7.35814e-05 6.88331e-05 6.64748e-05 6.41301e-05 6.03438e-05 5.54414e-05 5.0245e-05 4.40226e-05);
    }
    inlet
    {
        type            turbulentMixingLengthDissipationRateInlet;
        mixingLength    0.01;
        phi             phi;
        k               k;
        value           uniform 0.000101881;
    }
    outlet
    {
        type            zeroGradient;
    }
}


// ************************************************************************* //
