/*--------------------------------*- C++ -*----------------------------------*\
  =========                 |
  \\      /  F ield         | OpenFOAM: The Open Source CFD Toolbox
   \\    /   O peration     | Website:  https://openfoam.org
    \\  /    A nd           | Version:  6
     \\/     M anipulation  |
\*---------------------------------------------------------------------------*/
FoamFile
{
    version     2.0;
    format      ascii;
    class       volScalarField;
    location    "800";
    object      epsilon;
}
// * * * * * * * * * * * * * * * * * * * * * * * * * * * * * * * * * * * * * //

dimensions      [0 2 -3 0 0 0 0];

internalField   nonuniform List<scalar> 
458
(
0.000130842
0.000143595
0.000119407
0.000133332
0.000148375
0.00016315
0.000177619
0.000192053
0.000206958
0.000223219
0.000238303
0.000250719
0.000260253
0.000268144
0.000274256
2.66526e-05
4.67269e-05
4.78821e-05
3.22579e-05
1.87504e-05
7.44493e-06
2.43867e-06
1.71192e-06
1.57135e-06
1.19051e-06
8.89954e-07
8.56131e-07
1.86045e-06
2.88734e-06
5.63261e-06
1.26571e-05
1.92921e-05
1.501e-05
0.000601991
0.0013629
0.000142241
0.000104023
0.000106441
0.000111273
0.000116923
0.000124152
0.000133953
0.000147402
0.000163443
0.000181122
0.000199672
0.000219635
0.000252217
0.00034029
0.000299954
0.000111733
7.47049e-05
8.89731e-05
6.23303e-05
4.6771e-05
3.09061e-05
1.5176e-05
7.42847e-06
4.6705e-06
3.51243e-06
2.62686e-06
1.67983e-06
1.18321e-06
4.09534e-06
9.77872e-06
2.55441e-05
4.70822e-05
8.94223e-05
4.9876e-05
0.00149749
0.00451964
0.00031628
0.000116147
0.000108432
0.000113341
0.000120579
0.000130051
0.000142155
0.000157041
0.000173802
0.000189843
0.000203365
0.000214582
0.000227878
0.000251846
0.000291962
0.000384241
0.00021447
0.000165878
0.000103546
8.98034e-05
8.97342e-05
2.90531e-05
1.48622e-05
9.88514e-06
6.94378e-06
4.68232e-06
2.90906e-06
1.88789e-06
1.13205e-05
5.90631e-05
0.000101252
0.00011073
0.000236334
8.04981e-05
0.00295759
0.0101403
0.000761101
0.000149316
0.000118895
0.000125074
0.000135873
0.000149344
0.000165638
0.000184846
0.000206167
0.000224399
0.000236783
0.000244055
0.000249464
0.000258657
0.000283443
0.000342703
0.000445679
0.000174159
0.000102812
8.61593e-05
8.86972e-05
0.000107871
0.000154157
0.000152656
0.000157462
0.000166562
0.000180067
0.000199532
0.000228328
0.000255818
0.000288121
0.000202861
0.000181928
0.000286472
0.000289123
0.00504169
0.0178183
0.00176216
0.000228171
0.000136814
0.000140262
0.000155359
0.000175762
0.000201268
0.000231943
0.000265501
0.000290393
0.000302815
0.00030544
0.000301862
0.000294513
0.000284615
0.000266142
0.000218938
0.000139001
9.90863e-05
8.36429e-05
8.16771e-05
8.65851e-05
9.44144e-05
0.000102383
0.000114625
0.000131929
0.000155184
0.000185648
0.0002251
0.000271989
0.000327984
0.000364055
0.000407031
0.000412924
0.000491396
0.000903612
0.000721948
0.000518734
0.00782871
0.0250971
0.00394331
0.000531004
0.000215857
0.000183881
0.000193779
0.00021896
0.00025617
0.000307376
0.000361611
0.00039108
0.00039641
0.00038751
0.000372606
0.000355767
0.000334569
0.000297136
0.0002365
0.000170523
0.000124692
0.000101651
9.40649e-05
9.49476e-05
0.000100949
0.000112222
0.00013058
0.000157245
0.000193798
0.000242483
0.000306231
0.000388269
0.000492535
0.000623062
0.000808236
0.00109844
0.00126249
0.00128543
0.000904702
0.000764786
0.0112114
0.0288081
0.00874422
0.00232839
0.000880404
0.000491529
0.000388564
0.000374923
0.000402002
0.000475558
0.000535717
0.000544223
0.000519974
0.000482103
0.000442435
0.000407023
0.000373925
0.000330934
0.000270933
0.000206132
0.000154916
0.000124589
0.000110844
0.000108002
0.000113505
0.000128194
0.000153963
0.00019221
0.00024429
0.000312077
0.000398928
0.000510195
0.000652525
0.000832469
0.00105165
0.0012798
0.00139573
0.00131605
0.000811329
0.000767535
0.0120383
0.0347377
0.0173494
0.0107501
0.00591078
0.00304652
0.00174471
0.0012098
0.000999461
0.000928034
0.000852785
0.000762919
0.000670121
0.000583113
0.000506337
0.000441781
0.000388428
0.000339001
0.000284792
0.000227434
0.000176956
0.000143291
0.000124736
0.000118082
0.000122253
0.000139387
0.000173167
0.000225942
0.000297713
0.000383658
0.000475042
0.000561109
0.000632896
0.000690518
0.000743754
0.00080971
0.000879867
0.000956715
0.00102784
0.000889258
0.0110367
0.0186567
0.0149632
0.0112038
0.00815314
0.00566286
0.00388003
0.0027234
0.00201533
0.00154724
0.00121522
0.000973253
0.000791416
0.000650577
0.000538846
0.000449049
0.00037652
0.000316781
0.000265088
0.000218938
0.000179344
0.000148771
0.000128198
0.000117404
0.000116573
0.000128173
0.000157822
0.000208336
0.000285151
0.000391054
0.000530021
0.000701312
0.000897972
0.00110178
0.00127764
0.00138286
0.00148567
0.00168233
0.00201572
0.00130452
0.00615205
0.00917693
0.00683744
0.00509737
0.00375606
0.0027723
0.00207962
0.00159109
0.00123909
0.000979206
0.000783433
0.000632469
0.000513348
0.000417643
0.000340043
0.000277082
0.000226188
0.000185324
0.000153035
0.000128427
0.000110962
0.000100376
9.68819e-05
0.000101651
0.000117195
0.000146487
0.000193465
0.000265648
0.000366114
0.000493569
0.000644397
0.00081291
0.000995941
0.00120061
0.00134442
0.00116524
0.00158518
0.00131637
0.00431945
0.00720109
0.00550431
0.0042365
0.00324901
0.00248228
0.001898
0.001464
0.00114376
0.000904955
0.000723294
0.000581929
0.000469438
0.000378352
0.000303957
0.000243321
0.000194481
0.000155869
0.000126012
0.000103531
8.72842e-05
7.65073e-05
7.0897e-05
7.06999e-05
7.68521e-05
9.11551e-05
0.000117749
0.000161606
0.000225375
0.000307688
0.000403064
0.000501921
0.000589742
0.000644946
0.000625676
0.000592536
0.00108331
0.000896367
0.00228834
0.00287309
0.00343875
0.00415442
0.00373371
0.00319268
0.00253356
0.00203348
0.0016287
0.00130253
0.00103929
0.000842581
0.000688478
0.000562926
0.000458622
0.000371527
0.00029924
0.000240109
0.000192697
0.00015551
0.000126941
0.000105405
8.95453e-05
7.83948e-05
7.15773e-05
6.91378e-05
7.15403e-05
8.01537e-05
9.7909e-05
0.000129193
0.000178277
0.000246155
0.000327852
0.000411872
0.000480498
0.000510272
0.000487859
0.000454584
0.000458704
0.000383416
)
;

boundaryField
{
    floor
    {
        Cmu             0.09;
        kappa           0.41;
        E               9.8;
        type            epsilonWallFunction;
        value           nonuniform List<scalar> 
36
(
0.000274256
2.66526e-05
4.67269e-05
4.78821e-05
3.22579e-05
1.87504e-05
7.44493e-06
2.43867e-06
1.71192e-06
1.57135e-06
1.19051e-06
8.89954e-07
8.56131e-07
1.86045e-06
2.88734e-06
5.63261e-06
1.26571e-05
1.92921e-05
1.501e-05
1.501e-05
4.9876e-05
8.04981e-05
0.000289123
0.000903612
0.000721948
0.000518734
0.000274256
0.00034029
0.000299954
0.000111733
2.66526e-05
0.000111733
7.47049e-05
0.000384241
0.00021447
0.000445679
)
;
    }
    ceiling
    {
        Cmu             0.09;
        kappa           0.41;
        E               9.8;
        type            epsilonWallFunction;
        value           nonuniform List<scalar> 
43
(
0.00228834
0.00287309
0.00343875
0.00415442
0.00373371
0.00319268
0.00253356
0.00203348
0.0016287
0.00130253
0.00103929
0.000842581
0.000688478
0.000562926
0.000458622
0.000371527
0.00029924
0.000240109
0.000192697
0.00015551
0.000126941
0.000105405
8.95453e-05
7.83948e-05
7.15773e-05
6.91378e-05
7.15403e-05
8.01537e-05
9.7909e-05
0.000129193
0.000178277
0.000246155
0.000327852
0.000411872
0.000480498
0.000510272
0.000487859
0.000454584
0.000458704
0.000383416
0.0110367
0.0186567
0.00431945
)
;
    }
    sWall
    {
        Cmu             0.09;
        kappa           0.41;
        E               9.8;
        type            epsilonWallFunction;
        value           uniform 0.00228834;
    }
    nWall
    {
        Cmu             0.09;
        kappa           0.41;
        E               9.8;
        type            epsilonWallFunction;
        value           nonuniform List<scalar> 6(0.000518734 0.000764786 0.000767535 0.00131637 0.000896367 0.000383416);
    }
    sideWalls
    {
        type            empty;
    }
    glass1
    {
        Cmu             0.09;
        kappa           0.41;
        E               9.8;
        type            epsilonWallFunction;
        value           nonuniform List<scalar> 9(0.000130842 0.000601991 0.00149749 0.00295759 0.00504169 0.00782871 0.0112114 0.0120383 0.0110367);
    }
    glass2
    {
        Cmu             0.09;
        kappa           0.41;
        E               9.8;
        type            epsilonWallFunction;
        value           nonuniform List<scalar> 2(0.000889258 0.00130452);
    }
    sun
    {
        Cmu             0.09;
        kappa           0.41;
        E               9.8;
        type            epsilonWallFunction;
        value           nonuniform List<scalar> 
14
(
0.000130842
0.000143595
0.000119407
0.000133332
0.000148375
0.00016315
0.000177619
0.000192053
0.000206958
0.000223219
0.000238303
0.000250719
0.000260253
0.000268144
)
;
    }
    Table_master
    {
        Cmu             0.09;
        kappa           0.41;
        E               9.8;
        type            epsilonWallFunction;
        value           nonuniform List<scalar> 9(2.90531e-05 1.48622e-05 9.88514e-06 6.94378e-06 4.68232e-06 2.90906e-06 1.88789e-06 1.13205e-05 5.90631e-05);
    }
    Table_slave
    {
        Cmu             0.09;
        kappa           0.41;
        E               9.8;
        type            epsilonWallFunction;
        value           nonuniform List<scalar> 9(0.000154157 0.000152656 0.000157462 0.000166562 0.000180067 0.000199532 0.000228328 0.000255818 0.000288121);
    }
    inlet
    {
        type            turbulentMixingLengthDissipationRateInlet;
        mixingLength    0.01;
        phi             phi;
        k               k;
        value           uniform 0.000471672;
    }
    outlet
    {
        type            zeroGradient;
    }
}


// ************************************************************************* //
