/*--------------------------------*- C++ -*----------------------------------*\
  =========                 |
  \\      /  F ield         | OpenFOAM: The Open Source CFD Toolbox
   \\    /   O peration     | Website:  https://openfoam.org
    \\  /    A nd           | Version:  6
     \\/     M anipulation  |
\*---------------------------------------------------------------------------*/
FoamFile
{
    version     2.0;
    format      ascii;
    class       volScalarField;
    location    "1900";
    object      nut;
}
// * * * * * * * * * * * * * * * * * * * * * * * * * * * * * * * * * * * * * //

dimensions      [0 2 -1 0 0 0 0];

internalField   nonuniform List<scalar> 
458
(
0.000914707
0.000972156
0.000955553
0.000989311
0.00102011
0.00104721
0.00107157
0.00109442
0.00111597
0.0011285
0.00112895
0.00111486
0.00108679
0.00105093
0.00101498
0.000424562
0.000517142
0.000523116
0.000518816
0.00051104
0.000492058
0.000469287
0.000447446
0.000426964
0.000407613
0.000389293
0.000371922
0.000355389
0.000339483
0.000323691
0.000307138
0.000305668
0.000287542
0.00134791
0.0028598
0.00257635
0.00301928
0.00333666
0.00366003
0.00396903
0.00422645
0.00439835
0.00452768
0.00458039
0.00450046
0.00420035
0.00353119
0.00231999
0.00102364
0.000901757
0.000850646
0.000631929
0.000924977
0.00118429
0.00144821
0.0015628
0.00127371
0.00115285
0.00105488
0.000967269
0.000889154
0.000820038
0.000759068
0.000704909
0.00065829
0.000624771
0.000591381
0.000760845
0.000418266
0.00171696
0.00405591
0.00299354
0.00419961
0.00460069
0.00484712
0.00502636
0.00515862
0.00525029
0.00534715
0.00543459
0.00548635
0.00547481
0.00537204
0.00512177
0.00455827
0.00333265
0.00105071
0.000803689
0.00136236
0.00178546
0.00212989
0.00210589
0.000643877
0.000579479
0.00052767
0.000486859
0.000454535
0.000428517
0.00040726
0.000389868
0.000376292
0.000424433
0.000493427
0.000846527
0.000495685
0.00207529
0.00554829
0.0029883
0.00450145
0.00503067
0.00512974
0.00513314
0.00512444
0.00513484
0.00518973
0.00527603
0.00537132
0.00546432
0.00554726
0.0055739
0.0054096
0.00488832
0.0038534
0.000916773
0.00169948
0.00219468
0.00258951
0.00279283
0.00254215
0.000674723
0.000652902
0.000651608
0.000657454
0.000662398
0.000660469
0.000646786
0.000627842
0.000603327
0.000575774
0.000567648
0.000931712
0.000562554
0.00243173
0.0074164
0.00349757
0.00423044
0.00507166
0.00513652
0.00502596
0.00491676
0.00487289
0.00491093
0.0049924
0.00508248
0.0051776
0.00528427
0.00536377
0.00531058
0.00504824
0.00456813
0.0037269
0.00333872
0.00324544
0.0032131
0.00317413
0.00306782
0.00274949
0.00274919
0.00281504
0.00287487
0.00289938
0.00286994
0.0027675
0.00248957
0.00207901
0.00161875
0.0012281
0.00104571
0.000895452
0.000675808
0.000695438
0.000695923
0.00279498
0.00937456
0.00524761
0.00401765
0.00466194
0.00494502
0.00493326
0.00481438
0.00470632
0.00474997
0.00482459
0.00488546
0.004937
0.00501304
0.00509466
0.00507759
0.00488241
0.0045512
0.004098
0.00372538
0.00344722
0.003244
0.00312817
0.00308519
0.00311008
0.00321429
0.00332844
0.0034176
0.00346721
0.00346901
0.00341649
0.00326816
0.00295777
0.00249891
0.00199367
0.00150284
0.00118796
0.00120801
0.00171714
0.000892313
0.00313427
0.0108468
0.00810648
0.0053832
0.00450352
0.00441524
0.00463442
0.00474756
0.00470412
0.00473709
0.00477608
0.00478397
0.00476633
0.00478699
0.00486937
0.00489948
0.00474058
0.00439378
0.00395916
0.00354626
0.00320944
0.00300284
0.00293149
0.00295197
0.00304137
0.00317279
0.00330289
0.00340697
0.00348038
0.00352322
0.00353923
0.00352888
0.00337903
0.00303566
0.00259326
0.00213448
0.00177354
0.00165853
0.00202977
0.00111419
0.00320265
0.010125
0.00879551
0.00768317
0.0063828
0.00545511
0.0051025
0.00502375
0.00489287
0.00481996
0.00478564
0.00472029
0.00461711
0.00457884
0.0046789
0.00477435
0.00463934
0.00422935
0.0036862
0.00318332
0.00287737
0.00275433
0.00274432
0.00279722
0.00288792
0.00299656
0.00310273
0.00319519
0.0032748
0.00334991
0.00343541
0.00354967
0.00367145
0.00352847
0.00327051
0.00310135
0.00313958
0.0032145
0.00388288
0.00149969
0.0031169
0.00370543
0.00440821
0.00474879
0.004904
0.00483766
0.00472814
0.0046651
0.00466995
0.00472356
0.00473034
0.00460838
0.00439818
0.00430276
0.00446751
0.00466379
0.00452589
0.0039743
0.00328304
0.00281416
0.00260963
0.00255107
0.00256015
0.00260303
0.00266371
0.00272975
0.00278989
0.00283681
0.00286764
0.00288187
0.00287837
0.00285228
0.00279485
0.00272078
0.00264757
0.00259654
0.00252218
0.00238339
0.00222928
0.00145112
0.00284677
0.00551139
0.00534949
0.00527554
0.00522714
0.00520897
0.00517668
0.0050651
0.00481377
0.00440161
0.00396926
0.00382819
0.00416178
0.00449198
0.00424545
0.00344405
0.00280172
0.00251381
0.00241044
0.00237127
0.00235922
0.00236547
0.00238533
0.00241249
0.00243939
0.00245934
0.00246816
0.00246532
0.00245472
0.00244499
0.00244928
0.00245237
0.00243331
0.00237295
0.00223266
0.00199107
0.00169008
0.00115202
0.00264818
0.00604189
0.00585786
0.00561843
0.00542692
0.00523529
0.00499348
0.00462518
0.00404224
0.00338049
0.00285999
0.00278202
0.00332941
0.0036119
0.00320158
0.00253415
0.00217377
0.00203093
0.00195051
0.00188392
0.00183203
0.00180304
0.00180115
0.00182648
0.00187686
0.00194881
0.0020375
0.00213615
0.00223484
0.00231802
0.00240669
0.00248856
0.00254637
0.00255339
0.00249963
0.00240279
0.00202485
0.00116117
0.00209319
0.00226435
0.00241062
0.00253707
0.00235664
0.00221932
0.00201345
0.00180665
0.00160042
0.00140461
0.00124067
0.00106895
0.00088311
0.000809024
0.00081368
0.000793442
0.000708814
0.000657617
0.000635099
0.000630327
0.000634242
0.000644253
0.000659806
0.000680456
0.000705626
0.000734738
0.000767326
0.000803117
0.000842137
0.000884877
0.000932616
0.000988113
0.0010481
0.00111223
0.00117966
0.00124908
0.00131524
0.00129162
0.00118359
0.00108645
)
;

boundaryField
{
    floor
    {
        type            nutkWallFunction;
        Cmu             0.09;
        kappa           0.41;
        E               9.8;
        value           nonuniform List<scalar> 
36
(
0.000122498
4.99829e-05
6.1906e-05
6.26686e-05
6.21215e-05
6.11304e-05
5.87044e-05
5.57788e-05
5.29564e-05
5.02937e-05
4.77634e-05
4.5354e-05
4.30562e-05
4.08566e-05
3.87279e-05
3.66019e-05
3.43592e-05
3.41607e-05
3.16841e-05
3.1684e-05
4.91614e-05
5.91694e-05
6.76563e-05
8.17584e-05
8.41716e-05
8.42301e-05
0.000122498
0.000123514
0.0001091
0.000102989
4.99829e-05
0.000102989
7.63261e-05
0.000126677
9.73508e-05
0.000110902
)
;
    }
    ceiling
    {
        type            nutkWallFunction;
        Cmu             0.09;
        kappa           0.41;
        E               9.8;
        value           nonuniform List<scalar> 
43
(
0.000243398
0.000261858
0.000277518
0.000291085
0.00027188
0.000257147
0.00023487
0.000212217
0.000189338
0.000167324
0.000148625
0.000128733
0.000106822
9.80209e-05
9.85891e-05
9.60991e-05
8.58132e-05
7.95175e-05
7.67271e-05
7.61325e-05
7.66174e-05
7.78582e-05
7.97818e-05
8.23276e-05
8.54184e-05
8.8977e-05
9.29408e-05
9.72716e-05
0.000101968
0.000107082
0.000112761
0.000119322
0.000126366
0.000133845
0.000141657
0.000149647
0.000157214
0.000154517
0.00014211
0.000130844
0.000352297
0.000412976
0.000302615
)
;
    }
    sWall
    {
        type            nutkWallFunction;
        Cmu             0.09;
        kappa           0.41;
        E               9.8;
        value           uniform 0.000243463;
    }
    nWall
    {
        type            nutkWallFunction;
        Cmu             0.09;
        kappa           0.41;
        E               9.8;
        value           nonuniform List<scalar> 6(8.42279e-05 0.000107975 0.000134082 0.000138471 0.000139531 0.000130853);
    }
    sideWalls
    {
        type            empty;
    }
    glass1
    {
        type            nutkWallFunction;
        Cmu             0.09;
        kappa           0.41;
        E               9.8;
        value           nonuniform List<scalar> 9(0.000110699 0.000161142 0.000202644 0.000242004 0.000280433 0.000318987 0.000354526 0.000361648 0.000352741);
    }
    glass2
    {
        type            nutkWallFunction;
        Cmu             0.09;
        kappa           0.41;
        E               9.8;
        value           nonuniform List<scalar> 2(0.00017818 0.000172707);
    }
    sun
    {
        type            nutkWallFunction;
        Cmu             0.09;
        kappa           0.41;
        E               9.8;
        value           nonuniform List<scalar> 
14
(
0.000110651
0.000117458
0.000115498
0.000119484
0.000123107
0.000126285
0.000129135
0.0001318
0.000134308
0.000135763
0.000135816
0.000134178
0.000130908
0.000126717
)
;
    }
    Table_master
    {
        type            nutkWallFunction;
        Cmu             0.09;
        kappa           0.41;
        E               9.8;
        value           nonuniform List<scalar> 9(7.78199e-05 6.97907e-05 6.32523e-05 5.80466e-05 5.38849e-05 5.05083e-05 4.77304e-05 4.5444e-05 4.36503e-05);
    }
    Table_slave
    {
        type            nutkWallFunction;
        Cmu             0.09;
        kappa           0.41;
        E               9.8;
        value           nonuniform List<scalar> 9(8.16329e-05 7.89366e-05 7.87746e-05 7.9496e-05 8.01057e-05 7.98668e-05 7.81741e-05 7.58238e-05 7.27696e-05);
    }
    inlet
    {
        type            calculated;
        value           uniform 0.000100623;
    }
    outlet
    {
        type            calculated;
        value           nonuniform List<scalar> 2(0.00209319 0.00226435);
    }
}


// ************************************************************************* //
