/*--------------------------------*- C++ -*----------------------------------*\
  =========                 |
  \\      /  F ield         | OpenFOAM: The Open Source CFD Toolbox
   \\    /   O peration     | Website:  https://openfoam.org
    \\  /    A nd           | Version:  6
     \\/     M anipulation  |
\*---------------------------------------------------------------------------*/
FoamFile
{
    version     2.0;
    format      ascii;
    class       volVectorField;
    location    "1900";
    object      U;
}
// * * * * * * * * * * * * * * * * * * * * * * * * * * * * * * * * * * * * * //

dimensions      [0 1 -1 0 0 0 0];

internalField   nonuniform List<vector> 
458
(
(0.0607775 0.0783309 0)
(-0.152883 0.0161667 0)
(-0.161147 0.0135636 0)
(-0.185903 0.0111234 0)
(-0.206392 0.00756884 0)
(-0.221793 0.00357193 0)
(-0.231235 -0.00083483 0)
(-0.23373 -0.00573309 0)
(-0.228191 -0.0112392 0)
(-0.214286 -0.0173531 0)
(-0.191888 -0.0236358 0)
(-0.161203 -0.0299252 0)
(-0.123339 -0.0371036 0)
(-0.086541 -0.0475281 0)
(-0.0794324 -0.0611507 0)
(0.0391865 0.0138449 0)
(-0.0019776 -0.0202826 0)
(0.0233567 -0.0210181 0)
(0.0433191 -0.016293 0)
(0.0585734 -0.0115105 0)
(0.0676622 -0.00627246 0)
(0.0710059 -0.00334342 0)
(0.0707676 -0.0021932 0)
(0.0692527 -0.00169095 0)
(0.0675006 -0.00133164 0)
(0.0656083 -0.00100985 0)
(0.0634572 -0.000661361 0)
(0.0608491 -0.000107567 0)
(0.0572401 0.00108984 0)
(0.0514588 0.00348963 0)
(0.0422548 0.00542767 0)
(0.0391232 0.00439673 0)
(-0.0326475 0.0176972 0)
(0.24767 0.163682 0)
(-0.155433 0.0473096 0)
(-0.135306 0.0406731 0)
(-0.163241 0.0352808 0)
(-0.184359 0.028241 0)
(-0.200392 0.0201628 0)
(-0.210769 0.0109252 0)
(-0.214643 0.000312882 0)
(-0.21077 -0.011684 0)
(-0.199388 -0.0241215 0)
(-0.180912 -0.0353812 0)
(-0.156867 -0.0441003 0)
(-0.130253 -0.0500778 0)
(-0.107639 -0.0535913 0)
(-0.0967153 -0.0472446 0)
(-0.0796333 -0.00551575 0)
(-0.0528077 0.00822786 0)
(-0.0853859 -0.000342251 0)
(0.105012 -0.0168954 0)
(0.0453694 -0.0236155 0)
(0.0431045 -0.0236453 0)
(0.0542333 -0.020441 0)
(0.0640354 -0.0158018 0)
(0.0700671 -0.00469315 0)
(0.0706943 0.00208685 0)
(0.0696589 0.00456464 0)
(0.0690791 0.00531738 0)
(0.0689312 0.00558571 0)
(0.0688228 0.00569674 0)
(0.0686375 0.00586031 0)
(0.0683503 0.00646772 0)
(0.0673605 0.00850035 0)
(0.0630141 0.0148404 0)
(0.0520041 0.01916 0)
(0.0506269 0.0188721 0)
(-0.070233 0.0402549 0)
(0.41358 0.247047 0)
(-0.185434 0.0817287 0)
(-0.105851 0.0690119 0)
(-0.136199 0.0570352 0)
(-0.155752 0.0448221 0)
(-0.171158 0.0314124 0)
(-0.181739 0.0161672 0)
(-0.186395 -0.00123861 0)
(-0.183174 -0.0204778 0)
(-0.172606 -0.0400896 0)
(-0.155458 -0.0572538 0)
(-0.13386 -0.069646 0)
(-0.11091 -0.0764816 0)
(-0.0902805 -0.0777708 0)
(-0.0724451 -0.0711142 0)
(-0.0513036 -0.0525108 0)
(-0.0288497 -0.0448169 0)
(-0.0523526 -0.0518474 0)
(0.0862955 -0.0519871 0)
(0.0297094 -0.0403435 0)
(0.03464 -0.0324738 0)
(0.0462115 -0.0296944 0)
(0.0551916 -0.0289321 0)
(0.0640691 -0.0192403 0)
(0.0604239 -0.0116721 0)
(0.0574669 -0.0078413 0)
(0.0580686 -0.00579007 0)
(0.06019 -0.00448694 0)
(0.0625307 -0.00359301 0)
(0.0649762 -0.00286753 0)
(0.0680821 -0.00189447 0)
(0.0730749 0.00156327 0)
(0.0726605 0.0207411 0)
(0.0588813 0.0327822 0)
(0.0626976 0.0390393 0)
(-0.0976387 0.0674465 0)
(0.556479 0.31541 0)
(-0.227709 0.116353 0)
(-0.0725531 0.0946989 0)
(-0.105735 0.0767063 0)
(-0.121665 0.0610801 0)
(-0.134895 0.0439953 0)
(-0.144772 0.0239066 0)
(-0.149556 0.000156394 0)
(-0.146301 -0.0266224 0)
(-0.135915 -0.053509 0)
(-0.119919 -0.0761095 0)
(-0.100783 -0.0912261 0)
(-0.0811924 -0.0977047 0)
(-0.0634017 -0.0955904 0)
(-0.0473722 -0.0852579 0)
(-0.0304403 -0.069638 0)
(-0.0129311 -0.0592147 0)
(-0.00632782 -0.0539329 0)
(0.0172457 0.0261953 0)
(0.0293466 -0.0369416 0)
(0.024521 -0.0419006 0)
(0.028193 -0.037349 0)
(0.0332558 -0.0349132 0)
(0.0345096 -0.0324159 0)
(0.040175 -0.0208143 0)
(0.0564172 -0.0157039 0)
(0.0714071 -0.0131817 0)
(0.0841126 -0.0115507 0)
(0.0951134 -0.00987619 0)
(0.103839 -0.00760901 0)
(0.108779 -0.00433378 0)
(0.107175 0.000394613 0)
(0.096754 0.0072108 0)
(0.0812818 0.0297011 0)
(0.0662778 0.0486913 0)
(0.0762392 0.0642994 0)
(-0.099389 0.0994217 0)
(0.674948 0.370276 0)
(-0.270943 0.148391 0)
(-0.0377487 0.111525 0)
(-0.071229 0.0905498 0)
(-0.0820952 0.0733655 0)
(-0.0914293 0.0540922 0)
(-0.0991913 0.0303209 0)
(-0.102915 0.000927816 0)
(-0.0980103 -0.0329871 0)
(-0.0874631 -0.0664074 0)
(-0.0735571 -0.0930761 0)
(-0.0584896 -0.109592 0)
(-0.0440679 -0.115242 0)
(-0.0315747 -0.110917 0)
(-0.020969 -0.0990747 0)
(-0.011107 -0.0838117 0)
(-0.00203842 -0.0707445 0)
(0.00217293 -0.0615906 0)
(0.0117371 -0.0459019 0)
(0.0192672 -0.0494428 0)
(0.0208316 -0.0462057 0)
(0.0215629 -0.0415205 0)
(0.0236426 -0.0378771 0)
(0.0260874 -0.0333202 0)
(0.0328183 -0.0243721 0)
(0.043733 -0.0199768 0)
(0.0549799 -0.0182833 0)
(0.0656642 -0.0169245 0)
(0.0756771 -0.0145331 0)
(0.0844505 -0.0100821 0)
(0.0909313 -0.00256513 0)
(0.093623 0.00803856 0)
(0.091082 0.0215914 0)
(0.0851626 0.0411343 0)
(0.0768285 0.0611012 0)
(0.0975413 0.0814733 0)
(0.0383949 0.102888 0)
(0.10302 0.130954 0)
(0.127314 0.151527 0)
(-0.16898 0.189039 0)
(0.756364 0.417739 0)
(-0.308853 0.173151 0)
(-0.0100828 0.111311 0)
(-0.0310192 0.0972834 0)
(-0.0361061 0.0818634 0)
(-0.0409445 0.0611822 0)
(-0.0452323 0.0348561 0)
(-0.0455259 0.000854082 0)
(-0.0363329 -0.0400934 0)
(-0.0262143 -0.0782781 0)
(-0.0165215 -0.106466 0)
(-0.00798669 -0.122336 0)
(-0.00114202 -0.126062 0)
(0.00360371 -0.119175 0)
(0.0064258 -0.105488 0)
(0.00808847 -0.0893405 0)
(0.00897787 -0.0745324 0)
(0.00847233 -0.0623931 0)
(0.010181 -0.0501579 0)
(0.0123543 -0.0469813 0)
(0.0118488 -0.044944 0)
(0.010971 -0.042166 0)
(0.0113026 -0.0394758 0)
(0.0129647 -0.0362919 0)
(0.0173799 -0.0319324 0)
(0.024414 -0.0296035 0)
(0.0324658 -0.0285944 0)
(0.0408376 -0.0273818 0)
(0.0493623 -0.0247199 0)
(0.0578276 -0.0193424 0)
(0.0658155 -0.00977555 0)
(0.0734538 0.0047951 0)
(0.0772558 0.022323 0)
(0.0794806 0.0421286 0)
(0.0807596 0.0614925 0)
(0.0983152 0.0805561 0)
(0.091655 0.0807092 0)
(0.102023 0.0357666 0)
(0.126688 -0.00935984 0)
(-0.207604 0.0993863 0)
(0.794455 0.461047 0)
(-0.325844 0.163806 0)
(0.0139916 0.0663552 0)
(0.0267252 0.0893954 0)
(0.0249065 0.0896252 0)
(0.0216277 0.0670692 0)
(0.020944 0.0352065 0)
(0.0285136 -0.00565343 0)
(0.0401642 -0.0505858 0)
(0.0466016 -0.0876475 0)
(0.0486496 -0.112879 0)
(0.0477113 -0.125874 0)
(0.0445494 -0.127212 0)
(0.0395327 -0.118436 0)
(0.032904 -0.103263 0)
(0.0253871 -0.0863346 0)
(0.0179904 -0.0710793 0)
(0.0113369 -0.0589397 0)
(0.00692418 -0.0493086 0)
(0.004042 -0.0449494 0)
(0.000752205 -0.0427628 0)
(-0.00220715 -0.0408931 0)
(-0.00406907 -0.0393329 0)
(-0.00467766 -0.0378286 0)
(-0.00347404 -0.0362587 0)
(-0.000503007 -0.0355195 0)
(0.00356966 -0.0353085 0)
(0.00825912 -0.0347104 0)
(0.0136164 -0.0327042 0)
(0.0198193 -0.0280379 0)
(0.0271585 -0.0190135 0)
(0.036955 -0.00370137 0)
(0.0487523 0.0160308 0)
(0.0582556 0.0354214 0)
(0.0674861 0.0521898 0)
(0.0848336 0.0671774 0)
(0.0967577 0.0668174 0)
(0.108214 0.0460165 0)
(0.160378 0.0529649 0)
(-0.148102 0.160384 0)
(0.897119 0.471119 0)
(-0.0936231 0.14461 0)
(0.097098 -0.00733545 0)
(0.151284 0.0262571 0)
(0.136864 0.0526053 0)
(0.12174 0.0402122 0)
(0.118932 0.00883711 0)
(0.126743 -0.0289076 0)
(0.132807 -0.0619654 0)
(0.128688 -0.0891001 0)
(0.117738 -0.108108 0)
(0.103508 -0.117891 0)
(0.0880263 -0.117572 0)
(0.0718521 -0.107466 0)
(0.0546995 -0.0912467 0)
(0.0373478 -0.0743634 0)
(0.0217748 -0.0604218 0)
(0.00938365 -0.0505309 0)
(0.000493237 -0.0437976 0)
(-0.0061258 -0.0404702 0)
(-0.0120016 -0.0388081 0)
(-0.0172636 -0.0377307 0)
(-0.0217435 -0.0370693 0)
(-0.0253578 -0.0366998 0)
(-0.0279443 -0.0366002 0)
(-0.0296176 -0.0369091 0)
(-0.0306855 -0.0373721 0)
(-0.0313038 -0.0374542 0)
(-0.0313773 -0.0364725 0)
(-0.0305787 -0.033632 0)
(-0.0282995 -0.0280814 0)
(-0.0230588 -0.0189391 0)
(-0.00778012 -0.00501793 0)
(0.0099502 0.012463 0)
(0.0236115 0.0229098 0)
(0.0416571 0.0286744 0)
(0.056345 0.020635 0)
(0.0676902 0.000231092 0)
(0.153665 0.0638432 0)
(-0.472502 0.259623 0)
(1.03892 0.428141 0)
(0.494447 0.279844 0)
(0.503395 0.19593 0)
(0.497562 0.170506 0)
(0.421955 0.147342 0)
(0.353397 0.109385 0)
(0.313921 0.0651566 0)
(0.286616 0.0206042 0)
(0.2523 -0.0216195 0)
(0.214612 -0.0553865 0)
(0.178093 -0.0788817 0)
(0.145149 -0.0921631 0)
(0.116387 -0.0943957 0)
(0.0903433 -0.0853881 0)
(0.0642109 -0.0695817 0)
(0.0381003 -0.0542562 0)
(0.0160428 -0.0437983 0)
(0.000591761 -0.0385064 0)
(-0.00958022 -0.0359065 0)
(-0.0176502 -0.0345431 0)
(-0.0254457 -0.0337018 0)
(-0.0329782 -0.033227 0)
(-0.0402078 -0.0330804 0)
(-0.0471479 -0.0331949 0)
(-0.0538433 -0.0335295 0)
(-0.0604661 -0.0340315 0)
(-0.0672591 -0.03444 0)
(-0.0744228 -0.0342749 0)
(-0.0821114 -0.0328504 0)
(-0.0905267 -0.0292902 0)
(-0.100081 -0.0225854 0)
(-0.111393 -0.0116948 0)
(-0.124674 0.00413634 0)
(-0.136564 0.0237047 0)
(-0.156396 0.0463088 0)
(-0.190274 0.0725894 0)
(-0.240724 0.101244 0)
(-0.298866 0.12997 0)
(-0.374987 0.15452 0)
(-0.686698 0.172461 0)
(-0.514998 0.0142487 0)
(0.175037 0.130524 0)
(0.247348 0.133803 0)
(0.238716 0.108614 0)
(0.23393 0.0711793 0)
(0.2253 0.0312985 0)
(0.209886 -0.00262829 0)
(0.186595 -0.0281113 0)
(0.158606 -0.0466348 0)
(0.13046 -0.0591944 0)
(0.104019 -0.0626113 0)
(0.0791251 -0.0540598 0)
(0.0518991 -0.0389104 0)
(0.0218632 -0.0264192 0)
(-0.00202635 -0.0206674 0)
(-0.0145729 -0.0207869 0)
(-0.0224235 -0.0212741 0)
(-0.0301908 -0.0214174 0)
(-0.0387328 -0.0218392 0)
(-0.0476752 -0.0225182 0)
(-0.0568166 -0.0232926 0)
(-0.0661754 -0.0240662 0)
(-0.0758615 -0.0247829 0)
(-0.0860475 -0.025349 0)
(-0.0969062 -0.0255277 0)
(-0.108515 -0.0248916 0)
(-0.120769 -0.0228058 0)
(-0.133318 -0.0184602 0)
(-0.145463 -0.0109743 0)
(-0.15595 0.000476783 0)
(-0.162961 0.0162454 0)
(-0.167249 0.0365581 0)
(-0.171311 0.0608218 0)
(-0.177047 0.0858084 0)
(-0.182173 0.101897 0)
(-0.175792 0.0864974 0)
(-0.164668 -0.00492308 0)
(-0.292542 -0.219673 0)
(-0.230915 0.197593 0)
(0.101597 0.122501 0)
(0.0705287 0.0916529 0)
(0.0913152 0.0854414 0)
(0.115307 0.065024 0)
(0.127819 0.0384803 0)
(0.128081 0.0178463 0)
(0.121057 0.00217526 0)
(0.106722 -0.0140432 0)
(0.0873244 -0.0293452 0)
(0.0630544 -0.034374 0)
(0.0408621 -0.0194517 0)
(0.0180468 0.00991682 0)
(-0.00916835 0.0227939 0)
(-0.0224968 0.018155 0)
(-0.0303766 0.0105172 0)
(-0.0375712 0.0124559 0)
(-0.0452606 0.0177904 0)
(-0.0534864 0.0209653 0)
(-0.0620282 0.0217251 0)
(-0.0708007 0.0210623 0)
(-0.0798053 0.0196589 0)
(-0.0890395 0.0179331 0)
(-0.0984758 0.0161975 0)
(-0.108034 0.0147185 0)
(-0.117531 0.0137304 0)
(-0.126643 0.0134431 0)
(-0.13488 0.0140533 0)
(-0.141488 0.0157697 0)
(-0.145095 0.0188261 0)
(-0.143813 0.0261205 0)
(-0.135413 0.0395849 0)
(-0.119215 0.0597166 0)
(-0.0966848 0.0847485 0)
(-0.0700174 0.105986 0)
(-0.044348 0.107662 0)
(0.13148 0.0235072 0)
(-0.219695 -0.135976 0)
(-0.0468045 -0.30546 0)
(-0.379427 -0.0977509 0)
(-0.305664 0.0985485 0)
(-0.158332 0.0151901 0)
(-0.11846 0.011633 0)
(-0.0519372 0.0226281 0)
(0.0131241 0.009964 0)
(0.050168 -0.0170903 0)
(0.0713612 -0.0435112 0)
(0.0781707 -0.068543 0)
(0.0706434 -0.0890306 0)
(0.0468297 -0.105766 0)
(0.0052176 -0.112237 0)
(-0.0197721 -0.107054 0)
(-0.023033 -0.100463 0)
(-0.0190329 -0.105574 0)
(-0.017359 -0.129287 0)
(-0.0275566 -0.140381 0)
(-0.0419329 -0.143214 0)
(-0.0545227 -0.141245 0)
(-0.0649771 -0.137045 0)
(-0.0742376 -0.131463 0)
(-0.0829216 -0.124905 0)
(-0.091321 -0.117735 0)
(-0.0995723 -0.110267 0)
(-0.107706 -0.102716 0)
(-0.115625 -0.0951542 0)
(-0.123063 -0.0875014 0)
(-0.129543 -0.0795121 0)
(-0.134335 -0.0707597 0)
(-0.136368 -0.0605803 0)
(-0.134043 -0.0479935 0)
(-0.12443 -0.0340784 0)
(-0.103722 -0.0179459 0)
(-0.0701001 0.00174951 0)
(-0.0269431 0.0260316 0)
(0.0432808 0.0485737 0)
(0.0954349 0.0322227 0)
(0.171743 -0.0147767 0)
(-0.17561 -0.093833 0)
)
;

boundaryField
{
    floor
    {
        type            noSlip;
    }
    ceiling
    {
        type            noSlip;
    }
    sWall
    {
        type            noSlip;
    }
    nWall
    {
        type            noSlip;
    }
    sideWalls
    {
        type            empty;
    }
    glass1
    {
        type            noSlip;
    }
    glass2
    {
        type            noSlip;
    }
    sun
    {
        type            noSlip;
    }
    Table_master
    {
        type            noSlip;
    }
    Table_slave
    {
        type            noSlip;
    }
    inlet
    {
        type            fixedValue;
        value           uniform (0.212132 -0.212132 0);
    }
    outlet
    {
        type            zeroGradient;
    }
}


// ************************************************************************* //
