// -*- C++ -*-
// File generated by PyFoam - sorry for the ugliness

FoamFile
{
 version 2.0;
 format ascii;
 class volScalarField;
 location "1200";
 object T;
}

dimensions [ 0 0 0 1 0 0 0 ];

internalField nonuniform List<scalar> 458
(
  303.756
  303.455
  303.446
  303.446
  303.446
  303.446
  303.445
  303.445
  303.444
  303.443
  303.441
  303.438
  303.432
  303.426
  303.419
  303.235
  303.227
  303.233
  303.235
  303.232
  303.229
  303.226
  303.223
  303.22
  303.217
  303.213
  303.209
  303.205
  303.2
  303.195
  303.19
  303.184
  303.188
  303.971
  303.487
  303.462
  303.466
  303.47
  303.474
  303.477
  303.479
  303.48
  303.48
  303.476
  303.469
  303.456
  303.437
  303.414
  303.395
  303.378
  303.386
  303.231
  303.228
  303.238
  303.239
  303.233
  303.223
  303.213
  303.204
  303.194
  303.186
  303.177
  303.17
  303.163
  303.157
  303.153
  303.15
  303.149
  303.17
  304.178
  303.534
  303.486
  303.495
  303.506
  303.517
  303.527
  303.535
  303.541
  303.543
  303.54
  303.53
  303.51
  303.481
  303.446
  303.41
  303.376
  303.353
  303.241
  303.244
  303.252
  303.248
  303.237
  303.223
  303.194
  303.167
  303.152
  303.141
  303.133
  303.125
  303.118
  303.115
  303.119
  303.124
  303.13
  303.161
  304.371
  303.597
  303.513
  303.522
  303.541
  303.561
  303.579
  303.596
  303.609
  303.616
  303.616
  303.604
  303.58
  303.544
  303.499
  303.45
  303.398
  303.348
  303.309
  303.277
  303.276
  303.269
  303.255
  303.241
  303.235
  303.231
  303.23
  303.229
  303.228
  303.226
  303.224
  303.22
  303.215
  303.196
  303.174
  303.153
  303.158
  304.549
  303.676
  303.545
  303.545
  303.568
  303.594
  303.621
  303.647
  303.669
  303.685
  303.69
  303.68
  303.655
  303.614
  303.563
  303.509
  303.456
  303.407
  303.367
  303.335
  303.312
  303.29
  303.267
  303.25
  303.245
  303.245
  303.245
  303.246
  303.245
  303.243
  303.24
  303.235
  303.228
  303.215
  303.196
  303.173
  303.161
  303.16
  303.159
  303.2
  304.7
  303.777
  303.609
  303.573
  303.588
  303.615
  303.646
  303.678
  303.709
  303.735
  303.749
  303.744
  303.718
  303.675
  303.621
  303.562
  303.506
  303.456
  303.414
  303.379
  303.346
  303.312
  303.278
  303.256
  303.251
  303.254
  303.257
  303.258
  303.258
  303.256
  303.253
  303.246
  303.237
  303.225
  303.209
  303.189
  303.173
  303.166
  303.163
  303.2
  304.822
  303.944
  303.781
  303.685
  303.647
  303.648
  303.669
  303.696
  303.728
  303.765
  303.787
  303.785
  303.758
  303.714
  303.659
  303.598
  303.541
  303.491
  303.448
  303.41
  303.373
  303.333
  303.29
  303.26
  303.256
  303.261
  303.265
  303.268
  303.269
  303.267
  303.263
  303.256
  303.245
  303.231
  303.216
  303.199
  303.185
  303.176
  303.172
  303.201
  305.03
  304.374
  304.203
  304.037
  303.9
  303.818
  303.781
  303.773
  303.783
  303.806
  303.817
  303.803
  303.769
  303.72
  303.665
  303.608
  303.554
  303.506
  303.463
  303.426
  303.391
  303.35
  303.3
  303.263
  303.259
  303.266
  303.273
  303.276
  303.278
  303.277
  303.274
  303.268
  303.259
  303.241
  303.226
  303.214
  303.206
  303.204
  303.208
  303.328
  305.32
  305.039
  304.743
  304.503
  304.304
  304.153
  304.047
  303.977
  303.935
  303.902
  303.856
  303.801
  303.742
  303.685
  303.629
  303.578
  303.532
  303.491
  303.455
  303.423
  303.393
  303.359
  303.311
  303.265
  303.261
  303.27
  303.278
  303.284
  303.287
  303.288
  303.288
  303.286
  303.285
  303.288
  303.293
  303.307
  303.331
  303.36
  303.386
  303.447
  297.19
  301.483
  302.875
  303.351
  303.546
  303.627
  303.655
  303.654
  303.644
  303.623
  303.595
  303.564
  303.532
  303.501
  303.471
  303.444
  303.42
  303.398
  303.377
  303.352
  303.316
  303.266
  303.26
  303.272
  303.282
  303.29
  303.296
  303.301
  303.305
  303.309
  303.314
  303.319
  303.326
  303.339
  303.357
  303.378
  303.395
  303.411
  298.137
  301.336
  302.396
  302.93
  303.196
  303.325
  303.386
  303.41
  303.419
  303.422
  303.42
  303.415
  303.407
  303.398
  303.388
  303.378
  303.368
  303.358
  303.347
  303.332
  303.308
  303.266
  303.257
  303.27
  303.282
  303.291
  303.299
  303.305
  303.311
  303.316
  303.321
  303.327
  303.334
  303.343
  303.356
  303.369
  303.369
  303.394
  300.281
  300.211
  300.207
  302.031
  302.581
  302.911
  303.122
  303.2
  303.24
  303.261
  303.271
  303.28
  303.288
  303.295
  303.301
  303.306
  303.31
  303.312
  303.313
  303.312
  303.307
  303.299
  303.286
  303.265
  303.25
  303.265
  303.277
  303.286
  303.293
  303.3
  303.305
  303.311
  303.316
  303.321
  303.327
  303.333
  303.346
  303.351
  303.348
  303.381
)
;

boundaryField
{
  floor
  {
    type wallHeatTransfer;
    Tinf uniform 305.2;
    alphaWall uniform 0.24;
    value nonuniform List<scalar> 36
(
  303.643
  303.6
  303.535
  303.551
  303.561
  303.568
  303.579
  303.589
  303.599
  303.607
  303.615
  303.623
  303.631
  303.639
  303.648
  303.657
  303.668
  303.675
  303.704
  303.704
  303.63
  303.573
  303.514
  303.469
  303.467
  303.502
  303.643
  303.614
  303.606
  303.685
  303.6
  303.685
  303.573
  303.571
  303.531
  303.526
)
;
  }
  ceiling
  {
    type wallHeatTransfer;
    Tinf uniform 303.2;
    alphaWall uniform 0.24;
    value nonuniform List<scalar> 43
(
  300.467
  300.39
  300.376
  302.094
  302.617
  302.929
  303.127
  303.2
  303.237
  303.256
  303.265
  303.273
  303.28
  303.286
  303.291
  303.294
  303.296
  303.297
  303.297
  303.294
  303.289
  303.281
  303.269
  303.251
  303.24
  303.253
  303.264
  303.272
  303.28
  303.286
  303.291
  303.297
  303.302
  303.308
  303.313
  303.32
  303.332
  303.336
  303.333
  303.361
  305.222
  304.965
  298.403
)
;
  }
  sWall
  {
    type wallHeatTransfer;
    Tinf uniform 315.2;
    alphaWall uniform 0.36;
    value uniform 301.671;
  }
  nWall
  {
    type wallHeatTransfer;
    Tinf uniform 307.2;
    alphaWall uniform 0.36;
    value nonuniform List<scalar> 6
(
  304.044
  303.918
  303.823
  303.972
  303.953
  303.984
)
;
  }
  sideWalls
  {
    type empty;
  }
  glass1
  {
    type wallHeatTransfer;
    Tinf uniform 315.2;
    alphaWall uniform 4.3;
    value nonuniform List<scalar> 9
(
  312.44
  311.598
  311.032
  310.586
  310.232
  309.94
  309.7
  309.749
  309.958
)
;
  }
  glass2
  {
    type wallHeatTransfer;
    Tinf uniform 307.2;
    alphaWall uniform 4.3;
    value nonuniform List<scalar> 2
(
  305.771
  305.831
)
;
  }
  sun
  {
    type wallHeatTransfer;
    Tinf uniform 305.2;
    alphaWall uniform 0.24;
    value nonuniform List<scalar> 14
(
  303.968
  303.704
  303.702
  303.696
  303.691
  303.686
  303.682
  303.678
  303.674
  303.67
  303.666
  303.661
  303.656
  303.65
)
;
  }
  Table_master
  {
    type zeroGradient;
  }
  Table_slave
  {
    type zeroGradient;
  }
  inlet
  {
    type fixedValue;
    value uniform 292.15;
  }
  outlet
  {
    type zeroGradient;
  }
} 	// ************************************************************************* //

