// -*- C++ -*-
// File generated by PyFoam - sorry for the ugliness

FoamFile
{
 version 2.0;
 format ascii;
 class volScalarField;
 location "1800";
 object T;
}

dimensions [ 0 0 0 1 0 0 0 ];

internalField nonuniform List<scalar> 458
(
  302.047
  301.763
  301.751
  301.749
  301.747
  301.745
  301.744
  301.745
  301.75
  301.763
  301.793
  301.869
  301.92
  301.938
  301.959
  302.318
  302.289
  302.283
  302.304
  302.319
  302.329
  302.338
  302.346
  302.354
  302.362
  302.369
  302.377
  302.384
  302.392
  302.4
  302.409
  302.421
  302.45
  302.217
  301.76
  301.726
  301.718
  301.712
  301.708
  301.705
  301.703
  301.704
  301.718
  301.767
  301.861
  301.968
  301.988
  301.983
  301.994
  302.006
  302.03
  302.326
  302.254
  302.261
  302.287
  302.314
  302.324
  302.33
  302.335
  302.34
  302.344
  302.349
  302.354
  302.359
  302.364
  302.372
  302.382
  302.397
  302.437
  302.403
  301.775
  301.72
  301.71
  301.705
  301.702
  301.698
  301.689
  301.674
  301.673
  301.73
  301.856
  302.01
  302.062
  302.048
  302.042
  302.036
  302.041
  302.255
  302.229
  302.252
  302.298
  302.343
  302.345
  302.347
  302.35
  302.353
  302.356
  302.359
  302.363
  302.366
  302.369
  302.377
  302.384
  302.395
  302.435
  302.601
  301.809
  301.726
  301.72
  301.724
  301.729
  301.729
  301.713
  301.666
  301.632
  301.684
  301.839
  302.037
  302.134
  302.131
  302.106
  302.081
  302.062
  302.077
  302.116
  302.185
  302.264
  302.342
  302.406
  302.455
  302.487
  302.511
  302.532
  302.548
  302.561
  302.571
  302.579
  302.585
  302.528
  302.472
  302.435
  302.443
  302.805
  301.863
  301.742
  301.737
  301.758
  301.784
  301.8
  301.778
  301.682
  301.601
  301.639
  301.815
  302.055
  302.199
  302.221
  302.184
  302.146
  302.121
  302.137
  302.191
  302.27
  302.357
  302.439
  302.506
  302.559
  302.595
  302.621
  302.64
  302.652
  302.659
  302.659
  302.654
  302.642
  302.605
  302.546
  302.486
  302.458
  302.47
  302.488
  302.548
  303.001
  301.946
  301.774
  301.754
  301.783
  301.835
  301.887
  301.862
  301.71
  301.58
  301.604
  301.795
  302.067
  302.26
  302.31
  302.278
  302.237
  302.22
  302.251
  302.319
  302.402
  302.485
  302.559
  302.617
  302.659
  302.687
  302.705
  302.716
  302.722
  302.722
  302.716
  302.704
  302.686
  302.654
  302.604
  302.544
  302.504
  302.5
  302.51
  302.56
  303.17
  302.098
  301.88
  301.818
  301.817
  301.86
  301.958
  301.917
  301.719
  301.567
  301.588
  301.783
  302.087
  302.329
  302.408
  302.39
  302.359
  302.359
  302.406
  302.476
  302.55
  302.618
  302.673
  302.714
  302.74
  302.755
  302.762
  302.764
  302.763
  302.758
  302.75
  302.735
  302.715
  302.687
  302.647
  302.599
  302.56
  302.547
  302.547
  302.573
  303.419
  302.619
  302.339
  302.132
  302.022
  302.007
  302.061
  301.925
  301.673
  301.523
  301.575
  301.802
  302.147
  302.427
  302.513
  302.513
  302.504
  302.52
  302.569
  302.627
  302.681
  302.726
  302.758
  302.778
  302.787
  302.79
  302.788
  302.784
  302.778
  302.771
  302.761
  302.749
  302.732
  302.708
  302.68
  302.647
  302.622
  302.617
  302.618
  302.741
  303.775
  303.404
  303.121
  302.796
  302.541
  302.397
  302.221
  301.815
  301.498
  301.423
  301.581
  301.879
  302.284
  302.561
  302.623
  302.636
  302.645
  302.668
  302.704
  302.741
  302.771
  302.793
  302.804
  302.808
  302.807
  302.803
  302.797
  302.79
  302.783
  302.774
  302.766
  302.759
  302.754
  302.751
  302.754
  302.765
  302.789
  302.818
  302.843
  302.91
  298.444
  299.654
  300.411
  300.755
  300.804
  300.85
  301.01
  301.309
  301.706
  302.094
  302.556
  302.69
  302.727
  302.741
  302.755
  302.773
  302.793
  302.809
  302.82
  302.825
  302.825
  302.822
  302.817
  302.812
  302.807
  302.802
  302.797
  302.793
  302.79
  302.788
  302.787
  302.79
  302.798
  302.812
  302.834
  302.862
  302.893
  302.933
  298.512
  299.653
  300.219
  300.494
  300.595
  300.809
  301.324
  301.824
  302.369
  302.646
  302.755
  302.791
  302.807
  302.816
  302.825
  302.834
  302.84
  302.843
  302.843
  302.841
  302.838
  302.834
  302.83
  302.826
  302.822
  302.819
  302.816
  302.813
  302.811
  302.81
  302.81
  302.812
  302.817
  302.827
  302.842
  302.862
  302.875
  302.914
  299.383
  299.366
  299.365
  300.013
  300.327
  300.508
  300.669
  301.2
  302.447
  302.734
  302.815
  302.844
  302.859
  302.868
  302.874
  302.877
  302.878
  302.878
  302.877
  302.874
  302.87
  302.866
  302.862
  302.857
  302.853
  302.849
  302.845
  302.842
  302.839
  302.835
  302.833
  302.83
  302.828
  302.828
  302.829
  302.833
  302.844
  302.853
  302.859
  302.902
)
;

boundaryField
{
  floor
  {
    type wallHeatTransfer;
    Tinf uniform 305.2;
    alphaWall uniform 0.24;
    value nonuniform List<scalar> 36
(
  302.298
  302.837
  302.759
  302.71
  302.713
  302.728
  302.752
  302.779
  302.805
  302.831
  302.856
  302.88
  302.902
  302.925
  302.947
  302.971
  302.997
  303.023
  303.083
  303.083
  302.998
  302.951
  302.919
  302.88
  302.876
  302.928
  302.298
  302.298
  302.341
  302.407
  302.837
  302.407
  302.852
  302.4
  302.676
  302.421
)
;
  }
  ceiling
  {
    type wallHeatTransfer;
    Tinf uniform 303.2;
    alphaWall uniform 0.24;
    value nonuniform List<scalar> 43
(
  299.568
  299.552
  299.55
  300.148
  300.46
  300.642
  300.815
  301.344
  302.523
  302.788
  302.864
  302.891
  302.905
  302.914
  302.92
  302.923
  302.925
  302.926
  302.926
  302.924
  302.921
  302.917
  302.912
  302.907
  302.903
  302.898
  302.893
  302.889
  302.884
  302.88
  302.876
  302.872
  302.869
  302.866
  302.866
  302.868
  302.876
  302.885
  302.893
  302.934
  303.748
  303.396
  298.792
)
;
  }
  sWall
  {
    type wallHeatTransfer;
    Tinf uniform 315.2;
    alphaWall uniform 0.36;
    value uniform 300.509;
  }
  nWall
  {
    type wallHeatTransfer;
    Tinf uniform 307.2;
    alphaWall uniform 0.36;
    value nonuniform List<scalar> 6
(
  303.483
  303.347
  303.243
  303.544
  303.523
  303.549
)
;
  }
  sideWalls
  {
    type empty;
  }
  glass1
  {
    type wallHeatTransfer;
    Tinf uniform 315.2;
    alphaWall uniform 4.3;
    value nonuniform List<scalar> 9
(
  310.898
  310.286
  309.899
  309.612
  309.381
  309.171
  308.968
  309.018
  309.231
)
;
  }
  glass2
  {
    type wallHeatTransfer;
    Tinf uniform 307.2;
    alphaWall uniform 4.3;
    value nonuniform List<scalar> 2
(
  305.475
  305.577
)
;
  }
  sun
  {
    type wallHeatTransfer;
    Tinf uniform 305.2;
    alphaWall uniform 0.24;
    value nonuniform List<scalar> 14
(
  302.365
  302.087
  302.068
  302.054
  302.043
  302.033
  302.023
  302.016
  302.014
  302.023
  302.05
  302.126
  302.195
  302.243
)
;
  }
  Table_master
  {
    type zeroGradient;
  }
  Table_slave
  {
    type zeroGradient;
  }
  inlet
  {
    type fixedValue;
    value uniform 292.15;
  }
  outlet
  {
    type zeroGradient;
  }
} 	// ************************************************************************* //

