/*--------------------------------*- C++ -*----------------------------------*\
  =========                 |
  \\      /  F ield         | OpenFOAM: The Open Source CFD Toolbox
   \\    /   O peration     | Website:  https://openfoam.org
    \\  /    A nd           | Version:  6
     \\/     M anipulation  |
\*---------------------------------------------------------------------------*/
FoamFile
{
    version     2.0;
    format      ascii;
    class       volScalarField;
    location    "400";
    object      epsilon;
}
// * * * * * * * * * * * * * * * * * * * * * * * * * * * * * * * * * * * * * //

dimensions      [0 2 -3 0 0 0 0];

internalField   nonuniform List<scalar> 
458
(
0.000272549
0.00033643
0.000353575
0.00040096
0.000445918
0.000488994
0.000531558
0.000575517
0.000623802
0.000671497
0.000713671
0.000742892
0.000749788
0.000727285
0.000676135
4.55192e-05
7.68345e-05
9.71462e-05
8.83327e-05
7.60488e-05
6.24257e-05
5.08489e-05
4.19753e-05
3.52553e-05
3.01093e-05
2.60912e-05
2.28781e-05
2.01537e-05
1.76229e-05
1.49422e-05
1.17e-05
1.12029e-05
1.20814e-05
0.000727643
0.00129507
0.000311975
0.000297037
0.000297283
0.000302405
0.000314163
0.000336606
0.000374109
0.000423071
0.000477123
0.00052449
0.000550439
0.000547991
0.000560729
0.000788077
0.000486259
0.000272092
5.52034e-05
0.000118755
0.000118129
0.000103333
8.57693e-05
7.36395e-05
5.69668e-05
4.37358e-05
3.39483e-05
2.67212e-05
2.13469e-05
1.73799e-05
1.45007e-05
1.27634e-05
1.23334e-05
1.22167e-05
6.07349e-05
3.82081e-05
0.00140686
0.00358179
0.000379025
0.000267268
0.000258024
0.000262377
0.000276026
0.000301909
0.000342314
0.000395092
0.000450321
0.000492452
0.000509855
0.000504709
0.000514038
0.000544861
0.000456687
0.00039879
0.000332892
0.000238642
0.000174324
0.000129971
0.000102322
0.000156113
0.000111088
8.07212e-05
6.01675e-05
4.59703e-05
3.59567e-05
2.88204e-05
2.37911e-05
2.04341e-05
1.69285e-05
1.53029e-05
9.01675e-05
5.73915e-05
0.00244085
0.00806868
0.000633821
0.000255808
0.000234225
0.000240164
0.000255321
0.000284192
0.000332587
0.000399216
0.000462137
0.000497686
0.000497489
0.000474998
0.000486532
0.000529496
0.000510529
0.000563143
0.000756282
0.000477652
0.000287844
0.00018908
0.000133975
0.000105688
0.000206978
0.000170743
0.000156487
0.000152064
0.00014979
0.000144101
0.000131889
0.000118749
0.00010274
6.13852e-05
3.73776e-05
0.000112747
7.61607e-05
0.00398078
0.0153268
0.00139466
0.000280664
0.000216464
0.000219006
0.000235342
0.000273208
0.000346778
0.000452819
0.00053636
0.000567688
0.000543804
0.000488914
0.000480173
0.000478084
0.000397481
0.000367366
0.00033101
0.000255607
0.000192904
0.000146601
0.000114461
9.50948e-05
9.48106e-05
0.000100501
0.000108845
0.000115999
0.000119336
0.000116595
0.000106971
9.55352e-05
8.5333e-05
6.94189e-05
5.18348e-05
7.59285e-05
0.000121062
0.000134984
0.000156887
0.00015334
0.00625475
0.0236063
0.00370644
0.000530951
0.000262336
0.000223184
0.000222035
0.000260532
0.000395476
0.000572402
0.000674515
0.000693646
0.000635298
0.000538299
0.000503616
0.000462149
0.000325455
0.000225792
0.000190559
0.000173912
0.000150908
0.00012506
0.000106997
0.000100537
0.000107096
0.000121692
0.000137634
0.000151556
0.000160769
0.000162079
0.000151889
0.000129102
0.000106529
8.58173e-05
6.89701e-05
6.84365e-05
8.52325e-05
0.000131007
0.000496476
0.000309969
0.00939593
0.0285101
0.00940091
0.00260257
0.00107246
0.000567587
0.000395663
0.000372106
0.000623382
0.000823042
0.000896755
0.000873854
0.000761101
0.000611429
0.000551613
0.000493697
0.000311537
0.000182553
0.000145759
0.000137311
0.000125197
0.000114561
0.00011224
0.000118424
0.000132342
0.000151807
0.000173937
0.000196806
0.000217396
0.00023314
0.000238185
0.000219854
0.000185193
0.000155518
0.000139173
0.000143986
0.000178484
0.000274422
0.00109034
0.000637028
0.0103674
0.0336877
0.018091
0.0112706
0.0064419
0.00350487
0.00205684
0.00147816
0.00138652
0.0013352
0.00125417
0.00112346
0.000909291
0.000679612
0.000608094
0.000551305
0.000311791
0.000170047
0.000135469
0.000127717
0.000124628
0.000126242
0.000133411
0.000145661
0.000162838
0.000184744
0.000210983
0.000241664
0.00027726
0.000318595
0.000365244
0.000413722
0.000432741
0.000456929
0.000549131
0.000800704
0.00137234
0.00213523
0.00706316
0.00145281
0.00991851
0.0178655
0.0139416
0.0108213
0.00820971
0.00596294
0.00429625
0.00326316
0.00254305
0.00205142
0.00170827
0.00140268
0.00102899
0.000700176
0.00065315
0.000607116
0.000311028
0.000190529
0.000161703
0.000156715
0.000158742
0.00016476
0.000173462
0.000184704
0.000199383
0.00021848
0.000242891
0.00027419
0.000315327
0.000370931
0.000447023
0.000550415
0.000687153
0.000866174
0.00113882
0.00151478
0.00194324
0.00232529
0.00266653
0.00128865
0.00393542
0.00510492
0.00539455
0.00489107
0.00410136
0.00337499
0.00277717
0.00230644
0.0019126
0.0014915
0.000984462
0.000606873
0.00067181
0.000676095
0.000393899
0.000293668
0.000268535
0.000264117
0.000265948
0.000268818
0.000270606
0.00027277
0.000277407
0.000285525
0.000297523
0.000314275
0.000337772
0.000371617
0.000421783
0.000497685
0.000610488
0.000765184
0.000964902
0.00118718
0.00135978
0.00138191
0.00122381
0.00067338
0.00341604
0.00851472
0.0073724
0.00600675
0.00470083
0.00364631
0.00276874
0.00208502
0.0015553
0.00115159
0.000744451
0.000403275
0.000346845
0.000431073
0.000497608
0.00055144
0.00053956
0.000515371
0.000495978
0.000475033
0.000450459
0.000425207
0.000402648
0.000385172
0.000375209
0.0003756
0.000389272
0.000419198
0.000468908
0.000543697
0.000650957
0.000796203
0.000978653
0.00117857
0.00135647
0.00149737
0.000848488
0.000696348
0.00401486
0.00424418
0.00448058
0.00581341
0.00538558
0.00461173
0.0033824
0.00258432
0.00195975
0.00145982
0.00113709
0.000881423
0.000557129
0.000312207
0.000359231
0.000419783
0.00039213
0.0003359
0.000314974
0.000304872
0.000299757
0.000294565
0.000289414
0.000286854
0.00028875
0.000295985
0.000309215
0.000329226
0.000357116
0.000394751
0.000445815
0.00051343
0.000597356
0.000699625
0.000820237
0.000956593
0.00108805
0.00102718
0.00079853
0.000621368
)
;

boundaryField
{
    floor
    {
        Cmu             0.09;
        kappa           0.41;
        E               9.8;
        type            epsilonWallFunction;
        value           nonuniform List<scalar> 
36
(
0.000676135
4.55192e-05
7.68345e-05
9.71462e-05
8.83327e-05
7.60488e-05
6.24257e-05
5.08489e-05
4.19753e-05
3.52553e-05
3.01093e-05
2.60912e-05
2.28781e-05
2.01537e-05
1.76229e-05
1.49422e-05
1.17e-05
1.12029e-05
1.20814e-05
1.20814e-05
3.82081e-05
5.73915e-05
7.61607e-05
0.000134984
0.000156887
0.00015334
0.000676135
0.000788077
0.000486259
0.000272092
4.55192e-05
0.000272092
5.52034e-05
0.00039879
0.000332892
0.000756282
)
;
    }
    ceiling
    {
        Cmu             0.09;
        kappa           0.41;
        E               9.8;
        type            epsilonWallFunction;
        value           nonuniform List<scalar> 
43
(
0.00401486
0.00424418
0.00448058
0.00581341
0.00538558
0.00461173
0.0033824
0.00258432
0.00195975
0.00145982
0.00113709
0.000881423
0.000557129
0.000312207
0.000359231
0.000419783
0.00039213
0.0003359
0.000314974
0.000304872
0.000299757
0.000294565
0.000289414
0.000286854
0.00028875
0.000295985
0.000309215
0.000329226
0.000357116
0.000394751
0.000445815
0.00051343
0.000597356
0.000699625
0.000820237
0.000956593
0.00108805
0.00102718
0.00079853
0.000621368
0.00991851
0.0178655
0.00341604
)
;
    }
    sWall
    {
        Cmu             0.09;
        kappa           0.41;
        E               9.8;
        type            epsilonWallFunction;
        value           uniform 0.00401486;
    }
    nWall
    {
        Cmu             0.09;
        kappa           0.41;
        E               9.8;
        type            epsilonWallFunction;
        value           nonuniform List<scalar> 6(0.00015334 0.000309969 0.000637028 0.00067338 0.000696348 0.000621368);
    }
    sideWalls
    {
        type            empty;
    }
    glass1
    {
        Cmu             0.09;
        kappa           0.41;
        E               9.8;
        type            epsilonWallFunction;
        value           nonuniform List<scalar> 9(0.000272549 0.000727643 0.00140686 0.00244085 0.00398078 0.00625475 0.00939593 0.0103674 0.00991851);
    }
    glass2
    {
        Cmu             0.09;
        kappa           0.41;
        E               9.8;
        type            epsilonWallFunction;
        value           nonuniform List<scalar> 2(0.00145281 0.00128865);
    }
    sun
    {
        Cmu             0.09;
        kappa           0.41;
        E               9.8;
        type            epsilonWallFunction;
        value           nonuniform List<scalar> 
14
(
0.000272549
0.00033643
0.000353575
0.00040096
0.000445918
0.000488994
0.000531558
0.000575517
0.000623802
0.000671497
0.000713671
0.000742892
0.000749788
0.000727285
)
;
    }
    Table_master
    {
        Cmu             0.09;
        kappa           0.41;
        E               9.8;
        type            epsilonWallFunction;
        value           nonuniform List<scalar> 9(0.000156113 0.000111088 8.07212e-05 6.01675e-05 4.59703e-05 3.59567e-05 2.88204e-05 2.37911e-05 2.04341e-05);
    }
    Table_slave
    {
        Cmu             0.09;
        kappa           0.41;
        E               9.8;
        type            epsilonWallFunction;
        value           nonuniform List<scalar> 9(0.000206978 0.000170743 0.000156487 0.000152064 0.00014979 0.000144101 0.000131889 0.000118749 0.00010274);
    }
    inlet
    {
        type            turbulentMixingLengthDissipationRateInlet;
        mixingLength    0.01;
        phi             phi;
        k               k;
        value           uniform 0.00129427;
    }
    outlet
    {
        type            zeroGradient;
    }
}


// ************************************************************************* //
