/*--------------------------------*- C++ -*----------------------------------*\
  =========                 |
  \\      /  F ield         | OpenFOAM: The Open Source CFD Toolbox
   \\    /   O peration     | Website:  https://openfoam.org
    \\  /    A nd           | Version:  6
     \\/     M anipulation  |
\*---------------------------------------------------------------------------*/
FoamFile
{
    version     2.0;
    format      ascii;
    class       volScalarField;
    location    "400";
    object      nut;
}
// * * * * * * * * * * * * * * * * * * * * * * * * * * * * * * * * * * * * * //

dimensions      [0 2 -1 0 0 0 0];

internalField   nonuniform List<scalar> 
458
(
0.000916779
0.000983456
0.000999901
0.00104272
0.00108033
0.00111406
0.00114551
0.00117627
0.00120831
0.00123836
0.00126377
0.00128079
0.00128472
0.00127168
0.00124102
0.000504759
0.000600995
0.000649963
0.000629746
0.000599126
0.000560976
0.000523888
0.000491428
0.000463644
0.000439872
0.000419349
0.000401366
0.000384755
0.000367937
0.000348279
0.00032107
0.000316338
0.000324273
0.00127174
0.00236571
0.00207453
0.00234484
0.00257759
0.00283141
0.00309145
0.00333272
0.00351254
0.00369052
0.00386781
0.00401283
0.00408222
0.00401297
0.00360547
0.00130566
0.00111155
0.000916095
0.000538186
0.000986166
0.00125691
0.00141399
0.00144009
0.00119821
0.00105603
0.000950216
0.000868259
0.000804004
0.000752584
0.000704447
0.000653807
0.000601879
0.000559428
0.000503791
0.000652993
0.000475897
0.00158427
0.00320992
0.00237258
0.00304032
0.0032601
0.0034147
0.00351845
0.00359231
0.00365762
0.00375542
0.00387925
0.00400093
0.00410554
0.00423622
0.00451741
0.00463048
0.00401701
0.00104077
0.000979452
0.0013223
0.00157385
0.00176768
0.00181297
0.000761452
0.000679801
0.000611161
0.000554137
0.000506596
0.000466767
0.000433583
0.000406722
0.000386595
0.000421904
0.00045544
0.000738259
0.000545106
0.00190363
0.00440108
0.00224109
0.00325072
0.00344872
0.00346213
0.00340164
0.0033394
0.00333536
0.00340513
0.003516
0.00361822
0.00368524
0.00380334
0.00427247
0.00500755
0.00493447
0.00295043
0.00128774
0.0016041
0.00195426
0.00227323
0.00252061
0.00253004
0.000836449
0.000784445
0.000761952
0.000754679
0.000750874
0.000741223
0.000719657
0.000694912
0.000662162
0.000591667
0.000538113
0.000843252
0.000599115
0.00224069
0.0061166
0.00243443
0.00309643
0.00346463
0.00340991
0.00324494
0.00309881
0.00307529
0.00317839
0.00333459
0.00345325
0.00347152
0.003482
0.00390744
0.00464961
0.00487431
0.00440427
0.00400255
0.00379336
0.00376614
0.00380109
0.0038487
0.00384351
0.00353663
0.0035238
0.00358307
0.00361413
0.0035846
0.00348193
0.00328136
0.00287246
0.00233536
0.00174141
0.00124504
0.000981461
0.000923131
0.00072517
0.000762513
0.000756712
0.0026049
0.00809764
0.00384428
0.00272936
0.00321753
0.00331454
0.00317451
0.00296536
0.00290161
0.00308114
0.00330635
0.00345762
0.00343549
0.00333957
0.00369177
0.00431729
0.0045078
0.00441231
0.00447977
0.0046459
0.00470718
0.00466162
0.00458585
0.00450548
0.00444158
0.00445379
0.00446388
0.00442986
0.00435092
0.00423036
0.00406952
0.00379604
0.00335404
0.0027487
0.00211532
0.00151641
0.00121025
0.0013043
0.00187268
0.000956779
0.00298329
0.00972015
0.00672323
0.00381782
0.00290246
0.00271377
0.00277343
0.00287974
0.00290446
0.00315585
0.00339447
0.00354206
0.00346844
0.00327938
0.00359662
0.00425653
0.0044278
0.00443584
0.00470422
0.00489655
0.00486595
0.00470636
0.00454742
0.00444606
0.00441278
0.00441511
0.00439935
0.00434526
0.00427046
0.00418686
0.00410811
0.00403113
0.00379255
0.00334352
0.00279442
0.00224479
0.00186731
0.00178822
0.00224144
0.00121642
0.00308275
0.00941306
0.00798501
0.00660101
0.00511446
0.00399398
0.0034184
0.00333729
0.0033783
0.00346482
0.0036041
0.00368985
0.0035062
0.00319217
0.00356571
0.0043977
0.00458749
0.00457533
0.00460863
0.00453858
0.00439488
0.00425581
0.00416336
0.00411372
0.0040874
0.00406091
0.00401829
0.00396235
0.0039095
0.00388214
0.00390269
0.00398917
0.00409402
0.00384791
0.00353706
0.00336437
0.00348421
0.003646
0.00444294
0.00160121
0.00303759
0.00369586
0.00401544
0.00429271
0.00434175
0.00414179
0.00388895
0.00375528
0.0036914
0.00372867
0.00383492
0.00384146
0.00345352
0.00297753
0.00355154
0.00466725
0.00474481
0.00446211
0.00416704
0.00397107
0.00388107
0.00384208
0.00381345
0.00377873
0.00373135
0.00366569
0.00358011
0.00348084
0.0033792
0.003286
0.00320522
0.00313024
0.00304419
0.00295876
0.00288414
0.00283419
0.00274756
0.00257552
0.00238729
0.00153846
0.00124654
0.00229812
0.00316442
0.0036198
0.00380238
0.00389312
0.00395992
0.00403306
0.00406001
0.00383628
0.00310454
0.00250881
0.00356591
0.00504705
0.00483739
0.00430213
0.00385651
0.00371552
0.00372091
0.00372689
0.00369145
0.00362998
0.00355368
0.00345934
0.00334427
0.00321383
0.00307865
0.00295118
0.00284517
0.00277523
0.00274729
0.00272695
0.0026905
0.00260773
0.00243054
0.0021373
0.00178254
0.00123913
0.00212925
0.00357843
0.00425663
0.00444222
0.0044421
0.00437718
0.00424316
0.00405453
0.00368167
0.0031084
0.00225323
0.0017539
0.00323385
0.00398058
0.00410187
0.00397067
0.00369755
0.00360129
0.00358645
0.00353262
0.00342348
0.00329622
0.0031738
0.00306025
0.00295972
0.00288129
0.0028318
0.00280952
0.00280228
0.00280865
0.00284207
0.00288426
0.00291045
0.00288845
0.00280212
0.00267323
0.00214552
0.00125306
0.00224703
0.00228902
0.00233076
0.00254212
0.00247816
0.00235326
0.00212226
0.00194009
0.00176911
0.00160364
0.00147545
0.00135526
0.00116227
0.000959194
0.00100544
0.00105859
0.00103454
0.000982598
0.000961881
0.000951542
0.000946178
0.000940647
0.00093511
0.000932344
0.000934402
0.000942149
0.000955989
0.000976186
0.00100301
0.00103707
0.00107999
0.00113203
0.00119062
0.00125502
0.00132334
0.00139294
0.00145404
0.0014264
0.00131157
0.00120637
)
;

boundaryField
{
    floor
    {
        type            nutkWallFunction;
        Cmu             0.09;
        kappa           0.41;
        E               9.8;
        value           nonuniform List<scalar> 
36
(
0.00014868
6.03368e-05
7.24834e-05
7.85622e-05
7.60501e-05
7.22324e-05
6.7447e-05
6.27581e-05
5.8621e-05
5.50532e-05
5.19792e-05
4.93085e-05
4.69542e-05
4.47668e-05
4.25384e-05
3.99153e-05
3.62517e-05
3.56255e-05
3.6713e-05
3.67129e-05
5.66665e-05
6.5481e-05
7.22604e-05
8.78151e-05
9.23554e-05
9.16518e-05
0.00014868
0.000156109
0.000133763
0.000110795
6.03368e-05
0.000110795
6.45943e-05
0.00012548
0.000118324
0.000154076
)
;
    }
    ceiling
    {
        type            nutkWallFunction;
        Cmu             0.09;
        kappa           0.41;
        E               9.8;
        value           nonuniform List<scalar> 
43
(
0.000259897
0.000264402
0.000268873
0.000291468
0.000284717
0.000271415
0.000246576
0.000226786
0.000208025
0.000189678
0.000175323
0.000161742
0.000139708
0.000115891
0.000121314
0.000127579
0.000124789
0.000118678
0.000116222
0.000114995
0.000114361
0.000113709
0.000113055
0.000112727
0.000112971
0.000113888
0.000115525
0.00011791
0.000121068
0.000125066
0.000130081
0.000136133
0.000142908
0.000150312
0.000158121
0.00016603
0.000172936
0.000169816
0.000156779
0.000144724
0.00034393
0.00041187
0.000247106
)
;
    }
    sWall
    {
        type            nutkWallFunction;
        Cmu             0.09;
        kappa           0.41;
        E               9.8;
        value           uniform 0.000259968;
    }
    nWall
    {
        type            nutkWallFunction;
        Cmu             0.09;
        kappa           0.41;
        E               9.8;
        value           nonuniform List<scalar> 6(9.16512e-05 0.000115621 0.000145886 0.000148503 0.000150101 0.000144735);
    }
    sideWalls
    {
        type            empty;
    }
    glass1
    {
        type            nutkWallFunction;
        Cmu             0.09;
        kappa           0.41;
        E               9.8;
        value           nonuniform List<scalar> 9(0.000110916 0.000152391 0.000187808 0.000223203 0.000259868 0.000298827 0.000338702 0.000349103 0.000344408);
    }
    glass2
    {
        type            nutkWallFunction;
        Cmu             0.09;
        kappa           0.41;
        E               9.8;
        value           nonuniform List<scalar> 2(0.000189543 0.000182524);
    }
    sun
    {
        type            nutkWallFunction;
        Cmu             0.09;
        kappa           0.41;
        E               9.8;
        value           nonuniform List<scalar> 
14
(
0.000110862
0.000118746
0.00012068
0.000125702
0.000130093
0.000134017
0.000137661
0.000141216
0.000144906
0.000148359
0.000151271
0.000153217
0.000153668
0.000152182
)
;
    }
    Table_master
    {
        type            nutkWallFunction;
        Cmu             0.09;
        kappa           0.41;
        E               9.8;
        value           nonuniform List<scalar> 9(9.22091e-05 8.22344e-05 7.37377e-05 6.65906e-05 6.0563e-05 5.54596e-05 5.11667e-05 4.76626e-05 4.50188e-05);
    }
    Table_slave
    {
        type            nutkWallFunction;
        Cmu             0.09;
        kappa           0.41;
        E               9.8;
        value           nonuniform List<scalar> 9(0.000101266 9.50026e-05 9.22795e-05 9.13986e-05 9.09383e-05 8.97659e-05 8.71358e-05 8.4106e-05 8.00758e-05);
    }
    inlet
    {
        type            calculated;
        value           uniform 0.000234787;
    }
    outlet
    {
        type            calculated;
        value           nonuniform List<scalar> 2(0.00224703 0.00228902);
    }
}


// ************************************************************************* //
