/*--------------------------------*- C++ -*----------------------------------*\
  =========                 |
  \\      /  F ield         | OpenFOAM: The Open Source CFD Toolbox
   \\    /   O peration     | Website:  https://openfoam.org
    \\  /    A nd           | Version:  6
     \\/     M anipulation  |
\*---------------------------------------------------------------------------*/
FoamFile
{
    version     2.0;
    format      ascii;
    class       surfaceScalarField;
    location    "400";
    object      phi;
}
// * * * * * * * * * * * * * * * * * * * * * * * * * * * * * * * * * * * * * //

dimensions      [1 0 -1 0 0 0 0];

internalField   nonuniform List<scalar> 
850
(
-0.00311039
0.0031781
-0.00408472
0.000974305
-0.00496337
0.000878626
-0.00572595
0.000762562
-0.00634317
0.000617207
-0.00679444
0.000451246
-0.00705403
0.000259576
-0.00708828
3.42379e-05
-0.00685362
-0.000234677
-0.00630865
-0.000544991
-0.00543784
-0.00087082
-0.00426714
-0.00117072
-0.0028684
-0.00139875
-0.00136603
-0.00150237
-0.0013633
-0.000845719
0.000850515
-0.00032404
-0.000521653
0.000506478
-0.000830494
0.00111177
-0.00060526
0.00149286
-0.000381063
0.00168254
-0.000189653
0.00175672
-7.41467e-05
0.00179075
-3.39994e-05
0.00180983
-1.90441e-05
0.00181875
-8.89561e-06
0.00181665
2.14264e-06
0.00179476
2.19138e-05
0.00173021
6.4591e-05
0.00157671
0.000153542
0.00126939
0.000307409
0.000812815
0.000456768
0.000530653
0.000282495
0.000537731
-0.00223455
0.0055954
-0.00325588
0.00199561
-0.00419288
0.00181561
-0.00495635
0.00152602
-0.0055661
0.00122693
-0.00601665
0.000901784
-0.00628635
0.000529265
-0.00634192
8.97902e-05
-0.00614601
-0.000430611
-0.00566456
-0.00102646
-0.00488807
-0.00164734
-0.00384701
-0.00221181
-0.0026178
-0.00262799
-0.00137103
-0.00274915
-0.00037085
-0.00236347
0.000890774
-0.00125648
0.00110649
-0.000209975
0.001123
0.000526368
0.000337879
0.000988601
-0.000983867
0.00129539
-0.00113726
0.00159411
-0.000903951
0.00181617
-0.000603085
0.00185578
-0.000229224
0.0018586
-7.69362e-05
0.00186342
-3.87792e-05
0.00186694
-2.25303e-05
0.00186782
-9.74347e-06
0.00186618
3.81993e-06
0.00186062
2.75095e-05
0.00184602
7.92295e-05
0.00178453
0.000215071
0.00154409
0.000547905
0.00115804
0.000842932
0.000637182
0.000803542
0.00119095
-0.0015837
0.00745778
-0.00250262
0.00291452
-0.003353
0.00266597
-0.00402095
0.00219395
-0.00456952
0.00177549
-0.00499436
0.00132662
-0.00526951
0.000804404
-0.00535729
0.00017755
-0.00521292
-0.000575002
-0.00480258
-0.00143683
-0.00412987
-0.0023201
-0.00324204
-0.0030997
-0.00221565
-0.00365442
-0.00119488
-0.00376993
-0.000365074
-0.00319324
0.000257749
-0.00187926
0.000408859
-0.000361094
0.00154685
0.00161644
-0.00126336
0.00185891
-0.00122633
0.00183607
-0.0011144
0.00188371
-0.000951565
0.00207201
-0.000791341
0.00184298
0.00176624
0.00172765
0.00170531
0.00169576
0.00169978
0.00172749
0.00180691
0.00202218
0.00171236
0.000857776
0.00132357
0.0012318
0.000699568
0.00142768
0.00191454
-0.00112647
0.00894282
-0.00190494
0.00369296
-0.00248813
0.00324915
-0.00296424
0.00267004
-0.0033902
0.00220144
-0.003749
0.00168541
-0.00400729
0.00106268
-0.00411938
0.000289631
-0.00402417
-0.000670228
-0.00368292
-0.00177813
-0.00312547
-0.00287761
-0.00241821
-0.00380707
-0.00161831
-0.00445441
-0.000834666
-0.00455359
-0.000187225
-0.00384063
0.00033312
-0.00239954
0.000787385
-0.00081535
0.00207608
0.000258131
0.00245701
-0.000366038
0.00202999
-0.000836376
0.00188996
-0.00108632
0.00176021
-0.000984654
0.00163503
-0.000826374
0.00146309
-0.00061937
0.00175559
-0.000292613
0.00196069
-0.000205211
0.00216039
-0.000199822
0.00235962
-0.000199347
0.00253538
-0.000175887
0.00264571
-0.000110454
0.00263081
1.47749e-05
0.00242651
0.00020417
0.00194545
0.000480928
0.00178565
0.00101761
0.00143632
0.00158119
0.000813189
0.0020509
0.00275882
-0.000792212
0.0101597
-0.00143451
0.00433523
-0.00159958
0.00341421
-0.00182538
0.00289582
-0.0020873
0.00246336
-0.00233958
0.00193768
-0.00254179
0.00126489
-0.00265261
0.00040044
-0.00258167
-0.000741179
-0.00229333
-0.00206651
-0.0018646
-0.00330643
-0.00136864
-0.00430315
-0.000829719
-0.00499346
-0.000321985
-0.00506133
9.38762e-05
-0.00425641
0.000523745
-0.00282932
0.00109417
-0.00138574
0.00182089
-0.000468611
0.00192192
-0.000467093
0.00177403
-0.000688519
0.00149988
-0.000812199
0.00127483
-0.000759607
0.00110758
-0.000659124
0.00103161
-0.000543383
0.001157
-0.00041798
0.0013309
-0.000379095
0.00152483
-0.000393731
0.00173036
-0.000404857
0.00192868
-0.000374192
0.00208854
-0.000270297
0.00216616
-6.28341e-05
0.00212502
0.000245315
0.00197869
0.000627268
0.00186707
0.00112925
0.00178472
0.00166358
0.00164934
0.00218634
0.00243067
0.00197758
0.00186292
0.000598168
0.00195627
-6.40321e-05
0.00205724
-0.000679543
0.0113183
-0.00115047
0.00480613
-0.000722954
0.00298667
-0.000616439
0.00278929
-0.000719902
0.00256681
-0.000869806
0.00208758
-0.000982925
0.00137801
-0.00103502
0.000452533
-0.000926346
-0.000849857
-0.000683245
-0.00230966
-0.000410635
-0.00357915
-0.000156966
-0.00455698
8.37198e-05
-0.0052343
0.000277602
-0.00525523
0.000407981
-0.00438671
0.000567004
-0.00298824
0.000791917
-0.00161059
0.00106659
-0.00074327
0.00109842
-0.00049893
0.000943149
-0.00053327
0.000710776
-0.000579846
0.000525144
-0.000573985
0.000418422
-0.000552401
0.000406669
-0.000531622
0.000505059
-0.000516357
0.00066224
-0.000536264
0.000844508
-0.000575988
0.00104134
-0.000601677
0.00124502
-0.000577871
0.00144337
-0.000468643
0.00161409
-0.000233542
0.00172027
0.000139134
0.00177204
0.000575503
0.00185642
0.00104487
0.00204971
0.00147032
0.00238599
0.00185009
0.00261284
0.00175079
0.0020982
0.00111286
0.00120472
0.000829503
0.00333636
-0.000907886
0.0127512
-0.000817148
0.00471537
0.00042988
0.00173963
0.000816381
0.00240278
0.000773685
0.0026095
0.00067057
0.00219069
0.000641317
0.00140726
0.000747921
0.000345929
0.000943713
-0.00104564
0.00110465
-0.00247064
0.00116416
-0.00363878
0.00112692
-0.00451992
0.0010397
-0.00514723
0.000898415
-0.00511395
0.000691237
-0.00417945
0.000475931
-0.0027728
0.000310152
-0.00144471
0.000247838
-0.000680921
0.000174872
-0.000425965
4.33654e-05
-0.000401778
-0.000102225
-0.000434269
-0.000207237
-0.000468975
-0.000255643
-0.000503992
-0.000246363
-0.000540896
-0.000180457
-0.000582256
-7.91189e-05
-0.000637595
4.18756e-05
-0.000696976
0.00017822
-0.000738017
0.000333695
-0.000733342
0.000518441
-0.000653388
0.000743461
-0.000458563
0.000983156
-0.000100562
0.00121512
0.000343538
0.00147369
0.000786302
0.00181072
0.0011333
0.00224443
0.00141639
0.00264113
0.00135411
0.00279369
0.000960335
0.00208055
0.00154268
0.00549022
0.00279514
0.0105394
0.00336691
0.00414357
0.00357681
0.00152971
0.00341794
0.00256164
0.00311037
0.00291707
0.00287673
0.00242433
0.00280803
0.00147598
0.00297387
0.000180114
0.00313656
-0.00120834
0.00306349
-0.00239763
0.00277019
-0.00334563
0.00235027
-0.0041002
0.00192399
-0.00472108
0.00143972
-0.00462964
0.000832502
-0.00357212
0.000195176
-0.0021353
-0.000284246
-0.000965176
-0.000517274
-0.000447857
-0.000630725
-0.000312509
-0.000715904
-0.000316604
-0.000792297
-0.00035788
-0.000852556
-0.000408717
-0.000892473
-0.000464072
-0.000912396
-0.000520968
-0.000914908
-0.000579738
-0.00090954
-0.000642956
-0.000902134
-0.000704377
-0.000890709
-0.000749436
-0.000865247
-0.000758802
-0.000806445
-0.000712187
-0.000675401
-0.000589606
-0.000404754
-0.00037121
-4.67697e-05
-1.44483e-05
0.000338818
0.000400714
0.000746968
0.000725159
0.00115932
0.00100405
0.00144579
0.00106767
0.00148952
0.000916627
0.000640183
0.00239204
0.00647978
0.0111858
0.0153292
0.0135802
0.00327877
0.0116655
0.0044763
0.00994567
0.00463685
0.00866046
0.00370954
0.00779403
0.00234241
0.00704044
0.000933716
0.006178
-0.000345969
0.00520242
-0.00142219
0.00417315
-0.00231656
0.00320799
-0.00313527
0.00247571
-0.00398887
0.00170507
-0.00385886
0.000645354
-0.00251224
-0.000350748
-0.00113897
-0.000929883
-0.000385949
-0.00117251
-0.000205198
-0.00126215
-0.000222861
-0.00131136
-0.000267393
-0.00136548
-0.000303759
-0.00142891
-0.000345289
-0.00149893
-0.000394042
-0.00157756
-0.000442338
-0.00167036
-0.00048693
-0.00178429
-0.000529015
-0.00192344
-0.000565224
-0.00208878
-0.000584087
-0.00228062
-0.000566959
-0.00250194
-0.000490861
-0.00276022
-0.000331322
-0.00306943
-6.19898e-05
-0.0034065
0.000322626
-0.00383298
0.000827211
-0.00455134
0.00144354
-0.00567517
0.0021279
-0.00734599
0.00273852
-0.00941152
0.00298219
-0.00906059
0.00204115
-0.00219637
0.00980206
0.00501423
0.00838613
0.00589209
0.00794619
0.00507663
0.00762519
0.00403038
0.00724315
0.00272429
0.00679366
0.00138301
0.00615207
0.000295454
0.00520986
-0.000480162
0.00406816
-0.00117505
0.00298047
-0.00204776
0.00225764
-0.00326589
0.00139117
-0.00299208
-0.000117093
-0.00100373
-0.00113162
-0.000124258
-0.00158047
6.29813e-05
-0.00174415
-4.14898e-05
-0.00175466
-0.000212344
-0.00176653
-0.00025553
-0.00182344
-0.000246845
-0.001908
-0.000260734
-0.00200644
-0.000295595
-0.0021249
-0.000323871
-0.00227527
-0.000336556
-0.00246507
-0.000339205
-0.00269575
-0.000334531
-0.00296281
-0.000317021
-0.00325428
-0.000275478
-0.00354882
-0.000196313
-0.00381148
-6.86497e-05
-0.0040071
0.000133647
-0.00414736
0.000462896
-0.00426239
0.000942258
-0.0043873
0.00156846
-0.00453381
0.00227444
-0.00465631
0.00286105
-0.00454163
0.00286754
-0.00283809
0.00033763
-0.00493615
-0.00162298
0.00670531
0.000511148
0.00375784
0.00217876
0.0034089
0.00322497
0.00298405
0.00387747
0.00207164
0.00414381
0.00111653
0.00399681
0.000442297
0.0035494
-3.2898e-05
0.00287857
-0.000504364
0.00206267
-0.00123195
0.00116362
-0.00236629
-0.000233432
-0.00159448
-0.0014026
0.000165632
-0.00193267
0.000405898
-0.00208175
0.000212106
-0.00207617
-4.70504e-05
-0.00206375
-0.000224766
-0.00209844
-0.000220837
-0.00217217
-0.00017312
-0.00226629
-0.00016661
-0.00237143
-0.000190448
-0.00248783
-0.000207468
-0.00261761
-0.000206764
-0.00276111
-0.00019569
-0.00291643
-0.0001792
-0.00307867
-0.000154769
-0.0032382
-0.000115941
-0.00338017
-5.43272e-05
-0.00348485
3.60414e-05
-0.00350847
0.000157285
-0.00339512
0.000349561
-0.00309942
0.000646578
-0.00260741
0.00107648
-0.0019473
0.00161435
-0.000932611
0.00184638
0.000813198
0.00112176
0.00158807
-0.000437214
-0.00323987
-0.0138835
-0.0177435
-0.0109855
-0.0071885
-0.00374602
-0.000730749
0.00137144
0.00251949
0.00299503
0.00299764
0.00253074
0.00133827
-0.000988356
-0.00255421
-0.0023629
-0.00193274
-0.00169645
-0.00171868
-0.00191827
-0.00211365
-0.00226113
-0.0024019
-0.00256634
-0.0027477
-0.00292835
-0.00309804
-0.00325149
-0.00338086
-0.00347186
-0.00350183
-0.00344212
-0.00326194
-0.00289032
-0.00222253
-0.00112568
0.00050821
0.0023733
0.00351387
0.00309664
)
;

boundaryField
{
    floor
    {
        type            calculated;
        value           nonuniform List<scalar> 
36
(
0
0
0
0
0
0
0
0
0
0
0
0
0
0
0
0
0
0
0
-6.7889e-06
-1.58242e-05
-2.38591e-05
-3.09579e-05
-3.03395e-05
-2.92396e-05
-2.89649e-05
-2.70932e-06
-5.10318e-06
-5.74044e-06
-6.58433e-06
-4.77145e-06
-9.95365e-06
-1.37019e-05
-1.50226e-05
-1.51803e-05
-1.49342e-05
)
;
    }
    ceiling
    {
        type            calculated;
        value           nonuniform List<scalar> 
43
(
-5.43371e-05
-5.35299e-05
-5.27688e-05
-3.91786e-05
-3.36475e-05
-3.1292e-05
-3.06684e-05
-3.16353e-05
-3.33599e-05
-3.56057e-05
-3.75569e-05
-3.95087e-05
-3.84129e-05
-2.83448e-05
-2.56799e-05
-2.4231e-05
-2.41467e-05
-2.48097e-05
-2.51795e-05
-2.54538e-05
-2.56464e-05
-2.58294e-05
-2.59983e-05
-2.61019e-05
-2.61015e-05
-2.59824e-05
-2.57422e-05
-2.53846e-05
-2.49171e-05
-2.43446e-05
-2.36581e-05
-2.28725e-05
-2.20444e-05
-2.11958e-05
-2.03552e-05
-1.952e-05
-1.86864e-05
-1.87894e-05
-1.996e-05
-2.05726e-05
2.27748e-06
4.6308e-08
-6.81374e-05
)
;
    }
    sWall
    {
        type            calculated;
        value           uniform -0.000250787;
    }
    nWall
    {
        type            calculated;
        value           nonuniform List<scalar> 6(-7.19308e-05 -7.43347e-05 -7.3254e-05 -9.82841e-05 -0.000108194 -0.000122632);
    }
    sideWalls
    {
        type            empty;
        value           nonuniform 0();
    }
    glass1
    {
        type            calculated;
        value           nonuniform List<scalar> 9(-6.77438e-05 -0.000182783 -0.000278731 -0.000358616 -0.000424727 -0.000479097 -0.000525046 -0.000583369 -0.000648693);
    }
    glass2
    {
        type            calculated;
        value           nonuniform List<scalar> 2(-0.000349334 -0.000384399);
    }
    sun
    {
        type            calculated;
        value           uniform 0;
    }
    Table_master
    {
        type            calculated;
        value           nonuniform List<scalar> 9(-1.54475e-07 -1.54587e-07 -1.54629e-07 -1.54657e-07 -1.54678e-07 -1.54693e-07 -1.54696e-07 -1.54681e-07 -1.54618e-07);
    }
    Table_slave
    {
        type            calculated;
        value           nonuniform List<scalar> 9(1.54439e-07 1.54397e-07 1.54324e-07 1.54251e-07 1.54187e-07 1.5415e-07 1.54154e-07 1.54169e-07 1.54253e-07);
    }
    inlet
    {
        type            calculated;
        value           uniform -0.0115376;
    }
    outlet
    {
        type            calculated;
        value           nonuniform List<scalar> 2(0.0141885 0.00391352);
    }
}


// ************************************************************************* //
