/*--------------------------------*- C++ -*----------------------------------*\
  =========                 |
  \\      /  F ield         | OpenFOAM: The Open Source CFD Toolbox
   \\    /   O peration     | Website:  https://openfoam.org
    \\  /    A nd           | Version:  6
     \\/     M anipulation  |
\*---------------------------------------------------------------------------*/
FoamFile
{
    version     2.0;
    format      ascii;
    class       volScalarField;
    location    "400";
    object      T;
}
// * * * * * * * * * * * * * * * * * * * * * * * * * * * * * * * * * * * * * //

dimensions      [0 0 0 1 0 0 0];

internalField   nonuniform List<scalar> 
458
(
301.767
301.448
301.433
301.428
301.424
301.42
301.416
301.412
301.408
301.404
301.397
301.391
301.387
301.39
301.408
301.71
301.685
301.682
301.687
301.691
301.693
301.695
301.696
301.697
301.698
301.699
301.699
301.699
301.697
301.687
301.648
301.543
301.451
301.991
301.471
301.442
301.44
301.44
301.439
301.438
301.436
301.432
301.424
301.408
301.386
301.368
301.365
301.391
301.446
301.474
301.509
301.712
301.672
301.673
301.681
301.688
301.686
301.683
301.679
301.675
301.671
301.666
301.662
301.659
301.658
301.653
301.632
301.574
301.487
302.225
301.511
301.464
301.47
301.479
301.489
301.496
301.5
301.498
301.485
301.455
301.408
301.362
301.345
301.381
301.448
301.487
301.518
301.643
301.653
301.675
301.698
301.715
301.708
301.701
301.694
301.687
301.68
301.672
301.665
301.658
301.652
301.648
301.633
301.592
301.517
302.459
301.569
301.489
301.501
301.524
301.549
301.572
301.589
301.594
301.578
301.528
301.447
301.361
301.325
301.369
301.459
301.513
301.529
301.565
301.608
301.661
301.707
301.742
301.766
301.781
301.791
301.8
301.808
301.815
301.819
301.821
301.822
301.819
301.763
301.703
301.637
301.553
302.684
301.648
301.518
301.527
301.559
301.599
301.64
301.676
301.694
301.68
301.612
301.492
301.362
301.305
301.36
301.473
301.553
301.591
301.633
301.681
301.731
301.775
301.808
301.83
301.845
301.855
301.863
301.869
301.873
301.874
301.873
301.866
301.855
301.82
301.763
301.69
301.6
301.602
301.609
301.661
302.882
301.756
301.572
301.55
301.579
301.622
301.673
301.726
301.766
301.762
301.678
301.525
301.356
301.289
301.355
301.488
301.602
301.671
301.722
301.77
301.813
301.846
301.869
301.882
301.891
301.897
301.901
301.904
301.905
301.904
301.9
301.892
301.878
301.852
301.807
301.744
301.677
301.659
301.656
301.682
303.039
301.939
301.737
301.653
301.633
301.649
301.686
301.734
301.8
301.799
301.698
301.523
301.338
301.275
301.354
301.514
301.664
301.757
301.814
301.854
301.883
301.901
301.911
301.917
301.92
301.922
301.923
301.923
301.921
301.918
301.913
301.905
301.892
301.87
301.836
301.788
301.74
301.716
301.705
301.708
303.292
302.49
302.263
302.06
301.913
301.834
301.809
301.823
301.858
301.811
301.669
301.47
301.28
301.25
301.364
301.561
301.743
301.84
301.886
301.911
301.924
301.931
301.934
301.935
301.935
301.935
301.933
301.931
301.928
301.924
301.918
301.91
301.899
301.881
301.856
301.824
301.796
301.786
301.78
301.915
303.649
303.297
303.031
302.736
302.466
302.264
302.132
302.056
301.953
301.765
301.544
301.327
301.166
301.225
301.401
301.648
301.827
301.9
301.93
301.942
301.946
301.947
301.946
301.945
301.944
301.942
301.94
301.938
301.934
301.93
301.925
301.921
301.919
301.919
301.925
301.94
301.967
302
302.03
302.107
295.539
297.933
299.626
300.508
300.919
301.08
301.116
301.12
301.088
301.027
301.011
301.255
301.506
301.782
301.894
301.94
301.957
301.961
301.96
301.958
301.956
301.954
301.952
301.951
301.949
301.948
301.947
301.947
301.947
301.948
301.95
301.955
301.964
301.981
302.005
302.032
302.059
302.088
296.29
298.017
299.465
300.153
300.525
300.698
300.764
300.802
300.825
300.839
300.965
301.452
301.778
301.899
301.949
301.971
301.979
301.978
301.974
301.97
301.968
301.966
301.964
301.962
301.961
301.96
301.96
301.961
301.962
301.963
301.966
301.97
301.978
301.99
302.006
302.025
302.03
302.067
298.112
298.072
298.068
299.164
299.833
300.221
300.525
300.629
300.676
300.706
300.734
300.772
301.094
301.863
301.95
301.975
302.001
302.015
302.015
302.011
302.007
302.003
302
301.997
301.994
301.992
301.99
301.988
301.987
301.985
301.984
301.983
301.982
301.983
301.986
301.991
302.003
302.011
302.015
302.055
)
;

boundaryField
{
    floor
    {
        type            wallHeatTransfer;
        Tinf            uniform 305.2;
        alphaWall       uniform 0.24;
        value           nonuniform List<scalar> 
36
(
301.767
302.343
302.251
302.218
302.235
302.257
302.285
302.315
302.343
302.369
302.393
302.415
302.436
302.456
302.476
302.495
302.506
302.434
302.35
302.35
302.186
302.151
302.141
302.11
302.098
302.145
301.767
301.787
301.857
301.948
302.343
301.948
302.317
301.916
302.045
301.899
)
;
    }
    ceiling
    {
        type            wallHeatTransfer;
        Tinf            uniform 303.2;
        alphaWall       uniform 0.24;
        value           nonuniform List<scalar> 
43
(
298.409
298.368
298.36
299.378
300.016
300.39
300.69
300.799
300.857
300.898
300.937
300.986
301.302
302.017
302.089
302.106
302.131
302.149
302.151
302.149
302.145
302.142
302.14
302.138
302.136
302.133
302.13
302.126
302.122
302.117
302.112
302.106
302.101
302.097
302.095
302.096
302.103
302.112
302.122
302.165
303.628
303.293
296.71
)
;
    }
    sWall
    {
        type            wallHeatTransfer;
        Tinf            uniform 315.2;
        alphaWall       uniform 0.36;
        value           uniform 299.572;
    }
    nWall
    {
        type            wallHeatTransfer;
        Tinf            uniform 307.2;
        alphaWall       uniform 0.36;
        value           nonuniform List<scalar> 6(302.727 302.585 302.464 302.782 302.759 302.768);
    }
    sideWalls
    {
        type            empty;
    }
    glass1
    {
        type            wallHeatTransfer;
        Tinf            uniform 315.2;
        alphaWall       uniform 4.3;
        value           nonuniform List<scalar> 9(311.341 310.61 310.121 309.723 309.38 309.068 308.785 308.833 309.063);
    }
    glass2
    {
        type            wallHeatTransfer;
        Tinf            uniform 307.2;
        alphaWall       uniform 4.3;
        value           nonuniform List<scalar> 2(305.102 305.22);
    }
    sun
    {
        type            wallHeatTransfer;
        Tinf            uniform 305.2;
        alphaWall       uniform 0.24;
        value           nonuniform List<scalar> 
14
(
302.176
301.871
301.853
301.835
301.821
301.808
301.797
301.786
301.774
301.763
301.752
301.742
301.738
301.744
)
;
    }
    Table_master
    {
        type            zeroGradient;
    }
    Table_slave
    {
        type            zeroGradient;
    }
    inlet
    {
        type            fixedValue;
        value           uniform 293.15;
    }
    outlet
    {
        type            zeroGradient;
    }
}


// ************************************************************************* //
