/*--------------------------------*- C++ -*----------------------------------*\
  =========                 |
  \\      /  F ield         | OpenFOAM: The Open Source CFD Toolbox
   \\    /   O peration     | Website:  https://openfoam.org
    \\  /    A nd           | Version:  6
     \\/     M anipulation  |
\*---------------------------------------------------------------------------*/
FoamFile
{
    version     2.0;
    format      ascii;
    class       volScalarField;
    location    "600";
    object      nut;
}
// * * * * * * * * * * * * * * * * * * * * * * * * * * * * * * * * * * * * * //

dimensions      [0 2 -1 0 0 0 0];

internalField   nonuniform List<scalar> 
458
(
0.00112153
0.00122344
0.00125362
0.00131698
0.00137572
0.00143136
0.00148657
0.00154483
0.00159954
0.00164468
0.00167223
0.00167177
0.00163077
0.0015196
0.0011316
0.000545048
0.000650252
0.000740587
0.000762026
0.000750897
0.000709926
0.000663486
0.000620936
0.000583295
0.00054999
0.000520528
0.000494384
0.000470747
0.00044878
0.000427478
0.000405375
0.000388377
0.000353457
0.00151051
0.00342862
0.00313887
0.00357916
0.00402591
0.0044983
0.00495473
0.00532061
0.00568216
0.00605486
0.00639621
0.00665925
0.00679724
0.00670546
0.0056418
0.00148093
0.00121631
0.000987365
0.000550268
0.00128218
0.00188623
0.00234267
0.00248074
0.00185188
0.00158666
0.00140684
0.00127305
0.00116945
0.00108432
0.00100637
0.000931312
0.000854937
0.000786848
0.000730308
0.000858102
0.000450244
0.00183631
0.00464549
0.00385256
0.00470908
0.00510195
0.00538291
0.00558903
0.005758
0.00597438
0.00626227
0.00660397
0.0069815
0.00736165
0.00764694
0.00740694
0.00598711
0.0044958
0.0011529
0.000928352
0.00158138
0.0022488
0.00285762
0.00298763
0.000943581
0.000832265
0.000739573
0.00066432
0.000603414
0.000553952
0.000513819
0.000481459
0.000456672
0.000509742
0.000597626
0.000976443
0.000519656
0.00214935
0.0059552
0.00382568
0.00501671
0.00531144
0.00532532
0.00525929
0.0052517
0.00536835
0.00560236
0.00594087
0.00638036
0.00688773
0.00736518
0.00753853
0.00717476
0.00613348
0.00332598
0.00134059
0.00183208
0.00256143
0.00333713
0.00393256
0.00386404
0.00103121
0.000945244
0.000890431
0.000852539
0.000821562
0.000790004
0.000757667
0.000723567
0.000683214
0.000645726
0.000643143
0.00108784
0.000589019
0.00246926
0.00771442
0.00412807
0.00485308
0.00530491
0.00519516
0.00494663
0.00482303
0.00491131
0.0051414
0.00548483
0.00594771
0.00648265
0.00694183
0.00711768
0.00704013
0.00666566
0.00555203
0.00522647
0.00518285
0.00535376
0.00554649
0.00560681
0.0053971
0.00453037
0.00414424
0.00396331
0.00384454
0.00371855
0.0035441
0.00322504
0.00277421
0.00223627
0.00169721
0.0012767
0.00115613
0.000940493
0.000721602
0.000764938
0.000758561
0.00281315
0.00971569
0.00586669
0.00463448
0.00500164
0.00509344
0.00491766
0.00467327
0.00475634
0.00498463
0.00532541
0.00578935
0.00630528
0.00667885
0.0067354
0.00660049
0.00652066
0.00647609
0.00667317
0.00687307
0.00692327
0.00678189
0.00647984
0.00606316
0.00559286
0.00527704
0.00507186
0.00490571
0.00474004
0.00455379
0.004307
0.00391514
0.00337534
0.0027252
0.0021066
0.00157521
0.00122909
0.00130454
0.00187415
0.000957933
0.0031419
0.011199
0.0087519
0.00618729
0.00518949
0.0048489
0.00487667
0.00485725
0.00490873
0.00506057
0.00535671
0.00579673
0.00629907
0.00663485
0.00658279
0.00635633
0.0064695
0.00694417
0.00736602
0.00749889
0.00732351
0.00691471
0.00637752
0.00581663
0.00535105
0.00506116
0.00488496
0.00474938
0.00462395
0.00450161
0.00438143
0.00421584
0.0038642
0.00334401
0.00277651
0.00223803
0.00182944
0.00173154
0.00214829
0.00119572
0.00321204
0.0100542
0.00912693
0.00835883
0.00729424
0.00634064
0.0058703
0.0055014
0.00524185
0.00525764
0.00550657
0.00592494
0.00642157
0.0067353
0.00659824
0.0063822
0.00671798
0.00710308
0.00723946
0.00707958
0.00665637
0.0060749
0.005469
0.00495788
0.00461074
0.0044101
0.00428651
0.00419541
0.00412645
0.00408574
0.00408455
0.00412306
0.00408986
0.00376384
0.00343068
0.00321994
0.00325354
0.00340067
0.00421659
0.00158771
0.00314042
0.00374274
0.00424965
0.00466605
0.00495698
0.00500896
0.00494598
0.00491278
0.0050253
0.0053188
0.00567538
0.00611004
0.00660727
0.00688536
0.00665877
0.00651856
0.00652781
0.00643703
0.00620667
0.00581907
0.00531627
0.00480092
0.00436742
0.00405434
0.00384617
0.00370133
0.00358357
0.00347604
0.0033744
0.00327655
0.00317668
0.00306437
0.00294045
0.00282452
0.00273921
0.00269069
0.00262307
0.00248577
0.00232196
0.00152074
0.000741128
0.00159828
0.00258521
0.00343197
0.00409743
0.00470426
0.00534079
0.00581579
0.00601114
0.00629572
0.00669193
0.00690114
0.00667194
0.00625397
0.00575057
0.00529699
0.00491279
0.00455212
0.00421386
0.00392306
0.00369161
0.00350995
0.00335921
0.00322267
0.0030909
0.00296215
0.00284018
0.00273245
0.00264917
0.00260208
0.00258412
0.00256873
0.00254334
0.0024789
0.00232786
0.0020653
0.00173533
0.00120792
0.00259581
0.00408862
0.00460572
0.0054486
0.00610986
0.0067061
0.00686698
0.00618347
0.00541905
0.00549435
0.00552549
0.00543849
0.00522019
0.0048732
0.00453997
0.00423034
0.00395694
0.00371151
0.00349035
0.00329468
0.00312417
0.00297657
0.00285031
0.00274607
0.00266619
0.00261228
0.0025829
0.00257221
0.00256886
0.00259306
0.00263643
0.00268712
0.00272627
0.00272249
0.00265811
0.00255635
0.00207385
0.00121952
0.0027252
0.00276229
0.00280741
0.00300277
0.00284736
0.00272298
0.0024966
0.00212954
0.0016826
0.0014586
0.00128795
0.00119535
0.00114536
0.00109514
0.00104218
0.000997216
0.000962845
0.000939041
0.000919342
0.000903018
0.000890669
0.000882849
0.000879874
0.000881873
0.000888888
0.000900921
0.000917981
0.000940161
0.000967806
0.00100179
0.00104398
0.00109223
0.00114669
0.00120685
0.001272
0.00134018
0.00140465
0.00137978
0.00126828
0.00116656
)
;

boundaryField
{
    floor
    {
        type            nutkWallFunction;
        Cmu             0.09;
        kappa           0.41;
        E               9.8;
        value           nonuniform List<scalar> 
36
(
0.000136074
6.54501e-05
7.86024e-05
8.96901e-05
9.2297e-05
9.09448e-05
8.59459e-05
8.02376e-05
7.49653e-05
7.02645e-05
6.60744e-05
6.23417e-05
5.90074e-05
5.59741e-05
5.31377e-05
5.03706e-05
4.74809e-05
4.52449e-05
4.0611e-05
4.06109e-05
5.33268e-05
6.22302e-05
7.0981e-05
8.73738e-05
9.26506e-05
9.18765e-05
0.000136074
0.000175948
0.000145856
0.000119222
6.545e-05
0.000119222
6.61094e-05
0.000138541
0.000112249
0.000160073
)
;
    }
    ceiling
    {
        type            nutkWallFunction;
        Cmu             0.09;
        kappa           0.41;
        E               9.8;
        value           nonuniform List<scalar> 
43
(
0.000310768
0.00031467
0.000319411
0.000339917
0.000323705
0.000310662
0.000286724
0.000247392
0.000198475
0.000173437
0.000154076
0.00014345
0.000137676
0.000131846
0.000125664
0.000120387
0.000116335
0.000113519
0.000111182
0.000109241
0.00010777
0.000106837
0.000106482
0.000106721
0.000107557
0.000108991
0.00011102
0.000113651
0.00011692
0.000120925
0.000125875
0.000131507
0.000137831
0.000144778
0.000152256
0.000160038
0.000167356
0.000164538
0.000151832
0.000140131
0.000354633
0.000416651
0.000296994
)
;
    }
    sWall
    {
        type            nutkWallFunction;
        Cmu             0.09;
        kappa           0.41;
        E               9.8;
        value           uniform 0.000310846;
    }
    nWall
    {
        type            nutkWallFunction;
        Cmu             0.09;
        kappa           0.41;
        E               9.8;
        value           nonuniform List<scalar> 6(9.18759e-05 0.000115757 0.000143501 0.000144914 0.000146249 0.000140142);
    }
    sideWalls
    {
        type            empty;
    }
    glass1
    {
        type            nutkWallFunction;
        Cmu             0.09;
        kappa           0.41;
        E               9.8;
        value           nonuniform List<scalar> 9(0.00013504 0.000179534 0.000215804 0.000249994 0.000284386 0.000320836 0.000355249 0.000362553 0.000355127);
    }
    glass2
    {
        type            nutkWallFunction;
        Cmu             0.09;
        kappa           0.41;
        E               9.8;
        value           nonuniform List<scalar> 2(0.000188037 0.000180535);
    }
    sun
    {
        type            nutkWallFunction;
        Cmu             0.09;
        kappa           0.41;
        E               9.8;
        value           nonuniform List<scalar> 
14
(
0.000134909
0.000146675
0.000150138
0.000157381
0.00016406
0.000170358
0.00017658
0.000183118
0.000189234
0.000194262
0.000197323
0.000197273
0.000192715
0.000180291
)
;
    }
    Table_master
    {
        type            nutkWallFunction;
        Cmu             0.09;
        kappa           0.41;
        E               9.8;
        value           nonuniform List<scalar> 9(0.000114051 0.000100778 8.95672e-05 8.03432e-05 7.27859e-05 6.65807e-05 6.1496e-05 5.73605e-05 5.41695e-05);
    }
    Table_slave
    {
        type            nutkWallFunction;
        Cmu             0.09;
        kappa           0.41;
        E               9.8;
        value           nonuniform List<scalar> 9(0.000124372 0.000114248 0.000107738 0.000103211 9.94917e-05 9.56861e-05 9.17681e-05 8.76148e-05 8.26698e-05);
    }
    inlet
    {
        type            calculated;
        value           uniform 0.00033541;
    }
    outlet
    {
        type            calculated;
        value           nonuniform List<scalar> 2(0.0027252 0.00276229);
    }
}


// ************************************************************************* //
