// -*- C++ -*-
// File generated by PyFoam - sorry for the ugliness

FoamFile
{
 version 2.0;
 format ascii;
 class volVectorField;
 location "600";
 object U;
}

dimensions [ 0 1 -1 0 0 0 0 ];

internalField nonuniform List<vector> 458
(
  (0.0377449 0.0910347 0)
  (-0.176363 0.0273033 0)
  (-0.20384 0.0201612 0)
  (-0.239416 0.0146166 0)
  (-0.267229 0.00842017 0)
  (-0.286278 0.00167522 0)
  (-0.294816 -0.00584979 0)
  (-0.290163 -0.0144692 0)
  (-0.270427 -0.0245915 0)
  (-0.234683 -0.0353072 0)
  (-0.184965 -0.044619 0)
  (-0.126912 -0.0500164 0)
  (-0.0685895 -0.0485732 0)
  (-0.0165331 -0.0351755 0)
  (-0.00821061 0.01142 0)
  (-0.00681414 0.00924178 0)
  (-0.0338592 -0.0228939 0)
  (-0.00416712 -0.0358727 0)
  (0.0277487 -0.0289576 0)
  (0.0515816 -0.020451 0)
  (0.0686671 -0.0112066 0)
  (0.0781516 -0.00630508 0)
  (0.0819157 -0.00452849 0)
  (0.0830935 -0.00385703 0)
  (0.0835136 -0.0034279 0)
  (0.0835506 -0.00305245 0)
  (0.0831002 -0.00261856 0)
  (0.0819136 -0.00192077 0)
  (0.079328 -0.000501711 0)
  (0.0739281 0.00225198 0)
  (0.0641425 0.00540804 0)
  (0.0536898 0.00853425 0)
  (-0.0107221 0.0263138 0)
  (0.222565 0.186863 0)
  (-0.166848 0.0725131 0)
  (-0.167193 0.0597473 0)
  (-0.204703 0.0490228 0)
  (-0.232794 0.0368049 0)
  (-0.252597 0.0227913 0)
  (-0.262656 0.00619231 0)
  (-0.260403 -0.0138139 0)
  (-0.2441 -0.0369562 0)
  (-0.213229 -0.0605768 0)
  (-0.170033 -0.0797051 0)
  (-0.119955 -0.089171 0)
  (-0.0698478 -0.0848651 0)
  (-0.0252136 -0.0630953 0)
  (0.0152594 -0.0210694 0)
  (0.0463674 0.0043431 0)
  (0.0610417 0.036167 0)
  (-0.0105364 0.0774991 0)
  (0.0775514 0.0426221 0)
  (0.0249033 -0.0270995 0)
  (0.0382871 -0.0443196 0)
  (0.0556335 -0.040867 0)
  (0.0706089 -0.0308445 0)
  (0.0788217 -0.0130037 0)
  (0.0806364 -0.00232729 0)
  (0.0803662 0.001614 0)
  (0.0803644 0.00299727 0)
  (0.0806824 0.00374161 0)
  (0.0809161 0.0042673 0)
  (0.0809151 0.00476828 0)
  (0.080682 0.00574204 0)
  (0.0796087 0.00826742 0)
  (0.0749205 0.015291 0)
  (0.063284 0.0217725 0)
  (0.0560702 0.0272327 0)
  (-0.0555913 0.056528 0)
  (0.392253 0.280563 0)
  (-0.185265 0.116645 0)
  (-0.126763 0.0974603 0)
  (-0.163943 0.0778706 0)
  (-0.189705 0.057513 0)
  (-0.209185 0.0346808 0)
  (-0.220778 0.00789949 0)
  (-0.2212 -0.0237835 0)
  (-0.207852 -0.0601956 0)
  (-0.180807 -0.0968272 0)
  (-0.143028 -0.124943 0)
  (-0.100169 -0.13702 0)
  (-0.0581464 -0.129204 0)
  (-0.0214192 -0.100722 0)
  (0.0123985 -0.0551096 0)
  (0.0341392 -0.0227436 0)
  (0.0436443 0.0123437 0)
  (-0.0278685 0.0692646 0)
  (0.132783 -0.0267837 0)
  (0.0796704 -0.0472779 0)
  (0.0734331 -0.0531162 0)
  (0.078751 -0.0501832 0)
  (0.0851955 -0.0448863 0)
  (0.0893288 -0.0323156 0)
  (0.0793894 -0.0205415 0)
  (0.0715177 -0.0142879 0)
  (0.0688033 -0.010809 0)
  (0.0683921 -0.00853576 0)
  (0.0685328 -0.00691857 0)
  (0.0690871 -0.00555729 0)
  (0.0706443 -0.00393219 0)
  (0.0746156 0.000506485 0)
  (0.0737931 0.0211363 0)
  (0.0600751 0.0358159 0)
  (0.0626578 0.0477169 0)
  (-0.094765 0.088851 0)
  (0.546368 0.356437 0)
  (-0.22217 0.155972 0)
  (-0.0818319 0.12998 0)
  (-0.117794 0.10346 0)
  (-0.137566 0.078344 0)
  (-0.154343 0.0497427 0)
  (-0.166408 0.014716 0)
  (-0.169112 -0.0282954 0)
  (-0.157666 -0.0782572 0)
  (-0.133952 -0.127884 0)
  (-0.102419 -0.164014 0)
  (-0.0683644 -0.177938 0)
  (-0.0361802 -0.167107 0)
  (-0.00819986 -0.132291 0)
  (0.0170996 -0.0815153 0)
  (0.0371045 -0.0357206 0)
  (0.0586337 0.0092496 0)
  (0.0614678 0.056735 0)
  (0.111372 0.0628804 0)
  (0.111017 -0.0107075 0)
  (0.0935993 -0.0398278 0)
  (0.085209 -0.0472851 0)
  (0.0800211 -0.0467485 0)
  (0.0730496 -0.0412577 0)
  (0.0732791 -0.0249642 0)
  (0.0869729 -0.0166759 0)
  (0.0987457 -0.0123455 0)
  (0.106577 -0.00969735 0)
  (0.112014 -0.00743993 0)
  (0.115233 -0.00492535 0)
  (0.114624 -0.00168822 0)
  (0.108239 0.00281838 0)
  (0.0938119 0.00932061 0)
  (0.0761642 0.0319139 0)
  (0.0606643 0.052354 0)
  (0.0744752 0.071571 0)
  (-0.113423 0.121182 0)
  (0.68143 0.415262 0)
  (-0.268018 0.18785 0)
  (-0.0346841 0.149086 0)
  (-0.0669731 0.119717 0)
  (-0.0776377 0.0933595 0)
  (-0.0887442 0.0622815 0)
  (-0.0992029 0.0220146 0)
  (-0.10242 -0.0301172 0)
  (-0.0904815 -0.0925115 0)
  (-0.0703077 -0.153119 0)
  (-0.0476065 -0.193888 0)
  (-0.0254919 -0.207332 0)
  (-0.00614891 -0.193183 0)
  (0.010382 -0.153873 0)
  (0.0253617 -0.102363 0)
  (0.0398914 -0.0522062 0)
  (0.0573766 -0.0094341 0)
  (0.0773944 0.0141082 0)
  (0.094351 -0.00913315 0)
  (0.0940484 -0.0318414 0)
  (0.0857317 -0.0403677 0)
  (0.0757927 -0.0418545 0)
  (0.0671545 -0.0398023 0)
  (0.0603064 -0.0334673 0)
  (0.0597903 -0.020031 0)
  (0.0658112 -0.0126378 0)
  (0.0727568 -0.00987716 0)
  (0.0789741 -0.00826825 0)
  (0.0845387 -0.00583347 0)
  (0.0890057 -0.00149604 0)
  (0.0914283 0.00512732 0)
  (0.090152 0.0140176 0)
  (0.0850306 0.0257986 0)
  (0.077807 0.0443281 0)
  (0.0688004 0.0647662 0)
  (0.0963908 0.0878526 0)
  (0.0268611 0.12066 0)
  (0.106581 0.152672 0)
  (0.132191 0.16794 0)
  (-0.174677 0.208465 0)
  (0.781069 0.463938 0)
  (-0.313687 0.208227 0)
  (0.00451207 0.14399 0)
  (-0.0119933 0.124883 0)
  (-0.0123835 0.103757 0)
  (-0.017102 0.0729576 0)
  (-0.0246382 0.0308961 0)
  (-0.023077 -0.028764 0)
  (-0.007139 -0.104326 0)
  (0.00786046 -0.172291 0)
  (0.0185228 -0.212275 0)
  (0.0256492 -0.221956 0)
  (0.0293575 -0.204223 0)
  (0.0311295 -0.164195 0)
  (0.0332281 -0.112282 0)
  (0.0369105 -0.0621493 0)
  (0.0442681 -0.023246 0)
  (0.0564157 -0.00411966 0)
  (0.0643258 -0.00924581 0)
  (0.0635537 -0.0199806 0)
  (0.0567459 -0.0280653 0)
  (0.0480786 -0.031756 0)
  (0.0403349 -0.0318453 0)
  (0.0347574 -0.0285216 0)
  (0.0334887 -0.0221603 0)
  (0.036717 -0.0184268 0)
  (0.0419516 -0.0170571 0)
  (0.0478215 -0.0158136 0)
  (0.0539329 -0.0130807 0)
  (0.0599295 -0.00766355 0)
  (0.0657887 0.0014145 0)
  (0.0695631 0.0135562 0)
  (0.0713195 0.0280895 0)
  (0.0731232 0.0456987 0)
  (0.0742895 0.0645851 0)
  (0.0965727 0.0857786 0)
  (0.0872951 0.0902092 0)
  (0.104771 0.0366954 0)
  (0.131742 -0.0195962 0)
  (-0.220033 0.102787 0)
  (0.837768 0.507997 0)
  (-0.336641 0.1887 0)
  (0.0392443 0.0807746 0)
  (0.0584365 0.105944 0)
  (0.0631751 0.109634 0)
  (0.0608694 0.082773 0)
  (0.0580877 0.0342992 0)
  (0.0715573 -0.0396597 0)
  (0.0876994 -0.11842 0)
  (0.0938879 -0.179726 0)
  (0.0907097 -0.214138 0)
  (0.0808024 -0.21936 0)
  (0.0664 -0.198833 0)
  (0.0503978 -0.158152 0)
  (0.0360618 -0.107274 0)
  (0.0258336 -0.0595117 0)
  (0.0216803 -0.0251844 0)
  (0.0236046 -0.00890872 0)
  (0.0260794 -0.00902884 0)
  (0.0247278 -0.0153803 0)
  (0.019738 -0.0214656 0)
  (0.0132144 -0.0249309 0)
  (0.0070338 -0.0259759 0)
  (0.00248746 -0.0251124 0)
  (0.001013 -0.0230995 0)
  (0.00271056 -0.0222031 0)
  (0.00618295 -0.0221754 0)
  (0.0105468 -0.021682 0)
  (0.0156219 -0.0195505 0)
  (0.0215223 -0.0146284 0)
  (0.028603 -0.00554004 0)
  (0.0385531 0.00812929 0)
  (0.0466464 0.0231719 0)
  (0.0555379 0.0389267 0)
  (0.0649942 0.0543157 0)
  (0.0846587 0.0706143 0)
  (0.0975067 0.0717625 0)
  (0.113154 0.0457424 0)
  (0.169696 0.0505838 0)
  (-0.154962 0.165338 0)
  (0.946457 0.507737 0)
  (-0.0631613 0.167043 0)
  (0.132937 -0.00707482 0)
  (0.201649 0.00599664 0)
  (0.192919 0.034259 0)
  (0.175155 0.0248596 0)
  (0.168745 -0.0220983 0)
  (0.186633 -0.078708 0)
  (0.195063 -0.133125 0)
  (0.185878 -0.176536 0)
  (0.163535 -0.199279 0)
  (0.132351 -0.197208 0)
  (0.0960915 -0.173633 0)
  (0.0592561 -0.13354 0)
  (0.026963 -0.0858188 0)
  (0.00334051 -0.0436107 0)
  (-0.00915773 -0.0176003 0)
  (-0.0124052 -0.00800134 0)
  (-0.0129804 -0.00798909 0)
  (-0.0148451 -0.0120241 0)
  (-0.0187921 -0.0162269 0)
  (-0.0238607 -0.0191722 0)
  (-0.0288655 -0.02097 0)
  (-0.0328553 -0.0220301 0)
  (-0.0351458 -0.0227856 0)
  (-0.0358675 -0.0237582 0)
  (-0.0356714 -0.024712 0)
  (-0.0349108 -0.0250563 0)
  (-0.0335298 -0.0241791 0)
  (-0.0311661 -0.0214955 0)
  (-0.0270095 -0.0163706 0)
  (-0.0183427 -0.00794631 0)
  (-0.00312664 0.00394242 0)
  (0.010272 0.015775 0)
  (0.0239369 0.0235921 0)
  (0.0423879 0.0299312 0)
  (0.0573711 0.0227561 0)
  (0.0686733 -0.000259323 0)
  (0.15979 0.0682191 0)
  (-0.518448 0.275863 0)
  (1.09463 0.444083 0)
  (0.518561 0.296913 0)
  (0.5612 0.332013 0)
  (0.575616 0.291233 0)
  (0.520871 0.227785 0)
  (0.456476 0.15494 0)
  (0.414156 0.0779009 0)
  (0.374006 -0.00358949 0)
  (0.326053 -0.0767868 0)
  (0.273548 -0.128473 0)
  (0.218062 -0.152938 0)
  (0.160127 -0.150141 0)
  (0.10057 -0.127558 0)
  (0.0433938 -0.0912553 0)
  (-0.00334562 -0.0499449 0)
  (-0.031457 -0.0216077 0)
  (-0.043523 -0.00986656 0)
  (-0.047986 -0.00646984 0)
  (-0.0499298 -0.00742553 0)
  (-0.0522148 -0.0102536 0)
  (-0.0556762 -0.0133419 0)
  (-0.0599954 -0.016047 0)
  (-0.0646241 -0.0182999 0)
  (-0.0691678 -0.0201653 0)
  (-0.0734793 -0.0217254 0)
  (-0.0777392 -0.0230424 0)
  (-0.0822584 -0.0238986 0)
  (-0.0872522 -0.0238605 0)
  (-0.092889 -0.022366 0)
  (-0.0994524 -0.0187733 0)
  (-0.107514 -0.0123404 0)
  (-0.117947 -0.00220494 0)
  (-0.130004 0.0119321 0)
  (-0.144033 0.0297577 0)
  (-0.168719 0.0520706 0)
  (-0.207627 0.0790673 0)
  (-0.263691 0.107556 0)
  (-0.327964 0.133829 0)
  (-0.408197 0.15342 0)
  (-0.728552 0.162642 0)
  (0.599183 -0.291466 0)
  (0.534768 -0.0074299 0)
  (0.471122 0.11125 0)
  (0.411595 0.119258 0)
  (0.367601 0.0727448 0)
  (0.330985 0.0113993 0)
  (0.289741 -0.0420044 0)
  (0.235608 -0.0772004 0)
  (0.176045 -0.092694 0)
  (0.113483 -0.0859123 0)
  (0.0484068 -0.0655744 0)
  (-0.0162416 -0.036453 0)
  (-0.052346 -0.0180398 0)
  (-0.0696746 -0.0114856 0)
  (-0.0774338 -0.0104526 0)
  (-0.0807947 -0.0113339 0)
  (-0.0826249 -0.0130262 0)
  (-0.0846064 -0.0150733 0)
  (-0.0873741 -0.0171616 0)
  (-0.0909796 -0.0191211 0)
  (-0.0953663 -0.0208833 0)
  (-0.100543 -0.0224062 0)
  (-0.106591 -0.0236432 0)
  (-0.113638 -0.0244974 0)
  (-0.121764 -0.0247026 0)
  (-0.130891 -0.0237793 0)
  (-0.140722 -0.0210299 0)
  (-0.150657 -0.0156082 0)
  (-0.159697 -0.00667467 0)
  (-0.166573 0.00629151 0)
  (-0.171004 0.0228565 0)
  (-0.174571 0.0438298 0)
  (-0.178959 0.0689297 0)
  (-0.185687 0.0948482 0)
  (-0.192126 0.110411 0)
  (-0.186321 0.0907407 0)
  (-0.172454 -0.0110279 0)
  (-0.294003 -0.241291 0)
  (0.0911314 0.448643 0)
  (-0.080069 0.298004 0)
  (-0.00459674 0.245398 0)
  (0.042891 0.178904 0)
  (0.0722372 0.111158 0)
  (0.0807469 0.0530383 0)
  (0.0791453 0.0135438 0)
  (0.0607087 -0.0157489 0)
  (0.0258139 -0.02329 0)
  (-0.0249404 0.00791578 0)
  (-0.0656699 0.0325611 0)
  (-0.0910723 0.0451159 0)
  (-0.101821 0.0505003 0)
  (-0.10539 0.0529229 0)
  (-0.106246 0.0539363 0)
  (-0.106517 0.0533845 0)
  (-0.107067 0.0527766 0)
  (-0.108253 0.0523994 0)
  (-0.110187 0.0520505 0)
  (-0.11287 0.0515994 0)
  (-0.116256 0.0510283 0)
  (-0.120279 0.0503375 0)
  (-0.124866 0.0494902 0)
  (-0.129937 0.0484407 0)
  (-0.135371 0.0471774 0)
  (-0.140963 0.045704 0)
  (-0.146418 0.0440025 0)
  (-0.151324 0.0419712 0)
  (-0.154865 0.0392657 0)
  (-0.155432 0.0388385 0)
  (-0.150934 0.0434253 0)
  (-0.139529 0.05444 0)
  (-0.120666 0.0728157 0)
  (-0.0960685 0.0969605 0)
  (-0.0680099 0.117634 0)
  (-0.0404048 0.11711 0)
  (0.135806 0.0304124 0)
  (-0.212396 -0.157378 0)
  (-0.753905 -0.74502 0)
  (-0.914793 -0.188265 0)
  (-0.717691 0.246105 0)
  (-0.602553 0.126912 0)
  (-0.400053 0.0857095 0)
  (-0.261926 0.0355701 0)
  (-0.160888 -0.0287166 0)
  (-0.104129 -0.0966803 0)
  (-0.0885733 -0.137919 0)
  (-0.0970238 -0.136842 0)
  (-0.120259 -0.13202 0)
  (-0.131236 -0.127326 0)
  (-0.129746 -0.125705 0)
  (-0.124334 -0.129501 0)
  (-0.118484 -0.139762 0)
  (-0.114179 -0.151506 0)
  (-0.11198 -0.160916 0)
  (-0.11168 -0.166704 0)
  (-0.113011 -0.171014 0)
  (-0.115614 -0.174214 0)
  (-0.119218 -0.176212 0)
  (-0.12361 -0.176905 0)
  (-0.128576 -0.176251 0)
  (-0.13389 -0.174252 0)
  (-0.139328 -0.170911 0)
  (-0.144665 -0.166194 0)
  (-0.149627 -0.16 0)
  (-0.153829 -0.152126 0)
  (-0.156737 -0.14221 0)
  (-0.157687 -0.129645 0)
  (-0.155857 -0.113532 0)
  (-0.149673 -0.0958755 0)
  (-0.135853 -0.0766164 0)
  (-0.110362 -0.0551947 0)
  (-0.0712909 -0.0301708 0)
  (-0.0200472 0.000142581 0)
  (0.0547808 0.0230326 0)
  (0.112805 0.00063072 0)
  (0.184623 -0.0598176 0)
  (-0.14927 -0.146617 0)
)
;

boundaryField
{
  floor
  {
    type noSlip;
  }
  ceiling
  {
    type noSlip;
  }
  sWall
  {
    type noSlip;
  }
  nWall
  {
    type noSlip;
  }
  sideWalls
  {
    type empty;
  }
  glass1
  {
    type noSlip;
  }
  glass2
  {
    type noSlip;
  }
  sun
  {
    type noSlip;
  }
  Table_master
  {
    type noSlip;
  }
  Table_slave
  {
    type noSlip;
  }
  inlet
  {
    type fixedValue;
    value uniform (0.444456 -0.665176 0);
  }
  outlet
  {
    type zeroGradient;
  }
} 	// ************************************************************************* //

