/*--------------------------------*- C++ -*----------------------------------*\
  =========                 |
  \\      /  F ield         | OpenFOAM: The Open Source CFD Toolbox
   \\    /   O peration     | Website:  https://openfoam.org
    \\  /    A nd           | Version:  6
     \\/     M anipulation  |
\*---------------------------------------------------------------------------*/
FoamFile
{
    version     2.0;
    format      ascii;
    class       surfaceScalarField;
    location    "1600";
    object      phi;
}
// * * * * * * * * * * * * * * * * * * * * * * * * * * * * * * * * * * * * * //

dimensions      [1 0 -1 0 0 0 0];

internalField   nonuniform List<scalar> 
850
(
-0.00295195
0.00301317
-0.00388977
0.000937882
-0.0046196
0.000729888
-0.0052293
0.000609754
-0.00569069
0.000461461
-0.00598751
0.000296875
-0.00610094
0.000113498
-0.00600668
-9.4198e-05
-0.00567832
-0.0003283
-0.00510772
-0.000570529
-0.00432099
-0.000786675
-0.00337671
-0.000944213
-0.00234217
-0.00103448
-0.00124023
-0.00110188
-0.00123819
-0.000587592
0.000591536
-4.17284e-05
-0.000545821
0.000677744
-0.000719435
0.00117707
-0.000499287
0.00149463
-0.000317528
0.00165566
-0.000160981
0.00171631
-6.0614e-05
0.00173722
-2.08659e-05
0.00174013
-2.85471e-06
0.0017309
9.27924e-06
0.00171242
1.85293e-05
0.00168394
2.85344e-05
0.00163675
4.72537e-05
0.00154555
9.12547e-05
0.0013687
0.000176905
0.00109539
0.000273366
0.000784195
0.000311242
0.000789526
-0.00209436
0.00527106
-0.00305021
0.00189379
-0.0038164
0.00149614
-0.00441665
0.00121007
-0.00486794
0.000912809
-0.00516861
0.000597613
-0.00530199
0.000246946
-0.00524218
-0.000153944
-0.00496673
-0.000603682
-0.00447537
-0.00106183
-0.00380571
-0.00145626
-0.00302676
-0.00172309
-0.00222652
-0.00183465
-0.0015409
-0.00178743
-0.00129538
-0.00148366
-0.000535509
-0.000755985
-0.000388354
-0.000142415
-0.000375072
0.000740537
-0.000138912
0.00111715
-0.000922398
0.00133834
-0.000940585
0.00157261
-0.000733524
0.0017525
-0.000497384
0.00178365
-0.000192096
0.00178504
-6.19721e-05
0.001789
-2.47871e-05
0.00179233
-6.14169e-06
0.00179316
8.49076e-06
0.00179179
1.99525e-05
0.00178779
3.25878e-05
0.00177723
5.78585e-05
0.00172594
0.000142608
0.00151879
0.000384106
0.00116269
0.000629526
0.000712246
0.000761732
0.00151512
-0.00146696
0.00698658
-0.0023205
0.0027474
-0.00300002
0.00217572
-0.00350815
0.00171826
-0.00390003
0.00130476
-0.00417803
0.000875678
-0.00431803
0.000387015
-0.00428169
-0.000190207
-0.00403707
-0.000848241
-0.0035899
-0.00150892
-0.00299061
-0.00205548
-0.00231615
-0.00239748
-0.00165282
-0.00249792
-0.00109095
-0.00234923
-0.000645081
-0.00192946
-0.000181814
-0.00121919
0.000194933
-0.000519104
-0.000169785
0.00140146
-0.00152914
0.00165537
-0.00117627
0.00167988
-0.000965061
0.00174562
-0.000799232
0.00190978
-0.00066151
0.00171787
0.00165608
0.00163148
0.00162553
0.00163421
0.00165436
0.00168715
0.00174522
0.00188803
0.00158497
0.000687216
0.00119932
0.00101523
0.000656692
0.00130441
0.00219196
-0.00103208
0.00833887
-0.0017367
0.00345208
-0.00217682
0.00261591
-0.00250769
0.0020492
-0.00277897
0.00157611
-0.0029892
0.00108597
-0.00310586
0.000503748
-0.0030703
-0.000225701
-0.00283595
-0.00108252
-0.00242464
-0.00192016
-0.00190558
-0.00257447
-0.00135572
-0.00294728
-0.000838564
-0.003015
-0.00039268
-0.00279505
1.31881e-05
-0.00233526
0.000472577
-0.00167851
0.00101308
-0.00105954
0.0015771
-0.000733752
0.00229983
-0.000711909
0.00176308
-0.000992351
0.00164473
-0.00105788
0.00158114
-0.000901438
0.00152693
-0.000744992
0.00142517
-0.000559727
0.00170173
-0.000276693
0.00189085
-0.000189245
0.00206041
-0.0001697
0.0022162
-0.000155915
0.00234085
-0.000124792
0.00240251
-6.17906e-05
0.00235871
4.36701e-05
0.00216199
0.000196588
0.00174084
0.000421026
0.00157302
0.000855071
0.00123873
0.00134956
0.000711601
0.00183159
0.00292955
-0.000732023
0.00945155
-0.00129174
0.00401185
-0.00136363
0.00268786
-0.00142631
0.00211194
-0.00151621
0.00166608
-0.0016048
0.00117463
-0.00164676
0.000545773
-0.00156529
-0.000307106
-0.00131766
-0.00133008
-0.000957741
-0.00228002
-0.000565168
-0.00296697
-0.000198385
-0.00331399
0.000112184
-0.0033255
0.000364563
-0.00304736
0.000589313
-0.00255994
0.000861547
-0.00195068
0.00118085
-0.00137878
0.00145265
-0.00100549
0.00159553
-0.000854734
0.00148611
-0.000882894
0.00131422
-0.000885942
0.00119948
-0.000786667
0.00112129
-0.000666778
0.00109846
-0.000536873
0.00122143
-0.000399653
0.00136741
-0.000335209
0.00151801
-0.000320278
0.00166969
-0.000307579
0.00181024
-0.000265334
0.00191722
-0.000168748
0.00195599
4.91471e-06
0.00190025
0.000252341
0.00176264
0.000558663
0.00164791
0.00096982
0.00155637
0.00144114
0.00142862
0.00195938
0.00232466
0.00203354
0.00167106
0.000679332
0.00175167
-5.58743e-05
0.00184129
-0.000649236
0.0105324
-0.00104749
0.00441016
-0.00059465
0.00223508
-0.000250168
0.00176751
-0.000103349
0.00151932
-3.54505e-05
0.00110678
5.95461e-05
0.000450832
0.00024917
-0.000496672
0.000512608
-0.00159346
0.000771254
-0.00253859
0.000965807
-0.00316145
0.00107484
-0.00342295
0.00110705
-0.00335764
0.00109302
-0.00303325
0.00106747
-0.00253432
0.00107408
-0.00195722
0.00111352
-0.00141816
0.00113627
-0.00102818
0.00109715
-0.000815571
0.000965231
-0.000750933
0.00079342
-0.000714099
0.000660893
-0.000654115
0.000581728
-0.000587594
0.00056914
-0.000524269
0.000639451
-0.000469951
0.000755878
-0.000451623
0.000892558
-0.000456947
0.00104014
-0.000455145
0.00119293
-0.000418112
0.00134162
-0.000317431
0.00146743
-0.000120887
0.0015454
0.000174387
0.00158916
0.000514925
0.00166521
0.000893785
0.0018415
0.00126487
0.00214883
0.00165209
0.00245174
0.00173067
0.0019881
0.00114301
0.0011229
0.000809361
0.00303168
-0.000687125
0.011698
-0.000588638
0.00431172
0.000624637
0.00102185
0.00131875
0.00107345
0.00162335
0.00121476
0.00182966
0.000900519
0.00209034
0.000190186
0.00237852
-0.000784808
0.00258964
-0.00180451
0.00265798
-0.00260685
0.00257019
-0.00307359
0.00234964
-0.00320231
0.00204126
-0.00304918
0.00169763
-0.00268955
0.00136439
-0.00220101
0.00107915
-0.00167192
0.000850332
-0.00118928
0.00066413
-0.000841926
0.000495437
-0.000646836
0.00032001
-0.000575474
0.000154035
-0.0005481
2.73145e-05
-0.000527378
-4.80922e-05
-0.000512174
-6.73922e-05
-0.000504958
-3.0349e-05
-0.000506985
4.36612e-05
-0.000525625
0.000137247
-0.000550524
0.000245354
-0.000563243
0.000371979
-0.000544727
0.000527177
-0.000472619
0.000722548
-0.000316246
0.000929671
-3.27243e-05
0.00113072
0.000313886
0.0013682
0.000656331
0.0016818
0.000951288
0.00208742
0.0012465
0.00251158
0.00130655
0.00267809
0.000976523
0.00203893
0.00144855
0.00513846
0.00267102
0.00956306
0.00337512
0.00360768
0.00409012
0.000306905
0.00439878
0.00076482
0.00450173
0.00111184
0.00460843
0.000793846
0.00481029
-1.16378e-05
0.00497482
-0.000949289
0.0049233
-0.00175292
0.00460821
-0.00229166
0.00407494
-0.00254022
0.00340324
-0.00253052
0.00267619
-0.00232205
0.00196517
-0.00197845
0.00131869
-0.00155446
0.000774947
-0.00112812
0.00034263
-0.000756908
2.40904e-05
-0.000523345
-0.000206804
-0.000415912
-0.000387759
-0.000394498
-0.000534398
-0.000401445
-0.000646104
-0.000415662
-0.000723095
-0.000435174
-0.000767957
-0.000460089
-0.000784858
-0.000490077
-0.000785163
-0.000525312
-0.000776721
-0.000558959
-0.000759828
-0.000580126
-0.000728048
-0.000576497
-0.000665609
-0.000535047
-0.000539414
-0.000442429
-0.000288751
-0.000283374
3.83949e-05
-1.32461e-05
0.000390559
0.000304183
0.000771651
0.000570216
0.00118881
0.00082936
0.00154637
0.000949013
0.00159856
0.000924362
0.000607275
0.00243987
0.00606337
0.0101582
0.0137626
0.0134515
0.000618093
0.0124832
0.00173318
0.0114891
0.00210596
0.0106097
0.00167334
0.00970222
0.000895891
0.00865938
9.36683e-05
0.00746683
-0.000560225
0.00619557
-0.00102026
0.00491412
-0.00125865
0.00368058
-0.00129688
0.00254522
-0.00118661
0.00154879
-0.000981949
0.000706711
-0.000712313
4.19807e-05
-0.000463338
-0.000427607
-0.000287283
-0.0007287
-0.000222225
-0.000928369
-0.000216223
-0.00108148
-0.000241379
-0.00120877
-0.000274143
-0.00131811
-0.00030632
-0.00141549
-0.00033778
-0.00150658
-0.000369
-0.00159683
-0.000399812
-0.00169333
-0.000428808
-0.00180156
-0.000450716
-0.0019253
-0.000456376
-0.00206882
-0.000432966
-0.00223921
-0.000364642
-0.00244817
-0.000233454
-0.00271287
-1.86657e-05
-0.00301025
0.000284159
-0.00339308
0.000687026
-0.00402681
0.00120396
-0.00501893
0.0018215
-0.00651847
0.00244858
-0.00848381
0.00288972
-0.0084715
0.00242758
-0.00206028
0.00587496
0.000957535
0.00583365
0.00177509
0.00609444
0.00184583
0.00594749
0.00182091
0.00546955
0.00137439
0.00488811
0.000675591
0.00422998
9.82658e-05
0.00345457
-0.000244621
0.00258677
-0.000390705
0.00168481
-0.000394817
0.000812434
-0.00031416
3.2303e-05
-0.000201772
-0.000582194
-9.77819e-05
-0.00100184
-4.36646e-05
-0.00126623
-2.28715e-05
-0.00144879
-3.96442e-05
-0.0015821
-8.29048e-05
-0.0016935
-0.000129981
-0.00179777
-0.000169859
-0.00190367
-0.000200423
-0.00201776
-0.000223678
-0.00214512
-0.000241641
-0.0022897
-0.000255225
-0.00245488
-0.000263616
-0.00264199
-0.000263597
-0.00284881
-0.000249546
-0.0030683
-0.000213463
-0.00328731
-0.000145619
-0.00348317
-3.75763e-05
-0.00363284
0.000131025
-0.00374271
0.000394044
-0.00383252
0.000776854
-0.00392315
0.00129461
-0.00401695
0.00191532
-0.0040356
0.00246725
-0.00363944
0.00249358
-0.00121006
-1.77962e-06
-0.00318326
-0.00230193
0.00330967
-0.00145096
0.000924352
-0.000729811
0.00112505
-8.61074e-05
0.00117761
0.000321844
0.000966847
0.000403494
0.000594196
0.00024069
0.000261186
-7.34923e-05
6.95508e-05
-0.000497174
3.29964e-05
-0.000948878
5.69111e-05
-0.00135188
8.88684e-05
-0.00165934
0.000105705
-0.0018568
9.96966e-05
-0.0019715
7.10478e-05
-0.00202965
3.52837e-05
-0.00206671
-2.58106e-06
-0.00210661
-4.30001e-05
-0.00215789
-7.86988e-05
-0.00222364
-0.000104105
-0.00230397
-0.000120088
-0.00239806
-0.000129576
-0.00250494
-0.000134756
-0.00262349
-0.000136673
-0.00275207
-0.000135027
-0.00288765
-0.000128009
-0.00302471
-0.000112475
-0.00315409
-8.40743e-05
-0.00326292
-3.67722e-05
-0.00333482
3.43358e-05
-0.00333686
0.000133083
-0.00323079
0.000287984
-0.00297495
0.000521037
-0.00254316
0.000862839
-0.00195084
0.00132301
-0.0010576
0.00157404
0.00125782
0.000178174
0.00360979
-0.00235374
0.000520212
-0.00824477
-0.0114685
-0.00811922
-0.00716494
-0.00601396
-0.00481374
-0.00382701
-0.00321508
-0.00293788
-0.00285353
-0.00280651
-0.002736
-0.00263364
-0.00251429
-0.00240057
-0.00231499
-0.00226461
-0.00225155
-0.00227852
-0.00234089
-0.0024285
-0.00253201
-0.00264503
-0.00276332
-0.00288369
-0.00300265
-0.00311488
-0.00321192
-0.00328094
-0.00330308
-0.00325458
-0.00310785
-0.00280675
-0.00227316
-0.00139833
-6.38964e-05
0.00152083
0.00171023
-0.0006325
)
;

boundaryField
{
    floor
    {
        type            calculated;
        value           nonuniform List<scalar> 
36
(
0
0
0
0
0
0
0
0
0
0
0
0
0
0
0
0
0
0
0
-5.28741e-06
-1.33081e-05
-2.00985e-05
-2.59462e-05
-2.56836e-05
-2.47e-05
-2.43402e-05
-1.97422e-06
-3.82542e-06
-4.68377e-06
-5.26193e-06
-3.89735e-06
-7.96986e-06
-1.00425e-05
-1.03006e-05
-1.11825e-05
-1.07579e-05
)
;
    }
    ceiling
    {
        type            calculated;
        value           nonuniform List<scalar> 
43
(
-4.26033e-05
-4.09649e-05
-3.95781e-05
-2.983e-05
-2.58148e-05
-2.24955e-05
-1.97818e-05
-1.7681e-05
-1.59815e-05
-1.47719e-05
-1.39952e-05
-1.3581e-05
-1.34762e-05
-1.3637e-05
-1.40118e-05
-1.45265e-05
-1.50964e-05
-1.5634e-05
-1.60325e-05
-1.63204e-05
-1.64966e-05
-1.65722e-05
-1.65584e-05
-1.64633e-05
-1.62944e-05
-1.60598e-05
-1.57684e-05
-1.54283e-05
-1.50455e-05
-1.46216e-05
-1.41505e-05
-1.36374e-05
-1.31001e-05
-1.25446e-05
-1.19761e-05
-1.14032e-05
-1.0678e-05
-1.12067e-05
-1.0996e-05
-8.31413e-06
5.63575e-06
3.327e-06
-5.01941e-05
)
;
    }
    sWall
    {
        type            calculated;
        value           uniform -0.000244679;
    }
    nWall
    {
        type            calculated;
        value           nonuniform List<scalar> 6(-6.52459e-05 -6.74683e-05 -6.78088e-05 -8.70714e-05 -9.36691e-05 -0.000103966);
    }
    sideWalls
    {
        type            empty;
        value           nonuniform 0();
    }
    glass1
    {
        type            calculated;
        value           nonuniform List<scalar> 9(-6.11613e-05 -0.000163464 -0.000248505 -0.000320138 -0.000380596 -0.000431582 -0.000478427 -0.000535981 -0.00060072);
    }
    glass2
    {
        type            calculated;
        value           nonuniform List<scalar> 2(-0.000317611 -0.000347824);
    }
    sun
    {
        type            calculated;
        value           uniform 0;
    }
    Table_master
    {
        type            calculated;
        value           nonuniform List<scalar> 9(-1.539e-07 -1.54011e-07 -1.54049e-07 -1.54073e-07 -1.54087e-07 -1.54096e-07 -1.54099e-07 -1.54094e-07 -1.54059e-07);
    }
    Table_slave
    {
        type            calculated;
        value           nonuniform List<scalar> 9(1.53848e-07 1.53834e-07 1.53778e-07 1.53726e-07 1.53685e-07 1.53668e-07 1.53675e-07 1.53701e-07 1.53781e-07);
    }
    inlet
    {
        type            calculated;
        value           uniform -0.00621412;
    }
    outlet
    {
        type            calculated;
        value           nonuniform List<scalar> 2(0.00853211 0.00326477);
    }
}


// ************************************************************************* //
