/*--------------------------------*- C++ -*----------------------------------*=========                 |
  \      /  F ield         | OpenFOAM: The Open Source CFD Toolbox
   \    /   O peration     | Website:  https://openfoam.org
    \  /    A nd           | Version:  6
     \/     M anipulation  |
\*---------------------------------------------------------------------------*/
FoamFile
{
    version     2.0;
    format      ascii;
    class       volScalarField;
    location    "1600";
    object      PMV;
}
// * * * * * * * * * * * * * * * * * * * * * * * * * * * * * * * * * * * * * //

dimensions      [0 0 0 0 0 0 0];

internalField   nonuniform List<scalar> 
458
(
1.6208907723891715
1.4065585122289597
1.3860566130097478
1.3640706301808754
1.3487303702754279
1.3379907203498203
1.3315381897999614
1.3302332405897523
1.334229665619734
1.3432883684546912
1.3591590939589921
1.3839001901952859
1.4196591522950697
1.4628661130503742
1.4815396566845738
1.547391219872206
1.5397517483238847
1.5411841811923788
1.542139128277035
1.5430940688165722
1.5269246844836515
1.5183168702620975
1.5155546414524623
1.514541294380687
1.5137200883242532
1.5128813793071747
1.5126454242173435
1.5129293774954065
1.5157701219185322
1.5227541181938036
1.5268591989946838
1.5244715623869454
1.5302018238055082
1.5822903305191232
1.4246206469154832
1.4226766264157789
1.4023597494089712
1.3899530403478504
1.3820030243688943
1.3776421140967297
1.376666117548408
1.3797170975334159
1.384980893860173
1.3930289770068924
1.4056648985261209
1.424326008074676
1.448126689692102
1.4772707945068377
1.5096673463785457
1.514443061912198
1.4441448441086153
1.4918337510747994
1.5387967849376885
1.5397517483238847
1.5290572720632856
1.5195037560058702
1.5136020783072082
1.5111440503963993
1.5095217605535909
1.5068429130683971
1.5037953097976349
1.5003971424567728
1.4972173288832882
1.4942548890375977
1.4918538444770062
1.4948865514271386
1.5097145002640522
1.5120552232457638
1.4943341280297084
1.6276832667865333
1.4238066205818243
1.4550320386362379
1.4427888451048816
1.4395657787351603
1.4379180475959599
1.4383658311696552
1.4397107874663655
1.4428917538271748
1.4426216826309792
1.439236082233484
1.4351841876515012
1.435538562100201
1.445066045020344
1.4703498666483177
1.5087121849825194
1.5101449247979841
1.5153981866353092
1.4384778529492
1.4921630409971731
1.5091119274178304
1.5149957356504624
1.5173803638123329
1.5142267628763872
1.5221553304764923
1.5270186813632838
1.5254039571699824
1.5211350535145278
1.5156251504146587
1.5095722521975452
1.5021220172904286
1.49067458913769
1.4851477058903966
1.4952870040916273
1.4819940288790505
1.4320843409825363
1.705495610955053
1.42672596147486
1.4792511862721853
1.4814004221342545
1.4932327616068928
1.5051664884218956
1.5152293232458032
1.5233440477096278
1.526355758293371
1.516355960979493
1.4923945540530508
1.463986175287447
1.4423472319537463
1.4386329357336802
1.457577094534846
1.5040745325171858
1.5139654972451033
1.5182635237941189
1.484023432323939
1.4694377421485474
1.4982457726846268
1.52289330913878
1.5402353984226074
1.5551861551071002
1.5620771636706476
1.5513216660309
1.5416274914856953
1.5347772405207762
1.5291271260368442
1.5254304524085938
1.5243766380758959
1.530145533015449
1.5454237108289757
1.5343477611599585
1.512196115091967
1.46231069459626
1.3998272593183614
1.7950533956938879
1.4463436891554733
1.5044662610094843
1.5189459224292376
1.5490527076153053
1.5820752048687154
1.6133921074401893
1.6352972526288847
1.629816439250946
1.589464563348927
1.5328475576172758
1.4780917457359268
1.4386391316331244
1.4251419762423063
1.438163239190133
1.470079244217812
1.5014922215113617
1.5105369402973297
1.50923923822765
1.513152847941022
1.5363595376499748
1.563755429657738
1.5841487212700232
1.5922629229050738
1.5984675449134513
1.6032401184089702
1.5991733269416466
1.59013296031137
1.5819232468488296
1.574213395781734
1.5674806379667587
1.5635603072007462
1.561144662462915
1.5457007438167125
1.5159541045089941
1.4493206101206504
1.4449374052294832
1.3878568818984318
1.3682556960220877
1.3581371441790318
1.8837002736159716
1.4900478613409176
1.5596951852559249
1.5679717037458987
1.6000071632766526
1.6442763285046105
1.6666968024960458
1.6934043821495672
1.6870617278959843
1.6103957395884536
1.5354859040819973
1.469847277717459
1.4249176237335293
1.4094989578430555
1.4224327927725284
1.455790654306423
1.495594896386984
1.5275734758060706
1.5503768448554573
1.5688735299438994
1.5827167492261087
1.5951266332109
1.6046718540768101
1.611830278144244
1.6166023231789506
1.619942640343199
1.62232852308671
1.6232828625665137
1.6232828625665137
1.62232852308671
1.6161714031134966
1.6017849866871523
1.585889659807655
1.561114891435443
1.5273801160183322
1.4698456972889924
1.4562040384690615
1.467225243843991
1.4416807106326224
1.3767149365596532
1.9714172956986784
1.5895275140839693
1.7264160837277711
1.6631457790789568
1.639843515566062
1.6499594308814989
1.6721031575116871
1.6703364438122084
1.6350951855985982
1.5746486595445548
1.50221673955363
1.438006352537198
1.3981378983484773
1.39132474918059
1.4157267466887815
1.4619574066818024
1.518177335767267
1.557417381912354
1.5760340008919198
1.5917856314499133
1.6051490955502343
1.6156479295016744
1.6237600293805432
1.6285315897704373
1.631394431432514
1.6328258254963748
1.6333029528722567
1.6333029528722567
1.6318715647745121
1.6299630195060635
1.6266229891786164
1.6218513504248722
1.6151707297819127
1.5961587292880253
1.5568335704222536
1.5064865848620492
1.4779544716385213
1.4684165096202504
1.4148622143726746
1.3929715389997124
2.103841702491948
1.91599969093799
1.871405180474832
1.7653143092335633
1.7154978498500106
1.6868158938171844
1.6676829878275523
1.636760293763294
1.5826449510294787
1.5070902190646698
1.4310016845457827
1.376611320407542
1.3584120711022623
1.3780291941998455
1.428918982013619
1.4997182483172502
1.555507693816798
1.5812847610778158
1.6018083659100546
1.6161251273013133
1.6266229891786164
1.6333029528722567
1.6375970093464731
1.6399825259984915
1.640936718529035
1.640936718529035
1.6404596232750925
1.639028325385501
1.637119899976226
1.6347343230359843
1.631394431432514
1.6275772934123771
1.620896999266979
1.612784702449891
1.603717365504237
1.5922629229050738
1.576152117523418
1.5602293518382584
1.4456223543492788
1.3443428455566295
2.3017526167902083
2.1725585098945777
2.033938507748119
1.8963898422245034
1.7810732428103575
1.6931646528152915
1.6223125867195107
1.5551842421996027
1.4526588787825196
1.3543922271553959
1.2948748965225327
1.2851708790945309
1.3224769796743159
1.3959296443013156
1.494224976933901
1.5483461241623366
1.5860579921909759
1.60992140669318
1.6256686770848845
1.6356885598219568
1.641890902961082
1.6457075593822066
1.6404316489826436
1.6337348795432904
1.6266686965609662
1.61968085302606
1.6120113036397583
1.6036083007304678
1.594969571912574
1.5854531040508926
1.5749281535348012
1.5628505469098901
1.5499304658544886
1.53770275432369
1.5203364343426697
1.499381663965533
1.4796540299563585
1.4646477935858655
1.4478745029988542
1.4124573774311935
-2.598579808026336
-1.273500169015144
-0.4037578923875916
0.15500779485780178
0.46843329497434577
0.6399078914035868
0.7918643994529954
0.9483566592005093
1.1065394222649558
1.2599850784944522
1.4088668573737781
1.4848312135470556
1.5521656748149606
1.5922629229050738
1.6185110874307078
1.6314721189751666
1.6297411357552534
1.6262569611673379
1.621793513602436
1.616036182443673
1.609406927930018
1.602513637805388
1.5946768632555277
1.58626127158737
1.5772760857043617
1.5683793772881938
1.5588995393586893
1.5507156404636964
1.5433382893979584
1.5377963281071256
1.5345441630246015
1.531952251419668
1.5295551407397658
1.527409981420133
1.530198720618207
1.548888359096952
1.5964555596849452
1.542399791752032
-1.1671851004940554
-0.5184656428158113
0.079707473029824
0.4879036078305369
0.765089487354437
0.9296674619165056
1.0803666864347607
1.2205105216561787
1.346257027610065
1.4432698957660346
1.5173084175898086
1.5508533442833412
1.5695703941934136
1.582267618423424
1.5901151134538731
1.5943154676554387
1.5966753007979695
1.5967735821619424
1.5949662370825881
1.5920878380053842
1.5886667328878528
1.5842767223981586
1.5799302604290655
1.5746953780442041
1.5696256375168935
1.5644041392928485
1.559792848187033
1.555663918094798
1.5530880048989237
1.5524586417229784
1.5553290291989292
1.563050366347057
1.574291915261678
1.5853751267721032
1.598608399888912
1.638145130873031
1.5783886432193772
1.6801619627285125
-0.24020314951353752
-0.3353812634975431
-0.26980218747561363
0.2229501371849144
0.4910771957780115
0.7273155235599835
0.9409183507320018
1.120684256861842
1.2635876690217034
1.3655598791401071
1.4331246509772928
1.4804892903229911
1.5144663767161608
1.537846138068451
1.5515363316204256
1.5564111386849195
1.5550128834112458
1.551158313466747
1.5472375916166792
1.543541279698843
1.5405057323438467
1.5378855561636247
1.5364604191192859
1.5350415921980822
1.5345272491863728
1.533827154872613
1.5339650266910814
1.5345646699062063
1.536447175071429
1.539130670392795
1.5444493500474858
1.5528210657457795
1.56659894946285
1.5922135625115896
1.637910540644355
1.6752821296387284
1.6814822065608528
1.6089308286492086
1.5738470041380477
1.4956077938814656
)
;

boundaryField
{
    ".*"
    {
        type            zeroGradient;
    }
}


// ************************************************************************* //
