/*--------------------------------*- C++ -*----------------------------------*=========                 |
  \      /  F ield         | OpenFOAM: The Open Source CFD Toolbox
   \    /   O peration     | Website:  https://openfoam.org
    \  /    A nd           | Version:  6
     \/     M anipulation  |
\*---------------------------------------------------------------------------*/
FoamFile
{
    version     2.0;
    format      ascii;
    class       volScalarField;
    location    "1600";
    object      PPD;
}
// * * * * * * * * * * * * * * * * * * * * * * * * * * * * * * * * * * * * * //

dimensions      [0 0 0 0 0 0 0];

internalField   nonuniform List<scalar> 
458
(
57.4724221355351
45.85531031794546
44.764000301768775
43.60105866755672
42.79460073648966
42.2326060175625
41.89602914063591
41.82806107119103
42.03632171986283
42.50955077151048
43.34239071685439
44.64958663272835
46.5557874100458
48.88068013076233
49.89116988767915
53.47130818207292
53.055173218348045
53.13319261086807
53.18520724818667
53.23722315460824
52.356746848233335
51.88834192250056
51.73809240906171
51.68298022663092
51.638321188381404
51.59271341489381
51.57988309606003
51.59532340050575
51.74981216400987
52.129766674439445
52.35318239378516
52.223230136389844
52.53514264835915
55.372620788800106
46.821662584937364
46.71744972472539
45.63130757425557
44.970918644543936
44.54898955220373
44.31797271798456
44.26631235668966
44.4278553038319
44.70691650262859
45.13443066222022
45.807615358788944
46.805864865432504
48.08530057041226
49.659916574921326
51.417969128731315
51.67763796616599
47.8708070122117
50.44936761770857
53.00316212149225
53.055173218348045
52.47283359113468
51.9529113373404
51.63190378415498
51.49825025378517
51.41005491273756
51.26444833892698
51.098843102256716
50.91424766618594
50.741573377996176
50.58075782937421
50.45045789040353
50.61504297035333
51.42053249125903
51.547791384025395
50.585058597418914
57.84117406112543
46.778019393875724
48.45766666839702
47.79780104264157
47.624354558715076
47.53572812884243
47.55981000869996
47.6321555977811
47.80334086967668
47.788802526305396
47.60661874324628
47.38875029603583
47.40779733542488
47.9204151219356
49.28530195864282
51.36604732635893
51.443931571863956
51.72958312194731
47.5658349147087
50.467235296573925
51.38777645833031
51.707695046280634
51.83739775049088
51.66587494048837
52.09718308426372
52.3618632364026
52.27397544952561
52.04166681669592
51.74192729509562
51.412799685980744
51.00793839130999
50.386475692800275
50.08673174260048
50.636779882509444
49.915792313587595
47.222201125610724
62.03605440977856
46.934575171629895
49.76718125623311
49.88362507598212
50.525284491832934
51.17334621178594
51.720399074210334
52.161869508447296
52.32577997242297
51.78167633420686
50.47979790236085
48.9412065357449
47.77402924596044
47.57417601958077
48.5950269068659
51.11401387727588
51.6516667654154
51.885439879999325
50.02578422801218
49.2359602667412
50.79741473653794
52.137341065998264
53.08151542740193
53.89598816299823
54.27144909219999
53.685438029823196
53.15733889748292
52.784263765590936
52.47663630848761
52.27541748836095
52.21806407609752
52.53207810384945
53.36412577807198
52.76087722957468
51.55545212111752
48.85067043475202
45.4963222008064
66.75394610969448
47.98923330156797
51.1352980405519
51.922563161124565
53.56182359701858
55.36090428079849
57.06501839875803
58.25416096915881
57.95691888370121
55.76329327330734
52.67919001486228
49.70437836442259
47.574509270766235
46.84961747814768
47.548914294850064
49.27066180607659
50.9737275773711
51.4652434055137
51.39469696276974
51.60747513547867
52.870428843415176
54.362890697793794
55.473831203935966
55.91564065370042
56.25334153426436
56.51300444872461
56.29174679313397
55.79968400070602
55.352628048491106
54.93266401039542
54.565857849734314
54.352259335983
54.220640855869746
53.37921715383319
51.759818940177276
48.14964707147835
47.91348711992145
44.85957352650503
43.821800343313555
43.28862327652335
71.24215370001434
50.35247540740643
54.14166462837069
54.59261288540829
56.33711773506969
58.7406413922957
59.95231477306493
61.38872008788248
61.048371802401974
56.90214172661489
52.82285378016213
49.258113359879935
46.83758675828707
46.01232988307557
46.704381930926175
48.49860361944269
50.65349321422968
52.39206208970972
53.63396288642828
54.64174717820549
55.39584477956172
56.07152085290722
56.590883356262054
56.980126039781595
57.23946792690047
57.42092742998565
57.5504987297527
57.60231694781402
57.60231694781402
57.5504987297527
57.21605408018187
56.433844183445395
55.568637871027285
54.219018751374016
52.38153691982229
49.25802786668415
48.52091331545832
49.11630409106334
47.73815481419707
44.268896017435935
75.44288549478914
55.76672066631135
63.15103668250631
59.76072780966148
58.50055292407256
59.04820991061227
60.2437469039967
60.14854596617273
58.24320603728158
54.95637580477222
51.013083942111386
47.540477004359346
45.406328795735746
45.04381868233594
46.34528425024028
48.83158348508787
51.88075128434096
54.01755672936058
55.03184307365328
55.8896577541283
56.61684084337032
57.18761002103166
57.62822380586878
57.88720726130994
58.04252008730926
58.120153844860276
58.14602833516404
58.14602833516404
58.068399710053676
57.964871128242436
57.78363275613769
57.52458739146846
57.16167906673391
56.12769425040347
53.98574752012498
51.24508313786592
49.696943388858315
49.18072478198236
46.29903282048302
45.13137602519606
81.213717950225
72.81986185342387
70.63287795573802
65.20439996650452
62.56997412680501
61.03517000887999
60.00549882585485
58.333469802866254
55.39193447010454
51.27788894358264
47.16405865584392
44.263412360728246
43.303086056026835
44.338465545964475
47.05224966267455
50.87737653681892
53.91350708725773
55.317853080943756
56.435116098868946
57.21353964470082
57.78363275613769
58.14602833516404
58.37881947631886
58.50808432764246
58.55977714963596
58.55977714963596
58.53393168656795
58.45638396578716
58.352960970929296
58.22364136712143
58.04252008730926
57.83542321285629
57.472760310681174
57.03200471532282
56.538965148126906
55.91564065370042
55.038277416463444
54.17076922592446
47.950377659793574
42.56474001542632
88.3057126862382
83.89617382480807
78.26059657732213
71.86603241707373
66.0279028209288
61.37586559709422
57.54963337836358
53.8958839390622
48.32964129521791
43.091754498178545
40.00001481384995
39.50314101306664
41.424790186949956
45.28875708830031
50.579134333120294
53.523329563635734
55.577804397859005
56.876353848345545
57.73183597810813
58.275374580480225
58.61146234464593
58.81812511209902
58.53241619246816
58.169450202635076
57.78611344839679
57.40670838029291
56.989966212496576
56.53303246103181
56.06297223651187
55.54486493830853
54.97160161913747
54.31358754467066
53.609643854253115
52.943579232306156
51.9982143394804
50.85909743401151
49.789004326022514
48.97696468641273
48.07171083559182
46.170429544497395
95.26513072937539
38.90848928310983
8.396960451156005
5.49790746882357
9.58138690808238
13.596031418426804
18.21687099554741
23.994609567140003
30.81046789470747
38.22398553005412
45.97856563671893
50.06957359514139
53.731421460118305
55.91564065370042
57.34316742408034
58.046733953079034
57.95283347581679
57.763766706840016
57.52144665440283
57.2087067178067
56.84838214935115
56.473484436878955
56.047040313154234
55.58887386818209
55.099503933348245
54.614824281971025
54.09831312459534
53.652420834535306
53.25052617615168
52.948675328561094
52.771571887023356
52.630442758203394
52.49993693496179
52.383162578031666
52.53497370652746
53.55286998586133
56.143849017699
53.19940551046112
33.655964812359855
10.621217751633708
5.131553387734826
9.973196607761565
17.330742234019013
23.252100817992016
29.620121375319485
36.25153948527244
42.664978568238055
47.82369816251874
51.83348416152807
53.65992311803044
54.679714068118486
55.37138381187174
55.79871234896159
56.02736941673159
56.15580806165918
56.16115680630218
56.06279072570469
55.9061094234683
55.71985392895309
55.48080203121178
55.24407786853409
54.95892086586888
54.68272384368412
54.39823593799211
54.14698588873806
53.922018931268155
53.7816726711609
53.747383072693836
53.90377260140583
54.324474860240414
54.93694152218762
55.540618585350565
56.261006331558676
58.40852459251789
55.16010686459998
60.67755897569571
6.197353205592265
7.339383573890686
6.511565139802343
6.0311807385221385
10.038610219031426
16.132666189589102
23.69743059631746
31.463447818151195
38.4060059255243
43.679574400985686
47.2780825340192
49.83425644575864
51.678905911272324
52.95138802310858
53.697133418406125
53.962731230792244
53.88654753768491
53.676538300005355
53.46293891173238
53.26158340496396
53.09623948071792
52.95353477129118
52.87592261536143
52.79865879518735
52.77065087511833
52.73252916400442
52.74003649604173
52.77268855244895
52.87520137373611
53.021346635084036
53.31104836992497
53.767128986560934
54.51781988675457
55.912953593843405
58.39581139546314
60.41496179540099
60.748557083073074
56.82249598001615
54.91270395805755
50.654193342285325
)
;

boundaryField
{
    ".*"
    {
        type            zeroGradient;
    }
}


// ************************************************************************* //
