/*--------------------------------*- C++ -*----------------------------------*\
  =========                 |
  \\      /  F ield         | OpenFOAM: The Open Source CFD Toolbox
   \\    /   O peration     | Website:  https://openfoam.org
    \\  /    A nd           | Version:  6
     \\/     M anipulation  |
\*---------------------------------------------------------------------------*/
FoamFile
{
    version     2.0;
    format      ascii;
    class       volScalarField;
    location    "300";
    object      epsilon;
}
// * * * * * * * * * * * * * * * * * * * * * * * * * * * * * * * * * * * * * //

dimensions      [0 2 -3 0 0 0 0];

internalField   nonuniform List<scalar> 
458
(
0.00122069
0.00170004
0.00205675
0.00244379
0.00246195
0.00221541
0.00180186
0.00148084
0.00120146
0.000962128
0.000765307
0.000617864
0.00049589
0.00038553
0.000279948
4.51966e-05
7.04427e-05
0.000105518
0.000142118
0.0001617
0.000134531
0.000106548
8.55284e-05
7.0078e-05
5.84777e-05
4.96004e-05
4.26591e-05
3.70897e-05
3.2475e-05
2.84232e-05
2.45898e-05
2.11099e-05
1.59497e-05
0.00197063
0.00259351
0.00265107
0.00291053
0.00281922
0.00247886
0.00206132
0.0016683
0.00132422
0.00104465
0.00082907
0.000665263
0.000537188
0.00043315
0.000328216
0.000437586
0.000321809
0.000204306
4.10564e-05
4.35771e-05
9.36741e-05
0.000113148
0.000128809
0.000143161
0.000111531
8.3626e-05
6.3657e-05
4.94805e-05
3.93698e-05
3.20341e-05
2.65269e-05
2.2207e-05
1.93323e-05
1.80241e-05
2.93848e-05
2.3317e-05
0.00275068
0.00412233
0.0045529
0.00360822
0.00323722
0.00282476
0.00238093
0.00195065
0.00156953
0.0012537
0.0010014
0.000799019
0.000635458
0.000499498
0.000381216
0.000330524
0.000303405
0.000291565
4.45493e-05
7.4913e-05
9.71091e-05
0.000117782
0.000137206
0.000274922
0.000185873
0.000124782
8.52056e-05
5.97057e-05
4.30927e-05
3.20854e-05
2.48787e-05
2.09656e-05
1.73644e-05
1.60711e-05
4.75362e-05
3.11995e-05
0.00281847
0.0034824
0.00464069
0.00412906
0.00366466
0.00313439
0.00260213
0.00211762
0.00170345
0.00136631
0.00109755
0.000880333
0.000700992
0.000550214
0.000423957
0.00033589
0.00028146
0.000261627
0.000338391
0.00023056
0.000177596
0.00016366
0.000167846
0.000181166
0.000462186
0.000379697
0.000322148
0.000278149
0.000242002
0.000211081
0.000181802
0.000152487
0.000122108
7.23686e-05
4.14825e-05
8.68604e-05
4.45643e-05
0.00283022
0.00469811
0.00510726
0.00475726
0.00416392
0.00348671
0.00283709
0.00228275
0.00183113
0.00148183
0.00119184
0.000949117
0.000747061
0.000580309
0.000445866
0.000344978
0.00027664
0.000244654
0.000262088
0.000230795
0.000219635
0.000227718
0.000234425
0.000226688
0.000217947
0.000200952
0.00018888
0.000178448
0.000166699
0.000152371
0.000134969
0.000115344
9.50557e-05
7.15223e-05
5.00914e-05
6.85755e-05
8.00444e-05
9.86046e-05
0.000127853
0.000166807
0.00586214
0.0106768
0.00875667
0.00668872
0.00526319
0.00412976
0.00324166
0.00262883
0.0020874
0.00159997
0.00122476
0.000947178
0.000736695
0.000573323
0.000447485
0.000354766
0.000296573
0.000277634
0.000292678
0.000308511
0.000330369
0.000341253
0.000326686
0.000287642
0.000243326
0.000213729
0.000196949
0.000183426
0.000168136
0.000150216
0.00013002
0.000108978
8.90547e-05
7.09076e-05
5.71861e-05
5.89253e-05
7.39897e-05
8.93189e-05
0.000185359
0.000186258
0.00831688
0.0204895
0.010857
0.0062808
0.00452749
0.00310971
0.00222329
0.0018005
0.00150125
0.00123115
0.00100274
0.000815409
0.000659148
0.000535624
0.00044145
0.00037587
0.00034641
0.000360479
0.000407825
0.000453296
0.000465426
0.000438936
0.000383515
0.00031501
0.000255783
0.000220806
0.000202945
0.000190184
0.000177183
0.000162601
0.000146449
0.000129743
0.000113695
9.92474e-05
9.07758e-05
9.33032e-05
0.000114903
0.000161753
0.000291903
0.000315256
0.00840206
0.0161062
0.00664809
0.00193441
0.00139831
0.00106584
0.000959692
0.000935715
0.000917931
0.000854287
0.000768155
0.00067649
0.00058967
0.000516604
0.000462867
0.000433036
0.000436748
0.000477619
0.000526033
0.000540642
0.000507925
0.000433589
0.000350847
0.000280557
0.000233761
0.000210067
0.000200373
0.000197137
0.000197375
0.000200511
0.000206372
0.000215207
0.000228294
0.000250266
0.000292959
0.000411195
0.000676853
0.00114832
0.00352507
0.00115139
0.00585403
0.00700852
0.00926316
0.00170398
0.000583674
0.000508739
0.000533824
0.000572189
0.000609687
0.000618693
0.000605237
0.000577765
0.000545338
0.000516266
0.000496897
0.000491177
0.000500643
0.000515885
0.00051123
0.000470835
0.000403603
0.000328836
0.000264523
0.000218768
0.000192696
0.000182092
0.0001813
0.000187092
0.000199178
0.000219301
0.000250659
0.000297737
0.00036875
0.000475741
0.000632671
0.000849307
0.00110858
0.00135925
0.00156525
0.000963697
0.0186985
0.00246897
0.000532777
0.000393754
0.000409429
0.000440163
0.000473337
0.000497777
0.00051036
0.000511919
0.000505503
0.000494696
0.000482084
0.000468011
0.000449809
0.000420533
0.000373404
0.000312599
0.000250701
0.000199118
0.000162916
0.000141214
0.000130681
0.000127902
0.000130862
0.000139207
0.000153767
0.000176214
0.000209168
0.000256577
0.000324061
0.000418377
0.000543244
0.000688632
0.000817316
0.000873365
0.00083523
0.000509066
0.00189181
0.000999027
0.000444135
0.000385087
0.000389512
0.000404413
0.000423317
0.000439954
0.000448869
0.00044821
0.000437883
0.000418868
0.000392387
0.000359291
0.000320033
0.000275243
0.000227634
0.000182941
0.000146685
0.000121285
0.000105997
9.85765e-05
9.6919e-05
9.97507e-05
0.000106667
0.000117944
0.000134415
0.000157512
0.000189482
0.000233705
0.000294899
0.000378319
0.000485873
0.000608295
0.00071315
0.000822768
0.000695852
0.00053384
0.000729652
0.000814122
0.000862672
0.000585152
0.000570245
0.000594559
0.000621702
0.000645805
0.000666707
0.000678584
0.00067525
0.000656302
0.000622744
0.000576546
0.000520133
0.000456141
0.000387628
0.000318635
0.000254621
0.0002012
0.000161544
0.000135525
0.00012075
0.000114248
0.000113658
0.000117583
0.000125454
0.000137259
0.000153378
0.00017452
0.000201743
0.000236535
0.000280957
0.000337737
0.000409799
0.000503515
0.000562028
0.000528561
0.000422825
0.000338212
)
;

boundaryField
{
    floor
    {
        Cmu             0.09;
        kappa           0.41;
        E               9.8;
        type            epsilonWallFunction;
        value           nonuniform List<scalar> 
36
(
0.000279948
4.51966e-05
7.04427e-05
0.000105518
0.000142118
0.0001617
0.000134531
0.000106548
8.55284e-05
7.0078e-05
5.84777e-05
4.96004e-05
4.26591e-05
3.70897e-05
3.2475e-05
2.84232e-05
2.45898e-05
2.11099e-05
1.59497e-05
1.59497e-05
2.3317e-05
3.11995e-05
4.45643e-05
9.86046e-05
0.000127853
0.000166807
0.000279948
0.000437586
0.000321809
0.000204306
4.51966e-05
0.000204306
4.10564e-05
0.000291565
4.45493e-05
0.000338391
)
;
    }
    ceiling
    {
        Cmu             0.09;
        kappa           0.41;
        E               9.8;
        type            epsilonWallFunction;
        value           nonuniform List<scalar> 
43
(
0.000729652
0.000814122
0.000862672
0.000585152
0.000570245
0.000594559
0.000621702
0.000645805
0.000666707
0.000678584
0.00067525
0.000656302
0.000622744
0.000576546
0.000520133
0.000456141
0.000387628
0.000318635
0.000254621
0.0002012
0.000161544
0.000135525
0.00012075
0.000114248
0.000113658
0.000117583
0.000125454
0.000137259
0.000153378
0.00017452
0.000201743
0.000236535
0.000280957
0.000337737
0.000409799
0.000503515
0.000562028
0.000528561
0.000422825
0.000338212
0.00585403
0.00700852
0.00189181
)
;
    }
    sWall
    {
        Cmu             0.09;
        kappa           0.41;
        E               9.8;
        type            epsilonWallFunction;
        value           uniform 0.000729652;
    }
    nWall
    {
        Cmu             0.09;
        kappa           0.41;
        E               9.8;
        type            epsilonWallFunction;
        value           nonuniform List<scalar> 6(0.000166807 0.000186258 0.000315256 0.000509066 0.00053384 0.000338212);
    }
    sideWalls
    {
        type            empty;
    }
    glass1
    {
        Cmu             0.09;
        kappa           0.41;
        E               9.8;
        type            epsilonWallFunction;
        value           nonuniform List<scalar> 9(0.00122069 0.00197063 0.00275068 0.00281847 0.00283022 0.00586214 0.00831688 0.00840206 0.00585403);
    }
    glass2
    {
        Cmu             0.09;
        kappa           0.41;
        E               9.8;
        type            epsilonWallFunction;
        value           nonuniform List<scalar> 2(0.00115139 0.000963697);
    }
    sun
    {
        Cmu             0.09;
        kappa           0.41;
        E               9.8;
        type            epsilonWallFunction;
        value           nonuniform List<scalar> 
14
(
0.00122069
0.00170004
0.00205675
0.00244379
0.00246195
0.00221541
0.00180186
0.00148084
0.00120146
0.000962128
0.000765307
0.000617864
0.00049589
0.00038553
)
;
    }
    Table_master
    {
        Cmu             0.09;
        kappa           0.41;
        E               9.8;
        type            epsilonWallFunction;
        value           nonuniform List<scalar> 9(0.000274922 0.000185873 0.000124782 8.52056e-05 5.97057e-05 4.30927e-05 3.20854e-05 2.48787e-05 2.09656e-05);
    }
    Table_slave
    {
        Cmu             0.09;
        kappa           0.41;
        E               9.8;
        type            epsilonWallFunction;
        value           nonuniform List<scalar> 9(0.000462186 0.000379697 0.000322148 0.000278149 0.000242002 0.000211081 0.000181802 0.000152487 0.000122108);
    }
    inlet
    {
        type            turbulentMixingLengthDissipationRateInlet;
        mixingLength    0.01;
        phi             phi;
        k               k;
        value           uniform 0.000101881;
    }
    outlet
    {
        type            zeroGradient;
    }
}


// ************************************************************************* //
