/*--------------------------------*- C++ -*----------------------------------*\
  =========                 |
  \\      /  F ield         | OpenFOAM: The Open Source CFD Toolbox
   \\    /   O peration     | Website:  https://openfoam.org
    \\  /    A nd           | Version:  6
     \\/     M anipulation  |
\*---------------------------------------------------------------------------*/
FoamFile
{
    version     2.0;
    format      ascii;
    class       volScalarField;
    location    "300";
    object      nut;
}
// * * * * * * * * * * * * * * * * * * * * * * * * * * * * * * * * * * * * * //

dimensions      [0 2 -1 0 0 0 0];

internalField   nonuniform List<scalar> 
458
(
0.00151097
0.00168735
0.00179795
0.00190434
0.00190906
0.00184312
0.0017204
0.00161146
0.00150295
0.00139565
0.0012931
0.00120404
0.00111891
0.00102883
0.000924711
0.000503604
0.000583895
0.000668093
0.000737804
0.000770231
0.000724423
0.000670243
0.000622902
0.000582875
0.000548754
0.000519449
0.00049399
0.000471482
0.000451056
0.000431458
0.000411117
0.00039073
0.000355876
0.00177256
0.00407292
0.00438152
0.00435996
0.00441374
0.00443885
0.00437259
0.00424735
0.00407176
0.00387268
0.00365045
0.00335997
0.00301248
0.00257778
0.00194175
0.00107329
0.000968768
0.00083261
0.000487728
0.00086981
0.00162782
0.00219633
0.00247617
0.0017173
0.00143511
0.00124914
0.00111834
0.00102309
0.000951886
0.000898052
0.000852674
0.000794347
0.0007301
0.00067073
0.000730523
0.000403906
0.001981
0.00515784
0.00478931
0.00416984
0.00416015
0.0042407
0.00430027
0.0043031
0.00425275
0.00417067
0.00405985
0.00390621
0.00369033
0.00337003
0.00288862
0.00227894
0.00193039
0.000937447
0.000501192
0.000876194
0.00151835
0.00238198
0.00283109
0.000919305
0.000806856
0.000706496
0.000622133
0.000552587
0.000495677
0.000449264
0.000412739
0.000389852
0.000466082
0.000562324
0.000865542
0.000445086
0.00199724
0.00423294
0.00378712
0.00368966
0.00380639
0.00396012
0.00408554
0.00414941
0.00415029
0.00411751
0.00408014
0.00402138
0.00391169
0.0037133
0.00339126
0.00295476
0.00250036
0.00161968
0.000985208
0.000992294
0.00137413
0.00221007
0.00323759
0.00371374
0.00109309
0.00102375
0.00096917
0.000922867
0.000881019
0.000841771
0.000800898
0.000755304
0.000701389
0.000643375
0.000607808
0.00101352
0.000501254
0.00199998
0.00268585
0.00310243
0.00339575
0.00369739
0.00398817
0.00421914
0.00435439
0.00439384
0.0044292
0.00441272
0.00434261
0.00421669
0.00402227
0.00374513
0.00338666
0.00298031
0.00242139
0.00217544
0.00236675
0.00304993
0.00405962
0.00502649
0.00560117
0.00526368
0.00497639
0.0047712
0.00458565
0.00433986
0.00395865
0.00346407
0.00287574
0.00223124
0.00163237
0.00118308
0.00111453
0.000816612
0.000653176
0.000712247
0.00077827
0.00254912
0.00377422
0.00388538
0.00393824
0.00428511
0.00473505
0.00514699
0.00541065
0.00553459
0.005396
0.00516397
0.00492321
0.00468578
0.00443841
0.00416936
0.00388384
0.00362968
0.00344991
0.00367033
0.00444733
0.00546352
0.00640382
0.00704061
0.00730092
0.00723002
0.00707543
0.00688621
0.00661811
0.00621558
0.00568891
0.00504522
0.00429421
0.00346455
0.0026369
0.00195215
0.00146046
0.00111413
0.000926878
0.00116088
0.000807415
0.00286449
0.00531499
0.00440118
0.00432038
0.00528638
0.00624386
0.00708281
0.00718396
0.00650085
0.00602365
0.00569048
0.00542727
0.00520026
0.00500076
0.00483184
0.00472691
0.00477598
0.00510851
0.00591646
0.0069893
0.00782965
0.00833415
0.00849906
0.00839512
0.00815131
0.00787608
0.0075574
0.00716353
0.00668543
0.00613517
0.00551931
0.00483912
0.00410876
0.00335565
0.00267859
0.00210371
0.0016947
0.00149737
0.00138735
0.000962232
0.00287428
0.00470874
0.00329886
0.00492707
0.00625673
0.00674966
0.0070065
0.00688191
0.0065546
0.00630476
0.00613537
0.00601633
0.00594132
0.00591702
0.00596731
0.00613967
0.00651245
0.00717046
0.00803948
0.00878932
0.0091718
0.00918579
0.00891269
0.00846978
0.00795698
0.00743923
0.00692644
0.00640886
0.0058919
0.00539729
0.00494129
0.00448738
0.00403774
0.00356103
0.00314565
0.00289144
0.00284249
0.00291591
0.00341847
0.00148184
0.00254807
0.00270564
0.00243659
0.00421009
0.00596553
0.00666291
0.00685307
0.00687142
0.00681139
0.00678706
0.00680843
0.00686832
0.00696796
0.0071156
0.00732786
0.0076265
0.008027
0.00850297
0.00892326
0.00910462
0.00896975
0.00855573
0.00794737
0.00723397
0.00649958
0.00580929
0.00517663
0.00458951
0.00404818
0.00356945
0.00317287
0.00286901
0.00263953
0.00247754
0.00237884
0.00232789
0.00226862
0.00216228
0.00202404
0.00139649
0.00264398
0.00401814
0.00545145
0.00622693
0.00657297
0.0068164
0.00698242
0.00712445
0.00727409
0.00742972
0.00758908
0.00775201
0.00791851
0.00808197
0.00821865
0.00827408
0.00816652
0.00783538
0.00728129
0.00655751
0.0057481
0.00495139
0.00424861
0.00367263
0.00321864
0.00287372
0.00262525
0.00245754
0.00235233
0.00229268
0.00226417
0.00225552
0.00225085
0.0022211
0.00212539
0.00194777
0.00171814
0.00112886
0.00174856
0.00436033
0.00440583
0.00463645
0.00501804
0.00539824
0.00569794
0.00592197
0.00610854
0.00625657
0.00636416
0.00642956
0.00644794
0.00640697
0.0062834
0.00604399
0.00565945
0.00512801
0.00448859
0.00382159
0.00322336
0.00275669
0.00242843
0.00221283
0.00208081
0.00201035
0.00198564
0.00199517
0.00203083
0.00208715
0.00215955
0.00224055
0.00231355
0.00235166
0.00232384
0.00230266
0.00221708
0.00114688
0.0012728
0.00132014
0.00134587
0.00118253
0.00117239
0.00118882
0.00120664
0.00122203
0.00123508
0.00124236
0.00124031
0.00122858
0.00120726
0.00117661
0.00113689
0.00108819
0.0010307
0.00096549
0.000895924
0.000828275
0.000769827
0.000726062
0.000698673
0.000685923
0.000684763
0.000692578
0.000707716
0.000729267
0.000756777
0.000790074
0.000829194
0.000874361
0.000925992
0.000984588
0.00105015
0.00112478
0.00116676
0.00114313
0.00106117
0.000985047
)
;

boundaryField
{
    floor
    {
        type            nutkWallFunction;
        Cmu             0.09;
        kappa           0.41;
        E               9.8;
        value           nonuniform List<scalar> 
36
(
0.000111832
6.01756e-05
7.03322e-05
8.08005e-05
8.93478e-05
9.32915e-05
8.7716e-05
8.1067e-05
7.52042e-05
7.0205e-05
6.59103e-05
6.21953e-05
5.89468e-05
5.60575e-05
5.34203e-05
5.08759e-05
4.82195e-05
4.55401e-05
4.0917e-05
4.0917e-05
4.72717e-05
5.26433e-05
5.98716e-05
7.89548e-05
8.62239e-05
9.42645e-05
0.000111832
0.000129305
0.00011704
0.000100827
6.01755e-05
0.000100827
5.81445e-05
0.000113332
5.98666e-05
0.000118972
)
;
    }
    ceiling
    {
        type            nutkWallFunction;
        Cmu             0.09;
        kappa           0.41;
        E               9.8;
        value           nonuniform List<scalar> 
43
(
0.00015236
0.000157766
0.000160697
0.000141985
0.000140816
0.000142713
0.000144767
0.000146539
0.000148039
0.000148876
0.000148643
0.000147297
0.000144846
0.000141314
0.000136719
0.00013106
0.000124342
0.000116668
0.000108415
0.000100317
9.32564e-05
8.79275e-05
8.45721e-05
8.30036e-05
8.28588e-05
8.38177e-05
8.56734e-05
8.83079e-05
9.16582e-05
9.56944e-05
0.000100411
0.000105825
0.000111975
0.000118906
0.000126606
0.000135304
0.000140168
0.000137432
0.000127894
0.000118961
0.000292206
0.00030879
0.000205809
)
;
    }
    sWall
    {
        type            nutkWallFunction;
        Cmu             0.09;
        kappa           0.41;
        E               9.8;
        value           uniform 0.000152396;
    }
    nWall
    {
        type            nutkWallFunction;
        Cmu             0.09;
        kappa           0.41;
        E               9.8;
        value           nonuniform List<scalar> 6(9.42645e-05 9.77884e-05 0.000116271 0.000135791 0.000137881 0.000118967);
    }
    sideWalls
    {
        type            empty;
    }
    glass1
    {
        type            nutkWallFunction;
        Cmu             0.09;
        kappa           0.41;
        E               9.8;
        value           nonuniform List<scalar> 9(0.000179589 0.000208769 0.000231683 0.000233454 0.000233763 0.0002929 0.000326178 0.000327184 0.000292716);
    }
    glass2
    {
        type            nutkWallFunction;
        Cmu             0.09;
        kappa           0.41;
        E               9.8;
        value           nonuniform List<scalar> 2(0.000176166 0.000166522);
    }
    sun
    {
        type            nutkWallFunction;
        Cmu             0.09;
        kappa           0.41;
        E               9.8;
        value           nonuniform List<scalar> 
14
(
0.000179352
0.000199032
0.00021126
0.000222944
0.000223458
0.000216221
0.000202689
0.000190587
0.000178444
0.000166341
0.000154678
0.000144464
0.000134622
0.000124112
)
;
    }
    Table_master
    {
        type            nutkWallFunction;
        Cmu             0.09;
        kappa           0.41;
        E               9.8;
        value           nonuniform List<scalar> 9(0.000111175 9.77194e-05 8.5523e-05 7.51103e-05 6.63978e-05 5.9168e-05 5.31953e-05 4.84407e-05 4.54344e-05);
    }
    Table_slave
    {
        type            nutkWallFunction;
        Cmu             0.09;
        kappa           0.41;
        E               9.8;
        value           nonuniform List<scalar> 9(0.000131608 0.000123505 0.000117083 0.000111601 0.00010662 0.000101922 9.70031e-05 9.14804e-05 8.48984e-05);
    }
    inlet
    {
        type            calculated;
        value           uniform 0.000100623;
    }
    outlet
    {
        type            calculated;
        value           nonuniform List<scalar> 2(0.0012728 0.00132014);
    }
}


// ************************************************************************* //
