// -*- C++ -*-
// File generated by PyFoam - sorry for the ugliness

FoamFile
{
 version 2.0;
 format ascii;
 class volVectorField;
 location "300";
 object U;
}

dimensions [ 0 1 -1 0 0 0 0 ];

internalField nonuniform List<vector> 458
(
  (-0.047555 0.100185 0)
  (-0.222187 0.0183508 0)
  (-0.227354 -0.0247293 0)
  (-0.174507 -0.0576618 0)
  (-0.101557 -0.0737011 0)
  (-0.0222005 -0.0702235 0)
  (0.0527639 -0.0500253 0)
  (0.0977918 -0.0330789 0)
  (0.12905 -0.0200549 0)
  (0.145313 -0.0105112 0)
  (0.14871 -0.00333288 0)
  (0.142326 0.00298365 0)
  (0.127122 0.0100851 0)
  (0.100675 0.0227232 0)
  (0.069585 0.0581944 0)
  (-0.0211854 0.0183254 0)
  (-0.0554156 -0.011479 0)
  (-0.0350153 -0.0288182 0)
  (-0.00793634 -0.036579 0)
  (0.0309598 -0.0308878 0)
  (0.0527169 -0.0167395 0)
  (0.0682153 -0.0092629 0)
  (0.0766942 -0.00663932 0)
  (0.0808102 -0.00568122 0)
  (0.0833122 -0.00505175 0)
  (0.0851602 -0.00450834 0)
  (0.0863858 -0.00396427 0)
  (0.0866961 -0.00320369 0)
  (0.0852965 -0.00176894 0)
  (0.0808657 0.000839629 0)
  (0.0717691 0.0045048 0)
  (0.0580664 0.0100688 0)
  (0.00944751 0.0283765 0)
  (0.133234 0.221001 0)
  (-0.17083 0.0821434 0)
  (-0.125909 -0.0187639 0)
  (-0.0562407 -0.104435 0)
  (0.00897178 -0.126179 0)
  (0.0665934 -0.110114 0)
  (0.111419 -0.0819515 0)
  (0.144213 -0.0524446 0)
  (0.164505 -0.0278574 0)
  (0.17294 -0.00890935 0)
  (0.171897 0.00556247 0)
  (0.163458 0.0173171 0)
  (0.149989 0.0286325 0)
  (0.135908 0.0427818 0)
  (0.124781 0.0676092 0)
  (0.129211 0.0670676 0)
  (0.0916987 0.0678907 0)
  (-6.18682e-05 0.0839886 0)
  (0.040659 0.0514996 0)
  (-0.0237293 -0.00344277 0)
  (0.0248218 -0.0473567 0)
  (0.039197 -0.0523946 0)
  (0.0581762 -0.047009 0)
  (0.0680854 -0.0226844 0)
  (0.0709103 -0.00694941 0)
  (0.0715372 -0.00128274 0)
  (0.0721146 0.00052657 0)
  (0.0727898 0.00145731 0)
  (0.0732744 0.00211135 0)
  (0.0735412 0.00282174 0)
  (0.0735855 0.00418028 0)
  (0.0726801 0.00690884 0)
  (0.0687534 0.0128623 0)
  (0.0592135 0.020045 0)
  (0.049838 0.0294902 0)
  (-0.0330056 0.0591943 0)
  (0.294877 0.322339 0)
  (-0.168926 0.0924629 0)
  (0.00984759 -0.1144 0)
  (0.0842808 -0.188139 0)
  (0.125659 -0.184336 0)
  (0.159854 -0.154462 0)
  (0.185485 -0.113741 0)
  (0.201251 -0.0728407 0)
  (0.20754 -0.0378721 0)
  (0.205568 -0.0104937 0)
  (0.197367 0.0107994 0)
  (0.184061 0.0277315 0)
  (0.168167 0.0420664 0)
  (0.152691 0.0553704 0)
  (0.139638 0.0669913 0)
  (0.126668 0.0597211 0)
  (0.0996354 0.0615126 0)
  (0.01455 0.0951698 0)
  (0.116345 0.022344 0)
  (0.0734689 -0.0261421 0)
  (0.0732228 -0.0535618 0)
  (0.0793096 -0.0634112 0)
  (0.0875279 -0.0644441 0)
  (0.0896983 -0.0480305 0)
  (0.0726295 -0.0306605 0)
  (0.0591211 -0.0210406 0)
  (0.0533764 -0.0156573 0)
  (0.0509002 -0.0121423 0)
  (0.0490523 -0.00972978 0)
  (0.0475404 -0.00793175 0)
  (0.0470638 -0.00589729 0)
  (0.0494372 -0.000894676 0)
  (0.050627 0.0165296 0)
  (0.0431908 0.030728 0)
  (0.0477877 0.0458117 0)
  (-0.0748659 0.0883923 0)
  (0.48512 0.394006 0)
  (-0.140197 -0.062305 0)
  (0.172309 -0.235951 0)
  (0.232142 -0.249327 0)
  (0.251307 -0.220985 0)
  (0.257452 -0.176764 0)
  (0.257881 -0.126107 0)
  (0.253226 -0.0770897 0)
  (0.244001 -0.0351526 0)
  (0.230653 -0.00146475 0)
  (0.212436 0.0249758 0)
  (0.191897 0.04487 0)
  (0.171417 0.0596006 0)
  (0.153028 0.0706346 0)
  (0.138253 0.0783737 0)
  (0.126472 0.0790005 0)
  (0.121807 0.0847698 0)
  (0.103999 0.107457 0)
  (0.138869 0.104463 0)
  (0.120358 0.0287728 0)
  (0.110792 -0.0204506 0)
  (0.107692 -0.0485574 0)
  (0.10054 -0.0593961 0)
  (0.0871727 -0.0581663 0)
  (0.0829772 -0.0342507 0)
  (0.0981931 -0.0207339 0)
  (0.109368 -0.0134766 0)
  (0.113248 -0.00913459 0)
  (0.112951 -0.00589477 0)
  (0.110082 -0.00300287 0)
  (0.104601 -4.69334e-05 0)
  (0.0953549 0.0036 0)
  (0.0808884 0.00870928 0)
  (0.0618007 0.0248414 0)
  (0.0451292 0.0428876 0)
  (0.0567253 0.062573 0)
  (-0.103486 0.112325 0)
  (0.681067 0.423422 0)
  (0.363123 0.00351765 0)
  (0.368144 -0.188729 0)
  (0.388269 -0.227833 0)
  (0.361321 -0.205462 0)
  (0.322468 -0.161246 0)
  (0.290017 -0.109987 0)
  (0.263485 -0.0607583 0)
  (0.239831 -0.0181142 0)
  (0.211427 0.0190823 0)
  (0.184321 0.0476063 0)
  (0.160618 0.0672733 0)
  (0.141106 0.0796014 0)
  (0.126206 0.0867841 0)
  (0.116475 0.0905312 0)
  (0.111302 0.09056 0)
  (0.113944 0.0911721 0)
  (0.118257 0.0869199 0)
  (0.131158 0.0431685 0)
  (0.130502 -0.0018042 0)
  (0.125702 -0.0291882 0)
  (0.11632 -0.0440616 0)
  (0.102875 -0.0482957 0)
  (0.0881105 -0.0419351 0)
  (0.080417 -0.0221347 0)
  (0.0808398 -0.00895394 0)
  (0.0817799 -0.00250305 0)
  (0.0807515 0.0011422 0)
  (0.0784357 0.00415346 0)
  (0.0759096 0.00729585 0)
  (0.0728395 0.0112087 0)
  (0.0686653 0.0167234 0)
  (0.0630016 0.0249922 0)
  (0.056089 0.0389543 0)
  (0.0465467 0.0562184 0)
  (0.070059 0.0786558 0)
  (9.19512e-05 0.117799 0)
  (0.0629027 0.150341 0)
  (-0.078114 0.0677314 0)
  (-0.272333 -0.00139093 0)
  (0.992948 -0.114069 0)
  (0.454315 -0.240575 0)
  (0.408585 -0.245422 0)
  (0.403223 -0.211094 0)
  (0.332521 -0.167714 0)
  (0.258691 -0.119162 0)
  (0.206202 -0.0701312 0)
  (0.171132 -0.0245222 0)
  (0.131526 0.0191999 0)
  (0.107629 0.0516839 0)
  (0.0929399 0.0733951 0)
  (0.0830472 0.0865292 0)
  (0.0764618 0.0933233 0)
  (0.0729448 0.0956514 0)
  (0.0728396 0.0947898 0)
  (0.0755309 0.0905613 0)
  (0.0827429 0.0842209 0)
  (0.0934889 0.0696212 0)
  (0.10496 0.0350007 0)
  (0.107819 0.00433142 0)
  (0.10237 -0.0170353 0)
  (0.0908466 -0.0292612 0)
  (0.0765166 -0.0326957 0)
  (0.0621766 -0.0280729 0)
  (0.0519078 -0.0167355 0)
  (0.047103 -0.00754548 0)
  (0.0449635 -0.00229621 0)
  (0.043552 0.000992571 0)
  (0.0430515 0.0038179 0)
  (0.0432482 0.00701526 0)
  (0.043937 0.0113896 0)
  (0.0449571 0.0178253 0)
  (0.0463254 0.0272393 0)
  (0.0486363 0.0406758 0)
  (0.0497388 0.0573838 0)
  (0.0729393 0.079903 0)
  (0.0618589 0.0991194 0)
  (0.100192 0.10062 0)
  (0.115498 0.0589239 0)
  (-0.132225 -0.0253759 0)
  (1.0159 -0.426027 0)
  (0.0496829 -0.28057 0)
  (0.101979 -0.163343 0)
  (0.157132 -0.100225 0)
  (0.0808586 -0.0783787 0)
  (0.0235374 -0.0498286 0)
  (-0.00351182 -0.0154005 0)
  (-0.0177026 0.0191467 0)
  (-0.0138858 0.0434497 0)
  (-0.0120933 0.0632884 0)
  (-0.00823076 0.0785205 0)
  (-0.00321702 0.088259 0)
  (0.00286673 0.0927395 0)
  (0.00996048 0.0927022 0)
  (0.0184695 0.0891912 0)
  (0.0279131 0.0821505 0)
  (0.0394608 0.072179 0)
  (0.0526532 0.0557584 0)
  (0.0622044 0.0299995 0)
  (0.0632528 0.0069245 0)
  (0.0578472 -0.00890932 0)
  (0.0469648 -0.0172584 0)
  (0.0338806 -0.0191714 0)
  (0.0212245 -0.0159501 0)
  (0.0118145 -0.00943531 0)
  (0.00689977 -0.00387678 0)
  (0.00519495 -0.000662502 0)
  (0.00550963 0.00117145 0)
  (0.00726627 0.00276723 0)
  (0.010208 0.00499859 0)
  (0.014339 0.00855042 0)
  (0.0197026 0.0141271 0)
  (0.0265544 0.0223859 0)
  (0.0355364 0.0336819 0)
  (0.0449849 0.0472577 0)
  (0.0664439 0.0651568 0)
  (0.081031 0.0745068 0)
  (0.115313 0.0667078 0)
  (0.158633 0.0532163 0)
  (-0.0250517 0.0947568 0)
  (0.826831 -0.349326 0)
  (-0.40048 -0.173068 0)
  (-0.165859 -0.154818 0)
  (-0.0700156 -0.0656766 0)
  (-0.125709 -0.06034 0)
  (-0.127707 -0.0408548 0)
  (-0.128079 -0.0181904 0)
  (-0.12425 0.0064365 0)
  (-0.11606 0.0304751 0)
  (-0.106238 0.0512556 0)
  (-0.0942611 0.0666606 0)
  (-0.0810834 0.0762786 0)
  (-0.0672717 0.0805394 0)
  (-0.0531956 0.0802317 0)
  (-0.0389523 0.0762126 0)
  (-0.0249596 0.0688177 0)
  (-0.0109287 0.0585171 0)
  (0.00215343 0.043764 0)
  (0.00910081 0.0253138 0)
  (0.00861416 0.009698 0)
  (0.0031632 -0.000867263 0)
  (-0.00572474 -0.00637618 0)
  (-0.0160319 -0.00759802 0)
  (-0.0251295 -0.00618251 0)
  (-0.0313665 -0.00360376 0)
  (-0.0343755 -0.00164474 0)
  (-0.0350044 -0.000859479 0)
  (-0.0340511 -0.000828906 0)
  (-0.0318203 -0.000914117 0)
  (-0.0283152 -0.000522917 0)
  (-0.0231893 0.000868111 0)
  (-0.0168842 0.00355601 0)
  (-0.00876161 0.0077169 0)
  (0.00249077 0.0136814 0)
  (0.0147981 0.0201986 0)
  (0.0334822 0.0279762 0)
  (0.0519905 0.0247586 0)
  (0.0791497 0.00740261 0)
  (0.146081 0.0462237 0)
  (-0.412139 0.204927 0)
  (0.679722 -0.2856 0)
  (-0.498743 -0.254044 0)
  (-0.440095 -0.261947 0)
  (-0.158426 -0.118555 0)
  (-0.209322 -0.072936 0)
  (-0.200818 -0.0465682 0)
  (-0.199397 -0.0237134 0)
  (-0.196505 -0.00183307 0)
  (-0.188542 0.0189156 0)
  (-0.177453 0.036866 0)
  (-0.163134 0.0504529 0)
  (-0.146767 0.059112 0)
  (-0.129398 0.0630648 0)
  (-0.111889 0.0629419 0)
  (-0.0949063 0.0594865 0)
  (-0.0791478 0.0532689 0)
  (-0.0651769 0.0448829 0)
  (-0.0543783 0.0345219 0)
  (-0.0491258 0.0231485 0)
  (-0.0494076 0.0133325 0)
  (-0.0534717 0.00627414 0)
  (-0.0591876 0.0020422 0)
  (-0.0650798 -5.26292e-06 0)
  (-0.0701996 -0.000657045 0)
  (-0.0737827 -0.00070567 0)
  (-0.0758737 -0.000878068 0)
  (-0.0771566 -0.00136607 0)
  (-0.0784358 -0.00192643 0)
  (-0.0804114 -0.002122 0)
  (-0.0836847 -0.00138907 0)
  (-0.0887095 0.000962524 0)
  (-0.0955457 0.00567251 0)
  (-0.105495 0.0136043 0)
  (-0.120312 0.0257464 0)
  (-0.143147 0.042518 0)
  (-0.17664 0.0628878 0)
  (-0.223338 0.0829292 0)
  (-0.276647 0.0993213 0)
  (-0.351303 0.110326 0)
  (-0.631378 0.114568 0)
  (-0.750407 -0.248148 0)
  (-0.124774 -0.117779 0)
  (-0.218696 -0.0674627 0)
  (-0.235252 -0.0413366 0)
  (-0.243179 -0.0216895 0)
  (-0.245177 -0.00447295 0)
  (-0.24082 0.0111799 0)
  (-0.231333 0.0246668 0)
  (-0.217636 0.0350166 0)
  (-0.201114 0.0418236 0)
  (-0.183141 0.0451809 0)
  (-0.164943 0.0455343 0)
  (-0.147566 0.0434902 0)
  (-0.131927 0.0396469 0)
  (-0.118811 0.0345829 0)
  (-0.109126 0.0286855 0)
  (-0.103659 0.0225 0)
  (-0.102037 0.0169794 0)
  (-0.103121 0.0126736 0)
  (-0.105646 0.00977719 0)
  (-0.108588 0.00810785 0)
  (-0.111319 0.00720543 0)
  (-0.113627 0.00661914 0)
  (-0.115681 0.00608056 0)
  (-0.117774 0.0056119 0)
  (-0.120101 0.00545732 0)
  (-0.122714 0.00599079 0)
  (-0.125591 0.00768519 0)
  (-0.128684 0.0111431 0)
  (-0.131871 0.0171596 0)
  (-0.135023 0.0267156 0)
  (-0.138135 0.0407623 0)
  (-0.141735 0.0593482 0)
  (-0.146184 0.0796872 0)
  (-0.14827 0.0922941 0)
  (-0.134723 0.075169 0)
  (-0.108752 -0.0142891 0)
  (-0.275206 -0.199511 0)
  (-0.132718 0.100586 0)
  (-0.173018 -0.0360778 0)
  (-0.236278 -0.033666 0)
  (-0.264006 -0.0232181 0)
  (-0.278162 -0.01299 0)
  (-0.283647 -0.00346351 0)
  (-0.281962 0.00528836 0)
  (-0.274359 0.012865 0)
  (-0.262083 0.0186371 0)
  (-0.246529 0.0222962 0)
  (-0.229148 0.0238533 0)
  (-0.211273 0.0235619 0)
  (-0.194026 0.0217922 0)
  (-0.178301 0.0189081 0)
  (-0.16477 0.0151884 0)
  (-0.153972 0.0107466 0)
  (-0.146224 0.00572247 0)
  (-0.141359 0.000475499 0)
  (-0.138835 -0.00458383 0)
  (-0.137936 -0.00897834 0)
  (-0.137918 -0.0122891 0)
  (-0.138179 -0.0143332 0)
  (-0.138367 -0.0151734 0)
  (-0.138358 -0.0149917 0)
  (-0.138136 -0.0139335 0)
  (-0.13768 -0.0120446 0)
  (-0.136911 -0.0092597 0)
  (-0.135638 -0.00538883 0)
  (-0.133439 -8.41897e-05 0)
  (-0.129484 0.00722789 0)
  (-0.122438 0.0174173 0)
  (-0.110791 0.0315644 0)
  (-0.0936944 0.0501513 0)
  (-0.0716098 0.0708603 0)
  (-0.0462089 0.0864442 0)
  (-0.0124447 0.0792094 0)
  (0.146377 0.00277061 0)
  (-0.206929 -0.111524 0)
  (0.0238134 -0.295214 0)
  (-0.384744 -0.115878 0)
  (-0.319245 0.0540946 0)
  (-0.291271 -0.0118865 0)
  (-0.291046 -0.0194006 0)
  (-0.306151 -0.0171766 0)
  (-0.317823 -0.0125813 0)
  (-0.323544 -0.00734625 0)
  (-0.322843 -0.00200721 0)
  (-0.316248 0.00318736 0)
  (-0.304809 0.00802827 0)
  (-0.289737 0.0124552 0)
  (-0.272381 0.0165393 0)
  (-0.253975 0.0204379 0)
  (-0.235512 0.024334 0)
  (-0.21772 0.0283833 0)
  (-0.201112 0.0326783 0)
  (-0.186083 0.0372179 0)
  (-0.17294 0.0419166 0)
  (-0.16183 0.0465783 0)
  (-0.152734 0.0508258 0)
  (-0.145493 0.0541514 0)
  (-0.13985 0.056084 0)
  (-0.13551 0.0563899 0)
  (-0.132195 0.0551383 0)
  (-0.129667 0.0525991 0)
  (-0.127696 0.0491308 0)
  (-0.126005 0.0451424 0)
  (-0.124203 0.0410926 0)
  (-0.1217 0.0374837 0)
  (-0.117542 0.0348561 0)
  (-0.110128 0.0338123 0)
  (-0.0970479 0.0350984 0)
  (-0.0757704 0.0396782 0)
  (-0.0454081 0.0484698 0)
  (-0.00308795 0.0618609 0)
  (0.0477344 0.068698 0)
  (0.0916116 0.0548362 0)
  (0.163745 0.0244517 0)
  (-0.231684 -0.0292261 0)
)
;

boundaryField
{
  floor
  {
    type noSlip;
  }
  ceiling
  {
    type noSlip;
  }
  sWall
  {
    type noSlip;
  }
  nWall
  {
    type noSlip;
  }
  sideWalls
  {
    type empty;
  }
  glass1
  {
    type noSlip;
  }
  glass2
  {
    type noSlip;
  }
  sun
  {
    type noSlip;
  }
  Table_master
  {
    type noSlip;
  }
  Table_slave
  {
    type noSlip;
  }
  inlet
  {
    type fixedValue;
    value uniform (0.707107 -0.707107 0);
  }
  outlet
  {
    type zeroGradient;
  }
} 	// ************************************************************************* //

