/*--------------------------------*- C++ -*----------------------------------*\
  =========                 |
  \\      /  F ield         | OpenFOAM: The Open Source CFD Toolbox
   \\    /   O peration     | Website:  https://openfoam.org
    \\  /    A nd           | Version:  6
     \\/     M anipulation  |
\*---------------------------------------------------------------------------*/
FoamFile
{
    version     2.0;
    format      ascii;
    class       volScalarField;
    location    "1400";
    object      epsilon;
}
// * * * * * * * * * * * * * * * * * * * * * * * * * * * * * * * * * * * * * //

dimensions      [0 2 -3 0 0 0 0];

internalField   nonuniform List<scalar> 
458
(
0.000117527
0.000129656
0.000114676
0.000127191
0.000139621
0.000151244
0.000162127
0.00017253
0.000182853
0.000193729
0.000203162
0.000209968
0.00021401
0.00021638
0.000217167
2.15417e-05
3.85161e-05
4.13913e-05
3.66117e-05
3.00169e-05
2.17435e-05
1.4506e-05
5.75881e-06
2.19823e-06
2.43154e-06
3.16659e-06
3.71012e-06
3.73276e-06
3.57997e-06
3.96097e-06
6.53375e-06
1.00274e-05
8.10385e-06
0.000501031
0.00114696
0.000124527
9.82327e-05
9.86676e-05
0.000100934
0.00010408
0.00010883
0.000116042
0.000126578
0.000138938
0.000151633
0.000163407
0.000174231
0.000192647
0.000249663
0.000218416
7.557e-05
4.28929e-05
6.63407e-05
4.407e-05
3.30094e-05
2.88151e-05
2.03584e-05
1.34953e-05
8.84135e-06
7.18719e-06
6.99401e-06
7.25039e-06
7.22055e-06
6.50062e-06
5.46962e-06
6.2507e-06
1.64783e-05
4.62629e-05
2.66358e-05
0.00123122
0.00383514
0.000252847
0.000107271
0.000101601
0.000105394
0.000111311
0.000119438
0.000130055
0.000143104
0.000157197
0.000168851
0.000175455
0.000176715
0.000176788
0.000183286
0.000201932
0.000262327
0.000128311
0.000109113
5.08407e-05
3.57437e-05
3.12171e-05
2.68387e-05
1.71129e-05
1.28566e-05
1.0753e-05
9.51651e-06
8.63514e-06
7.87692e-06
7.14808e-06
6.58854e-06
1.37252e-05
5.45398e-05
0.000189738
3.79983e-05
0.00246473
0.00889333
0.00060992
0.000133492
0.000112942
0.000120134
0.000130987
0.000144371
0.000160508
0.000179432
0.000199907
0.000215412
0.000221647
0.000218292
0.000208307
0.000197331
0.000196007
0.000217371
0.000257293
0.00011335
4.93345e-05
3.11952e-05
2.53387e-05
3.01077e-05
4.83686e-05
5.12608e-05
5.99454e-05
6.97653e-05
8.21725e-05
9.53087e-05
0.000105073
0.000106043
9.68603e-05
7.52144e-05
7.00582e-05
0.000174302
0.000119389
0.00430831
0.0161883
0.00150841
0.000199745
0.000129184
0.000135583
0.000151633
0.000172804
0.000199398
0.000231874
0.000267386
0.000292167
0.000299951
0.000292026
0.000272189
0.000245698
0.000218852
0.000191679
0.000147997
8.09181e-05
4.46008e-05
2.76506e-05
2.16919e-05
2.21449e-05
2.70738e-05
3.32586e-05
4.31952e-05
5.46278e-05
6.86546e-05
8.3581e-05
9.51785e-05
9.86058e-05
9.05894e-05
7.99633e-05
7.30655e-05
0.000102158
0.000150995
0.000189092
0.000153667
0.000194066
0.0068873
0.0234783
0.0037511
0.000498886
0.000205223
0.000174981
0.000185227
0.000210137
0.000247755
0.000303588
0.000365278
0.000399
0.000402725
0.000384558
0.000351915
0.000311872
0.000268217
0.000217076
0.00015588
9.67303e-05
5.57882e-05
3.36956e-05
2.38157e-05
2.08577e-05
2.34157e-05
3.12862e-05
4.39899e-05
6.24386e-05
8.49978e-05
0.000111473
0.000136465
0.000153571
0.000154307
0.000129385
0.000106217
9.89144e-05
0.000109536
0.000127038
0.000176314
0.000200777
0.0101574
0.027444
0.0089245
0.00239991
0.000916282
0.00048483
0.000375533
0.000356694
0.000376841
0.00045913
0.000535054
0.000553046
0.000531596
0.000488407
0.000433099
0.000374052
0.000314258
0.00025019
0.000181976
0.000119573
7.32389e-05
4.46307e-05
2.91646e-05
2.2251e-05
2.28905e-05
3.30289e-05
5.02894e-05
7.37299e-05
0.000104838
0.000144917
0.000187977
0.000229631
0.000261926
0.000257672
0.000221471
0.000204966
0.000215522
0.000236462
0.000361737
0.000377595
0.0110148
0.0328812
0.0170601
0.0109518
0.0060754
0.00316554
0.00182032
0.00124059
0.000999862
0.000922155
0.000857348
0.000776965
0.000687175
0.000596053
0.000508271
0.000425738
0.00034854
0.000274546
0.000203545
0.000140813
9.22047e-05
5.84641e-05
3.72911e-05
2.58194e-05
2.38724e-05
3.65849e-05
5.99416e-05
9.04618e-05
0.000130513
0.000181327
0.000243087
0.000316496
0.000403506
0.000510486
0.000600355
0.000750322
0.00106253
0.0012892
0.00309747
0.00101632
0.0102054
0.0174605
0.0155762
0.0117896
0.00859099
0.00596335
0.00408701
0.00286664
0.00211693
0.00162265
0.00127625
0.00102443
0.000833064
0.000681222
0.000556272
0.000450592
0.00035945
0.00027968
0.000209921
0.000151054
0.00010451
7.0252e-05
4.67993e-05
3.05218e-05
2.42867e-05
3.84683e-05
6.73063e-05
0.000102806
0.00014788
0.000205108
0.00027685
0.000365839
0.00047479
0.000605159
0.000757533
0.000935036
0.0011482
0.00134812
0.00155245
0.000925216
0.00791027
0.0145552
0.00889169
0.00613402
0.0043619
0.00316304
0.0023515
0.00179156
0.00138812
0.0010899
0.000864517
0.000689558
0.000549969
0.000435927
0.000341245
0.00026217
0.000196597
0.000143461
0.000101957
7.09606e-05
4.88677e-05
3.29102e-05
2.20762e-05
3.45588e-05
6.44267e-05
9.8294e-05
0.00013866
0.000188246
0.000248708
0.000321729
0.0004099
0.000515675
0.000640055
0.000759854
0.000852593
0.000876615
0.000837117
0.000518423
0.00611027
0.011505
0.0072812
0.00520273
0.00385123
0.00289238
0.00218653
0.00166966
0.00129063
0.00100715
0.000791368
0.000623617
0.000490384
0.000382651
0.00029461
0.000222652
0.000164529
0.00011864
8.34918e-05
5.7478e-05
3.8817e-05
2.53627e-05
1.72889e-05
2.49067e-05
4.55132e-05
7.08506e-05
0.000102811
0.000143765
0.000196574
0.00026502
0.000353741
0.000466355
0.000599835
0.000733843
0.000833499
0.000901949
0.000710437
0.000542913
0.0030257
0.00387178
0.00471143
0.00569744
0.00465887
0.0038667
0.00294854
0.00231616
0.0018211
0.00142985
0.0011181
0.000891912
0.000716045
0.000573058
0.000454078
0.000354315
0.000271056
0.000202624
0.000147753
0.00010519
7.34628e-05
5.08428e-05
3.54268e-05
2.51827e-05
1.85661e-05
2.22368e-05
3.49997e-05
5.1099e-05
7.21909e-05
9.94493e-05
0.000134338
0.000179837
0.000243696
0.000336967
0.000451015
0.00058885
0.000672931
0.000633775
0.00049509
0.000385797
)
;

boundaryField
{
    floor
    {
        Cmu             0.09;
        kappa           0.41;
        E               9.8;
        type            epsilonWallFunction;
        value           nonuniform List<scalar> 
36
(
0.000217167
2.15417e-05
3.85161e-05
4.13913e-05
3.66117e-05
3.00169e-05
2.17435e-05
1.4506e-05
5.75881e-06
2.19823e-06
2.43154e-06
3.16659e-06
3.71012e-06
3.73276e-06
3.57997e-06
3.96097e-06
6.53375e-06
1.00274e-05
8.10385e-06
8.10385e-06
2.66358e-05
3.79983e-05
0.000119389
0.000189092
0.000153667
0.000194066
0.000217167
0.000249663
0.000218416
7.557e-05
2.15417e-05
7.557e-05
4.28929e-05
0.000262327
0.000128311
0.000257293
)
;
    }
    ceiling
    {
        Cmu             0.09;
        kappa           0.41;
        E               9.8;
        type            epsilonWallFunction;
        value           nonuniform List<scalar> 
43
(
0.0030257
0.00387178
0.00471143
0.00569744
0.00465887
0.0038667
0.00294854
0.00231616
0.0018211
0.00142985
0.0011181
0.000891912
0.000716045
0.000573058
0.000454078
0.000354315
0.000271056
0.000202624
0.000147753
0.00010519
7.34628e-05
5.08428e-05
3.54268e-05
2.51827e-05
1.85661e-05
2.22368e-05
3.49997e-05
5.1099e-05
7.21909e-05
9.94493e-05
0.000134338
0.000179837
0.000243696
0.000336967
0.000451015
0.00058885
0.000672931
0.000633775
0.00049509
0.000385797
0.0102054
0.0174605
0.00611027
)
;
    }
    sWall
    {
        Cmu             0.09;
        kappa           0.41;
        E               9.8;
        type            epsilonWallFunction;
        value           uniform 0.0030257;
    }
    nWall
    {
        Cmu             0.09;
        kappa           0.41;
        E               9.8;
        type            epsilonWallFunction;
        value           nonuniform List<scalar> 6(0.000194066 0.000200777 0.000377595 0.000518423 0.000542913 0.000385797);
    }
    sideWalls
    {
        type            empty;
    }
    glass1
    {
        Cmu             0.09;
        kappa           0.41;
        E               9.8;
        type            epsilonWallFunction;
        value           nonuniform List<scalar> 9(0.000117527 0.000501031 0.00123122 0.00246473 0.00430831 0.0068873 0.0101574 0.0110148 0.0102054);
    }
    glass2
    {
        Cmu             0.09;
        kappa           0.41;
        E               9.8;
        type            epsilonWallFunction;
        value           nonuniform List<scalar> 2(0.00101632 0.000925216);
    }
    sun
    {
        Cmu             0.09;
        kappa           0.41;
        E               9.8;
        type            epsilonWallFunction;
        value           nonuniform List<scalar> 
14
(
0.000117527
0.000129656
0.000114676
0.000127191
0.000139621
0.000151244
0.000162127
0.00017253
0.000182853
0.000193729
0.000203162
0.000209968
0.00021401
0.00021638
)
;
    }
    Table_master
    {
        Cmu             0.09;
        kappa           0.41;
        E               9.8;
        type            epsilonWallFunction;
        value           nonuniform List<scalar> 9(2.68387e-05 1.71129e-05 1.28566e-05 1.0753e-05 9.51651e-06 8.63514e-06 7.87692e-06 7.14808e-06 6.58854e-06);
    }
    Table_slave
    {
        Cmu             0.09;
        kappa           0.41;
        E               9.8;
        type            epsilonWallFunction;
        value           nonuniform List<scalar> 9(4.83686e-05 5.12608e-05 5.99454e-05 6.97653e-05 8.21725e-05 9.53087e-05 0.000105073 0.000106043 9.68603e-05);
    }
    inlet
    {
        type            turbulentMixingLengthDissipationRateInlet;
        mixingLength    0.01;
        phi             phi;
        k               k;
        value           uniform 0.000101881;
    }
    outlet
    {
        type            zeroGradient;
    }
}


// ************************************************************************* //
