/*--------------------------------*- C++ -*----------------------------------*=========                 |
  \      /  F ield         | OpenFOAM: The Open Source CFD Toolbox
   \    /   O peration     | Website:  https://openfoam.org
    \  /    A nd           | Version:  6
     \/     M anipulation  |
\*---------------------------------------------------------------------------*/
FoamFile
{
    version     2.0;
    format      ascii;
    class       volScalarField;
    location    "2600";
    object      PPD;
}
// * * * * * * * * * * * * * * * * * * * * * * * * * * * * * * * * * * * * * //

dimensions      [0 0 0 0 0 0 0];

internalField   nonuniform List<scalar> 
458
(
77.23107317973708
69.27148616072284
69.60531734941341
69.00256604407001
68.46935849944555
68.01981553914587
67.6902142326629
67.4861151270904
67.38979126312553
67.44713503950723
67.68180143870173
68.16841826515002
69.02470768396168
69.80470746756195
69.11522836767395
64.096426691315
64.04580678858665
64.1470294247552
63.817807085952595
63.004458952367386
61.7772082514662
60.232609091265374
59.01593117004147
58.26281301059411
57.872660546197494
57.58631397332016
57.32584042580274
57.66442717865731
58.15881025210599
59.14560702282808
60.51656581678718
61.26354260371123
61.75155554922184
78.019755088084
69.4107306498725
70.38796672589092
69.60758725279952
69.17671141663571
68.85223164812831
68.62254751481514
68.45628118571126
68.3821993031509
68.41186820712387
68.50878412610712
68.67098176556134
68.81829707444032
68.70755962574574
68.27377105319262
69.07371687303566
70.30164538357354
71.84648069884332
62.36723702319727
64.97941856558725
65.05484391678426
65.15534516194509
63.868503175140404
61.98231028286143
60.258436727125336
59.301146361474046
58.60062022827836
57.95072151709342
57.377946651601675
57.09129460544618
58.13280516379043
59.63786905426425
63.23362430848231
63.94451582270176
63.20817703312446
60.69234164325138
81.14524303440152
69.32551037683302
71.43141880302869
70.62312614686141
70.43338891789173
70.3291325463267
70.27666006237905
70.29250535881553
70.32383231675514
70.35027514769573
70.40377619172851
70.30544821236076
70.02635898935046
69.42919483127969
68.63891411762667
68.07369212604277
67.29102617240855
66.04790179009694
67.32129328179082
67.3952558719117
67.71516428376104
67.86248325545805
67.51841276556956
61.72589956185542
60.000043194875616
59.041870611361
58.47073177474263
58.080789786037876
57.742526535340154
57.48214200504992
60.02589413268327
64.2734605731135
68.08306315789841
66.85169089821076
65.10510398800882
58.164435709351324
84.533036322376
69.72937907245168
72.37397672544444
71.67235270331179
71.81589406844509
72.01691781715499
72.25690365573469
72.50714275390953
72.7167138795057
72.86364215031
72.90976782967022
72.74928028562857
72.26448140986041
71.42930795088779
70.308496598583
68.9963613879978
67.35019317211695
65.52320422245872
64.79567422213628
65.85863595642255
66.94737825271096
67.87386705542147
68.03848095256664
67.84856164892106
68.2436463636445
69.19199112812431
70.18007649769126
70.2848694551976
70.40426021180288
70.54729975047572
70.76138552898756
70.90379065253576
70.99858452604622
70.73762646177433
69.82962210330494
67.79641678513417
64.98963758864755
87.62807312920326
70.75019485457796
73.09115437356903
72.59730564795912
73.09133207019745
73.67619588497185
74.25704506999696
74.8297624605137
75.31389106287912
75.66053227465869
75.8468926722768
75.70354734223379
75.17726376138904
74.31112098608548
73.19931331268887
71.89246896209924
70.48542726711622
69.27036267080024
68.77296780537424
68.8312390491351
69.2889900751351
69.62665217855277
69.64345885413039
69.56441749819149
69.75369562032215
70.1687442514585
70.71006549327907
71.14055949073457
71.28227360902763
71.47081645917919
71.68236247986806
71.8698961199002
72.01023002993371
71.94009711988713
71.51787857644064
68.87134340995155
65.86677114576531
63.43238655277913
62.94089479141637
64.55196465929308
90.11398225320268
72.41622984299732
74.08831517249703
73.4310030650423
74.18210602279068
75.11718794503624
76.08887903835999
77.05825700636022
77.95239173145892
78.63729786922354
78.95738570685174
78.75727675435236
78.1410748611096
77.25120748814183
76.19355461702237
75.03308349599814
73.88051790340697
72.93022241700737
72.41104024581261
72.22631172614102
72.16217963454564
72.04207395482571
71.75805032436259
71.45217611110992
71.2904725961736
71.27544812885876
71.39001319848963
71.56734567555145
71.83997864883017
72.12696622248689
72.38311194155926
72.59198960668124
72.75401228469036
72.82333246570109
72.75401228469036
72.49923292132804
71.56997824430304
69.47761338918751
67.03472619985965
64.62951571109204
91.86146206877213
75.87575513478059
77.74029902811802
75.12392156148371
75.31890466958113
76.48374107070204
77.8767188409771
79.43498845578381
80.24374077149693
80.97283867097063
81.53410053279583
81.34178093144831
80.44587109173715
79.53881642719324
78.61880859106857
77.69676571414797
76.86586744042923
76.21751836580319
75.84590616486645
75.65978602765686
75.3361139481477
74.62240783608928
73.96799921381933
73.37530977480829
72.8925814291836
72.52243379486185
72.29007577119529
72.24351142524301
72.0625927180524
71.8389689178671
71.57755979229917
71.30181442282071
70.982217770579
70.67584155760164
70.45739592503972
70.44621905236255
70.39341308251007
70.2853175870939
68.71591512263133
63.04230858303938
94.40791478068218
86.51258416988054
85.47533961406475
81.03269131554714
79.31960152160067
79.28180469690156
79.88483537023896
80.4948237739024
80.87487829140815
80.73949908611826
80.64698308781658
80.42959423041736
80.06077325432375
79.58455955868018
79.08870378062082
78.63327624573492
78.27243006687438
78.03356154395952
77.99093032780635
77.40048483841697
76.6712660714588
75.93125662692346
75.20297720344482
74.53256989420004
73.89989726901877
73.3524033297428
72.93870771965786
72.6846211294887
72.66147501452751
72.51639656577589
71.62215189952991
70.75365333952907
69.89184216476589
69.09510953898751
68.3252022000063
67.63139561015939
67.03696807613159
66.3836215125413
64.89690436955644
61.55992815198962
96.94592522598535
94.6540695995327
92.15030751991155
88.69187372216277
85.36633584388159
82.91885522835881
81.34654982413562
80.41164719628772
79.94915685659672
79.6711929140917
79.28569345386532
78.8316486499995
78.40430066573667
78.00629097667911
77.67650591906853
77.42680724723179
77.30785800885944
77.29218069037192
77.32837531773808
77.40983386713454
77.46241936285321
76.86535671842816
76.25904260889081
75.62348020366213
74.98037846994319
74.37502405202174
73.78622759659292
73.30656609440649
73.00783744820589
72.93870771965786
73.05388402470786
73.3524033297428
73.76346877518976
72.58775796291106
71.43988167037942
70.45375538456517
69.9150948161139
69.68901114017436
68.74685233051744
66.00658443668914
25.903706709069198
51.66841151253705
67.43583851090452
73.38611171891017
75.47183512947748
76.17189285312644
76.31636738301977
76.26268729256536
76.14313008181216
75.96809565018688
75.73771277669674
75.5734876862682
75.44936265236718
75.40813528007786
75.44078800218688
75.53185061471913
75.65800403957485
75.81577225547258
75.92152038955986
76.01796940689393
76.06998366898526
76.07024908205948
75.75560081830386
75.22518874030496
74.68969603388722
74.14923623276263
73.69514269309252
73.3524033297428
73.16886026304134
73.16886026304134
73.30656609440649
73.53542684656853
73.71792631476072
73.80897813389232
73.71792631476072
72.03778437160467
69.54515936825568
69.25866131042523
23.619022622483826
52.40340161535564
63.97751717095905
69.11153155814243
71.20392197709401
71.96664317767642
72.22112935072556
72.27598818097015
72.31194929223261
72.39116501801863
72.49628479506268
72.66342458978748
72.87677582811416
73.1179546999024
73.39013345596626
73.64315830987175
73.89704518638848
74.102613776681
74.2460642325751
74.32857756213116
74.36496998992352
74.33513558488421
74.29003379822795
74.21289144538753
74.14685356387133
74.02700450752582
73.8690533287043
73.59059619351123
73.2130940191374
72.68631612119337
72.12346716670191
71.60713477530811
71.12551319753833
70.555902641935
70.04302915628584
69.01849540506485
68.10511528228028
70.79220696088973
35.1069446295146
33.00340196425955
34.76608490996068
55.64076241653696
66.7524483633967
70.51481982540528
70.27947784636041
69.8445110388108
69.59799061742159
69.50397680005592
69.55633260211194
69.77685069714721
70.0931977547625
70.49881429839058
70.9372426653314
71.37388158416272
71.7649774690911
72.08338106847549
72.23074871408053
72.20534830154202
72.04489406004328
71.77378149102444
71.45315529530254
71.16058849573085
70.93045664327518
70.76949388383804
70.72394677933303
70.68269166998832
70.66853840525616
70.57416922502685
70.38263583642384
70.04343032311805
69.63112479787353
69.17259657673463
68.82599472443015
68.81490525824111
69.43782197754513
69.83635535246482
72.99651208733572
63.72006988730993
)
;

boundaryField
{
    ".*"
    {
        type            zeroGradient;
    }
}


// ************************************************************************* //
