/*--------------------------------*- C++ -*----------------------------------*\
  =========                 |
  \\      /  F ield         | OpenFOAM: The Open Source CFD Toolbox
   \\    /   O peration     | Website:  https://openfoam.org
    \\  /    A nd           | Version:  6
     \\/     M anipulation  |
\*---------------------------------------------------------------------------*/
FoamFile
{
    version     2.0;
    format      ascii;
    class       volVectorField;
    location    "2600";
    object      U;
}
// * * * * * * * * * * * * * * * * * * * * * * * * * * * * * * * * * * * * * //

dimensions      [0 1 -1 0 0 0 0];

internalField   nonuniform List<vector> 
458
(
(0.0921518 0.0666 0)
(-0.133984 0.00380981 0)
(-0.121157 0.00782167 0)
(-0.138833 0.00827987 0)
(-0.155804 0.00689827 0)
(-0.170927 0.00472442 0)
(-0.183195 0.00199 0)
(-0.191806 -0.00129934 0)
(-0.195971 -0.00522472 0)
(-0.194721 -0.00994224 0)
(-0.18631 -0.0158936 0)
(-0.167966 -0.0236256 0)
(-0.138269 -0.0347385 0)
(-0.106771 -0.0526352 0)
(-0.106765 -0.0780091 0)
(0.0388064 0.00406894 0)
(-0.0167161 -0.00755866 0)
(-0.00321038 -0.00991751 0)
(0.00674611 -0.0052562 0)
(0.0103708 0.00233572 0)
(0.00167072 0.00663439 0)
(-0.010661 0.00272293 0)
(-0.0155578 6.75315e-05 0)
(-0.017118 -0.00364612 0)
(-0.0146032 -0.00575349 0)
(-0.00891883 -0.007748 0)
(0.00230086 -0.0118677 0)
(0.0133093 -0.0136223 0)
(0.0215006 -0.0076178 0)
(0.0245896 -0.00176627 0)
(0.0240727 -0.00192579 0)
(0.0308308 -0.00148837 0)
(-0.0223328 0.0123817 0)
(0.28704 0.145308 0)
(-0.156868 0.0226404 0)
(-0.112552 0.0271633 0)
(-0.136366 0.0276319 0)
(-0.154959 0.0256721 0)
(-0.171199 0.0223419 0)
(-0.184547 0.017873 0)
(-0.194462 0.0122115 0)
(-0.200285 0.00519757 0)
(-0.201169 -0.00339538 0)
(-0.196264 -0.0135577 0)
(-0.184713 -0.0253015 0)
(-0.167436 -0.0396931 0)
(-0.150087 -0.0585178 0)
(-0.136093 -0.0755218 0)
(-0.102814 -0.0626595 0)
(-0.0525265 -0.0654082 0)
(-0.00694014 0.0517643 0)
(0.0928477 0.00240981 0)
(0.0230829 0.000659529 0)
(0.00292047 -0.00335522 0)
(0.00220807 -0.00378913 0)
(0.0123842 0.00772889 0)
(0.0125641 0.013966 0)
(0.00687665 0.00639584 0)
(0.00636762 0.00367782 0)
(0.00743201 0.00243095 0)
(0.00656147 0.000129667 0)
(0.0057435 -0.00520125 0)
(0.00969578 -0.01353 0)
(0.00320621 -0.0141535 0)
(0.00115264 0.000166344 0)
(0.00484817 0.000190998 0)
(0.010365 -0.00325321 0)
(0.0245925 0.00216314 0)
(-0.0706248 0.0265841 0)
(0.452509 0.223067 0)
(-0.200922 0.051596 0)
(-0.0941976 0.0505802 0)
(-0.125022 0.0464824 0)
(-0.14326 0.0416826 0)
(-0.159324 0.0353144 0)
(-0.172799 0.027248 0)
(-0.183331 0.0173643 0)
(-0.190361 0.00558718 0)
(-0.193107 -0.00800014 0)
(-0.190828 -0.0232854 0)
(-0.183988 -0.0400559 0)
(-0.174166 -0.0579635 0)
(-0.164346 -0.075811 0)
(-0.153596 -0.0880224 0)
(-0.135912 -0.0885906 0)
(-0.122356 -0.0948668 0)
(-0.1405 -0.090252 0)
(0.00988816 0.0217337 0)
(-0.047302 0.00583813 0)
(-0.0450493 -0.00358372 0)
(-0.0384413 -0.0138382 0)
(-0.0331241 -0.0183943 0)
(0.0243762 0.013219 0)
(0.0214345 0.00359762 0)
(0.0221474 -0.00119503 0)
(0.0234515 -0.00319931 0)
(0.0235655 -0.00485104 0)
(0.0207233 -0.00751871 0)
(0.014276 -0.0125966 0)
(-0.0123826 -0.013452 0)
(-0.0202143 -0.00735119 0)
(0.0134947 -0.0163517 0)
(0.0146006 -0.0016829 0)
(0.0222422 0.0145475 0)
(-0.120988 0.0350103 0)
(0.58911 0.288615 0)
(-0.248268 0.0852586 0)
(-0.0690415 0.0741882 0)
(-0.107637 0.0651416 0)
(-0.123497 0.0582722 0)
(-0.137713 0.0499899 0)
(-0.150011 0.0397344 0)
(-0.160114 0.02718 0)
(-0.167519 0.0120935 0)
(-0.171428 -0.00547485 0)
(-0.170716 -0.0249253 0)
(-0.166974 -0.045135 0)
(-0.161909 -0.0646011 0)
(-0.157594 -0.0811443 0)
(-0.154038 -0.0913684 0)
(-0.151278 -0.0940036 0)
(-0.156397 -0.0901801 0)
(-0.172922 -0.0640616 0)
(-0.164024 0.00182219 0)
(-0.114571 0.0128584 0)
(-0.100798 -0.00047195 0)
(-0.0869024 -0.0117713 0)
(-0.0828784 -0.0202418 0)
(-0.0845651 -0.0232679 0)
(-0.0798225 -0.014411 0)
(-0.0652452 -0.0122048 0)
(-0.0522788 -0.0121875 0)
(-0.0395821 -0.0127374 0)
(-0.0265164 -0.0137407 0)
(-0.0130423 -0.0152078 0)
(0.00368029 -0.0168628 0)
(0.0210368 -0.017658 0)
(0.0394482 -0.0191295 0)
(0.0444927 -0.0210381 0)
(0.0470357 -0.00200331 0)
(0.05481 0.021164 0)
(-0.0438964 0.0542697 0)
(0.70016 0.342983 0)
(-0.291135 0.119893 0)
(-0.0408597 0.0930828 0)
(-0.0858214 0.0803122 0)
(-0.0979705 0.0718037 0)
(-0.108523 0.0619373 0)
(-0.117764 0.0499297 0)
(-0.125541 0.0352311 0)
(-0.131532 0.0174165 0)
(-0.134853 -0.00348541 0)
(-0.133792 -0.0262027 0)
(-0.130866 -0.048396 0)
(-0.127715 -0.0679026 0)
(-0.125853 -0.082884 0)
(-0.125594 -0.0919051 0)
(-0.127326 -0.095173 0)
(-0.132339 -0.0924828 0)
(-0.136879 -0.0775734 0)
(-0.131534 -0.045263 0)
(-0.114715 -0.021878 0)
(-0.0964273 -0.0162301 0)
(-0.083866 -0.0192708 0)
(-0.0778852 -0.0228786 0)
(-0.0748841 -0.0235451 0)
(-0.0701753 -0.01946 0)
(-0.0627394 -0.0178801 0)
(-0.0547326 -0.0176016 0)
(-0.0465416 -0.0181551 0)
(-0.0380703 -0.0193862 0)
(-0.0291941 -0.0212966 0)
(-0.0194901 -0.0234648 0)
(-0.00877281 -0.0254265 0)
(0.00369015 -0.026848 0)
(0.0149589 -0.0265513 0)
(0.0324217 -0.0119427 0)
(0.0708289 0.0168273 0)
(0.0801217 0.0490781 0)
(0.135489 0.0614725 0)
(0.139627 0.0834484 0)
(-0.029592 0.128387 0)
(0.776808 0.391498 0)
(-0.327577 0.150822 0)
(-0.0170503 0.101995 0)
(-0.0597943 0.0913293 0)
(-0.0682698 0.0813386 0)
(-0.0741158 0.0698321 0)
(-0.0785505 0.0565151 0)
(-0.0819073 0.040523 0)
(-0.0843417 0.0210089 0)
(-0.084581 -0.00247116 0)
(-0.0812864 -0.0279852 0)
(-0.0780064 -0.0511612 0)
(-0.0760576 -0.0697166 0)
(-0.0762508 -0.0826658 0)
(-0.0786152 -0.0896398 0)
(-0.0830123 -0.0907916 0)
(-0.0888519 -0.085373 0)
(-0.0927022 -0.071324 0)
(-0.090158 -0.0512412 0)
(-0.0813701 -0.0352028 0)
(-0.0711426 -0.0280436 0)
(-0.0639479 -0.0265633 0)
(-0.0604893 -0.0267473 0)
(-0.0589799 -0.0261224 0)
(-0.0572746 -0.0241813 0)
(-0.0547941 -0.0231492 0)
(-0.0521423 -0.0230367 0)
(-0.0496398 -0.0236126 0)
(-0.0473737 -0.0248529 0)
(-0.0452533 -0.0268598 0)
(-0.0429701 -0.0295966 0)
(-0.0401315 -0.0328846 0)
(-0.0363224 -0.0363178 0)
(-0.0304804 -0.0388095 0)
(-0.0179627 -0.0374194 0)
(0.0134333 -0.0316405 0)
(0.0517424 -0.0274799 0)
(0.0839386 -0.0192711 0)
(0.107452 0.0353408 0)
(-0.0707379 0.130865 0)
(0.79923 0.435309 0)
(-0.347164 0.153184 0)
(0.00152787 0.0804849 0)
(-0.019843 0.0985804 0)
(-0.0299447 0.0899953 0)
(-0.0332308 0.0735821 0)
(-0.0325587 0.0577862 0)
(-0.030133 0.0408026 0)
(-0.0271554 0.0203719 0)
(-0.0198892 -0.00519895 0)
(-0.0130496 -0.0323593 0)
(-0.00986639 -0.0543719 0)
(-0.0100464 -0.0703885 0)
(-0.0132579 -0.0806623 0)
(-0.0189539 -0.085583 0)
(-0.0264309 -0.0855083 0)
(-0.0344897 -0.0800914 0)
(-0.040635 -0.0688183 0)
(-0.0424461 -0.0542919 0)
(-0.0402254 -0.0415548 0)
(-0.0368387 -0.0335497 0)
(-0.0348975 -0.0294883 0)
(-0.0350416 -0.0274288 0)
(-0.0364962 -0.0258114 0)
(-0.0382987 -0.0242035 0)
(-0.0402677 -0.0231153 0)
(-0.0428558 -0.0225296 0)
(-0.046543 -0.0223966 0)
(-0.0516764 -0.0229146 0)
(-0.0582812 -0.0244798 0)
(-0.0660433 -0.0273891 0)
(-0.0744154 -0.0317236 0)
(-0.0826966 -0.037377 0)
(-0.0895187 -0.0440414 0)
(-0.0919137 -0.0516201 0)
(-0.0861807 -0.0611282 0)
(-0.0743385 -0.0729824 0)
(-0.0669434 -0.076065 0)
(0.0898994 0.0112074 0)
(-0.111192 0.180426 0)
(0.898442 0.458256 0)
(-0.153246 0.132392 0)
(0.063178 0.022973 0)
(0.0859756 0.0506995 0)
(0.0553851 0.0640254 0)
(0.0388047 0.0524744 0)
(0.038265 0.0368002 0)
(0.0437026 0.0211164 0)
(0.0501852 0.00106944 0)
(0.0647055 -0.0208464 0)
(0.0711723 -0.0401107 0)
(0.0710427 -0.0557361 0)
(0.0664096 -0.0671503 0)
(0.0585845 -0.0742401 0)
(0.0485552 -0.0771403 0)
(0.0372231 -0.0760991 0)
(0.025643 -0.0712354 0)
(0.0154201 -0.0626544 0)
(0.00825814 -0.0517504 0)
(0.00435734 -0.041306 0)
(0.00205719 -0.0333262 0)
(-0.000489757 -0.0279922 0)
(-0.00400694 -0.0246559 0)
(-0.00824943 -0.0223401 0)
(-0.0128103 -0.0204085 0)
(-0.0177234 -0.0186183 0)
(-0.0235303 -0.0166424 0)
(-0.0311242 -0.0143577 0)
(-0.0416312 -0.0122188 0)
(-0.0560029 -0.0112335 0)
(-0.0747691 -0.0121999 0)
(-0.0975102 -0.0150015 0)
(-0.123297 -0.0187858 0)
(-0.15106 -0.0224364 0)
(-0.179615 -0.0248915 0)
(-0.206938 -0.0246753 0)
(-0.229659 -0.0168573 0)
(-0.250251 0.0125236 0)
(-0.299403 0.0787199 0)
(-0.49365 0.175956 0)
(1.0286 0.433704 0)
(0.494151 0.294463 0)
(0.481848 0.251653 0)
(0.428518 0.201641 0)
(0.343925 0.161245 0)
(0.277285 0.118433 0)
(0.238089 0.0784929 0)
(0.216448 0.0452624 0)
(0.204828 0.0170808 0)
(0.191668 -0.00820253 0)
(0.177779 -0.0290251 0)
(0.163314 -0.0445925 0)
(0.148115 -0.0550679 0)
(0.132181 -0.061037 0)
(0.115805 -0.0630909 0)
(0.0994843 -0.0617468 0)
(0.0838575 -0.0574902 0)
(0.0697392 -0.0509096 0)
(0.0579667 -0.0429575 0)
(0.0488133 -0.0349342 0)
(0.0416383 -0.0279325 0)
(0.0354091 -0.0224663 0)
(0.029382 -0.0185499 0)
(0.0233186 -0.0158212 0)
(0.0173446 -0.0137459 0)
(0.0115724 -0.0117388 0)
(0.00596082 -0.00918669 0)
(0.000297536 -0.00559495 0)
(-0.0055336 -0.000973833 0)
(-0.011327 0.00423627 0)
(-0.0192968 0.00914009 0)
(-0.0315826 0.012372 0)
(-0.0503941 0.0120337 0)
(-0.0768865 0.00600333 0)
(-0.109795 -0.00717981 0)
(-0.143774 -0.0276689 0)
(-0.168035 -0.0548401 0)
(-0.177734 -0.08862 0)
(-0.224161 -0.130502 0)
(-0.515612 -0.176691 0)
(0.0433724 0.140721 0)
(0.216563 0.190135 0)
(0.259987 0.169601 0)
(0.256192 0.130947 0)
(0.255525 0.0916448 0)
(0.256851 0.0573783 0)
(0.255685 0.0293877 0)
(0.250388 0.00725908 0)
(0.239147 -0.0105956 0)
(0.224077 -0.024384 0)
(0.206368 -0.034263 0)
(0.187036 -0.0405021 0)
(0.167079 -0.0434516 0)
(0.147417 -0.0435166 0)
(0.128851 -0.0411531 0)
(0.112053 -0.0369046 0)
(0.09751 -0.0314494 0)
(0.0853679 -0.0255376 0)
(0.0753583 -0.0197969 0)
(0.0669613 -0.0146457 0)
(0.0596509 -0.0103665 0)
(0.0530359 -0.00711053 0)
(0.0469171 -0.00481207 0)
(0.041219 -0.00303798 0)
(0.0360137 -0.00116691 0)
(0.0315729 0.00125555 0)
(0.0285535 0.00418524 0)
(0.026192 0.00801443 0)
(0.0246847 0.0129564 0)
(0.0236974 0.0185407 0)
(0.0227668 0.0236184 0)
(0.0217549 0.0263402 0)
(0.0218447 0.0248711 0)
(0.0270032 0.0191196 0)
(0.046184 0.011486 0)
(0.0762136 -3.23894e-05 0)
(0.122067 -0.0454614 0)
(-0.0784405 -0.127262 0)
(-0.00587 0.251092 0)
(0.0833888 0.199056 0)
(0.123769 0.148126 0)
(0.164845 0.107464 0)
(0.201291 0.0712005 0)
(0.227314 0.0407297 0)
(0.241508 0.0164333 0)
(0.245689 -0.00243999 0)
(0.242105 -0.016362 0)
(0.23243 -0.0260006 0)
(0.218359 -0.032418 0)
(0.201383 -0.0363089 0)
(0.18288 -0.0382136 0)
(0.164093 -0.0386098 0)
(0.146083 -0.0379662 0)
(0.129687 -0.0367887 0)
(0.115454 -0.0356302 0)
(0.103568 -0.0349993 0)
(0.0938431 -0.0351807 0)
(0.0858412 -0.0361097 0)
(0.0790487 -0.0373862 0)
(0.0730103 -0.0384064 0)
(0.0674271 -0.0385634 0)
(0.0622856 -0.0370923 0)
(0.0578982 -0.0338824 0)
(0.0548067 -0.0294083 0)
(0.0532388 -0.0235372 0)
(0.0535937 -0.0167707 0)
(0.0562693 -0.00967372 0)
(0.0613944 -0.00293935 0)
(0.0686523 0.00207168 0)
(0.0771549 0.00288156 0)
(0.0857132 -0.00374188 0)
(0.0945873 -0.0180855 0)
(0.0994626 -0.03488 0)
(0.113119 -0.0579721 0)
(0.138311 -0.0784805 0)
(-0.0822757 -0.0644008 0)
(-0.156993 -0.345958 0)
(-0.417667 -0.0773934 0)
(-0.280682 0.194848 0)
(-0.15636 0.136982 0)
(-0.0325629 0.10512 0)
(0.071455 0.080117 0)
(0.134268 0.061826 0)
(0.178898 0.0487351 0)
(0.2051 0.0406228 0)
(0.216066 0.0366488 0)
(0.216306 0.0352853 0)
(0.209457 0.0350633 0)
(0.197788 0.0358771 0)
(0.183012 0.037823 0)
(0.16654 0.0410534 0)
(0.149599 0.0457172 0)
(0.133233 0.0519211 0)
(0.118283 0.0596705 0)
(0.105358 0.0687886 0)
(0.0947959 0.0788486 0)
(0.0866526 0.0891651 0)
(0.0807481 0.0988555 0)
(0.076755 0.106961 0)
(0.0742895 0.112632 0)
(0.0729917 0.115331 0)
(0.072579 0.114377 0)
(0.0729164 0.110057 0)
(0.0740616 0.103519 0)
(0.0762459 0.0953069 0)
(0.0799732 0.086456 0)
(0.0857528 0.0779818 0)
(0.0939238 0.0706057 0)
(0.10421 0.0645481 0)
(0.115059 0.0594653 0)
(0.123439 0.0548801 0)
(0.123667 0.0483752 0)
(0.10941 0.0351095 0)
(0.104448 0.00544356 0)
(0.0632054 0.00239654 0)
(-0.460947 0.0797028 0)
)
;

boundaryField
{
    floor
    {
        type            noSlip;
    }
    ceiling
    {
        type            noSlip;
    }
    sWall
    {
        type            noSlip;
    }
    nWall
    {
        type            noSlip;
    }
    sideWalls
    {
        type            empty;
    }
    glass1
    {
        type            noSlip;
    }
    glass2
    {
        type            noSlip;
    }
    sun
    {
        type            noSlip;
    }
    Table_master
    {
        type            noSlip;
    }
    Table_slave
    {
        type            noSlip;
    }
    inlet
    {
        type            fixedValue;
        value           uniform (0.277164 -0.114805 0);
    }
    outlet
    {
        type            zeroGradient;
    }
}


// ************************************************************************* //
