/*--------------------------------*- C++ -*----------------------------------*\
  =========                 |
  \\      /  F ield         | OpenFOAM: The Open Source CFD Toolbox
   \\    /   O peration     | Website:  https://openfoam.org
    \\  /    A nd           | Version:  6
     \\/     M anipulation  |
\*---------------------------------------------------------------------------*/
FoamFile
{
    version     2.0;
    format      ascii;
    class       surfaceScalarField;
    location    "600";
    object      phi;
}
// * * * * * * * * * * * * * * * * * * * * * * * * * * * * * * * * * * * * * //

dimensions      [1 0 -1 0 0 0 0];

internalField   nonuniform List<scalar> 
850
(
-0.00279704
0.0028531
-0.00362117
0.000824075
-0.0042376
0.000616368
-0.00472821
0.000490547
-0.00507469
0.000346412
-0.00526967
0.000194916
-0.0053021
3.23644e-05
-0.00515395
-0.000148215
-0.0048087
-0.000345324
-0.00426629
-0.000542474
-0.00355262
-0.000713737
-0.00272039
-0.000832294
-0.00183349
-0.000886968
-0.000931493
-0.00090206
-0.000930368
-0.00063082
0.000632909
-0.000217514
-0.000413329
0.000470739
-0.00068828
0.00101423
-0.000543514
0.00138783
-0.000373622
0.00159128
-0.000203479
0.00168043
-8.9169e-05
0.0017251
-4.4686e-05
0.00174964
-2.45616e-05
0.00175938
-9.75591e-06
0.0017565
2.87134e-06
0.00173962
1.68678e-05
0.00169865
4.096e-05
0.00160691
9.17424e-05
0.00141952
0.000187381
0.00111138
0.000308143
0.000711328
0.000400056
0.000714061
-0.00196555
0.00496874
-0.00280195
0.00166042
-0.00343798
0.00125233
-0.00390482
0.000957327
-0.00422918
0.000670708
-0.00441754
0.000383204
-0.00445991
7.46665e-05
-0.00433792
-0.000270266
-0.00403864
-0.000644681
-0.00356749
-0.0010137
-0.00295516
-0.00132614
-0.00225668
-0.00153086
-0.00154091
-0.00160281
-0.00090313
-0.00153991
-0.000524624
-0.00130894
0.000278669
-0.00080114
0.000497973
-0.000216809
0.000505677
0.00037224
0.000266708
0.000867896
-0.000909013
0.00119215
-0.00101256
0.00147924
-0.000830636
0.00169456
-0.000588967
0.00173725
-0.000246197
0.00174425
-9.61927e-05
0.00175308
-5.35417e-05
0.00176069
-3.21893e-05
0.00176534
-1.44243e-05
0.00176711
1.08168e-06
0.00176517
1.87975e-05
0.00175541
5.07045e-05
0.00170504
0.000142108
0.00150477
0.000387644
0.00115103
0.000661886
0.000681665
0.000869419
0.001403
-0.00136976
0.00656633
-0.00210951
0.00240011
-0.00263741
0.00178018
-0.00299784
0.0013177
-0.0032478
0.0009206
-0.00339929
0.000534635
-0.00343574
0.000111046
-0.00332781
-0.000378269
-0.00306132
-0.000911249
-0.00264767
-0.00142744
-0.00212164
-0.00185226
-0.00154041
-0.00211217
-0.000966578
-0.00217672
-0.000467472
-0.00203908
-9.25904e-05
-0.00168389
0.00019119
-0.00108498
0.000271917
-0.000297596
0.000783928
0.00148883
-0.00121558
0.00171443
-0.00113465
0.00175048
-0.00104865
0.00182539
-0.000905579
0.00199854
-0.00076215
0.00175247
0.0016564
0.00160299
0.00157093
0.00155664
0.00155785
0.00157679
0.00162763
0.00176988
0.00151084
0.000646688
0.00117053
0.00100219
0.000668146
0.0013718
0.00208243
-0.000971281
0.00782989
-0.00157569
0.00300447
-0.00184568
0.00205012
-0.0020114
0.00148336
-0.00211917
0.00102831
-0.00218278
0.000598183
-0.00217615
0.000104347
-0.00205782
-0.000496674
-0.00181546
-0.0011537
-0.00146895
-0.00177405
-0.00105448
-0.00226683
-0.00062344
-0.00254331
-0.000216468
-0.00258377
0.000136539
-0.00239217
0.000430066
-0.00197748
0.000716156
-0.00137113
0.0010807
-0.000662196
0.00201095
-0.000146377
0.00247668
-0.000459573
0.00210971
-0.000848653
0.00198172
-0.0010067
0.0018688
-0.000935773
0.00176875
-0.000805562
0.00161571
-0.00060914
0.0018929
-0.00027737
0.00204911
-0.000156385
0.00216596
-0.000117027
0.00225526
-8.94701e-05
0.00230615
-5.10518e-05
0.0022981
7.883e-06
0.00220616
9.17725e-05
0.00199583
0.000210171
0.00160502
0.000390641
0.00146491
0.000786792
0.00119416
0.00127294
0.000774528
0.00179144
0.00287179
-0.000709782
0.00888519
-0.00120198
0.00349662
-0.00111427
0.00196236
-0.000964344
0.00133339
-0.00084969
0.000913603
-0.000774511
0.000522948
-0.000676664
6.43549e-06
-0.000516874
-0.000656546
-0.000300727
-0.00136995
-4.91902e-05
-0.00202571
0.000203999
-0.00252015
0.000432425
-0.00277185
0.000622883
-0.00277433
0.000778404
-0.00254777
0.000927829
-0.00212697
0.00112633
-0.00156969
0.00144835
-0.000984272
0.00188474
-0.000582828
0.00200633
-0.000581217
0.00188832
-0.000730684
0.00169709
-0.000815524
0.00153579
-0.000774512
0.00140593
-0.000675736
0.00133263
-0.000535862
0.00141839
-0.000363147
0.00151931
-0.000257322
0.00161246
-0.000210189
0.00169749
-0.000174513
0.00176623
-0.000119806
0.00180097
-2.68585e-05
0.00178176
0.000110975
0.00169854
0.000293385
0.00155908
0.000530099
0.00146167
0.000884198
0.00140662
0.00132799
0.00138132
0.00181674
0.00223801
0.00201511
0.00142922
0.000823963
0.00130468
0.000139159
0.00137145
-0.000633208
0.00990846
-0.00100629
0.00386966
-0.000418253
0.00137429
0.000231796
0.000683304
0.000635663
0.000509691
0.000873889
0.000284669
0.00107609
-0.000195837
0.00125948
-0.000840035
0.00141072
-0.00152133
0.00151026
-0.00212539
0.00154402
-0.00255405
0.00152199
-0.00274994
0.0014582
-0.00271064
0.00137451
-0.00246417
0.00130459
-0.00205712
0.00128913
-0.00155429
0.00135685
-0.00105204
0.0014644
-0.000690432
0.00145183
-0.000568689
0.00131395
-0.000592853
0.00112141
-0.000623024
0.000952421
-0.00060555
0.000830533
-0.000553872
0.00077465
-0.000479997
0.000805734
-0.000394243
0.000883713
-0.000335308
0.000976555
-0.000303036
0.00107322
-0.000271182
0.00116831
-0.000214892
0.00125383
-0.00011238
0.00131297
5.18286e-05
0.00134156
0.000264796
0.00135704
0.000514627
0.00141694
0.000824298
0.00157728
0.00116765
0.00185417
0.00153985
0.00215975
0.00170954
0.00176592
0.00121779
0.000968814
0.000936274
0.0023937
-0.000681769
0.0110225
-0.000398216
0.00358607
0.00109418
-0.000118164
0.0020913
-0.000313877
0.00254051
6.0396e-05
0.00284391
-1.88169e-05
0.00307531
-0.000427361
0.00319629
-0.000961176
0.00319647
-0.00152168
0.00307328
-0.00200239
0.002836
-0.00231693
0.00251502
-0.00242909
0.00215028
-0.00234601
0.00178173
-0.00209569
0.00144748
-0.00172293
0.00117887
-0.00128571
0.000991218
-0.000864428
0.000863631
-0.000562883
0.000727687
-0.00043278
0.000558497
-0.000423693
0.000381574
-0.000446126
0.000233228
-0.000457223
0.000132339
-0.000452995
8.8683e-05
-0.000436347
0.000105985
-0.000411548
0.00016338
-0.000392703
0.000238409
-0.000378062
0.000323133
-0.000355902
0.00041984
-0.000311594
0.000534258
-0.000226794
0.000662956
-7.68642e-05
0.000795032
0.000132725
0.000937217
0.000372446
0.00112525
0.00063627
0.00138752
0.000905377
0.00172938
0.001198
0.00211578
0.00132315
0.00229207
0.0010415
0.00183103
0.00139732
0.0042797
0.00270655
0.00880258
0.00386896
0.00242361
0.00545229
-0.00170166
0.0057389
-0.000600722
0.00570894
9.01392e-05
0.00565883
3.10769e-05
0.00553745
-0.000306231
0.00531238
-0.000736358
0.00495615
-0.0011657
0.00445536
-0.00150181
0.00383356
-0.0016953
0.00314449
-0.00174016
0.00244736
-0.00164898
0.00178769
-0.00143608
0.00120232
-0.0011376
0.000716712
-0.000800132
0.000344811
-0.000492549
8.37501e-05
-0.000301843
-0.000111924
-0.000237126
-0.00027919
-0.000256444
-0.000424487
-0.000300842
-0.000540156
-0.00034156
-0.000620596
-0.000372556
-0.000664822
-0.000392119
-0.000675277
-0.000401089
-0.000664005
-0.00040397
-0.000641585
-0.000400476
-0.000610942
-0.000386539
-0.000566747
-0.000355782
-0.000493544
-0.00029999
-0.000361903
-0.000208498
-0.000174033
-5.51379e-05
5.11104e-05
0.000147309
0.000325745
0.000361642
0.00065294
0.000578187
0.00104214
0.000808803
0.00145015
0.000915145
0.00166533
0.00082632
0.000996437
0.00206623
0.00550908
0.00933589
0.0117493
0.0119177
-0.00187037
0.0108381
0.000478497
0.0101727
0.000755226
0.00935062
0.00085275
0.00836797
0.00067608
0.00732656
0.000304743
0.00622781
-6.72112e-05
0.00508625
-0.000360449
0.00395992
-0.000569117
0.00290115
-0.000681474
0.00194665
-0.000694528
0.00110531
-0.000594759
0.000389037
-0.000421325
-0.00017295
-0.000238138
-0.000557791
-0.000107713
-0.000797816
-6.18261e-05
-0.000961752
-7.31966e-05
-0.00109522
-0.000122977
-0.00121201
-0.000184055
-0.00131446
-0.000239107
-0.0014022
-0.000284813
-0.00147623
-0.000318074
-0.00153928
-0.000338032
-0.00159789
-0.000345352
-0.00165931
-0.00033905
-0.00173012
-0.000315721
-0.00181701
-0.000268884
-0.00192904
-0.000187954
-0.0020762
-6.13281e-05
-0.00225066
0.000119328
-0.00246727
0.000363927
-0.00279417
0.000688552
-0.00332774
0.00111177
-0.00415757
0.00163863
-0.00543066
0.00218824
-0.00711864
0.0025143
-0.0070162
0.0019638
-0.0012514
0.00142631
1.98957e-05
0.00241661
-0.000511325
0.00324637
-7.42361e-05
0.00335588
0.000743404
0.00309898
0.000933076
0.00270462
0.000699192
0.00227915
0.00035835
0.00182153
9.72555e-05
0.00129038
-3.79059e-05
0.000696963
-8.80092e-05
7.43847e-05
-7.19074e-05
-0.000514237
-6.08478e-06
-0.000988156
5.26201e-05
-0.00131361
8.7333e-05
-0.0015104
8.90839e-05
-0.00163282
6.05946e-05
-0.00172396
1.7943e-05
-0.00181282
-3.41069e-05
-0.00191013
-8.67379e-05
-0.00201902
-0.000130212
-0.00213603
-0.000167795
-0.00225813
-0.000195968
-0.00238325
-0.0002129
-0.00251105
-0.000217543
-0.00264203
-0.000208062
-0.00277654
-0.0001812
-0.00291334
-0.000132077
-0.0030481
-5.31853e-05
-0.00317347
6.40475e-05
-0.00327666
0.00022253
-0.00336146
0.000448731
-0.00343895
0.00076605
-0.00351581
0.00118863
-0.00357776
0.00170059
-0.00361145
0.00222194
-0.00351253
0.0024154
-0.0020647
0.000515967
-0.0032484
-0.00152583
0.00156729
-0.0018038
-0.000233097
-0.00184169
-3.6036e-05
-0.00148933
0.000391322
-0.00113844
0.000582399
-0.000955267
0.000516193
-0.00095034
0.000353565
-0.00107106
0.000218092
-0.00125989
0.000151014
-0.00148498
0.00013716
-0.00170548
0.000148644
-0.00187311
0.000161582
-0.00198189
0.000161416
-0.00204139
0.000146843
-0.00207176
0.00011947
-0.00209634
8.51793e-05
-0.0021295
5.11163e-05
-0.00218625
2.26479e-05
-0.00227203
-9.42217e-07
-0.00238289
-1.93449e-05
-0.00251654
-3.41295e-05
-0.00266682
-4.56779e-05
-0.00282574
-5.39757e-05
-0.0029845
-5.87747e-05
-0.00313348
-5.9067e-05
-0.00326198
-5.26929e-05
-0.00335782
-3.62256e-05
-0.00340528
-5.71513e-06
-0.00339549
5.42675e-05
-0.00332455
0.000151594
-0.00316693
0.000291118
-0.00289042
0.000489546
-0.00247332
0.000771544
-0.0018853
0.00111258
-0.000978952
0.0013156
0.000528773
0.000907683
0.00142591
-0.000381156
-0.00174846
-0.00428306
-0.00684169
-0.00526119
-0.00548718
-0.00551802
-0.00512291
-0.00453851
-0.00402233
-0.00367086
-0.00345684
-0.00331169
-0.00318202
-0.00304245
-0.00289145
-0.00274196
-0.00260807
-0.00250227
-0.00243124
-0.00239464
-0.00238682
-0.00240288
-0.00243759
-0.00248734
-0.00254889
-0.00261894
-0.00269395
-0.0027693
-0.00283825
-0.0028906
-0.00291221
-0.00287351
-0.0027371
-0.00246074
-0.00198552
-0.00122785
-0.000128724
0.00117377
0.00206814
0.0016729
)
;

boundaryField
{
    floor
    {
        type            calculated;
        value           nonuniform List<scalar> 
36
(
0
0
0
0
0
0
0
0
0
0
0
0
0
0
0
0
0
0
0
-2.72707e-06
-7.26569e-06
-1.12842e-05
-1.48297e-05
-1.51678e-05
-1.46154e-05
-1.38132e-05
-1.1824e-06
-2.20949e-06
-2.55589e-06
-3.07731e-06
-2.10724e-06
-4.69233e-06
-6.05637e-06
-6.3932e-06
-6.57541e-06
-6.21351e-06
)
;
    }
    ceiling
    {
        type            calculated;
        value           nonuniform List<scalar> 
43
(
-1.40757e-05
-1.38992e-05
-1.30827e-05
-6.88871e-06
-4.9672e-06
-3.56704e-06
-1.83071e-06
1.42274e-07
2.1866e-06
4.14029e-06
5.9045e-06
7.52744e-06
9.09352e-06
1.06059e-05
1.19372e-05
1.29667e-05
1.36805e-05
1.41648e-05
1.45288e-05
1.48404e-05
1.51263e-05
1.53787e-05
1.56349e-05
1.58797e-05
1.60889e-05
1.62363e-05
1.63001e-05
1.62675e-05
1.61348e-05
1.59035e-05
1.55731e-05
1.51903e-05
1.47749e-05
1.43343e-05
1.38826e-05
1.34621e-05
1.31161e-05
1.33141e-05
1.41019e-05
1.56203e-05
1.28799e-05
1.01286e-05
-2.1658e-05
)
;
    }
    sWall
    {
        type            calculated;
        value           uniform -0.000230584;
    }
    nWall
    {
        type            calculated;
        value           nonuniform List<scalar> 6(-5.29539e-05 -5.3424e-05 -5.49723e-05 -6.76821e-05 -7.40322e-05 -9.11737e-05);
    }
    sideWalls
    {
        type            empty;
        value           nonuniform 0();
    }
    glass1
    {
        type            calculated;
        value           nonuniform List<scalar> 9(-5.61195e-05 -0.000150149 -0.000227892 -0.000292328 -0.000345578 -0.000390123 -0.000432343 -0.000486656 -0.000546233);
    }
    glass2
    {
        type            calculated;
        value           nonuniform List<scalar> 2(-0.000232932 -0.000255713);
    }
    sun
    {
        type            calculated;
        value           uniform 0;
    }
    Table_master
    {
        type            calculated;
        value           nonuniform List<scalar> 9(-1.52457e-07 -1.52569e-07 -1.52606e-07 -1.52627e-07 -1.5264e-07 -1.52647e-07 -1.52642e-07 -1.52627e-07 -1.52581e-07);
    }
    Table_slave
    {
        type            calculated;
        value           nonuniform List<scalar> 9(1.52397e-07 1.52383e-07 1.52343e-07 1.52311e-07 1.52293e-07 1.52294e-07 1.52301e-07 1.52337e-07 1.52416e-07);
    }
    inlet
    {
        type            calculated;
        value           uniform -0.00331585;
    }
    outlet
    {
        type            calculated;
        value           nonuniform List<scalar> 2(0.00452787 0.00257266);
    }
}


// ************************************************************************* //
