/*--------------------------------*- C++ -*----------------------------------*\
  =========                 |
  \\      /  F ield         | OpenFOAM: The Open Source CFD Toolbox
   \\    /   O peration     | Website:  https://openfoam.org
    \\  /    A nd           | Version:  6
     \\/     M anipulation  |
\*---------------------------------------------------------------------------*/
FoamFile
{
    version     2.0;
    format      ascii;
    class       volScalarField;
    location    "900";
    object      alphat;
}
// * * * * * * * * * * * * * * * * * * * * * * * * * * * * * * * * * * * * * //

dimensions      [1 -1 -1 0 0 0 0];

internalField   nonuniform List<scalar> 
458
(
0.000826259
0.000856455
0.000821495
0.000853634
0.000884156
0.000911466
0.000936053
0.000958698
0.000980319
0.00100209
0.00102246
0.00103871
0.00105071
0.00105982
0.00106571
0.000502401
0.00063971
0.00066279
0.000639042
0.000595453
0.000536369
0.000479533
0.000421994
0.000360928
0.000271468
0.000182346
0.000191432
0.000215184
0.000229283
0.000256483
0.000322418
0.000449506
0.000400061
0.00133804
0.00220135
0.00172461
0.00207645
0.00221806
0.00236765
0.0025193
0.00266261
0.00278244
0.00285755
0.00288729
0.0028433
0.00267743
0.00231688
0.00171435
0.00112682
0.00108366
0.000767893
0.000664243
0.0016623
0.00198708
0.00189217
0.00159286
0.00119175
0.000889983
0.000668954
0.000512693
0.000419136
0.000415689
0.00046098
0.000497091
0.000478212
0.000385193
0.000518069
0.00102183
0.000553522
0.00179336
0.00347249
0.00189921
0.00304394
0.00332332
0.00350581
0.00366036
0.00378922
0.00389189
0.00396366
0.00400524
0.00399365
0.0038918
0.00365284
0.00324304
0.00267567
0.00193413
0.00115334
0.000932237
0.00269698
0.0024512
0.00191129
0.00137693
0.000498791
0.000402078
0.000356822
0.000329261
0.000307758
0.00029476
0.000286384
0.000279168
0.000277287
0.000389895
0.000763281
0.00169609
0.000643641
0.00224359
0.00525634
0.00201198
0.00347795
0.00405258
0.00425087
0.00437683
0.00446486
0.00452799
0.00457275
0.00460173
0.0046158
0.0045943
0.00450579
0.00429172
0.00385646
0.00309617
0.00204685
0.00117215
0.0026019
0.00292526
0.00243622
0.00179747
0.00119621
0.00076868
0.000775857
0.000800815
0.000841272
0.00091066
0.000981708
0.00103648
0.0010668
0.00106086
0.00119806
0.00132172
0.00176212
0.000945061
0.00268598
0.00746448
0.0026751
0.00334352
0.00441197
0.00469613
0.00481599
0.00487607
0.00490371
0.00491523
0.00491828
0.00493415
0.00497036
0.00501875
0.00505741
0.00505978
0.005006
0.00485396
0.00450926
0.00415236
0.00376394
0.00342903
0.0032201
0.00310073
0.00303823
0.00308403
0.0032093
0.00340451
0.00365925
0.00392305
0.0041186
0.00421827
0.0041893
0.00396731
0.00338943
0.00281315
0.00203423
0.00109248
0.00105202
0.000982424
0.00312682
0.00975482
0.00465318
0.00315061
0.00407266
0.00467722
0.00496502
0.00510423
0.00514976
0.00512319
0.0050524
0.0050126
0.00503017
0.00508526
0.00515686
0.00522314
0.00524794
0.00514819
0.00484048
0.00438159
0.00395115
0.00369789
0.00360917
0.00356677
0.00351326
0.00349477
0.003565
0.00372963
0.00397358
0.00426436
0.00452512
0.00470826
0.00481947
0.00485533
0.00459841
0.00406887
0.00342851
0.00292469
0.00302099
0.00120241
0.00354753
0.0116359
0.00826877
0.00492642
0.00366711
0.00367085
0.00421139
0.00474891
0.00511509
0.00526749
0.00508488
0.00497353
0.00494219
0.00495321
0.00498559
0.00502097
0.00502638
0.00493077
0.00467134
0.00427652
0.00387527
0.00361549
0.00353716
0.00353508
0.00349316
0.0034262
0.00343187
0.00355631
0.00378894
0.00408801
0.0043884
0.00463608
0.00485418
0.00511114
0.00535032
0.00518835
0.00475749
0.00428578
0.00400892
0.00146274
0.00363984
0.0114271
0.00973115
0.00834267
0.00652808
0.00504225
0.00433615
0.00432407
0.00465398
0.00500049
0.00494105
0.0048208
0.00473849
0.00469448
0.00466993
0.00464544
0.0045994
0.00449354
0.00428739
0.00398501
0.00365215
0.00338444
0.0032719
0.00330942
0.00337342
0.00334422
0.00329963
0.00336284
0.00357022
0.0038824
0.00421258
0.00448452
0.00472223
0.00505525
0.00561772
0.00624707
0.00624008
0.00573101
0.00567459
0.00174334
0.0035448
0.00424605
0.00456777
0.00495259
0.0051397
0.00496822
0.0046441
0.00438518
0.00426937
0.00425637
0.00426739
0.00427614
0.00427633
0.00426138
0.004224
0.00415806
0.00405843
0.00391718
0.00372593
0.00348982
0.00323627
0.00300919
0.00286834
0.00288322
0.0030747
0.00322338
0.00319101
0.00316134
0.00329759
0.00360822
0.0039656
0.00419044
0.00420878
0.00409041
0.00392591
0.0037497
0.00354803
0.003204
0.00289581
0.00168918
0.00121079
0.00239035
0.00343858
0.00403319
0.00423096
0.00422811
0.0041624
0.00408924
0.00402268
0.00396795
0.00390845
0.00383081
0.00372718
0.00359526
0.003437
0.00325651
0.00305887
0.00285176
0.00264768
0.00246521
0.00233405
0.00230902
0.00247133
0.00279176
0.00296277
0.00285954
0.00284697
0.00311981
0.00360432
0.00404415
0.0042395
0.00420151
0.00401257
0.00369897
0.0032755
0.0027814
0.00229734
0.00140501
0.00238604
0.00380379
0.00440206
0.00465936
0.00464785
0.00453645
0.00436326
0.00417641
0.00399405
0.0037882
0.00355337
0.00331038
0.0030704
0.00283882
0.00261788
0.00240845
0.00221129
0.00202797
0.00186151
0.00171743
0.00160662
0.00155341
0.00160764
0.00181421
0.00206669
0.00213969
0.00202572
0.00210924
0.00257707
0.00324464
0.00381737
0.00409057
0.00419368
0.00413943
0.00387847
0.00349646
0.00304848
0.00143436
0.00241991
0.00248107
0.00254006
0.00272625
0.00267504
0.00258906
0.0023681
0.00220213
0.00205579
0.00192172
0.00179623
0.00168315
0.00158149
0.00148547
0.00139182
0.00129869
0.0012052
0.0011113
0.00101771
0.000925902
0.000837878
0.000755968
0.000682577
0.000620103
0.000571149
0.000538449
0.000522528
0.000518617
0.000523125
0.000551446
0.000641794
0.000826235
0.000961404
0.00114068
0.00134235
0.00148921
0.00154172
0.0014935
0.00137706
0.0012577
)
;

boundaryField
{
    floor
    {
        type            compressible::alphatWallFunction;
        Prt             0.85;
        value           nonuniform List<scalar> 
36
(
0.000151527
6.96068e-05
9.02965e-05
9.37177e-05
9.0198e-05
8.36943e-05
7.47836e-05
6.60953e-05
5.71657e-05
4.75149e-05
3.29695e-05
1.78092e-05
1.93939e-05
2.34909e-05
2.58932e-05
3.04709e-05
4.13127e-05
6.14407e-05
5.37091e-05
5.37084e-05
7.73649e-05
9.08625e-05
0.000134529
0.000155256
0.000149603
0.000139821
0.000151525
0.000160041
0.000154031
0.000109128
6.9606e-05
0.000109127
9.39332e-05
0.000163717
0.000132718
0.000166322
)
;
    }
    ceiling
    {
        type            compressible::alphatWallFunction;
        Prt             0.85;
        value           nonuniform List<scalar> 
43
(
0.000331292
0.000339087
0.000346587
0.000370177
0.000363738
0.000352874
0.000324751
0.000303439
0.000284503
0.000267025
0.000250544
0.000235586
0.000222042
0.000209162
0.00019651
0.000183832
0.000171
0.000157997
0.000144911
0.000131936
0.000119354
0.000107504
9.67544e-05
8.74935e-05
8.0157e-05
7.52141e-05
7.27947e-05
7.22004e-05
7.28889e-05
7.71875e-05
9.0715e-05
0.000117668
0.000136967
0.000162081
0.000189798
0.000209671
0.000216722
0.000210244
0.000194509
0.000178223
0.000472081
0.000557273
0.000326901
)
;
    }
    sWall
    {
        type            compressible::alphatWallFunction;
        Prt             0.85;
        value           uniform 0.000330132;
    }
    nWall
    {
        type            compressible::alphatWallFunction;
        Prt             0.85;
        value           nonuniform List<scalar> 6(0.000139605 0.000170269 0.000205746 0.000197961 0.000201931 0.000177884);
    }
    sideWalls
    {
        type            empty;
    }
    glass1
    {
        type            compressible::alphatWallFunction;
        Prt             0.85;
        value           nonuniform List<scalar> 9(0.000114331 0.000184709 0.000244931 0.000302974 0.000358894 0.000413726 0.000465355 0.000476729 0.000465365);
    }
    glass2
    {
        type            compressible::alphatWallFunction;
        Prt             0.85;
        value           nonuniform List<scalar> 2(0.000241703 0.000234614);
    }
    sun
    {
        type            compressible::alphatWallFunction;
        Prt             0.85;
        value           nonuniform List<scalar> 
14
(
0.00011759
0.000121912
0.000116885
0.000121507
0.000125877
0.000129772
0.000133267
0.000136476
0.000139532
0.000142601
0.000145466
0.000147747
0.000149427
0.000150703
)
;
    }
    Table_master
    {
        type            compressible::alphatWallFunction;
        Prt             0.85;
        value           nonuniform List<scalar> 9(6.91643e-05 5.41471e-05 4.69642e-05 4.25316e-05 3.90398e-05 3.69134e-05 3.55366e-05 3.43462e-05 3.40352e-05);
    }
    Table_slave
    {
        type            compressible::alphatWallFunction;
        Prt             0.85;
        value           nonuniform List<scalar> 9(0.000109362 0.000110404 0.00011402 0.000119853 0.000129779 0.000139852 0.000147559 0.000151804 0.000150974);
    }
    inlet
    {
        type            fixedValue;
        value           uniform 1.94e-05;
    }
    outlet
    {
        type            zeroGradient;
    }
}


// ************************************************************************* //
