/*--------------------------------*- C++ -*----------------------------------*\
  =========                 |
  \\      /  F ield         | OpenFOAM: The Open Source CFD Toolbox
   \\    /   O peration     | Website:  https://openfoam.org
    \\  /    A nd           | Version:  6
     \\/     M anipulation  |
\*---------------------------------------------------------------------------*/
FoamFile
{
    version     2.0;
    format      ascii;
    class       volScalarField;
    location    "900";
    object      epsilon;
}
// * * * * * * * * * * * * * * * * * * * * * * * * * * * * * * * * * * * * * //

dimensions      [0 2 -3 0 0 0 0];

internalField   nonuniform List<scalar> 
458
(
0.000127835
0.000141926
0.000125233
0.000140516
0.000156135
0.000171056
0.000185276
0.000199052
0.000212826
0.000227321
0.000241468
0.000253161
0.000262024
0.000268894
0.000273391
2.85939e-05
5.9025e-05
6.56513e-05
5.88464e-05
4.76052e-05
3.47913e-05
2.48591e-05
1.69387e-05
1.05949e-05
4.50296e-06
1.36225e-06
1.57592e-06
2.23872e-06
2.70854e-06
3.79156e-06
7.53298e-06
2.04122e-05
1.43889e-05
0.000544078
0.00122396
0.000138246
0.000111887
0.000114422
0.000118659
0.000123634
0.000130263
0.000139637
0.000152869
0.000169571
0.000188033
0.0002066
0.000223983
0.00024928
0.00032313
0.000287361
0.000102256
6.60993e-05
9.30283e-05
6.74734e-05
5.61132e-05
4.90483e-05
2.95948e-05
1.8833e-05
1.21462e-05
8.1857e-06
5.41153e-06
4.5227e-06
4.59381e-06
4.64117e-06
4.36672e-06
7.12996e-06
1.63996e-05
7.46267e-05
3.81167e-05
0.00131273
0.00397242
0.000272524
0.000121975
0.000116803
0.000121123
0.000127405
0.00013603
0.000147578
0.000162305
0.000179865
0.000197001
0.000210685
0.000219311
0.000226734
0.000242141
0.000270329
0.000346402
0.000182767
0.000145266
8.15647e-05
6.59509e-05
6.25069e-05
2.79757e-05
1.46492e-05
1.02364e-05
8.04139e-06
6.56515e-06
5.76665e-06
5.28786e-06
4.89729e-06
4.79806e-06
2.21772e-05
4.92839e-05
0.000283682
5.99432e-05
0.0025755
0.00900599
0.000629293
0.000149789
0.000128908
0.000135715
0.000145678
0.000158032
0.000173286
0.000191812
0.00021382
0.000234984
0.000249922
0.000256258
0.000255769
0.000253987
0.000262189
0.000297626
0.000363533
0.00015152
7.72892e-05
5.6913e-05
5.59737e-05
6.99681e-05
0.00010251
0.000105411
0.000115919
0.000134395
0.000170474
0.000213583
0.000251375
0.000274091
0.000269538
0.000197867
0.000155372
0.000230342
0.000190126
0.00442715
0.0161872
0.00150312
0.000217518
0.000147069
0.000152323
0.00016626
0.000184859
0.00020849
0.000237628
0.000271684
0.000304347
0.000324982
0.00033079
0.000323569
0.000307177
0.000286557
0.00026001
0.000206718
0.000120245
7.2127e-05
5.20578e-05
4.77379e-05
5.13187e-05
5.7949e-05
6.53705e-05
7.79784e-05
9.73715e-05
0.000127572
0.000167802
0.000205187
0.000231567
0.000236586
0.000212155
0.000181636
0.000182019
0.000197016
0.000293971
0.000262501
0.000213832
0.0069952
0.0233477
0.00370053
0.000518836
0.000229022
0.000193739
0.000198122
0.000217695
0.000248918
0.000292996
0.000352094
0.000402355
0.000426634
0.000427365
0.000411214
0.000383937
0.00034756
0.000295624
0.000223514
0.00014727
9.23712e-05
6.32174e-05
5.13835e-05
4.87039e-05
5.14907e-05
5.98008e-05
7.54521e-05
0.000100104
0.000136034
0.00018586
0.000243728
0.000295682
0.00033282
0.000336848
0.000281842
0.000234316
0.000212005
0.000229876
0.000432644
0.000392115
0.0102288
0.0273457
0.0089638
0.00248768
0.000990387
0.000514509
0.000374727
0.000342147
0.000354871
0.000399312
0.000494748
0.00054955
0.000557819
0.000537058
0.00050038
0.000455308
0.000403482
0.000339057
0.000260783
0.000182257
0.00012057
8.13581e-05
6.03756e-05
5.10735e-05
5.01122e-05
5.78866e-05
7.57994e-05
0.000105858
0.000150625
0.000211857
0.000287524
0.000370285
0.000455489
0.000529461
0.000547096
0.000493138
0.000474301
0.000486443
0.00085404
0.000706087
0.0110722
0.0328428
0.0171312
0.0113007
0.0066268
0.00347026
0.00187215
0.00118695
0.000916507
0.000833487
0.000822854
0.000782798
0.000721827
0.00065243
0.00058135
0.000510958
0.000440551
0.000366257
0.000286964
0.000210567
0.000147675
0.000101836
7.2756e-05
5.70453e-05
5.19582e-05
5.83369e-05
7.7405e-05
0.000111474
0.000164581
0.000240975
0.000340987
0.000459623
0.000595398
0.000765509
0.00101228
0.00131136
0.00164471
0.00188022
0.00412384
0.00119692
0.0102579
0.0175792
0.0135741
0.0104128
0.00791663
0.00571014
0.00396469
0.00276709
0.00202221
0.00158464
0.00127308
0.00104556
0.000874683
0.000740794
0.000630467
0.000534892
0.000448346
0.000367123
0.000290296
0.000220669
0.000162352
0.000117323
8.51804e-05
6.43335e-05
5.41728e-05
5.76643e-05
7.52432e-05
0.00010862
0.000163555
0.000249265
0.000368379
0.000508447
0.000651071
0.000793972
0.000949395
0.00113278
0.00134874
0.00157213
0.00181601
0.00109013
0.00358677
0.00447723
0.00473522
0.0042878
0.00349233
0.002712
0.0020946
0.00164398
0.00131427
0.0010705
0.000884748
0.000737996
0.000617354
0.000514255
0.000423423
0.00034215
0.000269786
0.000207133
0.000155312
0.000114669
8.45889e-05
6.40715e-05
5.27457e-05
5.17307e-05
6.28673e-05
8.65076e-05
0.000126099
0.000199018
0.000316973
0.000471594
0.000633818
0.000786844
0.000921719
0.00102512
0.00107083
0.00105737
0.000995872
0.000627102
0.00299622
0.00703119
0.00565693
0.00472631
0.00369493
0.00286515
0.00221132
0.0017218
0.00135963
0.001087
0.000878993
0.000716561
0.000585715
0.000476898
0.00038417
0.000304359
0.000236168
0.000179241
0.00013331
9.76856e-05
7.12381e-05
5.26756e-05
4.09611e-05
3.56238e-05
3.64601e-05
4.25353e-05
5.67801e-05
9.57038e-05
0.000167987
0.000284403
0.000437751
0.000615816
0.000823533
0.001012
0.00110307
0.00112004
0.000866264
0.000667175
0.00315902
0.00340361
0.00365212
0.00453904
0.00430294
0.00390961
0.00299721
0.00241161
0.00196266
0.00160341
0.00130945
0.00107744
0.000893788
0.000740698
0.000609279
0.000494987
0.000395604
0.000310155
0.000238215
0.000179386
0.000132934
9.76346e-05
7.18698e-05
5.38873e-05
4.21064e-05
3.52816e-05
3.22444e-05
3.15266e-05
3.2356e-05
3.78953e-05
5.96985e-05
0.000127355
0.000200712
0.000335331
0.000546654
0.000746381
0.00082817
0.000752853
0.000590136
0.00044974
)
;

boundaryField
{
    floor
    {
        Cmu             0.09;
        kappa           0.41;
        E               9.8;
        type            epsilonWallFunction;
        value           nonuniform List<scalar> 
36
(
0.000273391
2.85939e-05
5.9025e-05
6.56513e-05
5.88464e-05
4.76052e-05
3.47913e-05
2.48591e-05
1.69387e-05
1.05949e-05
4.50296e-06
1.36225e-06
1.57592e-06
2.23872e-06
2.70854e-06
3.79156e-06
7.53298e-06
2.04122e-05
1.43889e-05
1.43889e-05
3.81167e-05
5.99432e-05
0.000190126
0.000293971
0.000262501
0.000213832
0.000273391
0.00032313
0.000287361
0.000102256
2.85939e-05
0.000102256
6.60993e-05
0.000346402
0.000182767
0.000363533
)
;
    }
    ceiling
    {
        Cmu             0.09;
        kappa           0.41;
        E               9.8;
        type            epsilonWallFunction;
        value           nonuniform List<scalar> 
43
(
0.00315902
0.00340361
0.00365212
0.00453904
0.00430294
0.00390961
0.00299721
0.00241161
0.00196266
0.00160341
0.00130945
0.00107744
0.000893788
0.000740698
0.000609279
0.000494987
0.000395604
0.000310155
0.000238215
0.000179386
0.000132934
9.76346e-05
7.18698e-05
5.38873e-05
4.21064e-05
3.52816e-05
3.22444e-05
3.15266e-05
3.2356e-05
3.78953e-05
5.96985e-05
0.000127355
0.000200712
0.000335331
0.000546654
0.000746381
0.00082817
0.000752853
0.000590136
0.00044974
0.0102579
0.0175792
0.00299622
)
;
    }
    sWall
    {
        Cmu             0.09;
        kappa           0.41;
        E               9.8;
        type            epsilonWallFunction;
        value           uniform 0.00315902;
    }
    nWall
    {
        Cmu             0.09;
        kappa           0.41;
        E               9.8;
        type            epsilonWallFunction;
        value           nonuniform List<scalar> 6(0.000213832 0.000392115 0.000706087 0.000627102 0.000667175 0.00044974);
    }
    sideWalls
    {
        type            empty;
    }
    glass1
    {
        Cmu             0.09;
        kappa           0.41;
        E               9.8;
        type            epsilonWallFunction;
        value           nonuniform List<scalar> 9(0.000127835 0.000544078 0.00131273 0.0025755 0.00442715 0.0069952 0.0102288 0.0110722 0.0102579);
    }
    glass2
    {
        Cmu             0.09;
        kappa           0.41;
        E               9.8;
        type            epsilonWallFunction;
        value           nonuniform List<scalar> 2(0.00119692 0.00109013);
    }
    sun
    {
        Cmu             0.09;
        kappa           0.41;
        E               9.8;
        type            epsilonWallFunction;
        value           nonuniform List<scalar> 
14
(
0.000127835
0.000141926
0.000125233
0.000140516
0.000156135
0.000171056
0.000185276
0.000199052
0.000212826
0.000227321
0.000241468
0.000253161
0.000262024
0.000268894
)
;
    }
    Table_master
    {
        Cmu             0.09;
        kappa           0.41;
        E               9.8;
        type            epsilonWallFunction;
        value           nonuniform List<scalar> 9(2.79757e-05 1.46492e-05 1.02364e-05 8.04139e-06 6.56515e-06 5.76665e-06 5.28786e-06 4.89729e-06 4.79806e-06);
    }
    Table_slave
    {
        Cmu             0.09;
        kappa           0.41;
        E               9.8;
        type            epsilonWallFunction;
        value           nonuniform List<scalar> 9(0.00010251 0.000105411 0.000115919 0.000134395 0.000170474 0.000213583 0.000251375 0.000274091 0.000269538);
    }
    inlet
    {
        type            turbulentMixingLengthDissipationRateInlet;
        mixingLength    0.01;
        phi             phi;
        k               k;
        value           uniform 0.00193196;
    }
    outlet
    {
        type            zeroGradient;
    }
}


// ************************************************************************* //
