/*--------------------------------*- C++ -*----------------------------------*\
  =========                 |
  \\      /  F ield         | OpenFOAM: The Open Source CFD Toolbox
   \\    /   O peration     | Website:  https://openfoam.org
    \\  /    A nd           | Version:  6
     \\/     M anipulation  |
\*---------------------------------------------------------------------------*/
FoamFile
{
    version     2.0;
    format      ascii;
    class       volScalarField;
    location    "900";
    object      k;
}
// * * * * * * * * * * * * * * * * * * * * * * * * * * * * * * * * * * * * * //

dimensions      [0 2 -2 0 0 0 0];

internalField   nonuniform List<scalar> 
458
(
0.00100577
0.00107839
0.000992084
0.00107124
0.00114922
0.00122131
0.0012881
0.00135118
0.00141281
0.00147625
0.00153688
0.0015861
0.00162291
0.00165115
0.00166951
0.000370604
0.000600829
0.000644994
0.000599615
0.000520591
0.000422386
0.000337589
0.000261409
0.000191192
0.00010808
4.87052e-05
5.36733e-05
6.78261e-05
7.70108e-05
9.63697e-05
0.000152299
0.000296013
0.000234463
0.00264144
0.00507745
0.00151032
0.0014909
0.00155827
0.00163951
0.0017263
0.00182169
0.00192807
0.00204441
0.00216437
0.0022617
0.00230051
0.00222818
0.00202196
0.00186631
0.00172591
0.000866677
0.00064792
0.00121595
0.00113222
0.00100757
0.000864285
0.000580683
0.000400288
0.000278694
0.000200287
0.00014723
0.000134031
0.00014224
0.000148458
0.000141235
0.000161969
0.000284877
0.000853423
0.000448885
0.0047517
0.0114895
0.00222538
0.00188483
0.00192726
0.00201577
0.00211249
0.00222094
0.00234444
0.00248122
0.00262566
0.00274388
0.00280111
0.00276865
0.00265239
0.00248962
0.00223641
0.00195487
0.00127641
0.00193552
0.00138268
0.00109788
0.000907191
0.000365235
0.00023728
0.000186846
0.000159078
0.000138959
0.00012745
0.000120294
0.000114295
0.000112746
0.000287435
0.000599518
0.00214393
0.000607042
0.00744686
0.0212868
0.00348076
0.00223275
0.00223592
0.00234972
0.0024703
0.00259872
0.00274049
0.00289751
0.00306891
0.0032221
0.00331511
0.00332423
0.00324102
0.00306135
0.00278676
0.00241395
0.00201878
0.00194173
0.00147045
0.00115151
0.0009809
0.000894649
0.00086807
0.000884366
0.000942201
0.00103983
0.00121848
0.00141608
0.00157855
0.00167228
0.00165371
0.00150569
0.0014013
0.0019698
0.00131044
0.010686
0.0340133
0.00620339
0.00263819
0.002492
0.00261662
0.00276848
0.00293748
0.00312852
0.00334401
0.00357676
0.00379176
0.00393244
0.00398651
0.00395767
0.00385675
0.00370493
0.0034749
0.00298617
0.00218541
0.00161143
0.00130665
0.00121252
0.00123363
0.00129762
0.00138856
0.00154706
0.00178059
0.002113
0.00250924
0.00284306
0.00305664
0.00307896
0.00283732
0.0024265
0.00221276
0.0019574
0.00175223
0.00162484
0.00141723
0.0144966
0.0467058
0.0128386
0.00395543
0.0029879
0.00294515
0.00306867
0.00326163
0.00350337
0.00379126
0.00412737
0.00439475
0.00453322
0.00456166
0.00450573
0.00438129
0.00417814
0.00381629
0.00321746
0.00248466
0.00186855
0.00149538
0.00133186
0.001289
0.00131536
0.0014138
0.00160395
0.00188969
0.0022738
0.00275337
0.00324802
0.0036492
0.00391705
0.00395527
0.00352081
0.00301961
0.00263639
0.00253546
0.00353509
0.00212324
0.018676
0.0552216
0.0266445
0.0108325
0.00589656
0.00425218
0.003887
0.00394426
0.00416912
0.0044881
0.00490861
0.00511648
0.00513845
0.00504728
0.00488745
0.0046783
0.00440605
0.00400013
0.0034144
0.00273097
0.00211436
0.00167753
0.00142931
0.00131416
0.00129396
0.00137731
0.00157737
0.00189759
0.00233644
0.00287828
0.00347419
0.00405239
0.00459903
0.00508791
0.00529142
0.00494687
0.00464544
0.00446506
0.00572184
0.00314265
0.0196889
0.0600165
0.0399888
0.0300639
0.02036
0.0129466
0.00881761
0.00701102
0.00639152
0.0063182
0.00624061
0.00601235
0.00572378
0.00541606
0.00509878
0.00476724
0.00440432
0.00396908
0.00343153
0.00283378
0.00227176
0.00181597
0.00150913
0.00134388
0.00129485
0.00136604
0.001563
0.00189359
0.00237078
0.00299157
0.00370695
0.00444057
0.00518631
0.00608449
0.00737564
0.00885219
0.00990774
0.0101518
0.0149601
0.00446797
0.0187113
0.0267957
0.024415
0.0222581
0.0197633
0.0164969
0.0132871
0.0107848
0.00909615
0.00803941
0.0072148
0.0065446
0.00598564
0.00549845
0.00504985
0.0046146
0.00417364
0.0037102
0.00321753
0.0027148
0.00224234
0.00183802
0.00152898
0.00133215
0.00126232
0.00133342
0.00151547
0.00181235
0.00227137
0.00293322
0.00373836
0.00451483
0.00512021
0.00557423
0.00597166
0.00637493
0.00676658
0.00694245
0.00709383
0.00419811
0.00641388
0.0100913
0.0124676
0.0128601
0.0118921
0.0104779
0.00913713
0.00802352
0.00711531
0.00637765
0.00575418
0.00520267
0.00469347
0.004207
0.00373232
0.00326566
0.00281036
0.0023776
0.00198373
0.0016447
0.00137447
0.00118975
0.00111674
0.00117541
0.00133482
0.00153826
0.00185312
0.00243711
0.00330597
0.00427157
0.00507038
0.00562412
0.00594873
0.00602347
0.00579327
0.00530491
0.00467899
0.0029037
0.00823724
0.0159545
0.0154169
0.0145075
0.0128161
0.0111517
0.00960906
0.00829583
0.00720923
0.00627776
0.00546746
0.0047647
0.00414864
0.0035995
0.00310236
0.00264857
0.00223551
0.00186504
0.00154097
0.00126701
0.00104648
0.000884829
0.000793746
0.000786327
0.000849029
0.000933073
0.00104893
0.00138959
0.00203501
0.00297117
0.00399841
0.00490929
0.00574842
0.00633107
0.00639815
0.00612151
0.00502674
0.00302611
0.008533
0.00896795
0.00939934
0.0108653
0.0104852
0.0098361
0.00823909
0.00712752
0.00621294
0.00542955
0.00474379
0.00416545
0.00367753
0.0032446
0.00284847
0.00248006
0.00213586
0.00181601
0.00152304
0.00126064
0.00103233
0.000840354
0.000685101
0.000565428
0.000479674
0.000426323
0.000401484
0.000395496
0.000402396
0.000447106
0.000605395
0.00100328
0.00135867
0.00191296
0.00264966
0.00326112
0.00349522
0.00327998
0.00278846
0.0023265
)
;

boundaryField
{
    floor
    {
        type            kqRWallFunction;
        value           nonuniform List<scalar> 
36
(
0.00166951
0.000370604
0.000600829
0.000644994
0.000599615
0.000520591
0.000422386
0.000337589
0.000261409
0.000191192
0.00010808
4.87052e-05
5.36733e-05
6.78261e-05
7.70108e-05
9.63697e-05
0.000152299
0.000296013
0.000234463
0.000234463
0.000448885
0.000607042
0.00131044
0.00175223
0.00162484
0.00141723
0.00166951
0.00186631
0.00172591
0.000866677
0.000370604
0.000866677
0.00064792
0.00195487
0.00127641
0.00201878
)
;
    }
    ceiling
    {
        type            kqRWallFunction;
        value           nonuniform List<scalar> 
43
(
0.008533
0.00896795
0.00939934
0.0108653
0.0104852
0.0098361
0.00823909
0.00712752
0.00621294
0.00542955
0.00474379
0.00416545
0.00367753
0.0032446
0.00284847
0.00248006
0.00213586
0.00181601
0.00152304
0.00126064
0.00103233
0.000840354
0.000685101
0.000565428
0.000479674
0.000426323
0.000401484
0.000395496
0.000402396
0.000447106
0.000605395
0.00100328
0.00135867
0.00191296
0.00264966
0.00326112
0.00349522
0.00327998
0.00278846
0.0023265
0.0187113
0.0267957
0.00823724
)
;
    }
    sWall
    {
        type            kqRWallFunction;
        value           uniform 0.008533;
    }
    nWall
    {
        type            kqRWallFunction;
        value           nonuniform List<scalar> 6(0.00141723 0.00212324 0.00314265 0.0029037 0.00302611 0.0023265);
    }
    sideWalls
    {
        type            empty;
    }
    glass1
    {
        type            kqRWallFunction;
        value           nonuniform List<scalar> 9(0.00100577 0.00264144 0.0047517 0.00744686 0.010686 0.0144966 0.018676 0.0196889 0.0187113);
    }
    glass2
    {
        type            kqRWallFunction;
        value           nonuniform List<scalar> 2(0.00446797 0.00419811);
    }
    sun
    {
        type            kqRWallFunction;
        value           nonuniform List<scalar> 
14
(
0.00100577
0.00107839
0.000992084
0.00107124
0.00114922
0.00122131
0.0012881
0.00135118
0.00141281
0.00147625
0.00153688
0.0015861
0.00162291
0.00165115
)
;
    }
    Table_master
    {
        type            kqRWallFunction;
        value           nonuniform List<scalar> 9(0.000365235 0.00023728 0.000186846 0.000159078 0.000138959 0.00012745 0.000120294 0.000114295 0.000112746);
    }
    Table_slave
    {
        type            kqRWallFunction;
        value           nonuniform List<scalar> 9(0.00086807 0.000884366 0.000942201 0.00103983 0.00121848 0.00141608 0.00157855 0.00167228 0.00165371);
    }
    inlet
    {
        type            turbulentIntensityKineticEnergyInlet;
        intensity       0.05;
        value           uniform 0.0024;
    }
    outlet
    {
        type            zeroGradient;
    }
}


// ************************************************************************* //
