/*--------------------------------*- C++ -*----------------------------------*\
  =========                 |
  \\      /  F ield         | OpenFOAM: The Open Source CFD Toolbox
   \\    /   O peration     | Website:  https://openfoam.org
    \\  /    A nd           | Version:  6
     \\/     M anipulation  |
\*---------------------------------------------------------------------------*/
FoamFile
{
    version     2.0;
    format      ascii;
    class       volScalarField;
    location    "400";
    object      k;
}
// * * * * * * * * * * * * * * * * * * * * * * * * * * * * * * * * * * * * * //

dimensions      [0 2 -2 0 0 0 0];

internalField   nonuniform List<scalar> 
458
(
0.00283093
0.00340206
0.00359194
0.00397828
0.00435889
0.00474065
0.00514194
0.00559048
0.00601063
0.00635782
0.00655482
0.0065026
0.00607604
0.00488949
0.00291559
0.000659328
0.000912384
0.00117047
0.00125344
0.00118499
0.00100992
0.000842856
0.000709993
0.000606998
0.000526441
0.000462797
0.000412226
0.00037134
0.000337448
0.000308294
0.000282624
0.000281033
0.000246371
0.00503166
0.00926882
0.00543056
0.00577736
0.00628006
0.00686539
0.00754133
0.00830607
0.00919333
0.0100834
0.0107674
0.0110333
0.0107437
0.00975436
0.00767466
0.00491143
0.0033509
0.00217556
0.000660909
0.00145983
0.00194765
0.00217155
0.00215062
0.00179597
0.00143905
0.00115737
0.000946731
0.000789082
0.000669484
0.000576805
0.000503425
0.000444731
0.000402392
0.000385858
0.000779568
0.000444818
0.00734353
0.0165262
0.00653924
0.00634155
0.0066771
0.00713361
0.00770821
0.00844368
0.00936156
0.0103149
0.0111167
0.0116119
0.0116538
0.0110034
0.00944062
0.00757631
0.00588796
0.00312393
0.0015579
0.00207655
0.00241474
0.00262783
0.00259984
0.00195224
0.00145149
0.00110754
0.000870779
0.000704645
0.000585386
0.000497932
0.000432951
0.000385884
0.000364621
0.000399059
0.00133329
0.000636472
0.0099478
0.0264965
0.00801799
0.00646325
0.00654806
0.00685338
0.00730919
0.0080493
0.00903816
0.0100182
0.010872
0.0115124
0.0117318
0.0112091
0.00996793
0.00855041
0.00711001
0.00523865
0.00411601
0.00372299
0.00358677
0.00358337
0.00353992
0.00334006
0.0026229
0.00216912
0.00187794
0.00167122
0.00150324
0.00135077
0.00120964
0.00106778
0.000914641
0.000681137
0.00060194
0.00208092
0.000819872
0.0129988
0.0398276
0.0116237
0.00686539
0.0064796
0.00662747
0.00703759
0.00800359
0.00922821
0.0102268
0.0110909
0.0117786
0.0119449
0.0112583
0.00992724
0.00850626
0.00726489
0.00621591
0.00585269
0.0054112
0.00509449
0.0048324
0.0045272
0.00414276
0.00371438
0.00338237
0.00313872
0.00292622
0.00270621
0.00244789
0.00214138
0.00181198
0.00148163
0.00114823
0.000922087
0.00149703
0.00193001
0.00143448
0.00137855
0.00163994
0.0167151
0.0541701
0.0208364
0.00954701
0.00763981
0.00726369
0.00746432
0.00892422
0.0102881
0.0111493
0.0119465
0.0125783
0.0125775
0.0115844
0.00983582
0.00808023
0.00684528
0.00625088
0.00615875
0.00612309
0.00594235
0.00559162
0.00512219
0.00460809
0.00415877
0.00384893
0.00362343
0.00341937
0.00320656
0.00296415
0.00266018
0.00231241
0.00195652
0.00160914
0.00135631
0.0013921
0.00171578
0.00169314
0.00225467
0.00183684
0.0205503
0.0631979
0.0361326
0.0205197
0.0145601
0.0118074
0.0110733
0.0119568
0.0124092
0.0127878
0.0133736
0.013874
0.0136454
0.0122257
0.00992173
0.0077573
0.00650087
0.00620753
0.00636008
0.00641888
0.00618684
0.00572859
0.00516604
0.00461238
0.00417742
0.00389717
0.00370652
0.00355448
0.00342928
0.00332061
0.00320779
0.00300816
0.00274813
0.00247168
0.00227241
0.00225078
0.00248839
0.00283657
0.00357399
0.00291536
0.0213453
0.0606253
0.0451533
0.037536
0.0301385
0.0238201
0.020135
0.0172723
0.0155616
0.0150811
0.0153584
0.0156263
0.0150044
0.012958
0.0099443
0.00742441
0.00627441
0.00612484
0.0062132
0.00612219
0.00577328
0.00525758
0.00470806
0.00422262
0.00386201
0.00363144
0.00349763
0.00344285
0.0034722
0.00359721
0.00382499
0.00414689
0.00443268
0.0047122
0.00521389
0.00639295
0.00849701
0.0107671
0.0186969
0.00588552
0.0202906
0.0284959
0.0279014
0.0258902
0.0237543
0.0212898
0.019012
0.0173626
0.0167882
0.0171218
0.0176551
0.0176395
0.0162812
0.013169
0.00913632
0.00680855
0.00595268
0.0057336
0.00560845
0.00534578
0.00493552
0.00445851
0.00399462
0.00360515
0.00332259
0.00314826
0.00307277
0.00309519
0.00322256
0.00346219
0.00381552
0.00427208
0.00482385
0.00546274
0.00619359
0.00693537
0.00747606
0.00768928
0.00777635
0.00487299
0.00549888
0.00889602
0.0121511
0.0147242
0.0167938
0.0187434
0.0205023
0.0213067
0.0208374
0.0192238
0.0159696
0.0109714
0.00757008
0.00602833
0.00541599
0.00514299
0.00491919
0.00463524
0.00428874
0.00392086
0.00357514
0.00328438
0.00307347
0.00295198
0.002912
0.00294368
0.00304466
0.00322368
0.00350294
0.00390549
0.00443233
0.00504506
0.00566628
0.00613713
0.00623015
0.00581746
0.00489602
0.00310059
0.0158055
0.0345527
0.0297841
0.0317283
0.0326612
0.0324223
0.0291603
0.0230886
0.0168721
0.0120413
0.00861548
0.0065309
0.00554572
0.0050668
0.00483758
0.00469386
0.00455682
0.00440624
0.00425068
0.00409853
0.00394538
0.00378072
0.00362125
0.00349701
0.00341696
0.00338536
0.00340981
0.00350227
0.00369131
0.00401676
0.00448689
0.00508019
0.00572478
0.00634548
0.0066707
0.0067474
0.00506851
0.00319773
0.0163847
0.0169622
0.0176279
0.0199
0.0178617
0.0164731
0.0139051
0.0104829
0.00734235
0.00554971
0.00436021
0.00357558
0.00299596
0.00260531
0.00235789
0.00220161
0.00208758
0.00198464
0.00187907
0.00177148
0.00166932
0.00158047
0.00151255
0.00147525
0.00146533
0.00147836
0.00151508
0.00157734
0.00167023
0.00180444
0.00198766
0.00222176
0.00251279
0.00286454
0.00327249
0.00384711
0.00397991
0.00375496
0.00323016
0.00272147
)
;

boundaryField
{
    floor
    {
        type            kqRWallFunction;
        value           nonuniform List<scalar> 
36
(
0.00291559
0.000659328
0.000912384
0.00117047
0.00125344
0.00118499
0.00100992
0.000842856
0.000709993
0.000606998
0.000526441
0.000462797
0.000412226
0.00037134
0.000337448
0.000308294
0.000282624
0.000281033
0.000246371
0.000246371
0.000444818
0.000636472
0.000819872
0.00143448
0.00137855
0.00163994
0.00291559
0.00491143
0.0033509
0.00217556
0.000659328
0.00217556
0.000660909
0.00312393
0.0015579
0.00411601
)
;
    }
    ceiling
    {
        type            kqRWallFunction;
        value           nonuniform List<scalar> 
43
(
0.0163847
0.0169622
0.0176279
0.0199
0.0178617
0.0164731
0.0139051
0.0104829
0.00734235
0.00554971
0.00436021
0.00357558
0.00299596
0.00260531
0.00235789
0.00220161
0.00208758
0.00198464
0.00187907
0.00177148
0.00166932
0.00158047
0.00151255
0.00147525
0.00146533
0.00147836
0.00151508
0.00157734
0.00167023
0.00180444
0.00198766
0.00222176
0.00251279
0.00286454
0.00327249
0.00384711
0.00397991
0.00375496
0.00323016
0.00272147
0.0202906
0.0284959
0.0158055
)
;
    }
    sWall
    {
        type            kqRWallFunction;
        value           uniform 0.0163847;
    }
    nWall
    {
        type            kqRWallFunction;
        value           nonuniform List<scalar> 6(0.00163994 0.00183684 0.00291536 0.00310059 0.00319773 0.00272147);
    }
    sideWalls
    {
        type            empty;
    }
    glass1
    {
        type            kqRWallFunction;
        value           nonuniform List<scalar> 9(0.00283093 0.00503166 0.00734353 0.0099478 0.0129988 0.0167151 0.0205503 0.0213453 0.0202906);
    }
    glass2
    {
        type            kqRWallFunction;
        value           nonuniform List<scalar> 2(0.00588552 0.00487299);
    }
    sun
    {
        type            kqRWallFunction;
        value           nonuniform List<scalar> 
14
(
0.00283093
0.00340206
0.00359194
0.00397828
0.00435889
0.00474065
0.00514194
0.00559048
0.00601063
0.00635782
0.00655482
0.0065026
0.00607604
0.00488949
)
;
    }
    Table_master
    {
        type            kqRWallFunction;
        value           nonuniform List<scalar> 9(0.00195224 0.00145149 0.00110754 0.000870779 0.000704645 0.000585386 0.000497932 0.000432951 0.000385884);
    }
    Table_slave
    {
        type            kqRWallFunction;
        value           nonuniform List<scalar> 9(0.0026229 0.00216912 0.00187794 0.00167122 0.00150324 0.00135077 0.00120964 0.00106778 0.000914641);
    }
    inlet
    {
        type            turbulentIntensityKineticEnergyInlet;
        intensity       0.05;
        value           uniform 0.00375;
    }
    outlet
    {
        type            zeroGradient;
    }
}


// ************************************************************************* //
