/*--------------------------------*- C++ -*----------------------------------*\
  =========                 |
  \\      /  F ield         | OpenFOAM: The Open Source CFD Toolbox
   \\    /   O peration     | Website:  https://openfoam.org
    \\  /    A nd           | Version:  6
     \\/     M anipulation  |
\*---------------------------------------------------------------------------*/
FoamFile
{
    version     2.0;
    format      ascii;
    class       volScalarField;
    location    "500";
    object      epsilon;
}
// * * * * * * * * * * * * * * * * * * * * * * * * * * * * * * * * * * * * * //

dimensions      [0 2 -3 0 0 0 0];

internalField   nonuniform List<scalar> 
458
(
0.000631983
0.000820929
0.000860046
0.00099783
0.00114299
0.00129592
0.00146414
0.00165028
0.00181524
0.00192786
0.00194734
0.00183713
0.00157933
0.00117618
0.000610767
7.44805e-05
0.000125802
0.000165612
0.000157676
0.000136368
0.000107358
8.27905e-05
6.44191e-05
5.11844e-05
4.13834e-05
3.40021e-05
2.8369e-05
2.40143e-05
2.05892e-05
1.78087e-05
1.56224e-05
1.76084e-05
1.55676e-05
0.00164206
0.00241706
0.00076718
0.000736472
0.000772438
0.000830504
0.000916981
0.00103816
0.00117132
0.00128223
0.00132754
0.00127672
0.00112972
0.000923519
0.000777486
0.0011721
0.000657172
0.000361886
8.82992e-05
0.000170217
0.000163979
0.000147821
0.000128926
0.000118522
9.26994e-05
7.09781e-05
5.48503e-05
4.30102e-05
3.42759e-05
2.77718e-05
2.28987e-05
1.93404e-05
1.68023e-05
1.71339e-05
9.14273e-05
5.23825e-05
0.00301524
0.00597622
0.0009752
0.000694516
0.000711067
0.000781511
0.000892313
0.00104587
0.00121779
0.00136037
0.00142758
0.00139012
0.00124315
0.00101734
0.000771424
0.000629052
0.000555868
0.000564943
0.000471294
0.000332992
0.000241515
0.000186807
0.000161066
0.00029874
0.000192605
0.00013116
9.41116e-05
7.06198e-05
5.4979e-05
4.41097e-05
3.63114e-05
3.06948e-05
2.38441e-05
2.53049e-05
0.000210331
9.66956e-05
0.0048691
0.0122519
0.00157153
0.00070802
0.000680627
0.000763384
0.000905324
0.00111523
0.00133911
0.00150798
0.00158801
0.00155463
0.0013928
0.00112993
0.000856055
0.000654995
0.000546136
0.000676825
0.001042
0.000678642
0.000400237
0.000272929
0.00020739
0.000183907
0.000428983
0.000318419
0.000261826
0.000228546
0.000203454
0.000177718
0.000151522
0.000126189
9.97763e-05
5.79812e-05
5.61914e-05
0.000534527
0.000135196
0.00735224
0.0214308
0.00308838
0.000858733
0.000688887
0.000765356
0.0009587
0.0012973
0.00158856
0.00176697
0.00184128
0.00178977
0.00158005
0.00126375
0.00093515
0.00067826
0.000515983
0.000476488
0.000488734
0.000405241
0.00032279
0.000256988
0.000208176
0.000177242
0.000176754
0.000168107
0.000161403
0.000155314
0.000147121
0.000134232
0.00011678
0.000100051
8.5436e-05
6.75201e-05
6.3714e-05
0.000274214
0.000626714
0.000384313
0.000323425
0.000408852
0.0107172
0.0312526
0.0068325
0.00167159
0.00100729
0.00096096
0.00121284
0.00176052
0.00205785
0.00219278
0.00222414
0.00212113
0.0018433
0.00143284
0.00100562
0.000674672
0.000476575
0.000396092
0.00037621
0.00035112
0.000306928
0.000255694
0.000212104
0.000182917
0.000171963
0.000171889
0.000176273
0.000180984
0.000183103
0.000178566
0.000161983
0.00013445
0.000109909
8.95881e-05
8.31747e-05
0.000158821
0.000337476
0.000367619
0.000490206
0.000488915
0.0145116
0.0369294
0.0138098
0.00551401
0.00323356
0.00245146
0.0025827
0.00281413
0.00286696
0.00285002
0.00277886
0.00257958
0.00218168
0.00163135
0.00107451
0.000664567
0.000445373
0.000368206
0.000352044
0.000333731
0.000296127
0.000250439
0.000216145
0.000197679
0.000194826
0.000203066
0.000217152
0.000234555
0.000254327
0.000273638
0.000284564
0.000265728
0.000231664
0.000209572
0.000214617
0.00028157
0.000432909
0.000624372
0.00105831
0.00105719
0.0152692
0.0387942
0.0221631
0.0152541
0.0106072
0.00763261
0.0058987
0.00478166
0.00414486
0.00379874
0.00353476
0.00316299
0.00256636
0.0018168
0.00110024
0.000627831
0.000422428
0.000363415
0.000345576
0.000323198
0.000290898
0.000260505
0.000242261
0.000237949
0.000245451
0.000261434
0.000283896
0.000313857
0.00035494
0.000411859
0.000487682
0.000580628
0.000659068
0.000772469
0.00104363
0.00168397
0.00291624
0.00450706
0.0118008
0.00269582
0.0140229
0.0232837
0.0177486
0.0135761
0.0105356
0.00828835
0.00671118
0.00573525
0.00519563
0.00483249
0.00442292
0.0037996
0.00287829
0.00186098
0.000974622
0.000590323
0.000450322
0.000405336
0.000386452
0.000367833
0.000351069
0.000342442
0.000342732
0.00035068
0.000363886
0.000380397
0.000400312
0.000427323
0.000470107
0.000542714
0.000661945
0.000843008
0.00109718
0.00143088
0.00186662
0.0023818
0.00287762
0.00327629
0.00366299
0.00229747
0.00357256
0.00517689
0.00636994
0.00709462
0.00753577
0.00754275
0.00704064
0.00621739
0.0052178
0.00405221
0.00261994
0.00156368
0.000991141
0.000751084
0.000667913
0.000652595
0.000659903
0.000667384
0.000671401
0.000679924
0.000689231
0.000699824
0.000710955
0.00072074
0.000727247
0.000729993
0.00073314
0.000750455
0.000808938
0.000933886
0.00114145
0.00144299
0.00183559
0.00229288
0.00278174
0.00340251
0.00249369
0.00174214
0.00639213
0.0151837
0.0133435
0.0119531
0.0101638
0.00817043
0.00601353
0.00427382
0.00306749
0.00228007
0.00177807
0.00151495
0.00139332
0.00136776
0.0014046
0.00148706
0.00159667
0.00168891
0.0016973
0.00165826
0.0016194
0.00158689
0.00156009
0.00153775
0.00151559
0.00148621
0.00144314
0.00138697
0.00133376
0.00134324
0.00144212
0.00164556
0.00195189
0.00236979
0.00292476
0.00326922
0.00174139
0.00165504
0.00652336
0.00704395
0.00755621
0.0094668
0.00843535
0.00709173
0.00542012
0.00387314
0.00277221
0.0022227
0.00191275
0.00168193
0.00149579
0.00134885
0.00125078
0.00119292
0.00116103
0.00113321
0.00108671
0.00101931
0.000978402
0.000949537
0.000932198
0.000923717
0.00092058
0.000920582
0.000921661
0.000923082
0.000928466
0.000949738
0.00100916
0.00110496
0.00125132
0.00145826
0.00174191
0.00204224
0.00206496
0.00163671
0.00116134
0.00122257
)
;

boundaryField
{
    floor
    {
        Cmu             0.09;
        kappa           0.41;
        E               9.8;
        type            epsilonWallFunction;
        value           nonuniform List<scalar> 
36
(
0.000610767
7.44805e-05
0.000125802
0.000165612
0.000157676
0.000136368
0.000107358
8.27905e-05
6.44191e-05
5.11844e-05
4.13834e-05
3.40021e-05
2.8369e-05
2.40143e-05
2.05892e-05
1.78087e-05
1.56224e-05
1.76084e-05
1.55676e-05
1.55676e-05
5.23825e-05
9.66956e-05
0.000135196
0.000384313
0.000323425
0.000408852
0.000610767
0.0011721
0.000657172
0.000361886
7.44805e-05
0.000361886
8.82992e-05
0.000564943
0.000471294
0.001042
)
;
    }
    ceiling
    {
        Cmu             0.09;
        kappa           0.41;
        E               9.8;
        type            epsilonWallFunction;
        value           nonuniform List<scalar> 
43
(
0.00652336
0.00704395
0.00755621
0.0094668
0.00843535
0.00709173
0.00542012
0.00387314
0.00277221
0.0022227
0.00191275
0.00168193
0.00149579
0.00134885
0.00125078
0.00119292
0.00116103
0.00113321
0.00108671
0.00101931
0.000978402
0.000949537
0.000932198
0.000923717
0.00092058
0.000920582
0.000921661
0.000923082
0.000928466
0.000949738
0.00100916
0.00110496
0.00125132
0.00145826
0.00174191
0.00204224
0.00206496
0.00163671
0.00116134
0.00122257
0.0140229
0.0232837
0.00639213
)
;
    }
    sWall
    {
        Cmu             0.09;
        kappa           0.41;
        E               9.8;
        type            epsilonWallFunction;
        value           uniform 0.00652336;
    }
    nWall
    {
        Cmu             0.09;
        kappa           0.41;
        E               9.8;
        type            epsilonWallFunction;
        value           nonuniform List<scalar> 6(0.000408852 0.000488915 0.00105719 0.00174214 0.00165504 0.00122257);
    }
    sideWalls
    {
        type            empty;
    }
    glass1
    {
        Cmu             0.09;
        kappa           0.41;
        E               9.8;
        type            epsilonWallFunction;
        value           nonuniform List<scalar> 9(0.000631983 0.00164206 0.00301524 0.0048691 0.00735224 0.0107172 0.0145116 0.0152692 0.0140229);
    }
    glass2
    {
        Cmu             0.09;
        kappa           0.41;
        E               9.8;
        type            epsilonWallFunction;
        value           nonuniform List<scalar> 2(0.00269582 0.00229747);
    }
    sun
    {
        Cmu             0.09;
        kappa           0.41;
        E               9.8;
        type            epsilonWallFunction;
        value           nonuniform List<scalar> 
14
(
0.000631983
0.000820929
0.000860046
0.00099783
0.00114299
0.00129592
0.00146414
0.00165028
0.00181524
0.00192786
0.00194734
0.00183713
0.00157933
0.00117618
)
;
    }
    Table_master
    {
        Cmu             0.09;
        kappa           0.41;
        E               9.8;
        type            epsilonWallFunction;
        value           nonuniform List<scalar> 9(0.00029874 0.000192605 0.00013116 9.41116e-05 7.06198e-05 5.4979e-05 4.41097e-05 3.63114e-05 3.06948e-05);
    }
    Table_slave
    {
        Cmu             0.09;
        kappa           0.41;
        E               9.8;
        type            epsilonWallFunction;
        value           nonuniform List<scalar> 9(0.000428983 0.000318419 0.000261826 0.000228546 0.000203454 0.000177718 0.000151522 0.000126189 9.97763e-05);
    }
    inlet
    {
        type            turbulentMixingLengthDissipationRateInlet;
        mixingLength    0.01;
        phi             phi;
        k               k;
        value           uniform 0.00129427;
    }
    outlet
    {
        type            zeroGradient;
    }
}


// ************************************************************************* //
