/*--------------------------------*- C++ -*----------------------------------*\
  =========                 |
  \\      /  F ield         | OpenFOAM: The Open Source CFD Toolbox
   \\    /   O peration     | Website:  https://openfoam.org
    \\  /    A nd           | Version:  6
     \\/     M anipulation  |
\*---------------------------------------------------------------------------*/
FoamFile
{
    version     2.0;
    format      ascii;
    class       volVectorField;
    location    "800";
    object      U;
}
// * * * * * * * * * * * * * * * * * * * * * * * * * * * * * * * * * * * * * //

dimensions      [0 1 -1 0 0 0 0];

internalField   nonuniform List<vector> 
458
(
(0.0203008 0.0959864 0)
(-0.187495 0.0330081 0)
(-0.227593 0.0222058 0)
(-0.268729 0.013082 0)
(-0.29734 0.00324725 0)
(-0.310907 -0.00761178 0)
(-0.305401 -0.0199947 0)
(-0.277775 -0.0349284 0)
(-0.22709 -0.0515336 0)
(-0.157763 -0.0671577 0)
(-0.0804111 -0.0773355 0)
(0.00945982 -0.0691747 0)
(0.0662034 -0.0338224 0)
(0.0828673 -0.0024049 0)
(0.0701169 0.0474659 0)
(-0.0169226 0.0107405 0)
(-0.0382562 -0.0201634 0)
(-0.0112929 -0.035449 0)
(0.0241862 -0.0312065 0)
(0.0489144 -0.0225806 0)
(0.0676371 -0.0124168 0)
(0.0786233 -0.00703208 0)
(0.0833256 -0.00507644 0)
(0.0850664 -0.00432161 0)
(0.0859293 -0.00383032 0)
(0.0863831 -0.00341402 0)
(0.0863082 -0.00295265 0)
(0.085418 -0.0022163 0)
(0.0830191 -0.000754606 0)
(0.0776412 0.00206073 0)
(0.0675932 0.00558392 0)
(0.0542647 0.00999963 0)
(0.00140998 0.026748 0)
(0.194749 0.197504 0)
(-0.173707 0.0892338 0)
(-0.190499 0.072064 0)
(-0.234506 0.0550068 0)
(-0.264795 0.0351734 0)
(-0.280691 0.0114999 0)
(-0.278537 -0.0172594 0)
(-0.255909 -0.0509085 0)
(-0.212827 -0.0855844 0)
(-0.153747 -0.113734 0)
(-0.0882791 -0.126154 0)
(-0.0260426 -0.111456 0)
(0.0323967 -0.0528432 0)
(0.068896 0.00016264 0)
(0.0963447 0.0514225 0)
(0.114278 0.0549742 0)
(0.0914718 0.0609377 0)
(0.0150024 0.0831843 0)
(0.0550254 0.0472912 0)
(0.0147128 -0.0299375 0)
(0.032749 -0.0477998 0)
(0.0509326 -0.0452504 0)
(0.0673276 -0.034754 0)
(0.0764772 -0.0151237 0)
(0.0788213 -0.00334215 0)
(0.078772 0.000951387 0)
(0.0788699 0.00242563 0)
(0.0792613 0.00320183 0)
(0.0795615 0.00376601 0)
(0.0796333 0.00435724 0)
(0.0794311 0.00545163 0)
(0.0783764 0.00810383 0)
(0.0737808 0.0151221 0)
(0.0625114 0.0221522 0)
(0.0520329 0.0295188 0)
(-0.0381274 0.0565124 0)
(0.356548 0.297593 0)
(-0.1848 0.142183 0)
(-0.148693 0.117573 0)
(-0.193617 0.0876324 0)
(-0.223793 0.0541873 0)
(-0.241924 0.0151219 0)
(-0.243533 -0.0307956 0)
(-0.225254 -0.0834169 0)
(-0.188467 -0.13591 0)
(-0.138444 -0.174499 0)
(-0.0845807 -0.186267 0)
(-0.0357549 -0.163505 0)
(0.0101111 -0.0973762 0)
(0.0448269 -0.0337169 0)
(0.0737115 0.0161441 0)
(0.0843839 0.0288095 0)
(0.0755756 0.0463136 0)
(0.00567954 0.0902899 0)
(0.120974 -0.00911291 0)
(0.0754034 -0.0428843 0)
(0.0709864 -0.0561305 0)
(0.0770763 -0.055663 0)
(0.08447 -0.0500918 0)
(0.0882286 -0.0361773 0)
(0.0766716 -0.0228662 0)
(0.0674889 -0.0157686 0)
(0.0640597 -0.0118298 0)
(0.0631701 -0.00927271 0)
(0.0628468 -0.00749331 0)
(0.0629353 -0.00603956 0)
(0.0641288 -0.00426916 0)
(0.0678947 0.000332545 0)
(0.0672651 0.0204648 0)
(0.0549799 0.0352518 0)
(0.0541072 0.048713 0)
(-0.0746127 0.0873951 0)
(0.508658 0.379549 0)
(-0.214136 0.188493 0)
(-0.100138 0.15974 0)
(-0.145193 0.120411 0)
(-0.171824 0.0778183 0)
(-0.190788 0.0265431 0)
(-0.195769 -0.0357933 0)
(-0.180276 -0.107474 0)
(-0.149182 -0.177012 0)
(-0.108839 -0.224405 0)
(-0.0674908 -0.235384 0)
(-0.0310281 -0.206189 0)
(0.00207433 -0.134978 0)
(0.0305181 -0.0620197 0)
(0.05319 -0.00674017 0)
(0.068624 0.0272912 0)
(0.0823529 0.0553345 0)
(0.0789341 0.0924432 0)
(0.121381 0.0890427 0)
(0.112745 0.00621966 0)
(0.0980494 -0.0360698 0)
(0.0909249 -0.0513038 0)
(0.0848505 -0.0528001 0)
(0.0764106 -0.0463869 0)
(0.0758555 -0.0275303 0)
(0.0891699 -0.0174901 0)
(0.0994294 -0.0121428 0)
(0.104647 -0.00890433 0)
(0.10707 -0.00635456 0)
(0.107248 -0.00380277 0)
(0.104081 -0.00073974 0)
(0.0961334 0.00336203 0)
(0.0808807 0.00933853 0)
(0.0640967 0.0308436 0)
(0.0510368 0.0500163 0)
(0.0626739 0.0688759 0)
(-0.0953771 0.116829 0)
(0.651694 0.442465 0)
(-0.256808 0.224107 0)
(-0.0449704 0.189246 0)
(-0.0892106 0.145032 0)
(-0.107939 0.0980212 0)
(-0.125129 0.0385107 0)
(-0.131801 -0.0372181 0)
(-0.115566 -0.126182 0)
(-0.0904944 -0.209307 0)
(-0.062225 -0.261506 0)
(-0.0360294 -0.269998 0)
(-0.0141593 -0.235531 0)
(0.00536026 -0.161246 0)
(0.0239075 -0.0834402 0)
(0.0399193 -0.0230047 0)
(0.0543863 0.0182066 0)
(0.0699963 0.0457555 0)
(0.0858793 0.0566731 0)
(0.104299 0.0163041 0)
(0.104652 -0.0221609 0)
(0.0972023 -0.0396518 0)
(0.0865756 -0.0455235 0)
(0.0754384 -0.0441215 0)
(0.0655006 -0.0360737 0)
(0.0621557 -0.0194781 0)
(0.0655276 -0.00968887 0)
(0.0695368 -0.00560244 0)
(0.0725378 -0.00343175 0)
(0.0749773 -0.000965721 0)
(0.0769353 0.00280616 0)
(0.0770843 0.00814743 0)
(0.0747666 0.0154315 0)
(0.0696193 0.0254618 0)
(0.0632414 0.0419645 0)
(0.0563197 0.0601993 0)
(0.0828587 0.0813554 0)
(0.02412 0.11463 0)
(0.0968758 0.139376 0)
(0.124499 0.150805 0)
(-0.176977 0.185008 0)
(0.771532 0.492506 0)
(-0.308474 0.244976 0)
(0.0102055 0.196085 0)
(-0.0270171 0.159649 0)
(-0.0354622 0.114531 0)
(-0.0493175 0.0526139 0)
(-0.0529702 -0.0337443 0)
(-0.0307513 -0.141716 0)
(-0.0133836 -0.232642 0)
(-0.000129891 -0.284267 0)
(0.00813067 -0.287991 0)
(0.0126778 -0.248726 0)
(0.0156015 -0.175156 0)
(0.020349 -0.0944161 0)
(0.0260143 -0.0326099 0)
(0.0338975 0.00652613 0)
(0.045599 0.0286855 0)
(0.0617988 0.0314949 0)
(0.0746369 0.00852226 0)
(0.076221 -0.0126083 0)
(0.0693787 -0.0263168 0)
(0.058598 -0.0326144 0)
(0.0474483 -0.0326719 0)
(0.0380747 -0.0275038 0)
(0.0332441 -0.0183758 0)
(0.0333803 -0.0124153 0)
(0.0358569 -0.00984162 0)
(0.0392099 -0.00824944 0)
(0.0430917 -0.00583346 0)
(0.0472811 -0.00135534 0)
(0.0516325 0.00578915 0)
(0.054612 0.0153366 0)
(0.0566819 0.0272927 0)
(0.0593284 0.0422884 0)
(0.061818 0.0585162 0)
(0.0839171 0.0772896 0)
(0.0776849 0.083013 0)
(0.0953598 0.0333039 0)
(0.124796 -0.0153015 0)
(-0.212971 0.0925276 0)
(0.844974 0.535816 0)
(-0.346072 0.222611 0)
(0.0596075 0.147041 0)
(0.0481593 0.157451 0)
(0.0426145 0.126627 0)
(0.031911 0.0615096 0)
(0.0446662 -0.0441567 0)
(0.0692587 -0.159013 0)
(0.0768327 -0.243568 0)
(0.0731581 -0.286995 0)
(0.061389 -0.285506 0)
(0.0455625 -0.244393 0)
(0.0282482 -0.17133 0)
(0.0149726 -0.0902503 0)
(0.00777959 -0.0310016 0)
(0.00738363 0.00137434 0)
(0.0152459 0.0166243 0)
(0.0273902 0.0176299 0)
(0.0353039 0.00526896 0)
(0.035572 -0.0083012 0)
(0.0297177 -0.0181379 0)
(0.0205091 -0.0228907 0)
(0.0108565 -0.0233038 0)
(0.00286197 -0.0205874 0)
(-0.00147356 -0.0162549 0)
(-0.00179331 -0.0136766 0)
(0.0002523 -0.0128336 0)
(0.0035733 -0.0123051 0)
(0.00781732 -0.0107692 0)
(0.0130385 -0.00705442 0)
(0.0202358 3.00525e-05 0)
(0.0285389 0.0102099 0)
(0.0365543 0.0218678 0)
(0.0459886 0.0346627 0)
(0.0560934 0.0474014 0)
(0.0754559 0.0615231 0)
(0.0890469 0.063386 0)
(0.105018 0.0404696 0)
(0.159139 0.047301 0)
(-0.144622 0.151567 0)
(0.958176 0.5317 0)
(-0.0585273 0.196806 0)
(0.138367 0.0867903 0)
(0.175839 0.0998153 0)
(0.152669 0.0797547 0)
(0.136657 0.00708035 0)
(0.165903 -0.0873727 0)
(0.184221 -0.174309 0)
(0.176778 -0.239511 0)
(0.152396 -0.269968 0)
(0.116708 -0.260579 0)
(0.0760813 -0.217226 0)
(0.0341299 -0.145847 0)
(0.000583569 -0.0675679 0)
(-0.0175744 -0.0188804 0)
(-0.0224401 0.000556847 0)
(-0.0184605 0.00888554 0)
(-0.011438 0.00949121 0)
(-0.00738195 0.00308311 0)
(-0.00826234 -0.00492085 0)
(-0.013444 -0.0110762 0)
(-0.020899 -0.014343 0)
(-0.0283787 -0.0153451 0)
(-0.0342953 -0.0150688 0)
(-0.0376384 -0.014498 0)
(-0.0385799 -0.0146216 0)
(-0.0380968 -0.015278 0)
(-0.0368272 -0.0158423 0)
(-0.0348939 -0.0156865 0)
(-0.0320087 -0.0142196 0)
(-0.0272844 -0.0107725 0)
(-0.018212 -0.00467178 0)
(-0.00550622 0.00355477 0)
(0.00794998 0.0120352 0)
(0.0213575 0.0175712 0)
(0.0388349 0.0223061 0)
(0.0536737 0.015756 0)
(0.06564 -0.00460543 0)
(0.149318 0.0596332 0)
(-0.469265 0.251706 0)
(1.10552 0.46574 0)
(0.555525 0.319339 0)
(0.569412 0.347135 0)
(0.524256 0.280908 0)
(0.444041 0.184961 0)
(0.394739 0.0764303 0)
(0.36222 -0.0380101 0)
(0.326319 -0.134867 0)
(0.279181 -0.197688 0)
(0.221426 -0.222089 0)
(0.154936 -0.208047 0)
(0.0862211 -0.165206 0)
(0.0176271 -0.0973091 0)
(-0.0314161 -0.0301952 0)
(-0.048643 -0.00659202 0)
(-0.0543608 0.0021259 0)
(-0.0533818 0.00551279 0)
(-0.0506152 0.00554808 0)
(-0.0494279 0.00260587 0)
(-0.0509127 -0.00140479 0)
(-0.055031 -0.00502502 0)
(-0.0605568 -0.00770942 0)
(-0.0661431 -0.00962823 0)
(-0.0709268 -0.0111107 0)
(-0.0746074 -0.0124242 0)
(-0.077525 -0.0137458 0)
(-0.0802983 -0.0148894 0)
(-0.0834159 -0.015483 0)
(-0.0872544 -0.01504 0)
(-0.0922301 -0.0129488 0)
(-0.0989235 -0.00845329 0)
(-0.108139 -0.00074819 0)
(-0.118976 0.0103755 0)
(-0.132674 0.0250658 0)
(-0.155663 0.0442378 0)
(-0.190943 0.0681996 0)
(-0.2407 0.0945289 0)
(-0.297266 0.120158 0)
(-0.369806 0.141304 0)
(-0.670063 0.156001 0)
(0.794934 0.144411 0)
(0.6454 0.250198 0)
(0.540763 0.21592 0)
(0.478733 0.125601 0)
(0.439337 0.0249766 0)
(0.379301 -0.0632068 0)
(0.304251 -0.121495 0)
(0.220844 -0.144964 0)
(0.130674 -0.130655 0)
(0.0440852 -0.0919294 0)
(-0.0455928 -0.0257847 0)
(-0.074284 -0.00246225 0)
(-0.0844171 0.00234795 0)
(-0.0872458 0.00366189 0)
(-0.0872443 0.00417307 0)
(-0.0864794 0.0038566 0)
(-0.0865698 0.00231919 0)
(-0.0881997 2.4453e-05 0)
(-0.0909863 -0.0024408 0)
(-0.0948695 -0.00471167 0)
(-0.0991215 -0.00671906 0)
(-0.103412 -0.00838039 0)
(-0.107773 -0.00963596 0)
(-0.112431 -0.0104451 0)
(-0.11761 -0.0106438 0)
(-0.123408 -0.00993902 0)
(-0.129767 -0.00792277 0)
(-0.136452 -0.00411428 0)
(-0.142952 0.00197067 0)
(-0.14831 0.0106713 0)
(-0.152618 0.0227325 0)
(-0.156497 0.0390291 0)
(-0.161081 0.0594043 0)
(-0.167137 0.0811749 0)
(-0.171606 0.0950603 0)
(-0.162961 0.0790562 0)
(-0.14674 -0.00984929 0)
(-0.281202 -0.21561 0)
(0.422258 0.619973 0)
(-0.0135107 0.397378 0)
(0.0866394 0.269021 0)
(0.13508 0.141462 0)
(0.142932 0.0346407 0)
(0.139198 -0.0397935 0)
(0.108481 -0.0747034 0)
(0.0543849 -0.0766536 0)
(-0.0347113 -0.0338758 0)
(-0.0905767 0.000277023 0)
(-0.113956 0.0125291 0)
(-0.116555 0.011639 0)
(-0.116656 0.00969733 0)
(-0.116113 0.0090132 0)
(-0.115206 0.00928145 0)
(-0.114218 0.00975773 0)
(-0.113612 0.00987719 0)
(-0.113681 0.00955703 0)
(-0.114385 0.00889184 0)
(-0.11556 0.00788396 0)
(-0.117253 0.00657543 0)
(-0.119525 0.0053329 0)
(-0.122354 0.00430854 0)
(-0.125658 0.00356925 0)
(-0.12929 0.00318825 0)
(-0.133013 0.00328473 0)
(-0.136489 0.00404798 0)
(-0.139248 0.0057538 0)
(-0.140565 0.00879814 0)
(-0.139531 0.0142739 0)
(-0.13464 0.0232438 0)
(-0.124283 0.0368042 0)
(-0.107735 0.0556068 0)
(-0.0857438 0.0779233 0)
(-0.0598277 0.0961835 0)
(-0.031958 0.09464 0)
(0.137826 0.0139128 0)
(-0.211631 -0.125736 0)
(-1.05574 -0.936159 0)
(-1.15462 -0.199429 0)
(-0.774049 0.436587 0)
(-0.643375 0.241843 0)
(-0.307021 0.132157 0)
(-0.141359 0.019408 0)
(-0.0687958 -0.0889764 0)
(-0.0535484 -0.0967709 0)
(-0.0901143 -0.058108 0)
(-0.129955 -0.0296261 0)
(-0.149712 -0.0150634 0)
(-0.151443 -0.0100459 0)
(-0.14572 -0.00787564 0)
(-0.139192 -0.00882172 0)
(-0.133947 -0.0100414 0)
(-0.129549 -0.0110186 0)
(-0.125389 -0.0120861 0)
(-0.121295 -0.0136777 0)
(-0.11751 -0.016008 0)
(-0.114436 -0.0188936 0)
(-0.112403 -0.0218546 0)
(-0.111595 -0.0243738 0)
(-0.112044 -0.0261046 0)
(-0.11357 -0.0272033 0)
(-0.115914 -0.027717 0)
(-0.118793 -0.0276749 0)
(-0.121893 -0.0270722 0)
(-0.124832 -0.0258481 0)
(-0.127112 -0.0238637 0)
(-0.128073 -0.0208685 0)
(-0.126793 -0.0164865 0)
(-0.121508 -0.0106828 0)
(-0.109576 -0.00292841 0)
(-0.0880127 0.00766442 0)
(-0.0555639 0.0222101 0)
(-0.0120006 0.0417573 0)
(0.0477898 0.0553882 0)
(0.0963519 0.0405145 0)
(0.167569 0.00195815 0)
(-0.192846 -0.0667207 0)
)
;

boundaryField
{
    floor
    {
        type            noSlip;
    }
    ceiling
    {
        type            noSlip;
    }
    sWall
    {
        type            noSlip;
    }
    nWall
    {
        type            noSlip;
    }
    sideWalls
    {
        type            empty;
    }
    glass1
    {
        type            noSlip;
    }
    glass2
    {
        type            noSlip;
    }
    sun
    {
        type            noSlip;
    }
    Table_master
    {
        type            noSlip;
    }
    Table_slave
    {
        type            noSlip;
    }
    inlet
    {
        type            fixedValue;
        value           uniform (0.980785 -0.19509 0);
    }
    outlet
    {
        type            zeroGradient;
    }
}


// ************************************************************************* //
