/*--------------------------------*- C++ -*----------------------------------*\
  =========                 |
  \\      /  F ield         | OpenFOAM: The Open Source CFD Toolbox
   \\    /   O peration     | Website:  https://openfoam.org
    \\  /    A nd           | Version:  6
     \\/     M anipulation  |
\*---------------------------------------------------------------------------*/
FoamFile
{
    version     2.0;
    format      ascii;
    class       volScalarField;
    location    "700";
    object      nut;
}
// * * * * * * * * * * * * * * * * * * * * * * * * * * * * * * * * * * * * * //

dimensions      [0 2 -1 0 0 0 0];

internalField   nonuniform List<scalar> 
458
(
0.00112712
0.00123574
0.00128462
0.00134958
0.00140987
0.00146959
0.00153406
0.00159404
0.00164344
0.00167215
0.00167009
0.00154423
0.00138516
0.00121596
0.00106036
0.00048442
0.000556272
0.000630911
0.000684325
0.000702726
0.000661468
0.000613346
0.000571231
0.00053554
0.000504986
0.000478571
0.000455403
0.000434701
0.000415668
0.000397164
0.0003778
0.000359721
0.000327097
0.00143958
0.00306642
0.00282878
0.00321102
0.00361004
0.00399696
0.00427419
0.00459399
0.00491416
0.00518098
0.00537346
0.00542553
0.00503127
0.00406717
0.00265467
0.00121417
0.00107786
0.000920044
0.000475303
0.000827521
0.00144397
0.00185394
0.00206035
0.00150596
0.00127703
0.00112002
0.0010076
0.000925393
0.000864075
0.000817899
0.000776839
0.000724317
0.000668664
0.000620058
0.000705617
0.00038459
0.00169697
0.0039981
0.00328262
0.00370575
0.00388376
0.00402968
0.00418779
0.00443132
0.00473023
0.00506222
0.00541055
0.00570599
0.00564753
0.0052425
0.00426203
0.00303214
0.00228593
0.000992672
0.000500243
0.000861683
0.00136587
0.0019784
0.00230327
0.000833422
0.000739732
0.000655501
0.000583979
0.000524583
0.000475876
0.000436334
0.000405406
0.000384381
0.000448302
0.000530973
0.000844371
0.000433765
0.00194404
0.00492134
0.0031573
0.00364413
0.00360705
0.00358498
0.00369581
0.0039337
0.00425585
0.00466331
0.00510793
0.00544648
0.0054385
0.00517833
0.00469648
0.0038965
0.003052
0.00174584
0.00101814
0.00105615
0.0013937
0.00199613
0.00267377
0.00298189
0.000967511
0.000907156
0.000860334
0.000820836
0.000784196
0.000750624
0.000716718
0.000679776
0.000636629
0.000597396
0.000577723
0.000978707
0.000494306
0.00219974
0.0062576
0.00309864
0.00343655
0.00330869
0.00320417
0.00335235
0.00364507
0.00401381
0.00449016
0.00498405
0.00526871
0.00516932
0.00484635
0.00452627
0.00410992
0.0035364
0.00270387
0.0024047
0.00258493
0.00302458
0.00361309
0.00413513
0.00440203
0.00410959
0.00388224
0.00372802
0.00359348
0.00342959
0.00315852
0.00279191
0.00234464
0.00184775
0.00138296
0.00103434
0.00101814
0.000796084
0.000637067
0.000689897
0.000752452
0.00248308
0.00790579
0.00395047
0.00317727
0.00314535
0.00301172
0.00321682
0.00356946
0.00397561
0.00449381
0.0049873
0.00520992
0.00499991
0.00455066
0.00424025
0.00412591
0.00395215
0.0036714
0.00376144
0.00428548
0.00486582
0.00532484
0.00556283
0.00557412
0.0054325
0.00530568
0.00519813
0.00505623
0.00483205
0.00449077
0.00403289
0.00346493
0.00281399
0.0021547
0.00161144
0.00124019
0.000996364
0.000844389
0.00107581
0.000777302
0.00279313
0.00921817
0.00600453
0.00359866
0.00303029
0.00319722
0.00340596
0.00368805
0.00407949
0.00460298
0.00508103
0.0052341
0.0049068
0.00442257
0.0043826
0.00458016
0.00470383
0.0048727
0.00535105
0.00595403
0.00632534
0.00645063
0.00636072
0.00613606
0.00589137
0.00570399
0.00554371
0.00536237
0.00513267
0.00483233
0.00442921
0.00392766
0.00334501
0.00272862
0.00217921
0.00172584
0.0014151
0.00126555
0.00119032
0.00088705
0.00288743
0.00876848
0.00714766
0.00548993
0.00439514
0.00414802
0.00393691
0.00398118
0.00431438
0.0048247
0.00524657
0.00526971
0.00480453
0.00465791
0.00506169
0.00534357
0.00559687
0.00594977
0.00642464
0.00677255
0.00681631
0.00661467
0.00625619
0.00584282
0.0054648
0.0051671
0.00492666
0.00470237
0.00447767
0.00425999
0.00404818
0.00375769
0.00338985
0.00298772
0.00265056
0.00244827
0.00242726
0.00250518
0.00301072
0.0014054
0.00286112
0.00351917
0.00399739
0.00412111
0.0040045
0.00391373
0.00390557
0.00413939
0.00459996
0.00513196
0.00542056
0.00517587
0.00463419
0.00498785
0.0054926
0.00572134
0.00596107
0.00622251
0.00641562
0.00640863
0.00614773
0.00570423
0.00517678
0.00466388
0.00423673
0.0039057
0.00363178
0.00337687
0.00312484
0.00287421
0.00263516
0.00243575
0.00227425
0.00216083
0.00210138
0.0020837
0.00205779
0.00198488
0.00187653
0.00133735
0.00132162
0.00225634
0.00290918
0.00338881
0.00395697
0.00459605
0.00515995
0.00554318
0.00538865
0.00462842
0.00452128
0.00502971
0.00521558
0.00530633
0.00537755
0.00537535
0.00523114
0.00491419
0.00446159
0.00393934
0.00344723
0.00304873
0.00275181
0.00253015
0.00235618
0.00221596
0.00210601
0.00203205
0.00199175
0.00197205
0.0019701
0.00198305
0.00200085
0.00199832
0.00193719
0.00180069
0.00161891
0.00110101
0.00199801
0.00404513
0.00472978
0.00554408
0.00606102
0.00583594
0.00564454
0.00533172
0.00432035
0.00380934
0.00387346
0.00388056
0.00382811
0.00376434
0.00365874
0.00347467
0.00319908
0.00286193
0.00252614
0.00224679
0.00203578
0.00188697
0.00178675
0.0017253
0.00169308
0.00168423
0.0016976
0.0017284
0.00177473
0.0018353
0.00190914
0.00199215
0.00207138
0.00212289
0.0021199
0.0021351
0.00211125
0.00111891
0.00241953
0.00244199
0.00247427
0.00290072
0.00261232
0.00216294
0.00163286
0.00143059
0.00124714
0.00105188
0.000887692
0.00079714
0.000748064
0.000724287
0.000709722
0.000697327
0.000683228
0.000665895
0.000646757
0.000629728
0.000618621
0.000614948
0.000617986
0.000626612
0.000639892
0.000656877
0.000677474
0.000701901
0.000730245
0.000762648
0.000799533
0.000841455
0.000889126
0.000943362
0.00100458
0.0010747
0.0011187
0.00110027
0.00102523
0.000956586
)
;

boundaryField
{
    floor
    {
        type            nutkWallFunction;
        Cmu             0.09;
        kappa           0.41;
        E               9.8;
        value           nonuniform List<scalar> 
36
(
0.000127785
5.77258e-05
6.68655e-05
7.62053e-05
8.28082e-05
8.50695e-05
7.99913e-05
7.402e-05
6.87473e-05
6.42416e-05
6.03549e-05
5.6971e-05
5.39838e-05
5.12983e-05
4.88149e-05
4.63865e-05
4.38298e-05
4.14276e-05
3.70527e-05
3.70526e-05
4.4727e-05
5.11729e-05
5.89831e-05
7.69566e-05
8.34802e-05
9.11278e-05
0.000127786
0.000145624
0.000129841
0.000111276
5.77257e-05
0.000111276
5.65544e-05
0.000119865
5.97483e-05
0.000122859
)
;
    }
    ceiling
    {
        type            nutkWallFunction;
        Cmu             0.09;
        kappa           0.41;
        E               9.8;
        value           nonuniform List<scalar> 
43
(
0.000278444
0.000280838
0.000284275
0.00032935
0.000299032
0.00025103
0.000192962
0.000170282
0.000149399
0.000126783
0.000107396
9.6529e-05
9.05816e-05
8.76847e-05
8.59053e-05
8.43878e-05
8.26573e-05
8.05236e-05
7.81593e-05
7.60484e-05
7.46679e-05
7.4211e-05
7.45897e-05
7.56628e-05
7.73114e-05
7.9414e-05
8.19549e-05
8.49565e-05
8.84238e-05
9.23681e-05
9.68342e-05
0.000101881
0.000107584
0.000114031
0.000121256
0.000129471
0.000134594
0.000132452
0.000123684
0.000115599
0.000325496
0.000393804
0.000232981
)
;
    }
    sWall
    {
        type            nutkWallFunction;
        Cmu             0.09;
        kappa           0.41;
        E               9.8;
        value           uniform 0.000278516;
    }
    nWall
    {
        type            nutkWallFunction;
        Cmu             0.09;
        kappa           0.41;
        E               9.8;
        value           nonuniform List<scalar> 6(9.11271e-05 9.41441e-05 0.000107333 0.00013255 0.000134632 0.000115604);
    }
    sideWalls
    {
        type            empty;
    }
    glass1
    {
        type            nutkWallFunction;
        Cmu             0.09;
        kappa           0.41;
        E               9.8;
        value           nonuniform List<scalar> 9(0.000135678 0.000171512 0.000200372 0.000227626 0.000255442 0.000285867 0.000318746 0.000328677 0.000325931);
    }
    glass2
    {
        type            nutkWallFunction;
        Cmu             0.09;
        kappa           0.41;
        E               9.8;
        value           nonuniform List<scalar> 2(0.000167522 0.000159794);
    }
    sun
    {
        type            nutkWallFunction;
        Cmu             0.09;
        kappa           0.41;
        E               9.8;
        value           nonuniform List<scalar> 
14
(
0.000135553
0.000148082
0.000153681
0.000161086
0.000167922
0.000174662
0.000181903
0.00018861
0.000194115
0.000197306
0.000197079
0.000183049
0.000165131
0.000145817
)
;
    }
    Table_master
    {
        type            nutkWallFunction;
        Cmu             0.09;
        kappa           0.41;
        E               9.8;
        value           nonuniform List<scalar> 9(0.000100926 8.95907e-05 7.92539e-05 7.0351e-05 6.28567e-05 5.66331e-05 5.15222e-05 4.74843e-05 4.47165e-05);
    }
    Table_slave
    {
        type            nutkWallFunction;
        Cmu             0.09;
        kappa           0.41;
        E               9.8;
        value           nonuniform List<scalar> 9(0.000116893 0.00010974 0.000104151 9.94095e-05 9.49868e-05 9.09127e-05 8.67762e-05 8.22427e-05 7.69105e-05);
    }
    inlet
    {
        type            calculated;
        value           uniform 0.000234787;
    }
    outlet
    {
        type            calculated;
        value           nonuniform List<scalar> 2(0.00241953 0.00244199);
    }
}


// ************************************************************************* //
