/*--------------------------------*- C++ -*----------------------------------*\
  =========                 |
  \\      /  F ield         | OpenFOAM: The Open Source CFD Toolbox
   \\    /   O peration     | Website:  https://openfoam.org
    \\  /    A nd           | Version:  6
     \\/     M anipulation  |
\*---------------------------------------------------------------------------*/
FoamFile
{
    version     2.0;
    format      ascii;
    class       surfaceScalarField;
    location    "700";
    object      phi;
}
// * * * * * * * * * * * * * * * * * * * * * * * * * * * * * * * * * * * * * //

dimensions      [1 0 -1 0 0 0 0];

internalField   nonuniform List<scalar> 
850
(
-0.00332344
0.00338412
-0.0047292
0.00140575
-0.00580061
0.0010714
-0.0065648
0.000764159
-0.00697427
0.000409439
-0.00696821
-6.09689e-06
-0.00646452
-0.000503745
-0.0054034
-0.00106118
-0.00381277
-0.00159069
-0.00183891
-0.00197392
0.000237349
-0.0020763
0.00161527
-0.00137794
0.00213639
-0.000521108
0.00176383
0.000372597
0.00176613
-0.000932337
0.000935602
-0.00110232
0.000169917
-0.000579802
-0.000522577
0.000177689
-0.000757549
0.00086952
-0.000691894
0.00128261
-0.000413155
0.00147144
-0.000188909
0.00157938
-0.000108023
0.00165663
-7.7332e-05
0.001711
-5.4463e-05
0.00174629
-3.53818e-05
0.00176279
-1.65953e-05
0.00175205
1.06344e-05
0.00169224
5.97062e-05
0.00154778
0.000144359
0.00129339
0.000254288
0.000904075
0.000389219
0.000907849
-0.002435
0.00598558
-0.0037567
0.00272743
-0.00486043
0.00217509
-0.00565122
0.0015549
-0.0060998
0.000857958
-0.00614909
4.31065e-05
-0.00573288
-0.000920058
-0.00480905
-0.00198511
-0.0034552
-0.00294464
-0.00188684
-0.00354238
-0.000400315
-0.00356292
0.000841623
-0.00261994
0.00162833
-0.00130783
0.00212311
-0.000122175
0.00305758
0.000831691
0.00227648
0.000785092
0.00137491
0.000905951
0.00138723
-0.000394411
0.00134003
-1.61567e-06
-0.000222939
0.000609085
-0.00113332
0.00104008
-0.00118859
0.00138193
-0.00103379
0.00146488
-0.000496162
0.00148033
-0.000204426
0.00149951
-0.000127279
0.00151668
-9.4578e-05
0.00152858
-6.64485e-05
0.00153657
-4.34599e-05
0.00154065
-2.07767e-05
0.00153641
1.47746e-05
0.0014959
0.000100124
0.00134273
0.000297426
0.00106696
0.00052996
0.000689816
0.000766269
0.0016081
-0.00172964
0.00797321
-0.00283332
0.00383109
-0.00384781
0.00318954
-0.00458131
0.00228832
-0.00503412
0.00131067
-0.00514619
0.000155067
-0.00482321
-0.00124315
-0.00402474
-0.0027837
-0.00288397
-0.00408555
-0.00163427
-0.00479221
-0.00049779
-0.00469952
0.000488472
-0.00360631
0.00125011
-0.00206954
0.00182586
-0.000697953
0.00223866
0.0004189
0.00202318
0.0010006
0.00139191
0.00153725
0.00279071
0.00125698
9.92392e-05
0.00170543
-0.000671438
0.00169454
-0.00112247
0.00180509
-0.00129916
0.00211772
-0.00134646
0.00162167
0.00141734
0.00129014
0.00119564
0.00112926
0.00108587
0.00106515
0.00107998
0.00118017
0.00103317
0.000444329
0.000815662
0.000747379
0.000497786
0.00108406
0.00212203
-0.00119151
0.00950225
-0.00201813
0.00465768
-0.00276682
0.00393818
-0.00332836
0.00284979
-0.0037218
0.00170401
-0.00387308
0.000306239
-0.00362745
-0.00148891
-0.00294188
-0.0034694
-0.00202842
-0.00499913
-0.00109726
-0.0057235
-0.000283074
-0.00551384
0.000427943
-0.00431746
0.00102091
-0.00266261
0.00145359
-0.0011307
0.00177579
9.66791e-05
0.00188715
0.000889246
0.00197336
0.00145105
0.00301427
0.00174983
0.0023018
0.000725746
0.00242224
-2.12116e-05
0.00241077
-0.000659985
0.00230493
-0.00101663
0.00213106
-0.0011253
0.00176485
-0.000980271
0.00221566
-0.000451005
0.00242142
-0.000205954
0.00253363
-0.000112418
0.00258641
-5.29808e-05
0.00257956
6.63687e-06
0.00250636
7.29778e-05
0.00235275
0.000153393
0.00208817
0.000264354
0.00165165
0.000436287
0.00134408
0.000751818
0.000951332
0.00114004
0.000473329
0.00156198
0.00261607
-0.000780725
0.010689
-0.00134417
0.00522111
-0.00164119
0.00423515
-0.00191707
0.0031256
-0.00215482
0.00194168
-0.00228775
0.000439066
-0.00205679
-0.00171997
-0.00149025
-0.00403605
-0.000857322
-0.00563218
-0.000289789
-0.00629116
0.000163982
-0.00596776
0.000562333
-0.00471596
0.000894067
-0.00299448
0.00113321
-0.00136994
0.00137602
-0.000146206
0.00163212
0.000633112
0.00198803
0.00109513
0.00249731
0.00124056
0.00256316
0.000659903
0.00262031
-7.83477e-05
0.00252027
-0.000559931
0.00231638
-0.000812739
0.00206516
-0.000874097
0.00184142
-0.000756555
0.00186841
-0.000478029
0.00191526
-0.000252854
0.00193228
-0.000129491
0.00192739
-4.81419e-05
0.00190245
3.15114e-05
0.00185297
0.000122395
0.00177026
0.000236025
0.00164476
0.000389787
0.00147685
0.000604116
0.00131352
0.000915069
0.00113525
0.00131822
0.000840016
0.00185713
0.00113039
0.00232563
-0.00102089
0.00216983
-0.00171428
0.00070995
-0.00164768
-0.000603853
0.0117565
-0.00090235
0.00551958
-0.000540479
0.00387324
-0.000450444
0.0030355
-0.000490593
0.00198176
-0.000459381
0.00040778
-0.000115416
-0.00206402
0.000277033
-0.00442859
0.00057149
-0.00592673
0.000730161
-0.00644995
0.000779524
-0.00601727
0.000794133
-0.00473074
0.000773852
-0.00297437
0.000736138
-0.00133236
0.000815745
-0.000225918
0.0010365
0.000412291
0.00137376
0.000757835
0.00180548
0.000808823
0.00206228
0.000403105
0.00206267
-7.87344e-05
0.00191776
-0.000415028
0.00169695
-0.000591941
0.00145322
-0.000630388
0.00124678
-0.000550161
0.00115228
-0.000383581
0.00113014
-0.000230769
0.00113386
-0.000133277
0.0011495
-6.38406e-05
0.0011706
1.03381e-05
0.00119011
0.000102817
0.0012054
0.000220667
0.00121669
0.000378425
0.00122951
0.000591217
0.00127118
0.00087332
0.00138361
0.00120571
0.00160212
0.00163853
0.00200193
0.00192574
0.00227869
0.00189299
0.00177085
0.00121771
0.000184922
-0.000783792
0.0130526
-0.000478789
0.00521456
0.000766078
0.00262835
0.00107442
0.00272711
0.0011814
0.00187472
0.00159866
-9.5285e-06
0.00209735
-0.00256277
0.00226854
-0.00459985
0.00218096
-0.00583923
0.00188418
-0.00615327
0.00146034
-0.00559356
0.000995688
-0.00426626
0.000539084
-0.00251795
0.000180168
-0.000973608
0.000114491
-0.000160366
0.00028391
0.000242788
0.000593095
0.000448601
0.000945313
0.000456579
0.00113202
0.000216384
0.00111424
-6.09833e-05
0.000974374
-0.00027519
0.000773349
-0.000390956
0.000558515
-0.000415605
0.000378221
-0.000369926
0.000277507
-0.000282931
0.000250822
-0.000204151
0.000268889
-0.00015141
0.00031625
-0.000111268
0.000389984
-6.34589e-05
0.000481682
1.10527e-05
0.000586688
0.000115594
0.000713078
0.000251964
0.000869868
0.000434354
0.00107667
0.000666439
0.00135959
0.000922712
0.0017644
0.00123364
0.00232352
0.00136653
0.00305043
0.00116601
0.00320591
0.00106215
0.0034581
0.00306283
0.0105593
0.00379236
0.00448501
0.00356169
0.00285898
0.00345632
0.00283244
0.00378833
0.00154267
0.00444451
-0.000665757
0.00468067
-0.002799
0.00445544
-0.00437468
0.00384161
-0.00522547
0.00295985
-0.00527159
0.00195935
-0.00459318
0.000936046
-0.00324313
-1.67055e-06
-0.00158044
-0.000504896
-0.000470539
-0.000607285
-5.80975e-05
-0.000496909
0.000132321
-0.000277195
0.000228823
-4.71349e-05
0.000226475
5.81036e-05
0.000111105
2.54747e-05
-2.84053e-05
-0.000101143
-0.000148629
-0.000270253
-0.000221907
-0.000437956
-0.000247967
-0.00056933
-0.000238617
-0.000641909
-0.000210418
-0.000662451
-0.000183673
-0.00064897
-0.000164953
-0.000610631
-0.000149667
-0.000543956
-0.000130194
-0.000438044
-9.49194e-05
-0.000297427
-2.50855e-05
-0.000124553
7.90243e-05
9.72885e-05
0.000212443
0.000377169
0.000386486
0.000705498
0.000594311
0.00111753
0.000821533
0.00160706
0.000876936
0.00204945
0.000723546
0.00134837
0.00176316
0.00507356
0.0111852
0.015667
0.0126706
0.00585537
0.0110357
0.0044673
0.0100798
0.00249847
0.00912523
0.000288753
0.00794463
-0.00161846
0.006576
-0.00300611
0.00505795
-0.00370746
0.00341651
-0.00363022
0.00180615
-0.00298293
0.000196035
-0.0016332
-0.000885848
-0.000498761
-0.00127313
-8.33953e-05
-0.00136393
3.2596e-05
-0.00131728
8.55756e-05
-0.00120855
0.000120017
-0.00110242
0.000120283
-0.00106418
7.27961e-05
-0.00109835
5.70081e-06
-0.00118907
-5.79784e-05
-0.00130654
-0.0001045
-0.00142364
-0.000130935
-0.00152187
-0.000140447
-0.00159396
-0.000138386
-0.00164719
-0.000130505
-0.00169518
-0.000117023
-0.00175163
-9.32713e-05
-0.00183034
-5.15434e-05
-0.00194367
1.83538e-05
-0.00209152
0.000122701
-0.00228703
0.000274471
-0.00257233
0.000497675
-0.00300307
0.000817154
-0.00365787
0.00124905
-0.00461377
0.00177737
-0.00600645
0.00226955
-0.00768958
0.00240661
-0.00734712
0.00142064
-0.00198134
0.0126352
0.00957249
0.0104535
0.00664899
0.00939247
0.0035595
0.00852503
0.00115622
0.00736771
-0.000461129
0.00582426
-0.00146265
0.00405185
-0.00193506
0.00207162
-0.00165005
9.59315e-05
-0.00100736
-0.00137972
-0.000157753
-0.00196529
8.667e-05
-0.00214245
9.36499e-05
-0.00218402
7.40641e-05
-0.00217242
7.389e-05
-0.00213866
8.61818e-05
-0.00210842
8.99683e-05
-0.00210793
7.22413e-05
-0.00214201
3.97155e-05
-0.00220513
5.08286e-06
-0.00228754
-2.21568e-05
-0.00237762
-4.09168e-05
-0.00246756
-5.05576e-05
-0.00255481
-5.1194e-05
-0.00264064
-4.47379e-05
-0.00272778
-2.99375e-05
-0.00281758
-3.52799e-06
-0.00290648
3.72919e-05
-0.00298868
0.000100496
-0.00306494
0.0001989
-0.00314108
0.000350548
-0.00322019
0.000576716
-0.00330588
0.00090278
-0.00339525
0.00133835
-0.00345826
0.00184031
-0.00345763
0.00226885
-0.00324603
0.00219494
-0.00189052
6.50657e-05
-0.00379549
0.000159427
0.00946334
0.00200596
0.00480245
0.00269686
0.0028686
0.00282681
0.00102626
0.00242501
-5.93431e-05
0.00147056
-0.000508207
1.98442e-05
-0.000484365
-0.00149043
-0.000139961
-0.00253638
3.8423e-05
-0.00284522
0.000150954
-0.00289434
0.000135691
-0.00289778
9.70016e-05
-0.00289638
7.25863e-05
-0.00289154
6.89744e-05
-0.00288272
7.72912e-05
-0.00287705
8.4234e-05
-0.00288557
8.07015e-05
-0.00291245
6.65413e-05
-0.00295409
4.66594e-05
-0.00300433
2.8032e-05
-0.00305751
1.22038e-05
-0.00310861
4.83508e-07
-0.00315402
-5.847e-06
-0.00319171
-7.1026e-06
-0.00321885
-2.8598e-06
-0.00323134
8.90613e-06
-0.00322703
3.29242e-05
-0.00319947
7.28744e-05
-0.00313656
0.000135928
-0.00301797
0.000231887
-0.00281592
0.0003746
-0.00249947
0.000586265
-0.00204505
0.000883872
-0.00142684
0.00122204
-0.000457708
0.00129964
0.00102781
0.000709355
0.00166641
-0.000573602
-0.00204515
-0.016599
-0.0208977
-0.011398
-0.00657145
-0.00368257
-0.0026415
-0.00269317
-0.00319797
-0.00368221
-0.00382471
-0.0037904
-0.00364441
-0.00351416
-0.00342285
-0.00335613
-0.00329317
-0.00322205
-0.00314416
-0.00306997
-0.00301008
-0.00297014
-0.0029488
-0.0029432
-0.00294917
-0.00296128
-0.00297443
-0.00298311
-0.00297978
-0.00295216
-0.00288434
-0.0027532
-0.00252584
-0.00215553
-0.00157334
-0.000693355
0.000524908
0.00182067
0.00252586
0.00194764
)
;

boundaryField
{
    floor
    {
        type            calculated;
        value           nonuniform List<scalar> 
36
(
0
0
0
0
0
0
0
0
0
0
0
0
0
0
0
0
0
0
0
-3.86407e-06
-1.05225e-05
-1.62189e-05
-2.07932e-05
-1.86411e-05
-1.66386e-05
-1.56924e-05
-2.24553e-06
-3.94604e-06
-4.33161e-06
-4.87787e-06
-3.33447e-06
-7.39353e-06
-1.00859e-05
-1.15413e-05
-1.62523e-05
-1.32586e-05
)
;
    }
    ceiling
    {
        type            calculated;
        value           nonuniform List<scalar> 
43
(
-3.70885e-05
-3.67508e-05
-3.63685e-05
-2.42044e-05
-2.04129e-05
-1.49958e-05
-7.83585e-06
-3.54132e-06
-2.30404e-07
2.43658e-06
4.03818e-06
4.89798e-06
5.38166e-06
5.64002e-06
5.81278e-06
5.96076e-06
6.11724e-06
6.29218e-06
6.46702e-06
6.6021e-06
6.66304e-06
6.64008e-06
6.54603e-06
6.39725e-06
6.20812e-06
5.99387e-06
5.76044e-06
5.51092e-06
5.25118e-06
4.98774e-06
4.72539e-06
4.46971e-06
4.22736e-06
4.00731e-06
3.82537e-06
3.70853e-06
3.81314e-06
4.10262e-06
4.55314e-06
5.8893e-06
6.09028e-06
3.17994e-06
-5.02836e-05
)
;
    }
    sWall
    {
        type            calculated;
        value           uniform -0.000215136;
    }
    nWall
    {
        type            calculated;
        value           nonuniform List<scalar> 6(-5.09845e-05 -6.18324e-05 -6.735e-05 -7.64416e-05 -8.39864e-05 -0.000103462);
    }
    sideWalls
    {
        type            empty;
        value           nonuniform 0();
    }
    glass1
    {
        type            calculated;
        value           nonuniform List<scalar> 9(-6.06664e-05 -0.000166465 -0.000258001 -0.000337563 -0.000406029 -0.000463729 -0.000512383 -0.000569561 -0.000632045);
    }
    glass2
    {
        type            calculated;
        value           nonuniform List<scalar> 2(-0.000267161 -0.000292286);
    }
    sun
    {
        type            calculated;
        value           uniform 0;
    }
    Table_master
    {
        type            calculated;
        value           nonuniform List<scalar> 9(-1.53402e-07 -1.53592e-07 -1.53655e-07 -1.53687e-07 -1.53703e-07 -1.53707e-07 -1.53699e-07 -1.53679e-07 -1.53623e-07);
    }
    Table_slave
    {
        type            calculated;
        value           nonuniform List<scalar> 9(1.53225e-07 1.53171e-07 1.53115e-07 1.53082e-07 1.53069e-07 1.53061e-07 1.53077e-07 1.53123e-07 1.53207e-07);
    }
    inlet
    {
        type            calculated;
        value           uniform -0.0163523;
    }
    outlet
    {
        type            calculated;
        value           nonuniform List<scalar> 2(0.0168512 0.00433537);
    }
}


// ************************************************************************* //
