/*--------------------------------*- C++ -*----------------------------------*=========                 |
  \      /  F ield         | OpenFOAM: The Open Source CFD Toolbox
   \    /   O peration     | Website:  https://openfoam.org
    \  /    A nd           | Version:  6
     \/     M anipulation  |
\*---------------------------------------------------------------------------*/
FoamFile
{
    version     2.0;
    format      ascii;
    class       volScalarField;
    location    "700";
    object      PMV;
}
// * * * * * * * * * * * * * * * * * * * * * * * * * * * * * * * * * * * * * //

dimensions      [0 0 0 0 0 0 0];

internalField   nonuniform List<scalar> 
458
(
1.4984190115882168
1.271644205067586
1.2360917954096486
1.2087583047097494
1.192066215292755
1.185447022802571
1.1901424547560906
1.2087594234689119
1.246557860389389
1.3067594831267537
1.38200549290188
1.4612457130967715
1.4488371775968187
1.4456909451705338
1.4473372203211667
1.6978970749395077
1.6783009013037675
1.6653941356997013
1.6610915418349452
1.6677843929870984
1.6744768348070276
1.6788524839266628
1.6749034260520879
1.677377313080467
1.682748950313864
1.689175514599115
1.6970323265877796
1.7066671665846882
1.7184785207620292
1.7345291669759755
1.7580780536454599
1.7834053378552694
1.8053664429009617
1.4413165385175537
1.2773474678057046
1.259163962191967
1.231294807088104
1.2138838345757392
1.2054412051646095
1.20688762881464
1.2159130098485487
1.2327970574800402
1.2640192068411231
1.3198067098339807
1.4328615701012093
1.5028428426152096
1.4731463254299524
1.4204268768110218
1.4058472339433954
1.4311277363759425
1.4746232761236977
1.6896738049696278
1.677344897442922
1.645792089433288
1.6425549351385083
1.6362774403578249
1.6460927092979767
1.653505175179466
1.6603719258392995
1.6677055333402366
1.675416318407421
1.6839275284962412
1.6927686698840507
1.7028470887730878
1.714480838290417
1.7303650892727136
1.7551059166063088
1.7733777485972395
1.784108454667716
1.4689208044040516
1.2658877725681916
1.2836954252913504
1.2696148941709855
1.2599374520578013
1.2527397561231655
1.249259673792727
1.237825305489377
1.2161519678025103
1.2090132622527687
1.2544772986952757
1.376923568189071
1.5006242067164364
1.5383986699245722
1.4900240312013888
1.4695202197993846
1.468951747459594
1.4673304755538135
1.621896940900113
1.6258226319871631
1.5915157066478853
1.5818953820469996
1.5886799709517643
1.5999458306686507
1.632235832324687
1.661982012888914
1.6763888850620206
1.6873825098287205
1.6988528915243304
1.7112776906247866
1.724178732905739
1.7356448937535556
1.7466320027825764
1.758573041746753
1.762875762791535
1.7295795101896438
1.5387684092733882
1.256550999130646
1.301053196473768
1.3135609652829094
1.3285415775254978
1.3342412076075718
1.3258224362407254
1.2822585581277277
1.2073098935616178
1.163555889017051
1.2035558354434601
1.339039197479791
1.4880100047773963
1.5796775985866853
1.56356216461105
1.5207164954913721
1.4758642371818997
1.4368562077580664
1.4148191481564851
1.4752118618282306
1.50380967935729
1.525086500491341
1.559085294338375
1.6026500283229919
1.639930384933966
1.6430312159181566
1.6454321538253611
1.6524637177316588
1.6612765687638364
1.6727596362036807
1.6866153552944327
1.7043066643281333
1.7279969711360508
1.7504514816925962
1.762408660597655
1.7417224563926166
1.7018889703749647
1.6308704125946296
1.2597399723864464
1.3118129149838635
1.3527325803265324
1.408565238853221
1.4503320565745765
1.437121488148732
1.3369032309846591
1.2042975770410993
1.129822843255367
1.1672463931170511
1.3147331361886805
1.4853212309955812
1.6128545256789335
1.6367070688177932
1.5895328525170722
1.529194964165938
1.48675642830052
1.484603200809633
1.4962259112043985
1.5209176040227457
1.5599885201734554
1.6093700062321743
1.6610690549004168
1.703495687581544
1.7244609590707882
1.7371235499156006
1.7483657547064035
1.7583103023384026
1.7663196727528223
1.7725390738086721
1.7776598391536098
1.7799968695263884
1.7755313520129608
1.7646893219166353
1.7268797244561904
1.7337870688893204
1.7578776753437169
1.8577113505028664
1.7483206376053275
1.7284075591647488
1.2820556281123614
1.3301831285236072
1.3740100317394857
1.459753164252573
1.549648243396318
1.5400221753042171
1.3629403391270554
1.194679366557303
1.1061302211198494
1.1452493515667077
1.303004377001039
1.5007623129567575
1.6600806542382138
1.691684051316905
1.6653941356997013
1.6198307272520216
1.5750252865996561
1.5685165578718903
1.5847153512906567
1.6203481137617526
1.667986524144665
1.7194295143475056
1.7690705456595608
1.8091851786932218
1.8273217309484466
1.839251423663729
1.8473625696813551
1.851656357957049
1.8530875667259092
1.8511792823539557
1.844611720892955
1.8308112309336015
1.8085019173329862
1.781332087058743
1.7371944614553028
1.7330558552702449
1.7442962340811394
1.7766269235429681
1.7947063288838483
1.817860574088048
1.355624743303565
1.420086075060988
1.40933963685049
1.4656306519953708
1.5640025799432342
1.4915269913703346
1.3400577186022355
1.169413852832939
1.0826005040385716
1.1349568700118113
1.3162882680928742
1.5462439228745133
1.7323007380536242
1.7494979931458912
1.7194007658701864
1.6888163766370203
1.6749548505522163
1.6878604676086546
1.7198785730511896
1.758573041746753
1.7967736461445873
1.8301850222253282
1.8559499028346316
1.874075473904482
1.8850440240798974
1.8912428923068656
1.8941037241101812
1.8941037241101812
1.890289255753113
1.8850440240798974
1.8774139055349335
1.8678751224783612
1.8535548245511821
1.8169894808937952
1.771372717076376
1.7500926331404087
1.742444705913476
1.7308415671152515
1.8059102733135293
1.9536182488113478
1.7164188430875857
1.6362413707142383
1.5290929516333083
1.5183385159231733
1.5209932675516646
1.4422124032266261
1.2681272608890564
1.0963052321927247
1.0423616872266361
1.1418528744888856
1.3715277862456687
1.6419031263536115
1.7977284448600817
1.8025022755392455
1.781972895685475
1.7633490204259965
1.761438659206299
1.7838828133144178
1.817776684244588
1.8502251221440555
1.8783677147808813
1.899825035236514
1.9136495691609012
1.9217522891953065
1.925564991567902
1.9265181326480634
1.9250884158400048
1.9222288890388675
1.9174627365010384
1.9103128702041834
1.9026855132812317
1.8926733228289303
1.8807521825119566
1.8683520912634959
1.8564269482650038
1.836630108458145
1.8153958053830528
1.7626614802948601
1.7187467035691877
2.1533247893778524
1.9993527698614348
1.8463781692828602
1.7066486665245437
1.6214668070713831
1.5646473433481856
1.3414688191164374
1.0860602424132935
0.9479434073974018
0.998648036264196
1.1990343471212854
1.5103658238159157
1.7991606226151222
1.8583350996345491
1.8534405555735087
1.846027073473275
1.849098969812929
1.8592891570693786
1.8793215113791144
1.90173203381258
1.920799079213136
1.931880948624752
1.9332487456473235
1.931477516252017
1.928303516802419
1.9242464623051296
1.9194607903656045
1.9136933618966199
1.9063206130289754
1.8975948602891186
1.8874453468511434
1.876644522916923
1.8644867009800312
1.8503555144618935
1.835135917811883
1.8218472598489046
1.813852066288482
1.8109142233099549
1.8016439161209585
1.7769434889834146
-1.148903141028905
-0.34894801899898764
0.09972536134701473
0.23456319664208639
0.3312862536626907
0.4844527529818568
0.7212511140410768
1.0635272001953842
1.418156193524843
1.7924769184040332
1.8618646009070643
1.8702699890293906
1.8690926632743632
1.8698444776715208
1.8750112900345357
1.8853816133276882
1.898164058584719
1.908418744763341
1.9141667001122518
1.9153782907587311
1.9137583214278917
1.9097380049282584
1.9049395180866895
1.8993276806520856
1.8937628843357017
1.888144622315038
1.8824403793372613
1.8769015417296304
1.8721512464040304
1.8682299675530678
1.864857222406346
1.8629199222791102
1.8625601842835866
1.8647046891976597
1.8748042845974924
1.9049879174257276
1.9545090154764106
1.8686205127174065
-1.1171347667904088
-0.17102641019322387
0.2434081901081236
0.4907453417903341
0.6679277602764365
0.9342222547957665
1.2564119466426003
1.6730427748750343
1.7998990032673887
1.8605340544047275
1.8811646426526574
1.8871318588579309
1.8904306933744417
1.8934589103843638
1.8977106625589877
1.9029069786828923
1.907601769107714
1.9100997974238898
1.9100797036145958
1.9083892589102511
1.905684900883138
1.9026374974629772
1.8993478407195221
1.8963232774510559
1.8931102839093008
1.890792659718164
1.8889575934932485
1.8876333049749354
1.8870945273112423
1.8888254578095094
1.893013457038419
1.901483949896515
1.912358248754589
1.9241367745002869
1.9364732583023276
1.967368606224123
1.920946844527829
1.8955672941692079
-0.6440281331781622
-0.6151603121282541
-0.514051800693594
0.10720022060577149
0.6333485702416568
1.128782077248649
1.5380221584799074
1.7013755374300488
1.7892643738613494
1.846923086093245
1.8725094938084677
1.8854033719549237
1.893103141695301
1.8975053863230014
1.9005456672838836
1.903183032158484
1.9052661292011865
1.907378390875018
1.9089092146839204
1.9097738151504384
1.910012596106841
1.9097352283340707
1.9094822988668676
1.908752832646135
1.9080447121941646
1.907311273744621
1.9061233822320442
1.9056187680268861
1.9049834613740735
1.905527958456721
1.9068489128954245
1.9115428906371674
1.9204222317310329
1.9358554910588914
1.9559007808034548
1.964420947883787
1.9494076238991667
1.9365018692258376
1.9005382707441538
1.8914675072610871
)
;

boundaryField
{
    ".*"
    {
        type            zeroGradient;
    }
}


// ************************************************************************* //
