/*--------------------------------*- C++ -*----------------------------------*\
  =========                 |
  \\      /  F ield         | OpenFOAM: The Open Source CFD Toolbox
   \\    /   O peration     | Website:  https://openfoam.org
    \\  /    A nd           | Version:  6
     \\/     M anipulation  |
\*---------------------------------------------------------------------------*/
FoamFile
{
    version     2.0;
    format      ascii;
    class       volScalarField;
    location    "700";
    object      T;
}
// * * * * * * * * * * * * * * * * * * * * * * * * * * * * * * * * * * * * * //

dimensions      [0 0 0 1 0 0 0];

internalField   nonuniform List<scalar> 
458
(
302.524
302.263
302.252
302.249
302.246
302.243
302.239
302.235
302.234
302.24
302.267
302.358
302.387
302.394
302.4
302.817
302.776
302.749
302.74
302.754
302.768
302.785
302.803
302.821
302.84
302.859
302.879
302.9
302.921
302.943
302.968
302.996
303.042
302.695
302.277
302.253
302.249
302.245
302.24
302.233
302.22
302.203
302.203
302.25
302.365
302.433
302.439
302.425
302.428
302.429
302.438
302.825
302.774
302.708
302.706
302.721
302.733
302.747
302.763
302.781
302.8
302.82
302.84
302.862
302.885
302.91
302.939
302.975
303.034
302.884
302.308
302.271
302.274
302.276
302.274
302.266
302.236
302.187
302.162
302.219
302.369
302.486
302.518
302.496
302.48
302.464
302.453
302.824
302.73
302.685
302.688
302.717
302.725
302.737
302.753
302.772
302.795
302.819
302.845
302.872
302.896
302.919
302.944
302.976
303.035
303.084
302.353
302.298
302.313
302.334
302.348
302.343
302.29
302.187
302.123
302.181
302.365
302.532
302.599
302.582
302.551
302.515
302.481
302.487
302.52
302.556
302.611
302.678
302.743
302.794
302.827
302.854
302.877
302.896
302.915
302.933
302.95
302.966
302.97
302.974
302.989
303.039
303.29
302.415
302.326
302.351
302.397
302.443
302.455
302.37
302.199
302.091
302.146
302.357
302.572
302.684
302.689
302.642
302.589
302.546
302.541
302.563
302.616
302.689
302.771
302.847
302.908
302.952
302.984
303.009
303.028
303.041
303.048
303.05
303.045
303.033
303.017
303.011
303.04
303.165
303.277
303.27
303.484
302.501
302.363
302.373
302.43
302.507
302.563
302.435
302.204
302.066
302.12
302.351
302.618
302.778
302.804
302.749
302.683
302.638
302.64
302.684
302.756
302.841
302.924
302.995
303.05
303.088
303.113
303.13
303.139
303.142
303.138
303.129
303.114
303.092
303.065
303.043
303.048
303.114
303.162
303.213
303.648
302.649
302.47
302.438
302.468
302.537
302.603
302.444
302.182
302.032
302.1
302.368
302.689
302.889
302.925
302.862
302.798
302.769
302.796
302.863
302.944
303.024
303.094
303.148
303.186
303.209
303.222
303.228
303.228
303.22
303.209
303.193
303.173
303.146
303.116
303.087
303.077
303.101
303.128
303.165
303.887
303.143
302.905
302.745
302.687
302.74
302.667
302.382
302.075
301.956
302.09
302.432
302.812
303.026
303.036
302.993
302.954
302.95
302.997
303.068
303.136
303.195
303.24
303.269
303.286
303.294
303.296
303.293
303.287
303.277
303.262
303.246
303.225
303.2
303.174
303.149
303.139
303.152
303.179
303.326
304.226
303.883
303.615
303.348
303.161
303.031
302.597
302.1
301.807
301.841
302.131
302.597
303.029
303.153
303.16
303.144
303.137
303.155
303.197
303.244
303.284
303.315
303.335
303.345
303.348
303.346
303.341
303.334
303.325
303.316
303.308
303.301
303.297
303.298
303.308
303.33
303.365
303.403
303.432
303.498
298.208
299.627
300.376
300.558
300.685
300.909
301.278
301.822
302.37
303.015
303.234
303.281
303.286
303.288
303.296
303.314
303.339
303.362
303.378
303.387
303.391
303.39
303.387
303.382
303.377
303.372
303.367
303.362
303.358
303.356
303.356
303.361
303.373
303.393
303.422
303.457
303.496
303.541
298.29
299.616
300.17
300.478
300.83
301.361
301.945
302.765
303.145
303.318
303.367
303.38
303.387
303.393
303.401
303.411
303.421
303.428
303.431
303.431
303.429
303.426
303.422
303.418
303.413
303.409
303.405
303.401
303.397
303.395
303.394
303.397
303.403
303.416
303.435
303.462
303.479
303.521
299.489
299.463
299.461
300.43
301.086
301.89
302.675
303.008
303.223
303.359
303.413
303.434
303.443
303.447
303.45
303.453
303.455
303.457
303.458
303.458
303.457
303.455
303.453
303.45
303.447
303.444
303.44
303.437
303.433
303.43
303.426
303.424
303.422
303.421
303.422
303.428
303.441
303.453
303.463
303.514
)
;

boundaryField
{
    floor
    {
        type            wallHeatTransfer;
        Tinf            uniform 305.2;
        alphaWall       uniform 0.24;
        value           nonuniform List<scalar> 
36
(
302.699
303.262
303.188
303.131
303.103
303.108
303.135
303.169
303.203
303.236
303.268
303.3
303.33
303.361
303.391
303.423
303.457
303.494
303.559
303.559
303.503
303.47
303.437
303.48
303.559
303.536
302.699
302.695
302.722
302.766
303.262
302.766
303.274
302.762
303.258
302.786
)
;
    }
    ceiling
    {
        type            wallHeatTransfer;
        Tinf            uniform 303.2;
        alphaWall       uniform 0.24;
        value           nonuniform List<scalar> 
43
(
299.694
299.668
299.663
300.562
301.196
301.97
302.715
303.025
303.221
303.342
303.387
303.403
303.409
303.412
303.414
303.416
303.418
303.419
303.419
303.418
303.417
303.415
303.413
303.411
303.409
303.407
303.405
303.402
303.4
303.398
303.397
303.395
303.395
303.395
303.398
303.404
303.416
303.427
303.434
303.478
304.176
303.855
298.606
)
;
    }
    sWall
    {
        type            wallHeatTransfer;
        Tinf            uniform 315.2;
        alphaWall       uniform 0.36;
        value           uniform 300.76;
    }
    nWall
    {
        type            wallHeatTransfer;
        Tinf            uniform 307.2;
        alphaWall       uniform 0.36;
        value           nonuniform List<scalar> 6(304.031 303.969 303.864 304.085 304.062 304.12);
    }
    sideWalls
    {
        type            empty;
    }
    glass1
    {
        type            wallHeatTransfer;
        Tinf            uniform 315.2;
        alphaWall       uniform 4.3;
        value           nonuniform List<scalar> 9(311.089 310.55 310.205 309.939 309.712 309.493 309.276 309.317 309.516);
    }
    glass2
    {
        type            wallHeatTransfer;
        Tinf            uniform 307.2;
        alphaWall       uniform 4.3;
        value           nonuniform List<scalar> 2(305.766 305.866);
    }
    sun
    {
        type            wallHeatTransfer;
        Tinf            uniform 305.2;
        alphaWall       uniform 0.24;
        value           nonuniform List<scalar> 
14
(
302.797
302.542
302.524
302.511
302.499
302.488
302.477
302.466
302.459
302.462
302.487
302.585
302.632
302.664
)
;
    }
    Table_master
    {
        type            zeroGradient;
    }
    Table_slave
    {
        type            zeroGradient;
    }
    inlet
    {
        type            fixedValue;
        value           uniform 296.15;
    }
    outlet
    {
        type            zeroGradient;
    }
}


// ************************************************************************* //
