/*--------------------------------*- C++ -*----------------------------------*\
  =========                 |
  \\      /  F ield         | OpenFOAM: The Open Source CFD Toolbox
   \\    /   O peration     | Website:  https://openfoam.org
    \\  /    A nd           | Version:  6
     \\/     M anipulation  |
\*---------------------------------------------------------------------------*/
FoamFile
{
    version     2.0;
    format      ascii;
    class       volScalarField;
    location    "3000";
    object      alphat;
}
// * * * * * * * * * * * * * * * * * * * * * * * * * * * * * * * * * * * * * //

dimensions      [1 -1 -1 0 0 0 0];

internalField   nonuniform List<scalar> 
458
(
0.00144663
0.00159021
0.00164461
0.00173246
0.00181709
0.00190358
0.00199447
0.00207671
0.00214033
0.00216935
0.00213311
0.00194369
0.00173562
0.00152887
0.00132634
0.000682467
0.000810199
0.000932466
0.000971103
0.000960039
0.000908847
0.000850999
0.000797984
0.000751004
0.000709388
0.000672458
0.000639652
0.000609937
0.000582223
0.000555238
0.000527071
0.000502811
0.00045652
0.00188939
0.00438974
0.00410686
0.00469483
0.00530045
0.00585842
0.00629383
0.00676944
0.0072376
0.00764466
0.00794715
0.00787192
0.00710054
0.00544206
0.0034484
0.00149427
0.00131654
0.00111885
0.000670144
0.00177481
0.00271979
0.0033842
0.00349408
0.00249524
0.00210862
0.00185833
0.00167664
0.00153778
0.00142636
0.00132382
0.00122321
0.00111734
0.00101985
0.000938058
0.00107332
0.000560372
0.00224851
0.00581987
0.00490552
0.00563815
0.0059244
0.00613407
0.00634011
0.00666941
0.0071194
0.00769883
0.0083682
0.00887578
0.00862237
0.00772506
0.00601624
0.00413192
0.00307779
0.00120236
0.000990711
0.00205953
0.00319466
0.0041421
0.00418301
0.00118424
0.00104109
0.000922214
0.000826123
0.000748715
0.00068608
0.000635742
0.000595805
0.000566414
0.000640417
0.000762228
0.00123136
0.000636423
0.00258255
0.00715956
0.00478355
0.00563537
0.00558072
0.00550056
0.00558455
0.00585019
0.00632092
0.00703511
0.00791006
0.00862849
0.00867594
0.00821242
0.0071693
0.00572045
0.00431442
0.0023444
0.00128979
0.00218149
0.00342014
0.00468046
0.00553636
0.00527921
0.00129767
0.00118643
0.00111153
0.00105612
0.00100835
0.00096137
0.000915778
0.000866882
0.000809111
0.000755099
0.000775239
0.0013752
0.000710745
0.00291404
0.00893284
0.00480232
0.00537654
0.00520504
0.00496854
0.00505761
0.00533094
0.00584125
0.0066403
0.0075925
0.00828699
0.00836452
0.00808548
0.00752812
0.00664409
0.00558552
0.004391
0.00468252
0.00553334
0.00644231
0.00713125
0.00741054
0.00715903
0.00589387
0.0053071
0.00501205
0.00480535
0.00458649
0.00426905
0.00377486
0.00315758
0.00247282
0.00182766
0.00137981
0.00135664
0.00111693
0.000875732
0.000957777
0.000941093
0.00326533
0.0109826
0.00602336
0.0050854
0.00508813
0.00483094
0.00487408
0.00515176
0.00568704
0.00651863
0.00746533
0.00805429
0.00806331
0.00788051
0.00775597
0.00750544
0.00715107
0.00694188
0.00761919
0.00842531
0.0088619
0.00888929
0.00857813
0.00802869
0.00734638
0.00686129
0.00652355
0.0062311
0.0059362
0.00560885
0.00515789
0.0045458
0.00379016
0.00296626
0.00226859
0.00173315
0.00139147
0.00155959
0.00226659
0.00116604
0.00361686
0.0125169
0.00857369
0.00563242
0.00501287
0.00505385
0.00504562
0.00525704
0.00574902
0.00655408
0.00747333
0.00798066
0.00790367
0.00796035
0.00846073
0.00869578
0.00881576
0.00911984
0.00973126
0.0100218
0.00986159
0.0093404
0.00860047
0.00777734
0.00706725
0.00658304
0.00624605
0.00595599
0.00569171
0.00544857
0.00522197
0.00490665
0.00439416
0.0037191
0.00306362
0.00249518
0.00208573
0.00201533
0.00253556
0.00145507
0.0037083
0.0114664
0.00956848
0.0076258
0.00638506
0.00587039
0.00547462
0.00551659
0.00595827
0.0067381
0.00762265
0.0080221
0.00791991
0.00841686
0.009157
0.00951393
0.00976589
0.0100482
0.0102357
0.0099887
0.00933584
0.00842711
0.00745038
0.00658228
0.00595557
0.00555656
0.0052829
0.00506785
0.00489819
0.00478276
0.00473317
0.0047328
0.00464827
0.00425429
0.00391032
0.00373724
0.00383505
0.00401903
0.00518088
0.00185303
0.00364175
0.00442375
0.00506776
0.00530725
0.00524189
0.00516992
0.00526203
0.00564592
0.0062208
0.00702624
0.00786314
0.00810025
0.00822364
0.00880491
0.00919636
0.00935566
0.00945792
0.0094412
0.00915361
0.00849822
0.0075802
0.0066121
0.00578643
0.00519126
0.00479909
0.0045251
0.0043012
0.00409915
0.00391544
0.00375268
0.00360959
0.00347824
0.00335997
0.00326269
0.00320122
0.00317147
0.00311089
0.00296556
0.00277173
0.00180428
0.00173434
0.00300386
0.00396674
0.00474267
0.00559138
0.00630831
0.00675914
0.00740415
0.00801337
0.00831885
0.00837341
0.00835335
0.00819435
0.00806496
0.0079101
0.00761885
0.00712245
0.00646431
0.00577341
0.00519918
0.00478408
0.00449469
0.00427512
0.00408091
0.0038894
0.00369708
0.00351314
0.00335376
0.00323762
0.00317876
0.00316261
0.00316873
0.00318373
0.00318
0.0031191
0.00297786
0.0027076
0.00158932
0.00266663
0.00537661
0.00643559
0.00748506
0.00802021
0.00716514
0.00641971
0.0066762
0.00668558
0.00684655
0.00678346
0.00659559
0.00644201
0.00631271
0.00614575
0.0058953
0.00555447
0.00515875
0.0047922
0.00450092
0.0042773
0.00409893
0.00394678
0.00381051
0.00368797
0.00358142
0.00349303
0.00342106
0.00336019
0.00334573
0.00337181
0.00342674
0.00349243
0.00354533
0.00360445
0.00388814
0.00255773
0.00167324
0.00310055
0.00313063
0.00317302
0.00366283
0.00328453
0.00271756
0.00204945
0.00176335
0.00157328
0.00148497
0.00143637
0.00138595
0.00134488
0.00131792
0.00129917
0.00128107
0.00125813
0.0012285
0.00119575
0.00116813
0.00114717
0.00113238
0.00112335
0.00111947
0.00112055
0.00112687
0.00113901
0.00115776
0.0011842
0.00122001
0.00126763
0.00132403
0.00138989
0.00146499
0.00154931
0.00164236
0.00173209
0.00161414
0.00148143
0.00156083
)
;

boundaryField
{
    floor
    {
        type            compressible::alphatWallFunction;
        Prt             0.85;
        value           nonuniform List<scalar> 
36
(
0.000187339
9.65174e-05
0.000115137
0.000132635
0.000138109
0.000136547
0.000129281
0.000121013
0.000113377
0.00010656
0.000100478
9.50453e-05
9.01889e-05
8.57639e-05
8.1613e-05
7.75478e-05
7.32785e-05
6.95787e-05
6.24564e-05
6.24556e-05
7.83244e-05
8.97117e-05
0.000100681
0.000124565
0.000136238
0.000133879
0.000187337
0.000210078
0.000186005
0.00015879
9.65163e-05
0.000158788
9.46988e-05
0.000170347
0.000140868
0.000182355
)
;
    }
    ceiling
    {
        type            compressible::alphatWallFunction;
        Prt             0.85;
        value           nonuniform List<scalar> 
43
(
0.000416694
0.000420431
0.000425694
0.000486085
0.000439639
0.000368938
0.000283545
0.000246097
0.000220851
0.000209007
0.000202454
0.00019563
0.000190049
0.000186377
0.000183817
0.000181342
0.000178199
0.000174129
0.000169618
0.000165803
0.000162899
0.000160847
0.000159592
0.000159053
0.000159203
0.000160081
0.000161766
0.000164365
0.000168021
0.000172958
0.000179497
0.000187207
0.000196164
0.000206319
0.000217651
0.000230078
0.000241989
0.00022632
0.00020854
0.000219211
0.000483799
0.000578462
0.000362223
)
;
    }
    sWall
    {
        type            compressible::alphatWallFunction;
        Prt             0.85;
        value           uniform 0.000415346;
    }
    nWall
    {
        type            compressible::alphatWallFunction;
        Prt             0.85;
        value           nonuniform List<scalar> 6(0.000133627 0.000165109 0.000204567 0.000222629 0.000233803 0.000218831);
    }
    sideWalls
    {
        type            empty;
    }
    glass1
    {
        type            compressible::alphatWallFunction;
        Prt             0.85;
        value           nonuniform List<scalar> 9(0.000197978 0.000255944 0.000302008 0.000344245 0.000385665 0.000429069 0.000472061 0.000483335 0.000475537);
    }
    glass2
    {
        type            compressible::alphatWallFunction;
        Prt             0.85;
        value           nonuniform List<scalar> 2(0.00025539 0.000249127);
    }
    sun
    {
        type            compressible::alphatWallFunction;
        Prt             0.85;
        value           nonuniform List<scalar> 
14
(
0.000203664
0.000222925
0.000230178
0.000241836
0.000253006
0.000264362
0.000276237
0.000286929
0.000295171
0.000298922
0.00029424
0.000269618
0.000242264
0.000214723
)
;
    }
    Table_master
    {
        type            compressible::alphatWallFunction;
        Prt             0.85;
        value           nonuniform List<scalar> 9(0.000168109 0.000148193 0.000131411 0.000117661 0.000106445 9.72678e-05 8.98186e-05 8.38572e-05 7.94385e-05);
    }
    Table_slave
    {
        type            compressible::alphatWallFunction;
        Prt             0.85;
        value           nonuniform List<scalar> 9(0.000183698 0.000168416 0.000158033 0.0001503 0.000143597 0.000136968 0.000130498 0.000123517 0.000115209);
    }
    inlet
    {
        type            fixedValue;
        value           uniform 1.94e-05;
    }
    outlet
    {
        type            zeroGradient;
    }
}


// ************************************************************************* //
