/*--------------------------------*- C++ -*----------------------------------*\
  =========                 |
  \\      /  F ield         | OpenFOAM: The Open Source CFD Toolbox
   \\    /   O peration     | Website:  https://openfoam.org
    \\  /    A nd           | Version:  6
     \\/     M anipulation  |
\*---------------------------------------------------------------------------*/
FoamFile
{
    version     2.0;
    format      ascii;
    class       volScalarField;
    location    "400";
    object      nut;
}
// * * * * * * * * * * * * * * * * * * * * * * * * * * * * * * * * * * * * * //

dimensions      [0 2 -1 0 0 0 0];

internalField   nonuniform List<scalar> 
458
(
0.000948758
0.00102057
0.00104078
0.00108605
0.00112567
0.00116108
0.00119394
0.00122585
0.00125876
0.00129053
0.00131822
0.00133826
0.00134588
0.00133692
0.00130933
0.000518302
0.000622648
0.000674792
0.000657629
0.000630031
0.000593308
0.000556467
0.000523419
0.000494388
0.000468824
0.000446157
0.00042565
0.000406147
0.000386035
0.000362604
0.000331148
0.000320465
0.000329348
0.00130038
0.00246183
0.00214406
0.00240061
0.00262933
0.00287976
0.00313888
0.00338384
0.00357429
0.00375132
0.00393048
0.00407998
0.00415272
0.00407833
0.0036401
0.001389
0.00116748
0.000956653
0.000555236
0.00103611
0.00133777
0.0015259
0.00157105
0.00129426
0.00114126
0.00102868
0.000940495
0.000869993
0.000809557
0.000749928
0.000686042
0.000621296
0.000570757
0.000514701
0.000650902
0.000476544
0.00160763
0.003324
0.00250387
0.00312339
0.00333743
0.00348863
0.00358924
0.0036602
0.00372349
0.00381414
0.00393405
0.00405482
0.00415917
0.0042833
0.00455771
0.00479051
0.00420333
0.00109221
0.00101539
0.00138631
0.00167454
0.00191179
0.0019797
0.000790542
0.000704605
0.000632171
0.000571997
0.00052182
0.00047987
0.000445224
0.00041754
0.000396984
0.000431035
0.000466136
0.000736516
0.000542264
0.00191817
0.00448518
0.00240741
0.00338001
0.00356586
0.00357448
0.00350402
0.00342785
0.00340737
0.00346184
0.00356203
0.00365864
0.00372266
0.00381778
0.0042347
0.00508819
0.00517938
0.00303513
0.00132748
0.00165814
0.00203903
0.00239747
0.00268433
0.00268711
0.000841792
0.000778973
0.000753668
0.000748741
0.000749845
0.000745722
0.000727782
0.000703977
0.000671864
0.000597292
0.000543762
0.000841171
0.000593606
0.0022453
0.00617085
0.00259107
0.00329154
0.00363161
0.00357048
0.00338889
0.00321774
0.00315921
0.0032337
0.00337403
0.0034883
0.00351188
0.00348676
0.00379914
0.00465987
0.00505567
0.0045647
0.00412442
0.00389439
0.00386824
0.00391599
0.00396848
0.00392751
0.00351099
0.00348228
0.00355354
0.0035998
0.00358396
0.00349601
0.00332281
0.0029351
0.00239945
0.00178515
0.00126967
0.00100532
0.000917539
0.000718289
0.000752087
0.000751657
0.00260184
0.0081578
0.00403845
0.00296593
0.00342152
0.00351784
0.00336217
0.00312688
0.00299644
0.00311699
0.00333238
0.00348827
0.00349244
0.00335006
0.00353506
0.00426583
0.00458721
0.00446631
0.00452341
0.00471351
0.00478861
0.00474871
0.0046642
0.00453615
0.00440293
0.00439105
0.00439922
0.00437256
0.00430059
0.00419207
0.0040488
0.00382126
0.00340954
0.00281161
0.00216761
0.0015725
0.00125551
0.0013631
0.00195842
0.000966583
0.00297379
0.00978645
0.00699104
0.0042021
0.00320044
0.00292541
0.00293455
0.00297863
0.00294306
0.00315469
0.0034035
0.00356961
0.00354676
0.00331061
0.00338767
0.00410331
0.00439954
0.0043832
0.00469758
0.0049295
0.00489791
0.00473756
0.0045548
0.00440935
0.00434242
0.00433383
0.00432158
0.00427999
0.00421117
0.00413814
0.0040729
0.00401729
0.00383736
0.00342978
0.00288779
0.00233677
0.00196051
0.00189809
0.00235692
0.00123299
0.00306903
0.00934324
0.00818545
0.00702218
0.00552039
0.00426545
0.00354506
0.00332586
0.00338361
0.00347331
0.00360633
0.00371071
0.00361264
0.00325141
0.00326669
0.0041099
0.00445231
0.00443398
0.00452246
0.00444913
0.00430692
0.00419115
0.00410881
0.00405309
0.00402196
0.00400123
0.00397159
0.00392858
0.0038833
0.00385705
0.00387516
0.00395817
0.00407509
0.00393857
0.00362649
0.00346234
0.0035968
0.00376717
0.00454754
0.0016132
0.0030253
0.00366869
0.00413588
0.00450371
0.00461951
0.00441557
0.00410172
0.00389179
0.00379548
0.00377474
0.00383223
0.00386078
0.00361688
0.00306866
0.00308138
0.00420042
0.00454443
0.00425609
0.00394347
0.00371482
0.00369956
0.00376101
0.00377582
0.00374182
0.00369952
0.0036579
0.00360152
0.003523
0.00343065
0.00333893
0.0032576
0.00318488
0.00310693
0.00302744
0.00295279
0.00290311
0.00281202
0.00263012
0.00243174
0.00154747
0.00088757
0.0018371
0.00279295
0.00340527
0.00367652
0.00378068
0.00383729
0.00390712
0.00396505
0.00386672
0.00336674
0.00261907
0.00275397
0.0043501
0.00454947
0.00400205
0.00350148
0.00337652
0.0035725
0.0037381
0.00370507
0.00359396
0.00352017
0.00347336
0.00340499
0.00330158
0.00317805
0.00305316
0.00294353
0.00286557
0.00282935
0.00280541
0.0027635
0.0026738
0.00248659
0.00218016
0.00181079
0.00124138
0.00234611
0.00346086
0.00409187
0.00436209
0.00442452
0.00438129
0.00426601
0.00408922
0.00374009
0.00325261
0.002543
0.00184022
0.00216438
0.00348246
0.00371968
0.00361668
0.00340089
0.00333965
0.00355858
0.00366523
0.00351188
0.00328514
0.00313684
0.00305278
0.00298124
0.002915
0.00287062
0.00285476
0.00285682
0.00286626
0.00290495
0.00295128
0.00297788
0.00295168
0.00285685
0.00271441
0.00218059
0.00125543
0.00256985
0.00259121
0.00262315
0.00283694
0.00270442
0.00257227
0.00234913
0.00212639
0.00194055
0.00176075
0.00161493
0.00148171
0.00133778
0.00101912
0.000963113
0.0010228
0.00102358
0.000977252
0.000936839
0.000933784
0.000941176
0.000941714
0.000932357
0.000923538
0.000923426
0.000931825
0.000946769
0.000967936
0.000995794
0.00103102
0.0010751
0.00112937
0.00119007
0.00125658
0.0013266
0.0013971
0.00145815
0.00142908
0.00131266
0.00120605
)
;

boundaryField
{
    floor
    {
        type            nutkWallFunction;
        Cmu             0.09;
        kappa           0.41;
        E               9.8;
        value           nonuniform List<scalar> 
36
(
0.000156492
6.2062e-05
7.51827e-05
8.16278e-05
7.9505e-05
7.60832e-05
7.15058e-05
6.688e-05
6.2699e-05
5.89992e-05
5.57188e-05
5.27912e-05
5.01259e-05
4.75753e-05
4.49273e-05
4.18181e-05
3.76027e-05
3.61794e-05
3.73985e-05
3.73984e-05
5.67535e-05
6.51252e-05
7.15754e-05
8.69791e-05
9.10895e-05
9.1042e-05
0.000156492
0.00016558
0.000140239
0.0001156
6.20619e-05
0.0001156
6.67504e-05
0.000131487
0.000122548
0.000158598
)
;
    }
    ceiling
    {
        type            nutkWallFunction;
        Cmu             0.09;
        kappa           0.41;
        E               9.8;
        value           nonuniform List<scalar> 
43
(
0.000294361
0.000296621
0.0003
0.000322579
0.000308684
0.000294736
0.000270983
0.000247031
0.000226839
0.000207104
0.000190936
0.000176028
0.000159758
0.000123038
0.000116359
0.000123383
0.000123498
0.00011807
0.000113255
0.000112881
0.00011376
0.000113838
0.000112736
0.000111688
0.000111669
0.000112664
0.000114434
0.000116936
0.000120219
0.000124356
0.000129511
0.000135825
0.000142846
0.000150494
0.000158496
0.000166505
0.000173403
0.000170122
0.000156906
0.000144689
0.000342639
0.000409079
0.000270443
)
;
    }
    sWall
    {
        type            nutkWallFunction;
        Cmu             0.09;
        kappa           0.41;
        E               9.8;
        value           uniform 0.000294437;
    }
    nWall
    {
        type            nutkWallFunction;
        Cmu             0.09;
        kappa           0.41;
        E               9.8;
        value           nonuniform List<scalar> 6(9.10413e-05 0.000116784 0.000147795 0.000148763 0.000150375 0.000144701);
    }
    sideWalls
    {
        type            empty;
    }
    glass1
    {
        type            nutkWallFunction;
        Cmu             0.09;
        kappa           0.41;
        E               9.8;
        value           nonuniform List<scalar> 9(0.000114721 0.000155673 0.000190419 0.000224796 0.00026036 0.000298498 0.000337702 0.000347667 0.000343119);
    }
    glass2
    {
        type            nutkWallFunction;
        Cmu             0.09;
        kappa           0.41;
        E               9.8;
        value           nonuniform List<scalar> 2(0.000190885 0.000183537);
    }
    sun
    {
        type            nutkWallFunction;
        Cmu             0.09;
        kappa           0.41;
        E               9.8;
        value           nonuniform List<scalar> 
14
(
0.000114654
0.000123109
0.000125477
0.000130761
0.000135365
0.000139466
0.000143256
0.000146927
0.000150701
0.000154333
0.000157491
0.000159772
0.00016064
0.000159624
)
;
    }
    Table_master
    {
        type            nutkWallFunction;
        Cmu             0.09;
        kappa           0.41;
        E               9.8;
        value           nonuniform List<scalar> 9(9.57365e-05 8.52826e-05 7.63527e-05 6.88399e-05 6.25013e-05 5.71445e-05 5.26772e-05 4.90773e-05 4.63858e-05);
    }
    Table_slave
    {
        type            nutkWallFunction;
        Cmu             0.09;
        kappa           0.41;
        E               9.8;
        value           nonuniform List<scalar> 9(0.000101911 9.43424e-05 9.12753e-05 9.06795e-05 9.08176e-05 9.03195e-05 8.81358e-05 8.5225e-05 8.12793e-05);
    }
    inlet
    {
        type            calculated;
        value           uniform 0.00033541;
    }
    outlet
    {
        type            calculated;
        value           nonuniform List<scalar> 2(0.00256985 0.00259121);
    }
}


// ************************************************************************* //
