/*--------------------------------*- C++ -*----------------------------------*\
  =========                 |
  \\      /  F ield         | OpenFOAM: The Open Source CFD Toolbox
   \\    /   O peration     | Website:  https://openfoam.org
    \\  /    A nd           | Version:  6
     \\/     M anipulation  |
\*---------------------------------------------------------------------------*/
FoamFile
{
    version     2.0;
    format      ascii;
    class       volVectorField;
    location    "400";
    object      U;
}
// * * * * * * * * * * * * * * * * * * * * * * * * * * * * * * * * * * * * * //

dimensions      [0 1 -1 0 0 0 0];

internalField   nonuniform List<vector> 
458
(
(0.0462343 0.0904992 0)
(-0.174958 0.0254509 0)
(-0.200415 0.0213111 0)
(-0.23799 0.0168718 0)
(-0.269604 0.0119564 0)
(-0.294651 0.00671 0)
(-0.312112 0.000969715 0)
(-0.320514 -0.00549935 0)
(-0.317576 -0.0129734 0)
(-0.301345 -0.0219073 0)
(-0.270158 -0.0319764 0)
(-0.223679 -0.0423202 0)
(-0.164647 -0.0519507 0)
(-0.102771 -0.0595324 0)
(-0.0635658 -0.060844 0)
(0.0047469 0.00678908 0)
(-0.0232642 -0.0269596 0)
(0.012722 -0.0363207 0)
(0.0396813 -0.0263033 0)
(0.0622299 -0.0171343 0)
(0.0768112 -0.00955043 0)
(0.0836193 -0.005782 0)
(0.0857691 -0.00442579 0)
(0.0863777 -0.00385813 0)
(0.0867234 -0.00340969 0)
(0.0867757 -0.00285596 0)
(0.0860957 -0.00194309 0)
(0.0839532 -0.000252923 0)
(0.0789827 0.00298511 0)
(0.0689228 0.00876265 0)
(0.0503863 0.0144077 0)
(0.0438776 0.00900873 0)
(-0.0641902 0.0139984 0)
(0.243369 0.186996 0)
(-0.170349 0.0676432 0)
(-0.165155 0.0614483 0)
(-0.205137 0.0531367 0)
(-0.236667 0.0439849 0)
(-0.261752 0.0337481 0)
(-0.279615 0.0217638 0)
(-0.288922 0.00732097 0)
(-0.287434 -0.0102633 0)
(-0.273542 -0.0309126 0)
(-0.246156 -0.0531634 0)
(-0.205394 -0.0744168 0)
(-0.153884 -0.0915057 0)
(-0.0977122 -0.0998192 0)
(-0.0469661 -0.0897822 0)
(0.00810919 -0.0439837 0)
(0.0531871 0.0151148 0)
(-0.00930206 0.0709224 0)
(0.0919139 0.0337437 0)
(0.0397233 -0.0302454 0)
(0.0471312 -0.0432771 0)
(0.0634666 -0.0360337 0)
(0.0770294 -0.0244028 0)
(0.0843635 -0.00906349 0)
(0.0854933 -0.000660702 0)
(0.0848302 0.0021617 0)
(0.0845993 0.00294662 0)
(0.0847494 0.00330564 0)
(0.0848299 0.00373696 0)
(0.0846724 0.00464591 0)
(0.0842391 0.00674186 0)
(0.0828581 0.011491 0)
(0.0770898 0.0228474 0)
(0.061799 0.0313717 0)
(0.0626226 0.0285923 0)
(-0.0922288 0.0389048 0)
(0.424817 0.281718 0)
(-0.197152 0.110437 0)
(-0.124504 0.100925 0)
(-0.165706 0.0846812 0)
(-0.194068 0.0688475 0)
(-0.217625 0.0515365 0)
(-0.235444 0.0314429 0)
(-0.246044 0.00762645 0)
(-0.246769 -0.020461 0)
(-0.235607 -0.0529747 0)
(-0.212282 -0.087698 0)
(-0.17756 -0.119988 0)
(-0.134241 -0.144528 0)
(-0.0869888 -0.153821 0)
(-0.0435756 -0.134973 0)
(-0.00615278 -0.0802048 0)
(0.02572 -0.00823567 0)
(-0.0484106 0.0689457 0)
(0.134319 -0.0532358 0)
(0.0785525 -0.0596486 0)
(0.0717883 -0.0552972 0)
(0.0768215 -0.0459685 0)
(0.0820812 -0.0373239 0)
(0.0870763 -0.0254544 0)
(0.0795935 -0.0158361 0)
(0.0737421 -0.0109435 0)
(0.0719239 -0.00829858 0)
(0.071736 -0.00655723 0)
(0.071972 -0.00508539 0)
(0.0729521 -0.00334298 0)
(0.0759597 -0.000669258 0)
(0.0835041 0.0055094 0)
(0.0843744 0.0309952 0)
(0.0683976 0.0475227 0)
(0.0751306 0.0524326 0)
(-0.112272 0.0697362 0)
(0.588396 0.358857 0)
(-0.24373 0.149411 0)
(-0.078606 0.134794 0)
(-0.121935 0.112236 0)
(-0.143425 0.0929725 0)
(-0.163207 0.07175 0)
(-0.179736 0.0462304 0)
(-0.191195 0.0148991 0)
(-0.194245 -0.0231208 0)
(-0.185499 -0.0672849 0)
(-0.166297 -0.113748 0)
(-0.138406 -0.155627 0)
(-0.104491 -0.186453 0)
(-0.0675787 -0.197336 0)
(-0.0339685 -0.172619 0)
(-0.00525726 -0.109043 0)
(0.0307241 -0.0281245 0)
(0.0427509 0.0471251 0)
(0.10376 0.0512448 0)
(0.107626 -0.0218166 0)
(0.0855901 -0.0450065 0)
(0.0737483 -0.0452237 0)
(0.0671547 -0.0397977 0)
(0.0597818 -0.0323136 0)
(0.0585149 -0.0177966 0)
(0.0684767 -0.0118139 0)
(0.0783678 -0.00941614 0)
(0.0871682 -0.00849652 0)
(0.0957349 -0.00771632 0)
(0.103239 -0.0061916 0)
(0.107639 -0.00324963 0)
(0.105278 0.00162661 0)
(0.0921858 0.00925098 0)
(0.0782984 0.0397416 0)
(0.0657344 0.0634282 0)
(0.0839051 0.0793154 0)
(-0.119026 0.10499 0)
(0.730814 0.419423 0)
(-0.298172 0.182657 0)
(-0.0290417 0.155228 0)
(-0.0746647 0.130269 0)
(-0.0867862 0.110752 0)
(-0.100842 0.0881828 0)
(-0.114373 0.0593446 0)
(-0.125486 0.0223914 0)
(-0.130166 -0.0238459 0)
(-0.122195 -0.0781408 0)
(-0.106808 -0.13406 0)
(-0.0867755 -0.182279 0)
(-0.0637706 -0.216912 0)
(-0.0390195 -0.22918 0)
(-0.0173737 -0.201017 0)
(0.00183207 -0.13456 0)
(0.026681 -0.0597163 0)
(0.058633 -0.0166895 0)
(0.0807177 -0.0274877 0)
(0.0808775 -0.0437676 0)
(0.0687282 -0.0444447 0)
(0.0549621 -0.0383655 0)
(0.0443036 -0.0317274 0)
(0.0370546 -0.0244927 0)
(0.0365628 -0.0138844 0)
(0.0429544 -0.0107786 0)
(0.0513037 -0.0116844 0)
(0.0603475 -0.0129097 0)
(0.0697903 -0.012591 0)
(0.0787004 -0.0094239 0)
(0.0856029 -0.00218126 0)
(0.0887494 0.0091394 0)
(0.0859385 0.024231 0)
(0.0803985 0.0482676 0)
(0.0732817 0.0728001 0)
(0.102051 0.0955011 0)
(0.034775 0.109705 0)
(0.109474 0.148134 0)
(0.135565 0.173703 0)
(-0.168169 0.215042 0)
(0.834662 0.470777 0)
(-0.350243 0.206287 0)
(0.0144226 0.151957 0)
(-0.0226811 0.138807 0)
(-0.0255158 0.123399 0)
(-0.0344507 0.100591 0)
(-0.0444779 0.070186 0)
(-0.0539821 0.0305759 0)
(-0.0577186 -0.0219977 0)
(-0.0469855 -0.0866595 0)
(-0.0356621 -0.149069 0)
(-0.025061 -0.199511 0)
(-0.014538 -0.235 0)
(-0.00374648 -0.247353 0)
(0.0041495 -0.215718 0)
(0.0101391 -0.150166 0)
(0.0198693 -0.0790368 0)
(0.0361446 -0.0343459 0)
(0.045484 -0.0248455 0)
(0.0423816 -0.0270025 0)
(0.032121 -0.0278344 0)
(0.0210769 -0.0256302 0)
(0.0131196 -0.0229959 0)
(0.00928923 -0.020438 0)
(0.010722 -0.0177505 0)
(0.0165849 -0.0186571 0)
(0.0242476 -0.0211897 0)
(0.0327077 -0.0231504 0)
(0.0417121 -0.0229949 0)
(0.0508683 -0.0191502 0)
(0.0596309 -0.00988346 0)
(0.0681686 0.00569935 0)
(0.072489 0.0250542 0)
(0.07551 0.0478691 0)
(0.0779437 0.070353 0)
(0.101057 0.0914529 0)
(0.0942381 0.0855534 0)
(0.107084 0.0322438 0)
(0.131317 -0.0185171 0)
(-0.214212 0.108913 0)
(0.878227 0.51703 0)
(-0.377338 0.187443 0)
(0.0462959 0.0882843 0)
(0.0468218 0.129188 0)
(0.045439 0.138026 0)
(0.0363436 0.116789 0)
(0.0280201 0.0817156 0)
(0.0208319 0.0375429 0)
(0.0247016 -0.0251891 0)
(0.0385489 -0.096983 0)
(0.0437072 -0.158099 0)
(0.0426462 -0.205225 0)
(0.0390616 -0.238568 0)
(0.0346734 -0.249227 0)
(0.0277655 -0.216484 0)
(0.0177457 -0.151096 0)
(0.00953222 -0.0809234 0)
(0.00857848 -0.0360971 0)
(0.00693914 -0.0207326 0)
(0.00178125 -0.0185813 0)
(-0.00539366 -0.0187535 0)
(-0.0117063 -0.0186484 0)
(-0.0156646 -0.0191837 0)
(-0.0167867 -0.0203979 0)
(-0.0149399 -0.0220869 0)
(-0.0109036 -0.0250131 0)
(-0.00592777 -0.0284533 0)
(-0.000438198 -0.0312466 0)
(0.00566187 -0.0319475 0)
(0.0124192 -0.0289123 0)
(0.0203001 -0.0202539 0)
(0.0307597 -0.00392002 0)
(0.0437906 0.0179275 0)
(0.054523 0.0397127 0)
(0.0652892 0.0583963 0)
(0.0864148 0.0740713 0)
(0.10039 0.0692379 0)
(0.114193 0.0436055 0)
(0.168692 0.0518385 0)
(-0.154194 0.170692 0)
(0.983183 0.52272 0)
(-0.0902073 0.16834 0)
(0.125699 0.000294524 0)
(0.185284 0.0364673 0)
(0.164417 0.0797719 0)
(0.136048 0.0818288 0)
(0.120715 0.0540635 0)
(0.11461 0.00611373 0)
(0.127106 -0.0509798 0)
(0.135356 -0.10538 0)
(0.128724 -0.154812 0)
(0.11176 -0.195334 0)
(0.0915433 -0.226427 0)
(0.0712842 -0.236402 0)
(0.0496681 -0.200905 0)
(0.0212608 -0.134063 0)
(-0.00646061 -0.0638802 0)
(-0.0200145 -0.026306 0)
(-0.0273801 -0.015139 0)
(-0.0316488 -0.0135324 0)
(-0.0351014 -0.0140513 0)
(-0.0382129 -0.0153944 0)
(-0.0404369 -0.0178647 0)
(-0.0413657 -0.0210855 0)
(-0.0411651 -0.0245204 0)
(-0.0405186 -0.0281795 0)
(-0.0400521 -0.0318089 0)
(-0.0398792 -0.0347657 0)
(-0.0397088 -0.036088 0)
(-0.0389634 -0.0347241 0)
(-0.0367461 -0.029687 0)
(-0.0311772 -0.0200641 0)
(-0.0150433 -0.00492187 0)
(0.00295637 0.0137707 0)
(0.0190137 0.0259902 0)
(0.0391965 0.0314027 0)
(0.0536198 0.0203265 0)
(0.0636812 -0.00119469 0)
(0.154528 0.0718836 0)
(-0.52602 0.28186 0)
(1.12006 0.462267 0)
(0.536927 0.31114 0)
(0.577422 0.353018 0)
(0.571746 0.317739 0)
(0.492638 0.261818 0)
(0.408356 0.197445 0)
(0.350528 0.129789 0)
(0.318012 0.0619946 0)
(0.290267 -0.00628348 0)
(0.25609 -0.069271 0)
(0.216583 -0.121147 0)
(0.172507 -0.161304 0)
(0.131739 -0.194258 0)
(0.0952748 -0.206506 0)
(0.0613581 -0.167324 0)
(0.0145859 -0.0987167 0)
(-0.0301102 -0.0353593 0)
(-0.0470106 -0.0144839 0)
(-0.0545669 -0.0119343 0)
(-0.0562037 -0.0134291 0)
(-0.0570644 -0.0139483 0)
(-0.0594799 -0.0152418 0)
(-0.0623954 -0.0184345 0)
(-0.0648591 -0.0222631 0)
(-0.0673604 -0.0255612 0)
(-0.0709254 -0.0283449 0)
(-0.0760925 -0.0308052 0)
(-0.0828537 -0.032545 0)
(-0.0910485 -0.032629 0)
(-0.100573 -0.0299086 0)
(-0.111538 -0.0232212 0)
(-0.124315 -0.0114863 0)
(-0.138961 0.00586687 0)
(-0.151946 0.0271754 0)
(-0.173913 0.0515451 0)
(-0.211935 0.079025 0)
(-0.268932 0.107531 0)
(-0.333538 0.134125 0)
(-0.41395 0.15386 0)
(-0.735473 0.162763 0)
(0.576308 -0.23663 0)
(0.518331 0.0733107 0)
(0.456671 0.194689 0)
(0.400952 0.198594 0)
(0.365668 0.150003 0)
(0.343817 0.0849037 0)
(0.323959 0.0225981 0)
(0.291386 -0.0309768 0)
(0.243596 -0.0719491 0)
(0.186979 -0.104868 0)
(0.137484 -0.14064 0)
(0.0881985 -0.159044 0)
(0.0479846 -0.11206 0)
(-0.0116329 -0.0463032 0)
(-0.0575871 -0.0114386 0)
(-0.0733302 -0.00693513 0)
(-0.0765048 -0.0106228 0)
(-0.0734544 -0.0136171 0)
(-0.0726076 -0.014547 0)
(-0.0764055 -0.0160066 0)
(-0.0811359 -0.0181239 0)
(-0.0847183 -0.0204918 0)
(-0.0886418 -0.0225435 0)
(-0.0947205 -0.0242485 0)
(-0.103418 -0.0256975 0)
(-0.114351 -0.0264554 0)
(-0.126999 -0.0256296 0)
(-0.140644 -0.022036 0)
(-0.154037 -0.0143702 0)
(-0.165308 -0.00139694 0)
(-0.172578 0.0169762 0)
(-0.176996 0.0403777 0)
(-0.181259 0.0676729 0)
(-0.187803 0.0946131 0)
(-0.19441 0.110239 0)
(-0.188803 0.0906567 0)
(-0.174671 -0.0114771 0)
(-0.292002 -0.245109 0)
(0.130755 0.461859 0)
(-0.0482089 0.329852 0)
(0.0531645 0.284249 0)
(0.114153 0.227515 0)
(0.165078 0.159715 0)
(0.197207 0.0951057 0)
(0.20855 0.048077 0)
(0.201604 0.0211084 0)
(0.178775 -0.00300044 0)
(0.143027 -0.0347981 0)
(0.108632 -0.0934716 0)
(0.0353583 -0.122179 0)
(-0.0167485 -0.0264539 0)
(-0.0627828 0.0531676 0)
(-0.0837949 0.0605234 0)
(-0.0886238 0.0552047 0)
(-0.0863854 0.0382977 0)
(-0.0848852 0.0336617 0)
(-0.0860958 0.0487134 0)
(-0.0894421 0.0561724 0)
(-0.0936963 0.0498756 0)
(-0.0979399 0.0424611 0)
(-0.102708 0.0411577 0)
(-0.108381 0.0429065 0)
(-0.114976 0.0438039 0)
(-0.122228 0.043329 0)
(-0.129778 0.0423297 0)
(-0.137182 0.041218 0)
(-0.143645 0.0397817 0)
(-0.147473 0.0384428 0)
(-0.146057 0.0419948 0)
(-0.136793 0.053208 0)
(-0.119195 0.0724837 0)
(-0.0951898 0.0972311 0)
(-0.0673002 0.117996 0)
(-0.0393689 0.117606 0)
(0.133434 0.0312129 0)
(-0.209192 -0.161357 0)
(-0.776244 -0.762379 0)
(-0.932023 -0.178651 0)
(-0.710568 0.294459 0)
(-0.578625 0.186629 0)
(-0.337319 0.153848 0)
(-0.166972 0.114747 0)
(-0.0149167 0.0487955 0)
(0.0819239 -0.0223911 0)
(0.134641 -0.0736989 0)
(0.157212 -0.118445 0)
(0.154204 -0.152482 0)
(0.127268 -0.184948 0)
(0.0863369 -0.229742 0)
(-0.0653482 -0.215684 0)
(-0.109067 -0.159612 0)
(-0.0940646 -0.129241 0)
(-0.0760621 -0.137866 0)
(-0.0621727 -0.17048 0)
(-0.0654458 -0.195856 0)
(-0.0820556 -0.196228 0)
(-0.0914076 -0.192101 0)
(-0.0930881 -0.19025 0)
(-0.0959757 -0.190445 0)
(-0.103945 -0.189822 0)
(-0.114025 -0.18688 0)
(-0.123088 -0.182128 0)
(-0.130696 -0.176003 0)
(-0.137257 -0.168295 0)
(-0.142646 -0.158529 0)
(-0.14614 -0.14607 0)
(-0.146646 -0.129928 0)
(-0.142539 -0.109721 0)
(-0.130683 -0.087942 0)
(-0.106765 -0.0639578 0)
(-0.068615 -0.0367611 0)
(-0.0168429 -0.004649 0)
(0.057194 0.0175277 0)
(0.115685 -0.00501253 0)
(0.186258 -0.0672919 0)
(-0.140953 -0.155206 0)
)
;

boundaryField
{
    floor
    {
        type            noSlip;
    }
    ceiling
    {
        type            noSlip;
    }
    sWall
    {
        type            noSlip;
    }
    nWall
    {
        type            noSlip;
    }
    sideWalls
    {
        type            empty;
    }
    glass1
    {
        type            noSlip;
    }
    glass2
    {
        type            noSlip;
    }
    sun
    {
        type            noSlip;
    }
    Table_master
    {
        type            noSlip;
    }
    Table_slave
    {
        type            noSlip;
    }
    inlet
    {
        type            fixedValue;
        value           uniform (0.707107 -0.707107 0);
    }
    outlet
    {
        type            zeroGradient;
    }
}


// ************************************************************************* //
