/*--------------------------------*- C++ -*----------------------------------*\
  =========                 |
  \\      /  F ield         | OpenFOAM: The Open Source CFD Toolbox
   \\    /   O peration     | Website:  https://openfoam.org
    \\  /    A nd           | Version:  6
     \\/     M anipulation  |
\*---------------------------------------------------------------------------*/
FoamFile
{
    version     2.0;
    format      ascii;
    class       volScalarField;
    location    "300";
    object      nut;
}
// * * * * * * * * * * * * * * * * * * * * * * * * * * * * * * * * * * * * * //

dimensions      [0 2 -1 0 0 0 0];

internalField   nonuniform List<scalar> 
458
(
0.000694229
0.000716693
0.000682517
0.00070913
0.000734691
0.000757692
0.000778538
0.000797918
0.000816653
0.000835821
0.000853173
0.000867104
0.00087768
0.000886321
0.000892918
0.000377755
0.000449369
0.000454566
0.000372516
0.000293342
0.000247229
0.000232411
0.000232222
0.000230659
0.000214011
0.000194415
0.000182504
0.00019122
0.000205798
0.000251548
0.000357503
0.000395187
0.000350085
0.00113985
0.00186019
0.00144003
0.00176673
0.00189381
0.00202903
0.00216655
0.00229543
0.0024009
0.00246333
0.00248679
0.00244617
0.00230164
0.00199211
0.00147285
0.000953858
0.000917341
0.000661797
0.000491627
0.00128412
0.00150176
0.00147636
0.00121125
0.000906478
0.000743392
0.000700097
0.000627303
0.000493596
0.00034533
0.000255196
0.000254846
0.00036405
0.000797688
0.00128207
0.00143627
0.00049125
0.00153296
0.00293807
0.00155341
0.00257171
0.00281617
0.00297441
0.00311176
0.00322771
0.00331983
0.00338277
0.00341905
0.00341118
0.00333006
0.00313552
0.00279339
0.00231151
0.00167461
0.000984277
0.000827004
0.00234314
0.00219011
0.00180966
0.00140176
0.000511008
0.000419315
0.000369253
0.000332589
0.000301056
0.000270707
0.000242027
0.000288209
0.000485962
0.00133279
0.00175412
0.00150354
0.000551938
0.00191636
0.0043988
0.00161293
0.00289945
0.0033805
0.00353961
0.00364777
0.00372902
0.00379054
0.00383606
0.00387156
0.00389954
0.0039094
0.00387211
0.00372459
0.00336761
0.00270334
0.00177827
0.00102861
0.00221929
0.0026142
0.00223836
0.00171386
0.00118197
0.000777344
0.000790964
0.000817709
0.000854018
0.000898777
0.000960474
0.00100668
0.00103504
0.00103858
0.00142698
0.00179646
0.00213165
0.000938745
0.00228493
0.00613103
0.00199779
0.00276883
0.00363835
0.00383431
0.0039242
0.00397594
0.00400354
0.00401913
0.00403151
0.00407083
0.00415242
0.00427841
0.00443177
0.00457961
0.00468373
0.00468382
0.00449877
0.00431085
0.00402923
0.00375878
0.00359424
0.00351765
0.00349877
0.0035928
0.00374588
0.00393923
0.0041465
0.0043396
0.00447208
0.00450762
0.00444575
0.00432957
0.00394387
0.00348043
0.00241341
0.00109591
0.00103728
0.000942057
0.00263968
0.00782234
0.00303265
0.00241284
0.00351455
0.00388635
0.00403758
0.00410785
0.00411435
0.00407383
0.00400396
0.00398835
0.0040385
0.00415966
0.00434925
0.00459004
0.00483432
0.00498028
0.00492874
0.00471414
0.00447327
0.00433108
0.00430524
0.0043375
0.00438386
0.00446067
0.00459038
0.0047621
0.00494229
0.00509349
0.00518294
0.00518632
0.00512305
0.00505706
0.00500348
0.00476106
0.00429548
0.00377806
0.00331995
0.00113484
0.00298879
0.0091444
0.00514733
0.00263696
0.00260964
0.00322506
0.00372521
0.00403828
0.00418198
0.00411732
0.00392554
0.00383251
0.00381009
0.00385404
0.00396625
0.00414452
0.00435737
0.00451887
0.00454037
0.00442328
0.00427473
0.00421959
0.00428828
0.00441326
0.00453034
0.0046423
0.00478529
0.0049605
0.00512965
0.0052414
0.00526274
0.00519885
0.00509935
0.00504594
0.0051211
0.00528965
0.00519722
0.00475416
0.00419647
0.00129236
0.00308853
0.00958657
0.00710059
0.00493571
0.00345748
0.00295239
0.00318971
0.00362278
0.0039516
0.00390119
0.00373664
0.00360995
0.00353868
0.00351639
0.00353744
0.00360225
0.00370689
0.00381632
0.00386883
0.00383543
0.0037633
0.00374573
0.0038538
0.00407061
0.00433775
0.00460342
0.00485801
0.00509953
0.005297
0.00539065
0.00534027
0.00515803
0.00490657
0.00467383
0.00452426
0.00442865
0.0041934
0.00369217
0.00321829
0.0013161
0.0030209
0.00367093
0.00400764
0.00401172
0.00371234
0.00334578
0.00310014
0.00300835
0.00301365
0.00304375
0.00307168
0.00308967
0.00309743
0.00309749
0.00309392
0.00309269
0.00309993
0.00311448
0.00312317
0.00311364
0.00309538
0.00310373
0.00318819
0.00339422
0.00374785
0.00423033
0.0047412
0.00515748
0.00547348
0.00564465
0.00560994
0.00534854
0.00488683
0.00429146
0.00365754
0.00307045
0.00258582
0.00225215
0.00201459
0.00142099
0.00195794
0.00293434
0.00327901
0.00326384
0.00314962
0.00304031
0.00295661
0.00289044
0.00284178
0.00280172
0.00276273
0.00271979
0.00267094
0.00261746
0.00256335
0.00251375
0.00247299
0.00244471
0.0024349
0.00245492
0.00252339
0.00266843
0.0029323
0.00336919
0.00400304
0.00473303
0.00538844
0.00583053
0.00608281
0.00626141
0.00643695
0.00659972
0.00661396
0.00631996
0.00574264
0.00516065
0.00473269
0.0015061
0.00209422
0.00325506
0.0034701
0.00340829
0.00327507
0.00313058
0.00299721
0.00287975
0.00276333
0.00263792
0.00251296
0.002394
0.00228433
0.00218615
0.00210173
0.00203427
0.00198856
0.00197138
0.00199125
0.00205742
0.00217861
0.00236252
0.00261746
0.00294983
0.00335602
0.00384139
0.00436051
0.00482153
0.00515315
0.00539266
0.00560674
0.00581431
0.00595547
0.00590893
0.00559199
0.00497953
0.00438074
0.00143626
0.00186234
0.00194983
0.00202822
0.00216452
0.00205045
0.00189145
0.00176788
0.00165864
0.00156017
0.0014697
0.00138791
0.00131434
0.0012455
0.00117935
0.00111473
0.00105115
0.000988688
0.000928047
0.000870493
0.000817769
0.000771855
0.000734659
0.000707767
0.000692345
0.00068921
0.000699733
0.000726702
0.000767009
0.000818144
0.000878145
0.000944392
0.00101726
0.00110097
0.00119971
0.0013059
0.00138605
0.00138814
0.00132536
0.00127693
0.00115091
)
;

boundaryField
{
    floor
    {
        type            nutkWallFunction;
        Cmu             0.09;
        kappa           0.41;
        E               9.8;
        value           nonuniform List<scalar> 
36
(
0.000108045
4.38201e-05
5.31961e-05
5.38685e-05
4.31268e-05
3.24704e-05
2.60921e-05
2.40096e-05
2.3983e-05
2.37625e-05
2.13981e-05
1.85819e-05
1.68504e-05
1.81182e-05
2.02212e-05
2.66962e-05
4.11354e-05
4.61267e-05
4.01435e-05
4.01434e-05
5.85939e-05
6.63096e-05
0.000113493
0.000131954
0.000125105
0.000113886
0.000108045
0.000115283
0.000110952
8.00212e-05
4.38201e-05
8.00212e-05
5.86375e-05
0.000118875
0.000100151
0.000124088
)
;
    }
    ceiling
    {
        type            nutkWallFunction;
        Cmu             0.09;
        kappa           0.41;
        E               9.8;
        value           nonuniform List<scalar> 
43
(
0.000218357
0.000227937
0.000236482
0.000251292
0.000238943
0.000221593
0.000207997
0.000195892
0.000184904
0.000174743
0.000165496
0.000157127
0.000149249
0.000141633
0.000134146
0.00012673
0.000119396
0.000112224
0.000105367
9.90388e-05
9.34888e-05
8.89635e-05
8.56744e-05
8.37808e-05
8.33939e-05
8.46847e-05
8.79856e-05
9.28934e-05
9.90767e-05
0.000106275
0.000114156
0.000122752
0.00013254
0.000143977
0.00015616
0.000165282
0.00016552
0.000158382
0.000152849
0.000138342
0.000342341
0.000409516
0.000243621
)
;
    }
    sWall
    {
        type            nutkWallFunction;
        Cmu             0.09;
        kappa           0.41;
        E               9.8;
        value           uniform 0.000218413;
    }
    nWall
    {
        type            nutkWallFunction;
        Cmu             0.09;
        kappa           0.41;
        E               9.8;
        value           nonuniform List<scalar> 6(0.000113889 0.000136485 0.000154623 0.000178849 0.000170979 0.000138351);
    }
    sideWalls
    {
        type            empty;
    }
    glass1
    {
        type            nutkWallFunction;
        Cmu             0.09;
        kappa           0.41;
        E               9.8;
        value           nonuniform List<scalar> 9(8.39755e-05 0.000137183 0.000182089 0.000224651 0.000264697 0.000302594 0.000339368 0.000349799 0.000342749);
    }
    glass2
    {
        type            nutkWallFunction;
        Cmu             0.09;
        kappa           0.41;
        E               9.8;
        value           nonuniform List<scalar> 2(0.00015738 0.000169304);
    }
    sun
    {
        type            nutkWallFunction;
        Cmu             0.09;
        kappa           0.41;
        E               9.8;
        value           nonuniform List<scalar> 
14
(
8.40142e-05
8.67692e-05
8.2575e-05
8.5843e-05
8.8968e-05
9.1769e-05
9.4299e-05
9.66437e-05
9.89042e-05
0.000101211
0.000103293
0.000104962
0.000106226
0.000107258
)
;
    }
    Table_master
    {
        type            nutkWallFunction;
        Cmu             0.09;
        kappa           0.41;
        E               9.8;
        value           nonuniform List<scalar> 9(6.11207e-05 4.9296e-05 4.27054e-05 3.78064e-05 3.35371e-05 2.93724e-05 2.53795e-05 3.17806e-05 5.79202e-05);
    }
    Table_slave
    {
        type            nutkWallFunction;
        Cmu             0.09;
        kappa           0.41;
        E               9.8;
        value           nonuniform List<scalar> 9(9.41555e-05 9.58043e-05 9.90322e-05 0.000103395 0.000108743 0.000116065 0.000121513 0.000124842 0.000125257);
    }
    inlet
    {
        type            calculated;
        value           uniform 0.000100623;
    }
    outlet
    {
        type            calculated;
        value           nonuniform List<scalar> 2(0.00186234 0.00194983);
    }
}


// ************************************************************************* //
