/*--------------------------------*- C++ -*----------------------------------*\
  =========                 |
  \\      /  F ield         | OpenFOAM: The Open Source CFD Toolbox
   \\    /   O peration     | Website:  https://openfoam.org
    \\  /    A nd           | Version:  6
     \\/     M anipulation  |
\*---------------------------------------------------------------------------*/
FoamFile
{
    version     2.0;
    format      ascii;
    class       volScalarField;
    location    "1500";
    object      k;
}
// * * * * * * * * * * * * * * * * * * * * * * * * * * * * * * * * * * * * * //

dimensions      [0 2 -2 0 0 0 0];

internalField   nonuniform List<scalar> 
458
(
0.000955159
0.00102831
0.00096975
0.00103814
0.00110163
0.00115822
0.00120907
0.00125595
0.00130096
0.00134698
0.00138635
0.00141464
0.00143251
0.00144599
0.00145611
0.00031433
0.000490296
0.000529634
0.00051672
0.000480539
0.000421614
0.000367574
0.000322702
0.000284563
0.000251099
0.000220902
0.000192686
0.000164792
0.000134501
9.95136e-05
7.8017e-05
0.000225966
0.000201348
0.00239668
0.0045401
0.00141982
0.00141266
0.00146003
0.00151947
0.0015843
0.0016572
0.00174006
0.00183154
0.00191943
0.00197845
0.00198211
0.00189976
0.00172324
0.00159754
0.00148513
0.000634581
0.000552099
0.000946283
0.000907599
0.000841541
0.000729852
0.000590197
0.000485796
0.000414378
0.000353863
0.000298601
0.000248472
0.000204203
0.000167664
0.000141447
0.00012629
0.000134207
0.000597721
0.000357169
0.00429365
0.0103485
0.00203352
0.00176359
0.00180413
0.00188741
0.00197937
0.00208228
0.00219742
0.00232006
0.00243659
0.0025115
0.00251564
0.00243784
0.00229589
0.00211989
0.00191211
0.00176189
0.00104798
0.00162103
0.00123725
0.000927924
0.000700616
0.00050301
0.00033912
0.00024598
0.000196358
0.000167886
0.000149422
0.00013649
0.000127185
0.000121157
0.000132219
0.000153238
0.00081854
0.000477708
0.00679891
0.0196768
0.00316425
0.00205123
0.0020658
0.00218604
0.00231494
0.00245209
0.00260186
0.00276419
0.00292714
0.00304084
0.00306956
0.0030038
0.00284849
0.00261531
0.00235222
0.00209788
0.00184093
0.00204251
0.00138088
0.00103151
0.000756573
0.000606282
0.000518169
0.00051916
0.000552031
0.000596853
0.000642664
0.000676039
0.000681321
0.000645713
0.000603798
0.00047675
0.000382067
0.000873751
0.00060232
0.00990815
0.0322613
0.00581432
0.00238828
0.00225606
0.0023903
0.00255599
0.00274062
0.00295091
0.0031934
0.00344158
0.00361245
0.00366592
0.00360262
0.00343339
0.00318301
0.00291007
0.00264154
0.00222951
0.00163229
0.00117888
0.000876929
0.000722068
0.000699773
0.000759992
0.000850629
0.0009604
0.00108175
0.0011939
0.00126962
0.00128014
0.00120546
0.00105947
0.000876878
0.000695871
0.000772008
0.00105415
0.00092994
0.000930923
0.00113208
0.0136511
0.0451428
0.012581
0.00365225
0.00268093
0.00265615
0.00280573
0.00302248
0.00329287
0.00365576
0.00401368
0.00421816
0.00425468
0.0041518
0.00393231
0.00362
0.00323822
0.00278157
0.0022118
0.00161591
0.00115179
0.000869141
0.000752452
0.000749991
0.000812726
0.000938051
0.00110901
0.00129405
0.00147628
0.00162543
0.0017077
0.00168629
0.0015018
0.00126387
0.00103076
0.00089557
0.000967267
0.000965856
0.00141831
0.00119675
0.0178412
0.0537959
0.0263545
0.0103144
0.00557108
0.00399479
0.00368034
0.00378063
0.00403092
0.00449247
0.00483133
0.00493386
0.00485388
0.00464609
0.00433977
0.00395375
0.0034844
0.00294608
0.00233449
0.00173204
0.00124611
0.000939617
0.000815843
0.000817895
0.000889804
0.00102829
0.00121979
0.00144209
0.00168273
0.00191201
0.00210342
0.00223054
0.00219946
0.00194001
0.00167095
0.00150702
0.00150891
0.00160448
0.00205825
0.00171231
0.0188999
0.0583855
0.0390567
0.0290065
0.0190834
0.0122206
0.00869419
0.00711979
0.00653427
0.00634544
0.00611676
0.00581734
0.00546295
0.00506365
0.00462158
0.00413719
0.0036108
0.00303981
0.00243933
0.00186373
0.00138013
0.00104482
0.000903393
0.000910919
0.000995318
0.00114494
0.00134578
0.00158229
0.00184524
0.00212887
0.00243262
0.002762
0.00312623
0.00336654
0.00345091
0.0039862
0.00496155
0.00583258
0.0101793
0.00385305
0.0180288
0.0259393
0.0267408
0.0241276
0.0207825
0.0169367
0.0135986
0.0111275
0.00946465
0.00823827
0.00730798
0.00655769
0.00590756
0.00530616
0.00472284
0.00414197
0.00355856
0.00297536
0.00240792
0.00188798
0.0014517
0.00114257
0.000995836
0.00101067
0.00109567
0.00123575
0.00142084
0.00164118
0.00189233
0.00217446
0.00249044
0.00284207
0.00322583
0.00363198
0.00406402
0.00458899
0.00506704
0.00537078
0.00556949
0.00357093
0.0152468
0.0294976
0.0221983
0.0179876
0.0148165
0.0123608
0.0104887
0.00903747
0.00784584
0.00684779
0.00599032
0.00523117
0.00453975
0.00389639
0.00329138
0.00272517
0.00221034
0.00177028
0.00142502
0.00118673
0.00109063
0.00111957
0.00118396
0.00128238
0.00141702
0.00158301
0.00177655
0.00199724
0.00224846
0.00253716
0.00287217
0.00325911
0.00365216
0.0040017
0.00418451
0.00408685
0.00377597
0.00246526
0.0128852
0.0271774
0.0208449
0.0170798
0.014304
0.0120963
0.0102538
0.00873455
0.00747719
0.00638193
0.00544069
0.00462995
0.00392492
0.00330481
0.00275542
0.00227248
0.00186791
0.00157295
0.00140193
0.00128006
0.00130856
0.00140921
0.00145882
0.0014892
0.00154444
0.00163978
0.00177683
0.00195587
0.00218092
0.00245848
0.00278577
0.00317485
0.0035973
0.00398202
0.00422143
0.00440537
0.00408373
0.00255132
0.00803026
0.00950114
0.0108512
0.0123947
0.0109327
0.00972365
0.0081127
0.00689965
0.00586042
0.00496165
0.00419148
0.00358871
0.00308005
0.00263026
0.00222116
0.00184336
0.00149292
0.00117063
0.000884533
0.000653808
0.000493813
0.000407509
0.000437794
0.000495509
0.000543005
0.000593336
0.000658996
0.000744073
0.000848927
0.000974138
0.00112317
0.00130576
0.00154625
0.00182747
0.00213358
0.00247076
0.00267666
0.00258207
0.00222718
0.00191811
)
;

boundaryField
{
    floor
    {
        type            kqRWallFunction;
        value           nonuniform List<scalar> 
36
(
0.00145611
0.00031433
0.000490296
0.000529634
0.00051672
0.000480539
0.000421614
0.000367574
0.000322702
0.000284563
0.000251099
0.000220902
0.000192686
0.000164792
0.000134501
9.95136e-05
7.8017e-05
0.000225966
0.000201348
0.000201348
0.000357169
0.000477708
0.00060232
0.00092994
0.000930923
0.00113208
0.00145611
0.00159754
0.00148513
0.000634581
0.00031433
0.000634581
0.000552099
0.00176189
0.00104798
0.00184093
)
;
    }
    ceiling
    {
        type            kqRWallFunction;
        value           nonuniform List<scalar> 
43
(
0.00803026
0.00950114
0.0108512
0.0123947
0.0109327
0.00972365
0.0081127
0.00689965
0.00586042
0.00496165
0.00419148
0.00358871
0.00308005
0.00263026
0.00222116
0.00184336
0.00149292
0.00117063
0.000884533
0.000653808
0.000493813
0.000407509
0.000437794
0.000495509
0.000543005
0.000593336
0.000658996
0.000744073
0.000848927
0.000974138
0.00112317
0.00130576
0.00154625
0.00182747
0.00213358
0.00247076
0.00267666
0.00258207
0.00222718
0.00191811
0.0180288
0.0259393
0.0128852
)
;
    }
    sWall
    {
        type            kqRWallFunction;
        value           uniform 0.00803026;
    }
    nWall
    {
        type            kqRWallFunction;
        value           nonuniform List<scalar> 6(0.00113208 0.00119675 0.00171231 0.00246526 0.00255132 0.00191811);
    }
    sideWalls
    {
        type            empty;
    }
    glass1
    {
        type            kqRWallFunction;
        value           nonuniform List<scalar> 9(0.000955159 0.00239668 0.00429365 0.00679891 0.00990815 0.0136511 0.0178412 0.0188999 0.0180288);
    }
    glass2
    {
        type            kqRWallFunction;
        value           nonuniform List<scalar> 2(0.00385305 0.00357093);
    }
    sun
    {
        type            kqRWallFunction;
        value           nonuniform List<scalar> 
14
(
0.000955159
0.00102831
0.00096975
0.00103814
0.00110163
0.00115822
0.00120907
0.00125595
0.00130096
0.00134698
0.00138635
0.00141464
0.00143251
0.00144599
)
;
    }
    Table_master
    {
        type            kqRWallFunction;
        value           nonuniform List<scalar> 9(0.00050301 0.00033912 0.00024598 0.000196358 0.000167886 0.000149422 0.00013649 0.000127185 0.000121157);
    }
    Table_slave
    {
        type            kqRWallFunction;
        value           nonuniform List<scalar> 9(0.000518169 0.00051916 0.000552031 0.000596853 0.000642664 0.000676039 0.000681321 0.000645713 0.000603798);
    }
    inlet
    {
        type            turbulentIntensityKineticEnergyInlet;
        intensity       0.05;
        value           uniform 0.0003375;
    }
    outlet
    {
        type            zeroGradient;
    }
}


// ************************************************************************* //
