/*--------------------------------*- C++ -*----------------------------------*\
  =========                 |
  \\      /  F ield         | OpenFOAM: The Open Source CFD Toolbox
   \\    /   O peration     | Website:  https://openfoam.org
    \\  /    A nd           | Version:  6
     \\/     M anipulation  |
\*---------------------------------------------------------------------------*/
FoamFile
{
    version     2.0;
    format      ascii;
    class       surfaceScalarField;
    location    "1500";
    object      phi;
}
// * * * * * * * * * * * * * * * * * * * * * * * * * * * * * * * * * * * * * //

dimensions      [1 0 -1 0 0 0 0];

internalField   nonuniform List<scalar> 
850
(
-0.00253254
0.00259319
-0.00292523
0.000392721
-0.00340076
0.000475562
-0.00387207
0.00047134
-0.00429234
0.0004203
-0.00464154
0.000349227
-0.00490316
0.000261652
-0.00505872
0.00015559
-0.00508654
2.78488e-05
-0.00495941
-0.000127104
-0.00464939
-0.00030999
-0.00413459
-0.000514775
-0.00336801
-0.000766544
-0.00215235
-0.00121563
-0.00215073
-0.000344542
0.000347522
-3.16222e-05
-0.000312884
0.000409112
-0.0004407
0.000848951
-0.000439807
0.00123586
-0.00038688
0.00140089
-0.000164998
0.00142671
-2.57883e-05
0.00140748
1.92617e-05
0.00136764
3.98776e-05
0.00131071
5.6954e-05
0.00123524
7.55094e-05
0.00113048
0.000104795
0.000973889
0.000156635
0.000741191
0.000232778
0.000459462
0.000281885
0.000285588
0.00017405
0.00039631
-0.000110632
0.000400213
-0.00186378
0.00461725
-0.00254039
0.00106936
-0.00315141
0.00108661
-0.00366351
0.00098347
-0.00410547
0.000862297
-0.00447621
0.000719993
-0.00476521
0.000550683
-0.00495725
0.000347653
-0.00503478
0.00010541
-0.00498431
-0.000177538
-0.00479704
-0.000497231
-0.00446275
-0.000849041
-0.00397824
-0.00125102
-0.00347697
-0.00171688
-0.0036512
-0.00197647
-0.00195515
-0.00169298
-4.68989e-05
-0.00190506
-3.60747e-05
0.000699626
-0.000344744
0.000591356
-0.000204577
0.000515754
-0.000365065
0.000736293
-0.000660315
0.00103577
-0.000686331
0.0011054
-0.000234588
0.00110041
-2.07737e-05
0.00108809
3.16215e-05
0.00107418
5.38212e-05
0.00106136
6.98064e-05
0.00105168
8.52184e-05
0.00104617
0.000110337
0.00104747
0.000155378
0.00103889
0.000241412
0.000925307
0.000395557
0.000660183
0.000439262
0.000348605
0.000201028
0.000758439
-0.00138051
0.00623813
-0.00213334
0.00182222
-0.0027246
0.0016779
-0.00319111
0.00145001
-0.00359607
0.00126729
-0.00394281
0.00106676
-0.00422212
0.000830022
-0.00442007
0.000545634
-0.00452085
0.000206222
-0.00451057
-0.000187784
-0.00438174
-0.000626035
-0.00414242
-0.00108832
-0.00384032
-0.0015531
-0.00359348
-0.00196368
-0.00339678
-0.00217314
-0.00286675
-0.00222298
-0.00242088
-0.0023509
-0.00244928
-0.000233975
-0.000101021
-0.000205416
-0.000233103
7.53401e-06
-0.000577985
0.000285144
-0.000937896
0.000791381
-0.00119254
0.000556978
0.000536393
0.000568206
0.000622219
0.000692216
0.000777622
0.000888145
0.00104371
0.00128532
0.00115116
0.000529768
0.000870889
0.000719591
0.000308918
0.000763056
0.00108175
-0.00103195
0.00757532
-0.00177
0.00256029
-0.00219819
0.00210613
-0.00255672
0.00180856
-0.00288227
0.00159286
-0.00317229
0.00135681
-0.00341735
0.00107512
-0.00360381
0.000732123
-0.00371311
0.00031556
-0.00372433
-0.000176537
-0.00363021
-0.000720121
-0.00345622
-0.00126229
-0.00326034
-0.00174895
-0.0031031
-0.0021209
-0.00295143
-0.00232477
-0.00277034
-0.00240404
-0.00273095
-0.00239026
-0.00321377
-0.00196643
-0.00203467
-0.00117004
-0.0013252
-0.000810459
-0.000776536
-0.000781739
-0.000391829
-0.000962666
-0.000209642
-0.00112005
-0.000362199
-0.00103995
0.000238307
-0.000600629
0.000659873
-0.000421688
0.0010326
-0.000372849
0.00138276
-0.000350286
0.00170966
-0.000327022
0.0019879
-0.00027836
0.00216388
-0.000176102
0.00215519
8.56021e-06
0.00187378
0.000281286
0.00169886
0.000704714
0.00132603
0.00109246
0.000673497
0.00141563
0.00177344
-0.000769624
0.00870368
-0.00144967
0.00324037
-0.00161029
0.00226677
-0.00182093
0.00201924
-0.00203998
0.00181194
-0.00224344
0.00156031
-0.00242046
0.00125217
-0.00256184
0.00087353
-0.00265032
0.000404066
-0.00265613
-0.000170689
-0.00257025
-0.000805976
-0.00243337
-0.00139913
-0.0022984
-0.00188389
-0.00219599
-0.00222328
-0.00211323
-0.0024075
-0.00205488
-0.00246237
-0.00207244
-0.00237267
-0.00201495
-0.0020239
-0.00161622
-0.00156874
-0.00115153
-0.00127512
-0.000739917
-0.00119333
-0.000448493
-0.00125407
-0.000287025
-0.0012815
-0.000185979
-0.00114097
0.000108333
-0.000894909
0.000423137
-0.000736462
0.000722077
-0.000671758
0.00101869
-0.000646866
0.00131077
-0.000619079
0.0015831
-0.000550662
0.0018042
-0.000397175
0.00192401
-0.000111216
0.00190863
0.000296692
0.001838
0.000775374
0.00169849
0.00123199
0.00144821
0.00166594
0.00155642
0.00166526
-0.000288265
0.00186178
-0.00130486
0.00103279
-0.00124008
-0.000696449
0.00980381
-0.00127536
0.00381931
-0.00101026
0.0020017
-0.000977772
0.00198678
-0.00109258
0.00192677
-0.00120822
0.00167598
-0.00129073
0.00133471
-0.00134592
0.000928746
-0.00136776
0.000425934
-0.00132672
-0.000211697
-0.00122865
-0.000904015
-0.00112514
-0.00150262
-0.00105494
-0.00195406
-0.00103008
-0.00224811
-0.001042
-0.00239556
-0.00108716
-0.00241718
-0.00115139
-0.00230842
-0.00112142
-0.00205384
-0.000950975
-0.00173916
-0.000721121
-0.00150496
-0.000514449
-0.00139999
-0.000367636
-0.00140086
-0.00028154
-0.00136756
-0.00021128
-0.00121119
-7.20942e-05
-0.00103406
0.000114668
-0.000923192
0.000321997
-0.000879057
0.000543352
-0.000868191
0.000778958
-0.000854656
0.00102625
-0.000797926
0.00127736
-0.000648257
0.00151044
-0.000344273
0.00166968
0.000137486
0.00177426
0.000670816
0.00188268
0.0011236
0.00205528
0.00149337
0.00218657
0.001534
0.00231348
0.00173491
0.00187617
0.00147014
0.000696447
-0.000901411
0.0111484
-0.000992387
0.00391031
-0.000116412
0.00112575
0.000206996
0.0016634
0.000130319
0.00200348
3.52597e-05
0.00177107
2.39561e-05
0.00134605
6.95747e-05
0.000883157
0.000163623
0.000331915
0.000285884
-0.000333929
0.000385423
-0.00100353
0.000424429
-0.0015416
0.000392607
-0.00192221
0.000299329
-0.00215481
0.000162225
-0.00225843
-1.98487e-06
-0.00225295
-0.00016074
-0.00214964
-0.000254794
-0.00195977
-0.000266835
-0.00172711
-0.000243729
-0.00152805
-0.000230709
-0.00141299
-0.000242202
-0.00138935
-0.000273096
-0.00133664
-0.000302055
-0.0011822
-0.000291016
-0.00104507
-0.000238691
-0.000975486
-0.000155963
-0.000961754
-4.80143e-05
-0.000976109
8.53537e-05
-0.000987995
0.000249973
-0.000962517
0.000460261
-0.000858518
0.00073379
-0.000617776
0.00103495
-0.000163649
0.00132016
0.000385633
0.00160217
0.000841611
0.00194694
0.00114863
0.00229539
0.00118557
0.00285193
0.0011784
0.0029209
0.0014012
0.00368026
0.00209157
0.00955063
0.00257714
0.00342477
0.00280542
0.000897498
0.00263683
0.00183202
0.00231454
0.00232579
0.00210559
0.00198005
0.0020261
0.00142557
0.00204734
0.000861942
0.00215941
0.000219874
0.00227425
-0.000448736
0.00227823
-0.00100748
0.00216393
-0.00142727
0.00195695
-0.00171521
0.00168918
-0.00188702
0.00138932
-0.00195855
0.00108142
-0.00194503
0.000791431
-0.00185963
0.000547638
-0.00171596
0.000359892
-0.00153934
0.000203346
-0.00137148
4.7008e-05
-0.00125664
-0.00011808
-0.00122425
-0.000280811
-0.00117388
-0.000427966
-0.00103501
-0.000540908
-0.000932091
-0.000620735
-0.000895626
-0.000676734
-0.000905724
-0.000716916
-0.000935897
-0.000743708
-0.000961174
-0.000749641
-0.000956557
-0.000712854
-0.000895277
-0.000583446
-0.000747158
-0.0002632
-0.00048387
0.000158824
-3.63694e-05
0.000557959
0.000442503
0.00095549
0.000751124
0.00132466
0.000816435
0.00173753
0.000765554
0.00123651
0.00190226
0.00517607
0.0100893
0.0135047
0.0122485
0.00215373
0.00994862
0.00413188
0.00828142
0.00399302
0.0071134
0.00314809
0.00629246
0.00224655
0.00575893
0.00139549
0.00534224
0.0006366
0.0049026
-9.06859e-06
0.00442891
-0.000533765
0.00393601
-0.000934349
0.00343506
-0.00121423
0.002936
-0.00138794
0.00244986
-0.00147239
0.00198827
-0.00148342
0.00156337
-0.00143472
0.00118597
-0.00133854
0.000856942
-0.0012103
0.000560292
-0.00107482
0.000273474
-0.000969809
-2.23566e-05
-0.000928403
-0.00030974
-0.000886469
-0.000565489
-0.000779229
-0.000789949
-0.000707596
-0.00099406
-0.000691483
-0.00119142
-0.00070833
-0.00139489
-0.000732403
-0.00161624
-0.000739791
-0.00186671
-0.000706056
-0.00215721
-0.000604756
-0.00249706
-0.000407271
-0.00289316
-8.77426e-05
-0.00329599
0.000366485
-0.00379256
0.000939101
-0.00460851
0.0015671
-0.0059174
0.00212536
-0.00752853
0.00237672
-0.0072041
0.00157786
-0.00174197
0.00303064
0.00347582
0.00408946
0.00307308
0.00538228
0.00270021
0.00577953
0.00275087
0.00581011
0.00221598
0.00575096
0.00145466
0.00562307
0.000764514
0.00538873
0.00022529
0.00503709
-0.000182102
0.00458909
-0.000486327
0.00407954
-0.000704657
0.00354011
-0.000848496
0.00299671
-0.000928963
0.00247006
-0.000956747
0.00197611
-0.000940759
0.00152497
-0.000887384
0.00111678
-0.000802091
0.000739645
-0.000697673
0.000379249
-0.000609401
1.60002e-05
-0.000565142
-0.000342764
-0.000527673
-0.000662979
-0.000458977
-0.000955146
-0.000415393
-0.00123651
-0.000410082
-0.00151968
-0.00042513
-0.00181201
-0.000440042
-0.00211567
-0.000436099
-0.00242613
-0.000395573
-0.0027294
-0.000301453
-0.00300197
-0.000134671
-0.0032237
0.000134017
-0.0033841
0.000526911
-0.00349534
0.00105037
-0.00356687
0.00163867
-0.00360033
0.00215885
-0.00345499
0.00223141
-0.0020739
0.000196802
-0.00373993
-0.000402871
0.0039219
0.0012644
0.00140582
0.0023088
0.00165582
0.00319692
0.00186276
0.00391626
0.00149665
0.00440394
0.000967001
0.00463885
0.000529621
0.00465893
0.000205231
0.00450502
-2.81694e-05
0.00421269
-0.000193982
0.00382029
-0.000312236
0.00336346
-0.000391643
0.00287303
-0.00043852
0.00237496
-0.000458661
0.0018908
-0.000456576
0.00143744
-0.000434012
0.00102374
-0.000388369
0.000643496
-0.000317415
0.000281641
-0.000247533
-3.29578e-05
-0.00025053
-0.000345419
-0.000215177
-0.00064936
-0.000154998
-0.000931656
-0.00013306
-0.00120198
-0.000139721
-0.00146846
-0.000158617
-0.0017331
-0.000175369
-0.00199006
-0.000179109
-0.00222421
-0.000161396
-0.0024113
-0.000114334
-0.00251758
-2.83629e-05
-0.00250903
0.000125498
-0.00235481
0.000372725
-0.00202064
0.000716231
-0.00149158
0.00110964
-0.000598006
0.0012653
0.000857536
0.000775903
0.00155207
-0.0004977
-0.00210457
-0.00627744
-0.00846666
-0.00451359
-0.00309611
-0.00143366
0.000432461
0.00193015
0.00289723
0.00342636
0.00363073
0.00360143
0.00340606
0.00309217
0.0026986
0.00225786
0.00179668
0.00133724
0.000899993
0.000508
0.000186642
-6.48335e-05
-0.000318888
-0.000537888
-0.00069727
-0.000835167
-0.000980023
-0.00114393
-0.00132463
-0.00150903
-0.00167562
-0.00179501
-0.00182827
-0.00170746
-0.00133923
-0.000627308
0.000478147
0.00173925
0.00251083
0.00200855
)
;

boundaryField
{
    floor
    {
        type            calculated;
        value           nonuniform List<scalar> 
36
(
0
0
0
0
0
0
0
0
0
0
0
0
0
0
0
0
0
0
0
-3.83512e-06
-9.54997e-06
-1.43345e-05
-1.81427e-05
-1.70526e-05
-1.6162e-05
-1.49614e-05
-1.58625e-06
-3.0451e-06
-3.16818e-06
-4.28873e-06
-2.94358e-06
-6.50956e-06
-7.32263e-06
-7.64729e-06
-9.71118e-06
-9.0345e-06
)
;
    }
    ceiling
    {
        type            calculated;
        value           nonuniform List<scalar> 
43
(
-3.44309e-05
-3.28324e-05
-3.11592e-05
-1.16576e-05
-6.61242e-06
-3.33617e-06
-1.01384e-06
-6.26169e-08
5.11109e-07
8.81592e-07
1.1465e-06
1.40812e-06
1.67277e-06
1.94619e-06
2.23447e-06
2.54435e-06
2.8828e-06
3.25396e-06
3.6433e-06
3.96139e-06
3.95224e-06
3.54726e-06
3.86135e-06
4.4221e-06
4.87267e-06
5.1695e-06
5.32326e-06
5.36271e-06
5.32096e-06
5.22512e-06
5.09193e-06
4.9268e-06
4.72053e-06
4.51663e-06
4.34444e-06
4.21709e-06
4.22525e-06
4.35774e-06
4.61379e-06
5.62908e-06
1.28796e-05
9.45882e-06
-4.32107e-05
)
;
    }
    sWall
    {
        type            calculated;
        value           uniform -0.000240359;
    }
    nWall
    {
        type            calculated;
        value           nonuniform List<scalar> 6(-4.97818e-05 -6.03275e-05 -6.28859e-05 -7.59056e-05 -8.32658e-05 -0.00010162);
    }
    sideWalls
    {
        type            empty;
        value           nonuniform 0();
    }
    glass1
    {
        type            calculated;
        value           nonuniform List<scalar> 9(-6.06261e-05 -0.000160254 -0.000240344 -0.000305219 -0.000358711 -0.000403648 -0.000443166 -0.000493762 -0.000551566);
    }
    glass2
    {
        type            calculated;
        value           nonuniform List<scalar> 2(-0.000259274 -0.000286029);
    }
    sun
    {
        type            calculated;
        value           uniform 0;
    }
    Table_master
    {
        type            calculated;
        value           nonuniform List<scalar> 9(-1.53266e-07 -1.53391e-07 -1.53414e-07 -1.53418e-07 -1.53412e-07 -1.53397e-07 -1.53372e-07 -1.53329e-07 -1.53258e-07);
    }
    Table_slave
    {
        type            calculated;
        value           nonuniform List<scalar> 9(1.53298e-07 1.53291e-07 1.53163e-07 1.53042e-07 1.5293e-07 1.52836e-07 1.5278e-07 1.52785e-07 1.528e-07);
    }
    inlet
    {
        type            calculated;
        value           uniform -0.00435273;
    }
    outlet
    {
        type            calculated;
        value           nonuniform List<scalar> 2(0.00655224 0.00222206);
    }
}


// ************************************************************************* //
