/*--------------------------------*- C++ -*----------------------------------*\
  =========                 |
  \\      /  F ield         | OpenFOAM: The Open Source CFD Toolbox
   \\    /   O peration     | Website:  https://openfoam.org
    \\  /    A nd           | Version:  6
     \\/     M anipulation  |
\*---------------------------------------------------------------------------*/
FoamFile
{
    version     2.0;
    format      ascii;
    class       surfaceScalarField;
    location    "1000";
    object      phi;
}
// * * * * * * * * * * * * * * * * * * * * * * * * * * * * * * * * * * * * * //

dimensions      [1 0 -1 0 0 0 0];

internalField   nonuniform List<scalar> 
850
(
-0.00257915
0.00265076
-0.00275439
0.000175369
-0.003088
0.000333735
-0.0034704
0.000382526
-0.00383344
0.000363164
-0.00414494
0.000311627
-0.00438197
0.000237152
-0.00452312
0.00014127
-0.00454622
2.32203e-05
-0.0044255
-0.000120601
-0.00413575
-0.000289634
-0.00365841
-0.000477238
-0.00295443
-0.000703872
-0.00185915
-0.00109518
-0.00185565
-0.000626985
0.000632103
-0.000392217
-0.000234698
0.000143817
-0.000535949
0.000765527
-0.00062161
0.00130235
-0.000536724
0.00137629
-7.3843e-05
0.00127815
9.82372e-05
0.00114182
0.000136412
0.000996428
0.000145484
0.000852115
0.000144405
0.000715916
0.000136296
0.000592491
0.000123527
0.000484649
0.000107944
0.000390089
9.46588e-05
0.000321008
6.91722e-05
0.000361444
-4.03549e-05
0.000629952
-0.000268426
0.000637245
-0.00190895
0.00474508
-0.00252422
0.000790762
-0.00304368
0.000853326
-0.0034849
0.000823865
-0.00387702
0.000755411
-0.0042117
0.000646422
-0.00447383
0.000499405
-0.00464624
0.000313798
-0.00471164
8.87367e-05
-0.00465706
-0.000175064
-0.00447182
-0.000474773
-0.00414072
-0.000808234
-0.00365387
-0.00119062
-0.00311947
-0.00162949
-0.00308055
-0.00189448
-0.0013459
-0.00172818
0.00040124
-0.00174047
0.000421267
0.000535236
0.000110556
0.000173251
0.000127354
1.38768e-05
-0.000376484
0.000312783
-0.000920402
0.000776958
-0.00100078
0.000832547
-0.000129336
0.000806377
0.000124489
0.000786021
0.000156844
0.000778893
0.000152687
0.000782662
0.000140712
0.000792349
0.000126688
0.000804206
0.000111753
0.000815385
9.68502e-05
0.000805229
0.000104901
0.000729571
0.000144915
0.000578161
0.000111141
0.000413684
-0.000103855
0.00106842
-0.00142816
0.0064477
-0.00221309
0.00157582
-0.00277656
0.00141692
-0.0032187
0.00126612
-0.00360731
0.00114414
-0.0039436
0.000982837
-0.0042175
0.000773419
-0.00441554
0.000511943
-0.00452387
0.000197178
-0.00453269
-0.00016614
-0.00443871
-0.000568644
-0.00424981
-0.00099704
-0.00400489
-0.00143545
-0.00379733
-0.00183695
-0.00361276
-0.00207897
-0.0031704
-0.00217045
-0.00264897
-0.00226183
-0.00221218
-0.000997123
0.00112384
-0.00102266
0.000152981
-0.000872242
-0.000526791
-0.000587828
-0.00120469
0.000217862
-0.00180634
8.87516e-05
0.000213439
0.000370484
0.000523377
0.000664299
0.0007912
0.000903171
0.00100024
0.00110537
0.000981447
0.000268911
0.000696715
0.000395958
0.000263241
0.000329713
0.00135666
-0.0010723
0.00786615
-0.00189444
0.00239809
-0.00236976
0.00189236
-0.00275428
0.00165075
-0.00309766
0.00148764
-0.00340051
0.0012858
-0.0036563
0.00102932
-0.0038547
0.00071045
-0.00398249
0.000325075
-0.0040272
-0.000121333
-0.00399041
-0.000605342
-0.00390131
-0.00108604
-0.00381421
-0.00152246
-0.00378364
-0.00186743
-0.00378695
-0.00207558
-0.0037877
-0.00216962
-0.00390805
-0.0021414
-0.00449142
-0.00162874
-0.00367671
-0.000797867
-0.00246285
-8.99471e-05
-0.00202662
-0.000283162
-0.00170433
-0.000848956
-0.00151154
-0.00139735
-0.0016967
-0.00162105
-0.000492241
-0.00120448
0.000344396
-0.000836672
0.000976486
-0.000632148
0.00152698
-0.000550556
0.00201574
-0.000488825
0.00242455
-0.000408871
0.00269694
-0.000272453
0.00274596
-4.90844e-05
0.00249332
0.000252574
0.00212672
0.000635609
0.00149616
0.00102664
0.000425611
0.00140039
0.00181289
-0.000797727
0.00906983
-0.00159899
0.00319947
-0.00188203
0.00217553
-0.00216583
0.00193467
-0.0024305
0.00175243
-0.00266363
0.00151904
-0.00286139
0.00122718
-0.00301833
0.000867501
-0.00312317
0.000430008
-0.00315905
-8.53487e-05
-0.00312634
-0.000637957
-0.00306734
-0.00114495
-0.00303442
-0.00155529
-0.00306028
-0.00184149
-0.00313773
-0.00199804
-0.00326619
-0.00204107
-0.0034752
-0.00193231
-0.00356363
-0.00154022
-0.00333193
-0.00102948
-0.00271697
-0.000704797
-0.00219014
-0.00080987
-0.00183757
-0.00120139
-0.00158685
-0.00164793
-0.00128634
-0.0019214
-0.000630064
-0.0018606
2.51227e-05
-0.00149173
0.000583243
-0.00119017
0.00106809
-0.0010353
0.00151156
-0.000932203
0.00190883
-0.000806042
0.00222655
-0.000590083
0.00240595
-0.000228388
0.00239879
0.000259832
0.00224709
0.000787408
0.00197284
0.001301
0.00153349
0.00183988
0.00153644
0.00181007
-0.000601363
0.00216674
-0.00173673
0.00116602
-0.00163918
-0.000725685
0.0102529
-0.00144958
0.00392349
-0.00135594
0.00208201
-0.00146234
0.00204118
-0.00164553
0.00193573
-0.00179328
0.0016669
-0.00189843
0.00133244
-0.00197035
0.000939519
-0.00200676
0.000466519
-0.00198977
-0.000102236
-0.00192599
-0.000701645
-0.00186732
-0.00120352
-0.00185472
-0.0015678
-0.00190494
-0.00179117
-0.00201444
-0.00188846
-0.00217875
-0.00187666
-0.00236995
-0.00174101
-0.00244846
-0.00146161
-0.00233805
-0.00113977
-0.00207325
-0.000969481
-0.00182003
-0.00106295
-0.0016389
-0.00138237
-0.0014687
-0.00181797
-0.00117129
-0.00221864
-0.000673792
-0.0023579
-0.000217417
-0.00194796
0.000183043
-0.00159052
0.000552329
-0.00140449
0.000906757
-0.00128653
0.00125797
-0.00115715
0.00159943
-0.000931452
0.0018976
-0.000526454
0.00207614
8.13928e-05
0.00215081
0.000712841
0.00221572
0.0012362
0.00236632
0.00168939
0.00246531
0.0017112
0.00263149
0.00200066
0.00212533
0.00167229
0.000568302
-0.000980151
0.0117362
-0.00119083
0.00413429
-0.000490997
0.0013823
-0.000392608
0.00194291
-0.000588992
0.00213223
-0.000717882
0.0017959
-0.000733256
0.00134792
-0.000689768
0.000896135
-0.000603931
0.000380784
-0.000494604
-0.000211462
-0.000401862
-0.000794286
-0.000366541
-0.00123875
-0.000403482
-0.00153076
-0.00050812
-0.00168644
-0.000667294
-0.00172919
-0.000864021
-0.00167984
-0.00105954
-0.00154539
-0.00118463
-0.00133641
-0.00120812
-0.00111616
-0.00117671
-0.00100076
-0.00116939
-0.00107011
-0.00120909
-0.00134251
-0.00122096
-0.00180593
-0.00107386
-0.00236554
-0.000705582
-0.00272591
-0.000414414
-0.00223898
-0.000215119
-0.0017897
-3.5997e-05
-0.00158352
0.000151912
-0.00147435
0.000369467
-0.00137461
0.000640524
-0.00120241
0.000978767
-0.00086459
0.00132191
-0.000261645
0.00161862
0.000416239
0.00190096
0.000953968
0.0022614
0.00132906
0.00264262
0.0013301
0.00339913
0.00124426
0.00366746
0.00140406
0.00432039
0.00207971
0.0102174
0.0025165
0.00369762
0.00245229
0.00144663
0.00205462
0.0023407
0.0015588
0.00262817
0.00124777
0.00210704
0.0011473
0.0014485
0.00118438
0.00085916
0.00131896
0.000246307
0.00146408
-0.000356478
0.00149953
-0.000829632
0.00142324
-0.00116235
0.00126202
-0.00136944
0.00104368
-0.00146799
0.000790594
-0.001476
0.000523047
-0.00141219
0.000270524
-0.00129277
7.00703e-05
-0.00113585
-6.63898e-05
-0.000979584
-0.000181843
-0.000885168
-0.000347281
-0.000904517
-0.000598212
-0.00109141
-0.000852086
-0.00155187
-0.0009324
-0.002285
-0.000694394
-0.00296358
-0.000549776
-0.00238343
-0.000572429
-0.00176694
-0.000648776
-0.00150708
-0.000729543
-0.00139349
-0.000785632
-0.00131842
-0.000778797
-0.00120914
-0.000639921
-0.00100336
-0.000254693
-0.000646764
0.00020547
-4.38087e-05
0.000580961
0.000578579
0.000934625
0.000975496
0.00123168
0.00103315
0.00160929
0.000866743
0.000918352
0.00209509
0.00561906
0.0108426
0.0145402
0.0122892
0.00369769
0.00973284
0.00489717
0.00782361
0.00453751
0.00650143
0.00342933
0.00561353
0.00233651
0.00505942
0.00141337
0.00464585
0.000659983
0.00423569
5.37907e-05
0.00382145
-0.000415282
0.00340745
-0.000748238
0.00299555
-0.000957435
0.00258965
-0.00106199
0.00219754
-0.00108378
0.0018293
-0.00104384
0.00149803
-0.000961395
0.00121862
-0.000856322
0.000994045
-0.000754894
0.000793763
-0.000684757
0.000544666
-0.000655273
0.000149439
-0.00069601
-0.000375404
-0.00102683
-0.000741254
-0.00191892
-0.000603593
-0.00310082
-0.000561402
-0.00242543
-0.000825783
-0.00150246
-0.00119816
-0.00113462
-0.00161486
-0.000976697
-0.00207436
-0.000858826
-0.00258481
-0.0006986
-0.00314718
-0.000440884
-0.00377139
-2.24628e-05
-0.00439172
0.00057662
-0.00514233
0.00132928
-0.00628605
0.0021193
-0.00797664
0.00272382
-0.00993541
0.00282558
-0.00926861
0.00142837
-0.00322777
0.0035195
0.00445453
0.00408566
0.00433107
0.00519886
0.00342439
0.00556717
0.00306111
0.00561281
0.00229097
0.0055776
0.0014487
0.005479
0.000758679
0.00528083
0.000252071
0.00496526
-9.96012e-05
0.00456494
-0.000347811
0.00412067
-0.000513063
0.00366557
-0.000606786
0.0032249
-0.000643
0.00281622
-0.000635044
0.00245023
-0.000595295
0.00213183
-0.000537815
0.00186118
-0.000484129
0.00162899
-0.000452448
0.00137751
-0.000403662
0.000956164
-0.000274506
0.000268132
-0.000338626
-0.000374602
-0.00127597
-0.000436536
-0.00303835
-0.000502133
-0.00235965
-0.000932048
-0.00107244
-0.00144131
-0.000625273
-0.00195602
-0.000461905
-0.00247847
-0.000336296
-0.00298173
-0.000195247
-0.00339324
-2.92799e-05
-0.00370229
0.000286675
-0.00394072
0.000815135
-0.004138
0.00152665
-0.00428602
0.00226741
-0.00430851
0.0027464
-0.00397977
0.00249692
-0.00235794
-0.000193372
-0.00548007
-0.000912894
0.00540509
0.00115125
0.00226699
0.002441
0.00213472
0.00343835
0.00206385
0.00423695
0.00149248
0.00474498
0.000940768
0.00498157
0.000522186
0.00500369
0.00023006
0.00487108
3.31141e-05
0.00463734
-0.000113965
0.00433628
-0.0002119
0.0039998
-0.000270199
0.00365392
-0.000297007
0.00331857
-0.00029959
0.00300831
-0.000284924
0.00273214
-0.000261537
0.00249377
-0.000245652
0.00229189
-0.000250452
0.00210536
-0.000217012
0.00185388
-2.28991e-05
0.00141771
9.76912e-05
0.000712455
-0.000570568
-0.000251029
-0.00207424
-0.000900387
-0.00171011
-0.00134267
-0.000630063
-0.00167304
-0.000294826
-0.00193392
-0.000200946
-0.00215329
-0.000116841
-0.00234413
-4.32345e-06
-0.00249178
0.000118454
-0.00249762
0.000292591
-0.00230208
0.00061968
-0.001897
0.00112166
-0.00130263
0.00167312
-0.000219158
0.00166301
0.00134201
0.000935826
0.00172575
-0.000577031
-0.00363869
-0.008201
-0.0105149
-0.00507532
-0.0027868
-0.000633265
0.00144815
0.00295842
0.0039176
0.00445905
0.00470933
0.00476371
0.00467204
0.00448343
0.00423754
0.00396587
0.00369265
0.0034351
0.00320186
0.00298529
0.00276447
0.00257732
0.0025842
0.00271161
0.00217201
0.000132063
-0.00154056
-0.00213416
-0.00239298
-0.00255819
-0.00263967
-0.00260925
-0.00245709
-0.002132
-0.00148123
-0.000329912
0.00137121
0.00306147
0.00402479
0.00347679
)
;

boundaryField
{
    floor
    {
        type            calculated;
        value           nonuniform List<scalar> 
36
(
0
0
0
0
0
0
0
0
0
0
0
0
0
0
0
0
0
0
0
-7.20899e-06
-1.7399e-05
-2.4903e-05
-3.05081e-05
-2.88529e-05
-3.05582e-05
-2.87367e-05
-3.39752e-06
-6.37665e-06
-6.58773e-06
-7.93885e-06
-5.05946e-06
-1.19855e-05
-1.36277e-05
-1.54371e-05
-1.60819e-05
-1.67715e-05
)
;
    }
    ceiling
    {
        type            calculated;
        value           nonuniform List<scalar> 
43
(
-3.76957e-05
-3.60537e-05
-3.44353e-05
-2.14485e-05
-1.87267e-05
-1.74708e-05
-1.76881e-05
-1.83156e-05
-1.91553e-05
-2.01203e-05
-2.11661e-05
-2.21842e-05
-2.31894e-05
-2.42041e-05
-2.52329e-05
-2.62639e-05
-2.72671e-05
-2.81923e-05
-2.89727e-05
-2.95266e-05
-2.97538e-05
-2.96654e-05
-2.96139e-05
-3.08269e-05
-3.3669e-05
-3.72532e-05
-3.63811e-05
-3.59334e-05
-3.5653e-05
-3.52849e-05
-3.46638e-05
-3.36337e-05
-3.24133e-05
-3.10131e-05
-2.95776e-05
-2.7927e-05
-2.71722e-05
-2.74094e-05
-2.89554e-05
-3.01255e-05
2.18569e-06
1.44322e-07
-3.7676e-05
)
;
    }
    sWall
    {
        type            calculated;
        value           uniform -0.000228041;
    }
    nWall
    {
        type            calculated;
        value           nonuniform List<scalar> 6(-6.87002e-05 -8.20464e-05 -8.45246e-05 -0.000105559 -0.00011556 -0.000131697);
    }
    sideWalls
    {
        type            empty;
        value           nonuniform 0();
    }
    glass1
    {
        type            calculated;
        value           nonuniform List<scalar> 9(-7.14849e-05 -0.000185245 -0.000274353 -0.000346029 -0.000405845 -0.000457264 -0.000503094 -0.000560774 -0.000627256);
    }
    glass2
    {
        type            calculated;
        value           nonuniform List<scalar> 2(-0.000380219 -0.000421709);
    }
    sun
    {
        type            calculated;
        value           uniform 0;
    }
    Table_master
    {
        type            calculated;
        value           nonuniform List<scalar> 9(-1.55655e-07 -1.55752e-07 -1.5574e-07 -1.55719e-07 -1.55699e-07 -1.5568e-07 -1.55666e-07 -1.55656e-07 -1.55641e-07);
    }
    Table_slave
    {
        type            calculated;
        value           nonuniform List<scalar> 9(1.55061e-07 1.55388e-07 1.55357e-07 1.55184e-07 1.5503e-07 1.54903e-07 1.54824e-07 1.54823e-07 1.54844e-07);
    }
    inlet
    {
        type            calculated;
        value           uniform -0.00427638;
    }
    outlet
    {
        type            calculated;
        value           nonuniform List<scalar> 2(0.00846678 0.00234998);
    }
}


// ************************************************************************* //
