/*--------------------------------*- C++ -*----------------------------------*\
  =========                 |
  \\      /  F ield         | OpenFOAM: The Open Source CFD Toolbox
   \\    /   O peration     | Website:  https://openfoam.org
    \\  /    A nd           | Version:  6
     \\/     M anipulation  |
\*---------------------------------------------------------------------------*/
FoamFile
{
    version     2.0;
    format      ascii;
    class       volVectorField;
    location    "2800";
    object      U;
}
// * * * * * * * * * * * * * * * * * * * * * * * * * * * * * * * * * * * * * //

dimensions      [0 1 -1 0 0 0 0];

internalField   nonuniform List<vector> 
458
(
(0.0419244 0.0805823 0)
(-0.156644 0.0216008 0)
(-0.174828 0.0162054 0)
(-0.202971 0.0122828 0)
(-0.225253 0.00779352 0)
(-0.241232 0.00307268 0)
(-0.250121 -0.00199544 0)
(-0.250699 -0.00756636 0)
(-0.241874 -0.0137926 0)
(-0.223476 -0.0204057 0)
(-0.195945 -0.0267328 0)
(-0.160583 -0.0323311 0)
(-0.119482 -0.0375988 0)
(-0.0789293 -0.044189 0)
(-0.0589117 -0.0526485 0)
(0.00438802 0.00508892 0)
(-0.0124242 -0.0180389 0)
(0.0130661 -0.0238973 0)
(0.0299149 -0.017061 0)
(0.0444175 -0.0110439 0)
(0.0536909 -0.00632401 0)
(0.0582599 -0.00390348 0)
(0.0600281 -0.00295688 0)
(0.0607088 -0.00255159 0)
(0.0610355 -0.0022954 0)
(0.0610984 -0.00207957 0)
(0.0608142 -0.00180855 0)
(0.0599747 -0.00131498 0)
(0.0580333 -0.000223162 0)
(0.0538398 0.00199338 0)
(0.0461106 0.00451646 0)
(0.0375179 0.00670453 0)
(-0.00818373 0.0182414 0)
(0.216531 0.165785 0)
(-0.150066 0.0576334 0)
(-0.140921 0.0467907 0)
(-0.170038 0.0386988 0)
(-0.191657 0.0296648 0)
(-0.207348 0.0198867 0)
(-0.216548 0.00891126 0)
(-0.218025 -0.00369072 0)
(-0.210557 -0.0177703 0)
(-0.194445 -0.0319248 0)
(-0.170619 -0.0441695 0)
(-0.141265 -0.0529171 0)
(-0.109597 -0.0577291 0)
(-0.0810025 -0.0589498 0)
(-0.0623449 -0.0527466 0)
(-0.0432729 -0.017987 0)
(-0.0155809 0.0160138 0)
(-0.0644069 0.032688 0)
(0.059382 0.0211092 0)
(0.0351903 -0.0211239 0)
(0.040849 -0.0280498 0)
(0.0510637 -0.0222546 0)
(0.0590478 -0.0143239 0)
(0.0627021 -0.00561303 0)
(0.0632121 -0.000659252 0)
(0.0629317 0.00131339 0)
(0.0629145 0.00213788 0)
(0.063079 0.00264269 0)
(0.0631988 0.00305533 0)
(0.0631937 0.00352185 0)
(0.0630388 0.00440261 0)
(0.0622347 0.00655708 0)
(0.0585063 0.0124747 0)
(0.0491615 0.0176929 0)
(0.0416565 0.0214803 0)
(-0.0359346 0.039938 0)
(0.375341 0.248353 0)
(-0.171485 0.09318 0)
(-0.105631 0.075858 0)
(-0.134 0.0605072 0)
(-0.152398 0.0454926 0)
(-0.166263 0.0297327 0)
(-0.174969 0.0120688 0)
(-0.176697 -0.008184 0)
(-0.169501 -0.0304934 0)
(-0.154236 -0.052408 0)
(-0.132418 -0.0704951 0)
(-0.106735 -0.0822485 0)
(-0.0802857 -0.0868187 0)
(-0.0565707 -0.0841971 0)
(-0.0374405 -0.0725857 0)
(-0.0187425 -0.0470402 0)
(-0.000459819 -0.0242116 0)
(-0.0264869 -0.0100637 0)
(0.0921208 -0.050345 0)
(0.0628852 -0.0459484 0)
(0.060847 -0.0381796 0)
(0.0646008 -0.0291294 0)
(0.0678009 -0.0215132 0)
(0.0681341 -0.0163416 0)
(0.063199 -0.0113102 0)
(0.0595299 -0.0086368 0)
(0.0581535 -0.00714031 0)
(0.0578364 -0.00617777 0)
(0.057858 -0.00548919 0)
(0.0582071 -0.00483528 0)
(0.0593453 -0.00385297 0)
(0.0624472 -0.000590374 0)
(0.0612796 0.0163648 0)
(0.0497749 0.0286007 0)
(0.0470481 0.0378072 0)
(-0.0594807 0.0640282 0)
(0.515637 0.314885 0)
(-0.208917 0.125741 0)
(-0.0683455 0.0999534 0)
(-0.0956955 0.0782415 0)
(-0.108123 0.0593486 0)
(-0.117828 0.0397216 0)
(-0.124476 0.016893 0)
(-0.125028 -0.0105679 0)
(-0.116746 -0.0413091 0)
(-0.101677 -0.0706667 0)
(-0.0822167 -0.0936122 0)
(-0.0611276 -0.107201 0)
(-0.040675 -0.110721 0)
(-0.0228443 -0.104593 0)
(-0.00775823 -0.0890756 0)
(0.00833266 -0.0633031 0)
(0.0268674 -0.038869 0)
(0.0459442 -0.0225873 0)
(0.0754197 -0.0111007 0)
(0.0836499 -0.0382819 0)
(0.0710832 -0.0397868 0)
(0.064465 -0.0336775 0)
(0.062291 -0.0267348 0)
(0.0607614 -0.0188975 0)
(0.0627127 -0.0117795 0)
(0.0694373 -0.00862776 0)
(0.0751752 -0.00689445 0)
(0.0791293 -0.00574258 0)
(0.0818191 -0.00461935 0)
(0.0830932 -0.00319749 0)
(0.0817045 -0.0011577 0)
(0.0764742 0.00179109 0)
(0.0651724 0.00615298 0)
(0.054023 0.0253478 0)
(0.0442259 0.0419727 0)
(0.051789 0.0565127 0)
(-0.0754545 0.0880446 0)
(0.63301 0.36704 0)
(-0.250654 0.153627 0)
(-0.0322175 0.112757 0)
(-0.0556601 0.0876866 0)
(-0.0601574 0.0669361 0)
(-0.0632854 0.0454392 0)
(-0.0656895 0.0194961 0)
(-0.0617998 -0.0138951 0)
(-0.050588 -0.0523175 0)
(-0.0359459 -0.0871791 0)
(-0.020595 -0.112397 0)
(-0.00644254 -0.12567 0)
(0.00574868 -0.127011 0)
(0.0150585 -0.117981 0)
(0.0226519 -0.100927 0)
(0.0308172 -0.0781007 0)
(0.0413779 -0.0554567 0)
(0.0530271 -0.0394454 0)
(0.0630867 -0.0336207 0)
(0.0648601 -0.0384663 0)
(0.0591165 -0.0361312 0)
(0.0528361 -0.0303073 0)
(0.048903 -0.0241657 0)
(0.0469899 -0.0176874 0)
(0.0481249 -0.0104105 0)
(0.0519776 -0.00665669 0)
(0.0559909 -0.00517282 0)
(0.059578 -0.00416604 0)
(0.0627501 -0.00253979 0)
(0.0651686 0.000418878 0)
(0.0660583 0.0048757 0)
(0.0644458 0.0109293 0)
(0.0599165 0.0191527 0)
(0.054068 0.0338181 0)
(0.0470537 0.0512052 0)
(0.0632491 0.070848 0)
(0.0110744 0.0976661 0)
(0.0527613 0.120451 0)
(-0.0701044 0.0436488 0)
(-0.256063 -0.0133979 0)
(0.713674 0.411333 0)
(-0.287815 0.173453 0)
(-0.00669548 0.106521 0)
(-0.0138017 0.0868749 0)
(-0.00842888 0.0687497 0)
(-0.00355774 0.0468815 0)
(-3.37904e-05 0.0179139 0)
(0.0141041 -0.0219119 0)
(0.0285666 -0.0650389 0)
(0.0405129 -0.10051 0)
(0.0488371 -0.123744 0)
(0.0533035 -0.134053 0)
(0.054361 -0.132685 0)
(0.0529985 -0.121863 0)
(0.0505354 -0.104246 0)
(0.0486186 -0.0826828 0)
(0.0484881 -0.0614184 0)
(0.0495615 -0.0448677 0)
(0.0496909 -0.0354689 0)
(0.0463209 -0.0324441 0)
(0.0398785 -0.0294471 0)
(0.0334028 -0.0252007 0)
(0.0289695 -0.0208061 0)
(0.0269153 -0.0164603 0)
(0.027443 -0.0123755 0)
(0.0300486 -0.0103391 0)
(0.0334703 -0.00955441 0)
(0.0371581 -0.00873853 0)
(0.0409702 -0.00692281 0)
(0.0447117 -0.00324012 0)
(0.0483562 0.00292471 0)
(0.0503736 0.0112103 0)
(0.0510234 0.0215137 0)
(0.0517672 0.0352143 0)
(0.0523108 0.0517216 0)
(0.0691367 0.0718381 0)
(0.0627829 0.0868191 0)
(0.0904459 0.089061 0)
(0.107641 0.0542267 0)
(-0.126866 -0.0208057 0)
(0.757167 0.451806 0)
(-0.303517 0.160613 0)
(0.0169368 0.0543948 0)
(0.0438863 0.0634892 0)
(0.0577134 0.0621228 0)
(0.0685616 0.0419326 0)
(0.082084 0.0083743 0)
(0.103462 -0.0360056 0)
(0.117174 -0.0767643 0)
(0.122705 -0.10733 0)
(0.12078 -0.125338 0)
(0.112801 -0.131112 0)
(0.100598 -0.126473 0)
(0.0862103 -0.113918 0)
(0.0715084 -0.0960947 0)
(0.05809 -0.0757866 0)
(0.0469621 -0.0561775 0)
(0.0381088 -0.0403892 0)
(0.0305567 -0.0303123 0)
(0.0229508 -0.025339 0)
(0.0154035 -0.0224577 0)
(0.00903855 -0.0198892 0)
(0.00477359 -0.017601 0)
(0.00275138 -0.0156074 0)
(0.00288039 -0.0139983 0)
(0.00460926 -0.0133174 0)
(0.00712424 -0.0131186 0)
(0.010057 -0.012666 0)
(0.0134229 -0.0112237 0)
(0.0173885 -0.00787413 0)
(0.0225473 -0.00150441 0)
(0.0289471 0.00778073 0)
(0.0344344 0.0183847 0)
(0.0409566 0.0305364 0)
(0.0486268 0.0439993 0)
(0.0658738 0.0598719 0)
(0.0795289 0.0678934 0)
(0.106823 0.0624278 0)
(0.146622 0.0504415 0)
(-0.0321369 0.0879716 0)
(0.858208 0.456524 0)
(-0.0752485 0.139877 0)
(0.103689 -0.0309672 0)
(0.172841 -0.0262445 0)
(0.180795 -0.00763673 0)
(0.18334 -0.01689 0)
(0.201417 -0.0417048 0)
(0.215904 -0.0674067 0)
(0.217897 -0.0899516 0)
(0.207684 -0.106082 0)
(0.188147 -0.113934 0)
(0.162469 -0.113325 0)
(0.133709 -0.105456 0)
(0.104622 -0.0922262 0)
(0.0772556 -0.075561 0)
(0.0530501 -0.0576825 0)
(0.0327535 -0.0410188 0)
(0.0167354 -0.0279754 0)
(0.0046613 -0.0200574 0)
(-0.00505057 -0.0165585 0)
(-0.0123692 -0.0154954 0)
(-0.0179487 -0.0150938 0)
(-0.0217436 -0.0149808 0)
(-0.0239308 -0.0150163 0)
(-0.0247668 -0.0151481 0)
(-0.0246954 -0.0154467 0)
(-0.0241965 -0.0157594 0)
(-0.0234946 -0.0158098 0)
(-0.0225266 -0.0152275 0)
(-0.0209626 -0.0135001 0)
(-0.0179841 -0.00995192 0)
(-0.0107828 -0.00372375 0)
(-0.00107591 0.00478811 0)
(0.00895235 0.0133098 0)
(0.0203112 0.0200201 0)
(0.0373165 0.0262552 0)
(0.0547536 0.0225841 0)
(0.0782414 0.007052 0)
(0.140982 0.0413012 0)
(-0.371232 0.18692 0)
(0.999716 0.417397 0)
(0.470699 0.274914 0)
(0.493361 0.177441 0)
(0.519716 0.130774 0)
(0.484681 0.0987891 0)
(0.442584 0.0645472 0)
(0.407624 0.0269341 0)
(0.369765 -0.0100316 0)
(0.324911 -0.0404795 0)
(0.27615 -0.0611631 0)
(0.226429 -0.0714837 0)
(0.178 -0.0726951 0)
(0.132589 -0.0670767 0)
(0.0916464 -0.0570158 0)
(0.0558394 -0.0442389 0)
(0.0258785 -0.0308103 0)
(0.00176083 -0.0189819 0)
(-0.0154116 -0.0113473 0)
(-0.0263066 -0.00832806 0)
(-0.03428 -0.00793661 0)
(-0.0404384 -0.00877516 0)
(-0.045375 -0.00989811 0)
(-0.0493248 -0.0110318 0)
(-0.0524986 -0.0120733 0)
(-0.0551175 -0.0129776 0)
(-0.0575008 -0.0137435 0)
(-0.0600317 -0.0142943 0)
(-0.0630925 -0.014444 0)
(-0.067074 -0.013809 0)
(-0.0723882 -0.0117181 0)
(-0.0793863 -0.00727735 0)
(-0.0882985 0.000386606 0)
(-0.0973739 0.0106557 0)
(-0.109142 0.0233001 0)
(-0.128452 0.0388005 0)
(-0.157896 0.057168 0)
(-0.199605 0.0759734 0)
(-0.247768 0.0926196 0)
(-0.317016 0.105274 0)
(-0.578413 0.11218 0)
(-0.377848 -0.071102 0)
(0.14409 0.0147577 0)
(0.236247 0.0286458 0)
(0.232319 0.0241336 0)
(0.218747 0.00960456 0)
(0.202626 -0.00714455 0)
(0.183079 -0.020184 0)
(0.156093 -0.0281323 0)
(0.124574 -0.0314774 0)
(0.0908674 -0.0306288 0)
(0.0572408 -0.0264242 0)
(0.0257666 -0.019692 0)
(-0.00334352 -0.0106115 0)
(-0.0259202 -0.00231716 0)
(-0.0409516 0.00279399 0)
(-0.0505104 0.00516345 0)
(-0.0567157 0.00568844 0)
(-0.0615494 0.00508035 0)
(-0.0659093 0.00390398 0)
(-0.0702209 0.00282248 0)
(-0.0746558 0.00205677 0)
(-0.0792284 0.00171943 0)
(-0.0839102 0.00189969 0)
(-0.08871 0.00262946 0)
(-0.0936689 0.00391681 0)
(-0.0988418 0.00572628 0)
(-0.1043 0.00797937 0)
(-0.110123 0.010586 0)
(-0.116112 0.0133742 0)
(-0.120973 0.0180254 0)
(-0.124749 0.0261915 0)
(-0.127668 0.038558 0)
(-0.130332 0.054759 0)
(-0.133072 0.0726264 0)
(-0.133098 0.0847074 0)
(-0.118272 0.0717867 0)
(-0.0914869 -0.00582906 0)
(-0.255508 -0.180097 0)
(-0.0423427 0.146091 0)
(0.0710799 0.0509771 0)
(0.0144055 0.0169378 0)
(0.0231958 0.0268586 0)
(0.0298521 0.0215802 0)
(0.0290535 0.00724856 0)
(0.0242176 -0.00531931 0)
(0.0158676 -0.012802 0)
(0.000501512 -0.015684 0)
(-0.0181941 -0.0159428 0)
(-0.0357502 -0.0160744 0)
(-0.0504904 -0.0171566 0)
(-0.0610753 -0.0198808 0)
(-0.0671859 -0.0246319 0)
(-0.0705971 -0.0307252 0)
(-0.0727474 -0.0371379 0)
(-0.074402 -0.0429282 0)
(-0.0761884 -0.0475121 0)
(-0.0785992 -0.0510719 0)
(-0.0818486 -0.0538831 0)
(-0.085937 -0.0564167 0)
(-0.0908468 -0.0589955 0)
(-0.0964933 -0.0614259 0)
(-0.102659 -0.0633194 0)
(-0.108969 -0.064113 0)
(-0.114874 -0.0630942 0)
(-0.11967 -0.0594072 0)
(-0.122649 -0.0520376 0)
(-0.123459 -0.0410661 0)
(-0.121792 -0.0273697 0)
(-0.116556 -0.0110338 0)
(-0.106428 0.00804513 0)
(-0.0905334 0.029444 0)
(-0.0690758 0.0505951 0)
(-0.0438845 0.0649947 0)
(-0.00910806 0.0557705 0)
(0.138685 -0.0164838 0)
(-0.193027 -0.0952838 0)
(0.140763 -0.237087 0)
(-0.340791 -0.122924 0)
(-0.262634 0.0228297 0)
(-0.219216 -0.0169021 0)
(-0.193253 -0.00635751 0)
(-0.165716 0.00939942 0)
(-0.14363 0.0176753 0)
(-0.129412 0.0243013 0)
(-0.123002 0.0336895 0)
(-0.12118 0.0446929 0)
(-0.120729 0.0554156 0)
(-0.119527 0.0656256 0)
(-0.116815 0.0761417 0)
(-0.112558 0.0875977 0)
(-0.107165 0.0997488 0)
(-0.101467 0.111755 0)
(-0.0964146 0.122743 0)
(-0.0926137 0.132007 0)
(-0.0902553 0.139182 0)
(-0.0891973 0.144404 0)
(-0.0891515 0.148242 0)
(-0.0898273 0.151154 0)
(-0.0909977 0.153925 0)
(-0.0924851 0.157043 0)
(-0.0941447 0.160196 0)
(-0.0958633 0.162789 0)
(-0.0975441 0.164024 0)
(-0.0990818 0.163014 0)
(-0.100306 0.158902 0)
(-0.100832 0.150997 0)
(-0.0996302 0.140996 0)
(-0.0950857 0.131005 0)
(-0.0850806 0.122695 0)
(-0.067585 0.117578 0)
(-0.0421439 0.116789 0)
(-0.00794123 0.119879 0)
(0.0352566 0.12166 0)
(0.0711389 0.11469 0)
(0.154679 0.0996795 0)
(-0.275766 0.0646412 0)
)
;

boundaryField
{
    floor
    {
        type            noSlip;
    }
    ceiling
    {
        type            noSlip;
    }
    sWall
    {
        type            noSlip;
    }
    nWall
    {
        type            noSlip;
    }
    sideWalls
    {
        type            empty;
    }
    glass1
    {
        type            noSlip;
    }
    glass2
    {
        type            noSlip;
    }
    sun
    {
        type            noSlip;
    }
    Table_master
    {
        type            noSlip;
    }
    Table_slave
    {
        type            noSlip;
    }
    inlet
    {
        type            fixedValue;
        value           uniform (0.212132 -0.212132 0);
    }
    outlet
    {
        type            zeroGradient;
    }
}


// ************************************************************************* //
