/*--------------------------------*- C++ -*----------------------------------*\
  =========                 |
  \\      /  F ield         | OpenFOAM: The Open Source CFD Toolbox
   \\    /   O peration     | Website:  https://openfoam.org
    \\  /    A nd           | Version:  6
     \\/     M anipulation  |
\*---------------------------------------------------------------------------*/
FoamFile
{
    version     2.0;
    format      ascii;
    class       volVectorField;
    location    "1100";
    object      U;
}
// * * * * * * * * * * * * * * * * * * * * * * * * * * * * * * * * * * * * * //

dimensions      [0 1 -1 0 0 0 0];

internalField   nonuniform List<vector> 
458
(
(0.101012 0.069254 0)
(-0.140341 0.00228816 0)
(-0.122289 0.00623552 0)
(-0.137487 0.00711109 0)
(-0.152343 0.00603416 0)
(-0.165647 0.00411696 0)
(-0.176346 0.00161126 0)
(-0.183613 -0.00146513 0)
(-0.186649 -0.00517857 0)
(-0.184516 -0.00966363 0)
(-0.175562 -0.0153138 0)
(-0.157274 -0.0225626 0)
(-0.128599 -0.0329046 0)
(-0.0994018 -0.0494707 0)
(-0.10315 -0.0723535 0)
(0.0621704 0.00313663 0)
(-0.0144182 -0.0137046 0)
(0.0108369 -0.0164759 0)
(0.0256247 -0.0116364 0)
(0.0334417 -0.00201176 0)
(0.0274177 0.00963245 0)
(0.00194641 0.0114822 0)
(-0.0154508 0.000508449 0)
(-0.0167166 -0.00308498 0)
(-0.0168828 -0.00524865 0)
(-0.0135781 -0.00707946 0)
(-0.00818644 -0.00967635 0)
(0.0064459 -0.0150565 0)
(0.0144479 -0.0147297 0)
(0.0258654 -0.00999671 0)
(0.0335917 -0.00836394 0)
(0.0434544 -0.00423659 0)
(-0.02439 0.0182246 0)
(0.307236 0.151658 0)
(-0.165214 0.0202014 0)
(-0.11342 0.0230861 0)
(-0.134976 0.0240896 0)
(-0.151478 0.0225941 0)
(-0.16593 0.0196241 0)
(-0.177749 0.0154587 0)
(-0.186372 0.010082 0)
(-0.191118 0.0033761 0)
(-0.191146 -0.00482576 0)
(-0.185746 -0.0143924 0)
(-0.174096 -0.0252536 0)
(-0.157135 -0.0382903 0)
(-0.140154 -0.0548624 0)
(-0.125947 -0.0679234 0)
(-0.0923254 -0.0488244 0)
(-0.037499 -0.048398 0)
(-0.0440065 0.0741188 0)
(0.117036 -0.00605168 0)
(0.0306717 -0.0073523 0)
(0.0117932 -0.011102 0)
(0.0131705 -0.0117418 0)
(0.0279401 0.00391197 0)
(0.031352 0.0189907 0)
(0.0226228 0.0171316 0)
(0.0226153 0.00869754 0)
(0.0241779 0.00381978 0)
(0.0229053 0.000821123 0)
(0.0198627 -0.00249767 0)
(0.0184408 -0.00677548 0)
(0.0197552 -0.0127516 0)
(0.0130342 -0.0154537 0)
(0.0176079 -0.00955991 0)
(0.0235619 -0.00856332 0)
(0.036904 -0.000324414 0)
(-0.0829538 0.0405918 0)
(0.479946 0.23256 0)
(-0.211715 0.0494737 0)
(-0.0945286 0.0444064 0)
(-0.123551 0.0408794 0)
(-0.139994 0.0369039 0)
(-0.154488 0.0312716 0)
(-0.166654 0.0238593 0)
(-0.176093 0.0145848 0)
(-0.182217 0.00341903 0)
(-0.184228 -0.00948694 0)
(-0.18162 -0.0239589 0)
(-0.174843 -0.0396468 0)
(-0.165545 -0.0562241 0)
(-0.156546 -0.0726572 0)
(-0.146673 -0.0838905 0)
(-0.13047 -0.0844932 0)
(-0.121387 -0.0902875 0)
(-0.153877 -0.0864914 0)
(0.0427905 0.00469934 0)
(-0.0488093 -0.000944368 0)
(-0.045955 -0.0102678 0)
(-0.040914 -0.0224815 0)
(-0.0419201 -0.0277024 0)
(0.0351743 0.0236474 0)
(0.0337758 0.017975 0)
(0.042666 0.0113264 0)
(0.0500855 0.00672528 0)
(0.0532967 0.00331504 0)
(0.0530779 0.000109548 0)
(0.0494696 -0.0035554 0)
(0.0416669 -0.00849183 0)
(0.0166607 -0.0106222 0)
(0.0305927 -0.0036119 0)
(0.02585 0.0109215 0)
(-0.000910265 0.0258936 0)
(-0.161087 0.0452548 0)
(0.620335 0.30037 0)
(-0.259913 0.083952 0)
(-0.0690504 0.0661705 0)
(-0.106006 0.0577486 0)
(-0.120786 0.0519123 0)
(-0.133773 0.0445936 0)
(-0.14505 0.0351756 0)
(-0.154234 0.0233749 0)
(-0.160767 0.00906079 0)
(-0.163821 -0.00758035 0)
(-0.16266 -0.0258033 0)
(-0.15871 -0.044375 0)
(-0.153771 -0.0618291 0)
(-0.14986 -0.0762112 0)
(-0.146882 -0.0846184 0)
(-0.144844 -0.0863977 0)
(-0.151049 -0.0828384 0)
(-0.169083 -0.0574405 0)
(-0.161504 0.0095344 0)
(-0.119145 0.00320903 0)
(-0.10809 -0.00538169 0)
(-0.0950865 -0.01676 0)
(-0.0937812 -0.0260517 0)
(-0.0993664 -0.0287973 0)
(-0.0951999 -0.0168869 0)
(-0.077514 -0.0150028 0)
(-0.0599946 -0.0166566 0)
(-0.0405401 -0.0198716 0)
(-0.0189554 -0.0243553 0)
(0.0124989 -0.0292703 0)
(0.0431522 -0.0298612 0)
(0.0733339 -0.0269275 0)
(0.099502 -0.0203844 0)
(0.109596 -0.00722894 0)
(0.0970124 0.02053 0)
(0.0821065 0.0423986 0)
(-0.0601514 0.061632 0)
(0.731514 0.35655 0)
(-0.301828 0.119848 0)
(-0.0416815 0.0836671 0)
(-0.0835782 0.071678 0)
(-0.0958831 0.0643047 0)
(-0.105872 0.0556098 0)
(-0.114702 0.0445679 0)
(-0.122039 0.0306575 0)
(-0.127432 0.0136177 0)
(-0.129905 -0.00630033 0)
(-0.128379 -0.0276366 0)
(-0.125112 -0.0479866 0)
(-0.121843 -0.0652609 0)
(-0.120088 -0.0779083 0)
(-0.120148 -0.0849482 0)
(-0.122389 -0.0870942 0)
(-0.127977 -0.0846226 0)
(-0.132933 -0.0715149 0)
(-0.129074 -0.0423424 0)
(-0.115787 -0.0237989 0)
(-0.101253 -0.0191425 0)
(-0.090895 -0.0226481 0)
(-0.0865133 -0.0269388 0)
(-0.0844527 -0.0279393 0)
(-0.0789383 -0.0232091 0)
(-0.068639 -0.0229628 0)
(-0.0560066 -0.0257003 0)
(-0.0411645 -0.0308713 0)
(-0.0239705 -0.0379493 0)
(-0.0033332 -0.0448229 0)
(0.0209652 -0.0479187 0)
(0.0460147 -0.0445805 0)
(0.070221 -0.0311638 0)
(0.0903642 -0.00462203 0)
(0.100799 0.0311254 0)
(0.110372 0.0607093 0)
(0.0776217 0.0770111 0)
(0.118806 0.116463 0)
(0.104799 0.162524 0)
(-0.390945 0.0851592 0)
(0.803063 0.40677 0)
(-0.335588 0.151694 0)
(-0.02088 0.0900389 0)
(-0.0546452 0.0821862 0)
(-0.0650184 0.0739036 0)
(-0.0717796 0.0634613 0)
(-0.0769693 0.0509709 0)
(-0.0807849 0.035594 0)
(-0.0832253 0.0166054 0)
(-0.0828797 -0.00604063 0)
(-0.0793838 -0.0300146 0)
(-0.0759488 -0.0511118 0)
(-0.07392 -0.0671828 0)
(-0.0741413 -0.0775609 0)
(-0.0766605 -0.082326 0)
(-0.0813494 -0.0820656 0)
(-0.0875957 -0.0764188 0)
(-0.0920158 -0.0636845 0)
(-0.0908022 -0.0466968 0)
(-0.084451 -0.0341215 0)
(-0.0767546 -0.0288256 0)
(-0.0711477 -0.0287578 0)
(-0.0684458 -0.0302806 0)
(-0.0667904 -0.0308689 0)
(-0.0636605 -0.0302974 0)
(-0.0583299 -0.0320189 0)
(-0.0514054 -0.036438 0)
(-0.0430238 -0.0433909 0)
(-0.0331677 -0.0523283 0)
(-0.0216885 -0.0616232 0)
(-0.00817879 -0.0685027 0)
(0.0093788 -0.0689146 0)
(0.028878 -0.0567126 0)
(0.0511209 -0.0265245 0)
(0.0790893 0.0191022 0)
(0.098567 0.0540557 0)
(0.103469 0.0620711 0)
(0.118911 0.056266 0)
(0.136501 0.0897262 0)
(-0.0644967 0.0525532 0)
(0.824653 0.452839 0)
(-0.349639 0.151599 0)
(-0.00239998 0.0577695 0)
(-0.0034483 0.086357 0)
(-0.0170721 0.0875448 0)
(-0.0256784 0.0702502 0)
(-0.0284515 0.0533697 0)
(-0.0282843 0.0361924 0)
(-0.0266428 0.0154548 0)
(-0.0201895 -0.00979068 0)
(-0.0142417 -0.0348707 0)
(-0.0116992 -0.0544684 0)
(-0.0123358 -0.0677722 0)
(-0.0159051 -0.0752983 0)
(-0.0218948 -0.0778663 0)
(-0.0296289 -0.0762409 0)
(-0.037955 -0.0703842 0)
(-0.0445305 -0.0600305 0)
(-0.0472955 -0.0478308 0)
(-0.0465827 -0.0380769 0)
(-0.0447155 -0.0326565 0)
(-0.0436374 -0.0308493 0)
(-0.0439091 -0.0308383 0)
(-0.0447667 -0.0312712 0)
(-0.0451801 -0.0322537 0)
(-0.0449573 -0.0351295 0)
(-0.0445021 -0.0404493 0)
(-0.0440651 -0.0483311 0)
(-0.0437224 -0.0583718 0)
(-0.0432368 -0.0693078 0)
(-0.041732 -0.0789073 0)
(-0.0376703 -0.0835861 0)
(-0.0299295 -0.0780404 0)
(-0.0175073 -0.0564992 0)
(0.0149479 -0.00980395 0)
(0.0491227 0.0300574 0)
(0.0684287 0.0368195 0)
(0.0971442 0.0259035 0)
(0.144991 0.0605304 0)
(-0.0534977 0.140742 0)
(0.92648 0.473487 0)
(-0.133406 0.135034 0)
(0.0766241 -0.0135457 0)
(0.1207 0.0331097 0)
(0.0915898 0.0647901 0)
(0.065228 0.0559783 0)
(0.0556679 0.0374908 0)
(0.0545694 0.0197762 0)
(0.0564926 -0.00117405 0)
(0.0652248 -0.0226449 0)
(0.0686424 -0.0408032 0)
(0.0662845 -0.0545951 0)
(0.0599729 -0.0637183 0)
(0.0509271 -0.0684303 0)
(0.0400743 -0.0692743 0)
(0.0282431 -0.0668867 0)
(0.0163978 -0.0616492 0)
(0.0060364 -0.0537746 0)
(-0.00143197 -0.0446084 0)
(-0.00577798 -0.0369449 0)
(-0.00868753 -0.0320202 0)
(-0.0115244 -0.0296474 0)
(-0.0148219 -0.0289613 0)
(-0.0184507 -0.0291691 0)
(-0.0222085 -0.0302219 0)
(-0.026453 -0.0327142 0)
(-0.0319048 -0.0371039 0)
(-0.0393529 -0.0437006 0)
(-0.0495174 -0.0524725 0)
(-0.0625826 -0.0628145 0)
(-0.0773209 -0.073325 0)
(-0.0914301 -0.0811099 0)
(-0.102917 -0.0814414 0)
(-0.10875 -0.0700139 0)
(-0.099849 -0.0466457 0)
(-0.0698737 -0.0154644 0)
(-0.0516997 0.0112041 0)
(-0.0204024 0.0407796 0)
(-0.0146369 0.134973 0)
(-0.558942 0.260603 0)
(1.06543 0.434965 0)
(0.505025 0.284289 0)
(0.505651 0.208615 0)
(0.481732 0.187311 0)
(0.388332 0.167157 0)
(0.306118 0.131183 0)
(0.257339 0.0915292 0)
(0.22879 0.0558837 0)
(0.211028 0.0250255 0)
(0.192833 -0.00222454 0)
(0.173619 -0.0241909 0)
(0.154862 -0.0399255 0)
(0.136483 -0.0498006 0)
(0.118418 -0.0547523 0)
(0.100853 -0.0558154 0)
(0.0841178 -0.0539394 0)
(0.0686299 -0.0499207 0)
(0.0549858 -0.0444716 0)
(0.0438151 -0.0385294 0)
(0.0351794 -0.0332495 0)
(0.0282722 -0.029412 0)
(0.0222017 -0.0272166 0)
(0.0164161 -0.0263439 0)
(0.0106851 -0.0262554 0)
(0.00482243 -0.0265959 0)
(-0.00193988 -0.0274616 0)
(-0.0103895 -0.0290403 0)
(-0.0220549 -0.0315478 0)
(-0.039379 -0.0353649 0)
(-0.064627 -0.0407672 0)
(-0.097153 -0.0469385 0)
(-0.134562 -0.0505339 0)
(-0.177318 -0.0457488 0)
(-0.227716 -0.0284087 0)
(-0.277404 -0.00214181 0)
(-0.320745 0.0260151 0)
(-0.356557 0.0454198 0)
(-0.39124 0.0486155 0)
(-0.449338 0.0319182 0)
(-0.697432 -0.0168458 0)
(-0.500941 0.0447169 0)
(0.174454 0.164648 0)
(0.242095 0.168215 0)
(0.232064 0.141889 0)
(0.232367 0.105289 0)
(0.234594 0.0681105 0)
(0.233004 0.0359461 0)
(0.227039 0.0105518 0)
(0.215608 -0.00888587 0)
(0.199842 -0.0225142 0)
(0.181558 -0.0311855 0)
(0.162211 -0.0357782 0)
(0.142971 -0.0371779 0)
(0.124714 -0.0362231 0)
(0.108037 -0.0336853 0)
(0.0933144 -0.0302912 0)
(0.0807217 -0.0267575 0)
(0.0701355 -0.0236996 0)
(0.0611314 -0.021402 0)
(0.053233 -0.0198382 0)
(0.0460769 -0.0188036 0)
(0.0393955 -0.0180324 0)
(0.0329292 -0.0172908 0)
(0.0263616 -0.0164958 0)
(0.0194669 -0.0155594 0)
(0.0117694 -0.0142167 0)
(0.00106681 -0.0126621 0)
(-0.016147 -0.0121886 0)
(-0.0371088 -0.0134608 0)
(-0.0539707 -0.0151435 0)
(-0.064842 -0.0128033 0)
(-0.0818709 0.000544556 0)
(-0.101966 0.0195572 0)
(-0.126401 0.0446112 0)
(-0.139571 0.0681475 0)
(-0.121164 0.0681154 0)
(0.00318667 -0.0122358 0)
(-0.265154 -0.266148 0)
(-0.242923 0.217369 0)
(0.103594 0.153015 0)
(0.0867665 0.124817 0)
(0.116573 0.113863 0)
(0.153089 0.0894326 0)
(0.181748 0.0616904 0)
(0.198881 0.0394953 0)
(0.205225 0.0248458 0)
(0.203237 0.0166406 0)
(0.195447 0.0114361 0)
(0.183903 0.00836018 0)
(0.170162 0.00729404 0)
(0.155425 0.00815052 0)
(0.140671 0.0108167 0)
(0.126668 0.0151075 0)
(0.113966 0.0206781 0)
(0.102892 0.0268816 0)
(0.0934967 0.0327108 0)
(0.0855449 0.0370633 0)
(0.0786153 0.0392388 0)
(0.0722487 0.0392998 0)
(0.0660692 0.0379764 0)
(0.0598581 0.0361106 0)
(0.0536104 0.0339546 0)
(0.0475706 0.0316014 0)
(0.041995 0.0310234 0)
(0.036402 0.0344191 0)
(0.0288797 0.0388817 0)
(0.0184845 0.0368195 0)
(0.0106642 0.022046 0)
(0.0114263 0.00611371 0)
(0.00743006 0.0334989 0)
(0.00664326 0.0464291 0)
(0.011061 0.0592878 0)
(0.0231609 0.0682945 0)
(0.0508531 0.0551191 0)
(0.136858 -0.0177745 0)
(-0.174611 -0.165716 0)
(-0.0984446 -0.329788 0)
(-0.401343 -0.0949187 0)
(-0.319934 0.124436 0)
(-0.145035 0.0358731 0)
(-0.0918679 0.029394 0)
(0.000832507 0.0374251 0)
(0.0752 0.0161384 0)
(0.126483 -0.00690357 0)
(0.161112 -0.0271709 0)
(0.179792 -0.0446413 0)
(0.186418 -0.0603616 0)
(0.185219 -0.0735716 0)
(0.178865 -0.0848497 0)
(0.169305 -0.0951404 0)
(0.158069 -0.105126 0)
(0.146361 -0.115283 0)
(0.135088 -0.125856 0)
(0.124864 -0.136769 0)
(0.115993 -0.14755 0)
(0.108451 -0.15737 0)
(0.101899 -0.165331 0)
(0.0957979 -0.170905 0)
(0.0896034 -0.174186 0)
(0.0829759 -0.175755 0)
(0.0758831 -0.176279 0)
(0.0684608 -0.176156 0)
(0.0607485 -0.175196 0)
(0.0531465 -0.17234 0)
(0.0477347 -0.166694 0)
(0.0474096 -0.154261 0)
(0.0513926 -0.146631 0)
(0.0544302 -0.157511 0)
(0.0450868 -0.165998 0)
(0.0383418 -0.12153 0)
(0.0601819 -0.076945 0)
(0.0929622 -0.0518488 0)
(0.128022 -0.0440171 0)
(0.160486 -0.0604775 0)
(0.190106 -0.0970952 0)
(-0.125123 -0.16425 0)
)
;

boundaryField
{
    floor
    {
        type            noSlip;
    }
    ceiling
    {
        type            noSlip;
    }
    sWall
    {
        type            noSlip;
    }
    nWall
    {
        type            noSlip;
    }
    sideWalls
    {
        type            empty;
    }
    glass1
    {
        type            noSlip;
    }
    glass2
    {
        type            noSlip;
    }
    sun
    {
        type            noSlip;
    }
    Table_master
    {
        type            noSlip;
    }
    Table_slave
    {
        type            noSlip;
    }
    inlet
    {
        type            fixedValue;
        value           uniform (0.212132 -0.212132 0);
    }
    outlet
    {
        type            zeroGradient;
    }
}


// ************************************************************************* //
