/*--------------------------------*- C++ -*----------------------------------*\
  =========                 |
  \\      /  F ield         | OpenFOAM: The Open Source CFD Toolbox
   \\    /   O peration     | Website:  https://openfoam.org
    \\  /    A nd           | Version:  6
     \\/     M anipulation  |
\*---------------------------------------------------------------------------*/
FoamFile
{
    version     2.0;
    format      ascii;
    class       volScalarField;
    location    "2400";
    object      nut;
}
// * * * * * * * * * * * * * * * * * * * * * * * * * * * * * * * * * * * * * //

dimensions      [0 2 -1 0 0 0 0];

internalField   nonuniform List<scalar> 
458
(
0.00116085
0.001279
0.00131445
0.00138286
0.00144838
0.00151336
0.00157772
0.00162387
0.00164528
0.00163767
0.00159896
0.0015267
0.00140557
0.00119784
0.000985709
0.000516621
0.000619807
0.000727709
0.000778896
0.000772972
0.000723461
0.000668103
0.000618667
0.000576026
0.000539183
0.000507185
0.000479097
0.000454329
0.000431774
0.000410216
0.000387933
0.000364588
0.000327044
0.00154428
0.00398278
0.00392174
0.0045861
0.00525199
0.00585262
0.00629418
0.00668416
0.00699606
0.00720483
0.00729063
0.00723019
0.0069875
0.00643393
0.00477496
0.00130753
0.00109882
0.000876811
0.000506476
0.00139951
0.00215632
0.00272112
0.00284464
0.00196086
0.00162462
0.00140565
0.00124775
0.00112872
0.0010358
0.000961796
0.000890323
0.000814216
0.00074082
0.000676587
0.00069976
0.000372734
0.00185911
0.00543278
0.00492128
0.00591448
0.00643347
0.0068257
0.00713243
0.00745242
0.00777741
0.00808324
0.00833747
0.00847949
0.00845879
0.00817814
0.00747124
0.00597098
0.0043761
0.00112362
0.000806154
0.00160641
0.00253536
0.00336597
0.00347528
0.000987216
0.000852023
0.000741626
0.000653493
0.000583181
0.000526748
0.00048113
0.000445118
0.000418669
0.000472336
0.000554414
0.000780685
0.000405181
0.00215826
0.00680232
0.00504908
0.00618959
0.00650061
0.00666456
0.00684927
0.0071089
0.00743399
0.00780495
0.00817684
0.00844059
0.00855428
0.00849414
0.00821713
0.007623
0.00638401
0.00348677
0.00130751
0.00171318
0.00258897
0.00369316
0.00460853
0.00454987
0.00112214
0.00101426
0.000936226
0.000875401
0.000823456
0.000777405
0.000733652
0.000688591
0.000638055
0.000591545
0.00057734
0.000844136
0.000446477
0.0024638
0.00854091
0.00561891
0.00621378
0.00650434
0.00651372
0.00661934
0.00681771
0.00713328
0.00753625
0.0079432
0.00825348
0.00840401
0.0083918
0.00825155
0.00798794
0.00741618
0.00623888
0.00556808
0.00578396
0.00624173
0.00670355
0.00696449
0.00678462
0.00556596
0.00491277
0.00451429
0.00422242
0.00395234
0.00361124
0.00318378
0.00267489
0.00210969
0.00156801
0.00115752
0.00101642
0.000714833
0.000529147
0.000557965
0.000575104
0.00278886
0.0104704
0.00761701
0.00675492
0.00691487
0.0067583
0.00669255
0.0067686
0.00704879
0.00747986
0.00793211
0.00826526
0.00839925
0.00835278
0.00822389
0.0081205
0.00806563
0.00798734
0.00816408
0.0084916
0.00871526
0.00875069
0.00857193
0.00816559
0.00751419
0.00692988
0.00644746
0.0060199
0.00560302
0.00514543
0.00461658
0.00401103
0.00333091
0.00261941
0.00199241
0.00151187
0.00112002
0.00107063
0.00143835
0.000780479
0.00307055
0.0117528
0.0102867
0.00862144
0.00788918
0.00720701
0.00683753
0.00683586
0.00715967
0.00767561
0.00819236
0.00853648
0.00863043
0.00853888
0.00844241
0.00854516
0.00891287
0.00935297
0.00977215
0.0100063
0.00996368
0.00967806
0.00920617
0.00860914
0.00795269
0.00733682
0.00677814
0.00625716
0.00575745
0.00527653
0.00482473
0.00436916
0.00385379
0.00326827
0.00269345
0.00217638
0.00174242
0.00153818
0.0017013
0.00096414
0.0031158
0.0100163
0.00923885
0.00814261
0.00723925
0.00667124
0.00654989
0.00686057
0.00747941
0.00819528
0.00877432
0.00906104
0.00904719
0.0089177
0.00896227
0.00937759
0.00987872
0.0102327
0.0104229
0.0103758
0.0100488
0.00950008
0.00880683
0.00804603
0.00729138
0.00659904
0.00597463
0.00540486
0.00489073
0.00445355
0.00412281
0.00391265
0.00375101
0.00343308
0.00312569
0.00288872
0.00275686
0.00261427
0.00320129
0.00125896
0.00302817
0.00354612
0.00380439
0.00394709
0.00434663
0.00510861
0.00616193
0.00736267
0.00849783
0.00933023
0.0096977
0.00963008
0.00936475
0.00942814
0.00961793
0.00982074
0.00995407
0.00996562
0.00982114
0.00947144
0.00891755
0.00819978
0.00739526
0.00658863
0.00584336
0.00518297
0.00459423
0.00406361
0.00359463
0.00320109
0.002888
0.00264254
0.00246241
0.00233012
0.00222643
0.00215115
0.0020792
0.00198494
0.00187569
0.00122103
0.00117206
0.00427812
0.00743391
0.00934288
0.0104843
0.0110535
0.0111196
0.0108157
0.010259
0.00961769
0.00917169
0.00905234
0.00898575
0.00884175
0.00862895
0.00833213
0.00790552
0.0073343
0.00666626
0.00598097
0.0053388
0.00477312
0.00428663
0.0038572
0.00346283
0.00309983
0.00277472
0.00250438
0.00230444
0.00217858
0.00210697
0.0020734
0.00206023
0.00204643
0.00199924
0.00188361
0.00166744
0.00103832
0.00197167
0.00804311
0.00981561
0.0103653
0.0103663
0.0100026
0.00939472
0.00872573
0.0081093
0.00758469
0.00718057
0.00686006
0.00656976
0.00630798
0.006061
0.00579356
0.00548249
0.005139
0.00479853
0.00449188
0.00422889
0.00400158
0.00379366
0.00358876
0.00337594
0.00315275
0.00292505
0.00270439
0.00250585
0.00234365
0.00222616
0.0021544
0.00211516
0.0020799
0.00202367
0.00195864
0.00159253
0.0010771
0.00173309
0.0018783
0.0019852
0.00217813
0.00211244
0.00205706
0.00198872
0.0018774
0.00173763
0.00158648
0.00144366
0.00132948
0.00124912
0.00119609
0.00116121
0.00113672
0.00111656
0.00109646
0.00107448
0.00105106
0.00102779
0.00100579
0.00098511
0.00096509
0.000945041
0.000924907
0.000905633
0.000888974
0.00087739
0.00087311
0.00087743
0.000890815
0.000913223
0.000944217
0.00098235
0.00102199
0.0010435
0.000966238
0.000927635
0.00114709
)
;

boundaryField
{
    floor
    {
        type            nutkWallFunction;
        Cmu             0.09;
        kappa           0.41;
        E               9.8;
        value           nonuniform List<scalar> 
36
(
0.000119046
6.1824e-05
7.48125e-05
8.81166e-05
9.43439e-05
9.36259e-05
8.75979e-05
8.07994e-05
7.46708e-05
6.93369e-05
6.46894e-05
6.06213e-05
5.70239e-05
5.383e-05
5.09022e-05
4.80858e-05
4.51548e-05
4.20608e-05
3.70304e-05
3.70303e-05
4.31418e-05
4.74229e-05
5.28094e-05
6.34119e-05
6.70584e-05
6.92162e-05
0.000119046
0.00015635
0.000132295
0.000106124
6.1824e-05
0.000106124
6.05302e-05
0.00013518
9.76376e-05
0.000156349
)
;
    }
    ceiling
    {
        type            nutkWallFunction;
        Cmu             0.09;
        kappa           0.41;
        E               9.8;
        value           nonuniform List<scalar> 
43
(
0.000204057
0.000220042
0.000231726
0.000252738
0.000245661
0.000239666
0.000232234
0.000220062
0.000204665
0.000187858
0.000171816
0.000158864
0.000149675
0.000143574
0.000139546
0.000136709
0.000134368
0.00013203
0.000129467
0.00012673
0.000124003
0.000121418
0.000118982
0.000116619
0.000114246
0.000111858
0.000109566
0.00010758
0.000106196
0.000105684
0.0001062
0.000107797
0.000110465
0.000114144
0.000118651
0.000123315
0.000125838
0.00011675
0.000112178
0.000137911
0.000343086
0.0003967
0.00023005
)
;
    }
    sWall
    {
        type            nutkWallFunction;
        Cmu             0.09;
        kappa           0.41;
        E               9.8;
        value           uniform 0.000204111;
    }
    nWall
    {
        type            nutkWallFunction;
        Cmu             0.09;
        kappa           0.41;
        E               9.8;
        value           nonuniform List<scalar> 6(6.92107e-05 9.45323e-05 0.000116503 0.000125239 0.000129776 0.00013792);
    }
    sideWalls
    {
        type            empty;
    }
    glass1
    {
        type            nutkWallFunction;
        Cmu             0.09;
        kappa           0.41;
        E               9.8;
        value           nonuniform List<scalar> 9(0.00013962 0.000183356 0.000218351 0.000251008 0.000283865 0.000318353 0.000347902 0.000352631 0.0003435);
    }
    glass2
    {
        type            nutkWallFunction;
        Cmu             0.09;
        kappa           0.41;
        E               9.8;
        value           nonuniform List<scalar> 2(0.000150841 0.000146483);
    }
    sun
    {
        type            nutkWallFunction;
        Cmu             0.09;
        kappa           0.41;
        E               9.8;
        value           nonuniform List<scalar> 
14
(
0.000139497
0.000153088
0.000157139
0.000164923
0.000172337
0.000179655
0.000186867
0.000192019
0.000194403
0.000193556
0.000189239
0.00018115
0.000167494
0.000143765
)
;
    }
    Table_master
    {
        type            nutkWallFunction;
        Cmu             0.09;
        kappa           0.41;
        E               9.8;
        value           nonuniform List<scalar> 9(0.000119224 0.000103157 8.98151e-05 7.89951e-05 7.0237e-05 6.31148e-05 5.72885e-05 5.26407e-05 4.91971e-05);
    }
    Table_slave
    {
        type            nutkWallFunction;
        Cmu             0.09;
        kappa           0.41;
        E               9.8;
        value           nonuniform List<scalar> 9(0.000135009 0.000122407 0.000113197 0.000105955 9.97247e-05 9.41625e-05 8.88418e-05 8.33223e-05 7.70804e-05);
    }
    inlet
    {
        type            calculated;
        value           uniform 0.000100623;
    }
    outlet
    {
        type            calculated;
        value           nonuniform List<scalar> 2(0.00173309 0.0018783);
    }
}


// ************************************************************************* //
