/*--------------------------------*- C++ -*----------------------------------*\
  =========                 |
  \\      /  F ield         | OpenFOAM: The Open Source CFD Toolbox
   \\    /   O peration     | Website:  https://openfoam.org
    \\  /    A nd           | Version:  6
     \\/     M anipulation  |
\*---------------------------------------------------------------------------*/
FoamFile
{
    version     2.0;
    format      ascii;
    class       surfaceScalarField;
    location    "2400";
    object      phi;
}
// * * * * * * * * * * * * * * * * * * * * * * * * * * * * * * * * * * * * * //

dimensions      [1 0 -1 0 0 0 0];

internalField   nonuniform List<scalar> 
850
(
-0.00298992
0.00304395
-0.00413679
0.00114684
-0.00493768
0.000800851
-0.00547975
0.000542045
-0.00572773
0.000247945
-0.00565452
-7.32405e-05
-0.00524378
-0.000410775
-0.00452703
-0.000716777
-0.00358996
-0.000937096
-0.00254232
-0.00104767
-0.00149512
-0.00104724
-0.000559485
-0.000935662
0.00012593
-0.000685447
0.000383901
-0.000258006
0.000385275
-0.00080248
0.000804334
-0.000608682
-0.000193847
1.97406e-05
-0.00062847
0.000657931
-0.000638237
0.00116195
-0.000504063
0.00145202
-0.00029012
0.00158084
-0.000128869
0.00164953
-6.87415e-05
0.00169388
-4.43925e-05
0.00172122
-2.73948e-05
0.00173522
-1.40519e-05
0.00173546
-2.84115e-07
0.00171307
2.23357e-05
0.00164321
6.98068e-05
0.0014833
0.000159854
0.00120295
0.000280294
0.000785247
0.000417651
0.000787481
-0.00213989
0.00533003
-0.00321015
0.00221706
-0.00401709
0.00160776
-0.00455353
0.00107845
-0.00480285
0.000497234
-0.00473894
-0.000137178
-0.00435516
-0.000794586
-0.00370181
-0.00137015
-0.00287909
-0.00175985
-0.00199263
-0.00193415
-0.00113729
-0.0019026
-0.000388052
-0.00168493
0.000197866
-0.0012714
0.000658524
-0.000718695
0.00123294
-0.000189169
0.00119927
3.58797e-05
0.000828264
0.00037353
0.000835798
6.25415e-05
0.000747504
0.000510967
-0.000642319
0.000887796
-0.00100534
0.00122123
-0.000971714
0.00149701
-0.000779886
0.00156488
-0.000358034
0.00157555
-0.000139587
0.00158781
-8.10491e-05
0.00159813
-5.47579e-05
0.00160454
-3.38608e-05
0.00160818
-1.77353e-05
0.00160859
-7.47488e-07
0.00160187
2.90015e-05
0.00155912
0.000112507
0.00138858
0.000330335
0.00108212
0.000586704
0.000660277
0.000839435
0.00145407
-0.00149643
0.00705099
-0.00239306
0.00311366
-0.00310003
0.00231469
-0.00355736
0.00153575
-0.0037607
0.000700543
-0.0036641
-0.000233809
-0.00326225
-0.00119646
-0.00263839
-0.00199405
-0.0019142
-0.00248406
-0.00118099
-0.00266739
-0.00050718
-0.00257644
6.52524e-05
-0.00225739
0.000531603
-0.00173777
0.000926833
-0.00111396
0.00123772
-0.000500089
0.00124632
2.72437e-05
0.000959911
0.000659909
0.00180204
0.00128796
-0.000533149
0.0015691
-0.000923503
0.00163639
-0.00107268
0.00172622
-0.00106159
0.00195991
-0.00101361
0.00160198
0.00146251
0.00138156
0.00132691
0.00129315
0.00127552
0.00127488
0.00130398
0.00141658
0.00121759
0.000529278
0.00095166
0.000852576
0.000559089
0.00123195
0.00202318
-0.00103781
0.00838063
-0.00172153
0.00379734
-0.0021788
0.00277193
-0.0024598
0.00181673
-0.00252868
0.000769383
-0.0023102
-0.000452318
-0.00184821
-0.00165848
-0.0012645
-0.00257777
-0.000677191
-0.00307139
-0.000138256
-0.00320634
0.000319113
-0.00303383
0.000683661
-0.00262196
0.000988845
-0.00204298
0.00125339
-0.00137852
0.00146778
-0.000714513
0.00159524
-0.000100242
0.00177766
0.000477447
0.00274512
0.000834544
0.00259192
0.000159768
0.00242857
-0.000369832
0.00224547
-0.000740444
0.00204969
-0.000876934
0.0018596
-0.000871537
0.00156425
-0.000718302
0.00187813
-0.000314068
0.00201724
-0.000139303
0.00209693
-7.98904e-05
0.00214275
-4.60142e-05
0.00215217
-9.61292e-06
0.00211411
3.78648e-05
0.00200878
0.00010513
0.00180142
0.000207161
0.00143026
0.000370967
0.00125666
0.000702824
0.00099749
0.00111169
0.000643543
0.00158584
0.00267986
-0.000721974
0.00945196
-0.00121583
0.00429117
-0.00128446
0.00284053
-0.00127972
0.00181195
-0.00105926
0.000548885
-0.000602394
-0.000909211
-7.54803e-05
-0.00218542
0.000393943
-0.00304722
0.000765854
-0.00344332
0.00103675
-0.00347726
0.00122331
-0.00322041
0.00135026
-0.00274893
0.00144583
-0.00213858
0.00153273
-0.00146545
0.00162729
-0.000809105
0.0017566
-0.000229577
0.00200208
0.000231932
0.0023943
0.000442286
0.00241514
0.000138902
0.00230012
-0.000254857
0.00208319
-0.000523543
0.00184753
-0.000641314
0.00161791
-0.000641956
0.00143201
-0.000532442
0.0014388
-0.000320896
0.00146964
-0.000170189
0.00148965
-9.99403e-05
0.00150652
-6.29274e-05
0.0015211
-2.42421e-05
0.00152353
3.5389e-05
0.00149867
0.000129947
0.0014333
0.000272481
0.00132876
0.000475462
0.00125396
0.000777574
0.00121287
0.00115274
0.00120679
0.00159187
0.00205721
0.00182938
0.00135671
0.000713534
0.00118907
0.000180036
0.00124985
-0.000615041
0.0104651
-0.000916348
0.00459244
-0.000417802
0.00234194
0.000103495
0.00129062
0.000787645
-0.0001353
0.00147729
-0.00159888
0.00195138
-0.00265954
0.00219894
-0.00329479
0.00228303
-0.00352743
0.00223809
-0.00343233
0.00210684
-0.00308918
0.00193533
-0.00257745
0.00176419
-0.00196746
0.00162324
-0.00132453
0.00153749
-0.00072338
0.00153027
-0.000222393
0.00162517
0.000137007
0.00179151
0.000275909
0.00181329
0.000117092
0.00169116
-0.000132767
0.00149273
-0.000325149
0.00127471
-0.00042333
0.00106687
-0.000434163
0.000903091
-0.000368702
0.000831402
-0.000249249
0.000817068
-0.000155899
0.00082818
-0.000111097
0.000857216
-9.20076e-05
0.000904035
-7.11063e-05
0.000962689
-2.33113e-05
0.00102142
7.11691e-05
0.00107422
0.000219635
0.00112844
0.000421192
0.00122198
0.000683988
0.00139844
0.000976235
0.00168327
0.00130698
0.00202175
0.00149085
0.00168479
0.00105043
0.000943914
0.000920857
0.00224278
-0.000591771
0.0114999
-0.000359495
0.00436013
0.00100957
0.000972843
0.00223099
6.91601e-05
0.00325642
-0.00116075
0.00387364
-0.00221613
0.00411736
-0.00290328
0.00404304
-0.00322049
0.00373825
-0.00322266
0.00328576
-0.00297985
0.00276281
-0.00256626
0.00223878
-0.00205345
0.00176562
-0.00149432
0.00137453
-0.000933475
0.00109386
-0.000442746
0.000935264
-6.38284e-05
0.000903576
0.000168661
0.000949071
0.000230379
0.000941784
0.000124342
0.00084681
-3.78298e-05
0.00069316
-0.000171539
0.000515979
-0.000246191
0.00034373
-0.000261956
0.000205768
-0.000230784
0.000131026
-0.000174552
0.000110116
-0.000135035
0.000123151
-0.000124178
0.000161158
-0.00013006
0.000225392
-0.000135388
0.000322551
-0.000120517
0.000451619
-5.79461e-05
0.00060016
7.10457e-05
0.000770418
0.000250887
0.000983848
0.000470509
0.00125782
0.000702214
0.00160371
0.000961047
0.0019997
0.00109481
0.00217567
0.000874408
0.00182029
0.00127619
0.00411287
0.00278461
0.00921204
0.00365397
0.00349074
0.00464611
-1.93279e-05
0.00591116
-0.00119593
0.00658519
-0.00183481
0.00668447
-0.00231542
0.00633551
-0.00255433
0.00566005
-0.00254504
0.00478258
-0.0023452
0.00381433
-0.00201162
0.00285152
-0.00160347
0.00197267
-0.00117462
0.00122867
-0.000750359
0.000641777
-0.000346618
0.000241053
-4.20578e-05
3.35696e-05
0.000143618
-1.88086e-05
0.000221002
-3.16593e-06
0.000214699
-1.26409e-05
0.000133778
-7.84884e-05
2.79771e-05
-0.000190163
-5.99059e-05
-0.000324028
-0.00011237
-0.000454573
-0.000131455
-0.000558461
-0.000126941
-0.000619117
-0.000113943
-0.000642644
-0.000111556
-0.000642274
-0.000124597
-0.00062563
-0.000146753
-0.000591947
-0.00016912
-0.00053148
-0.000181033
-0.000421788
-0.000167688
-0.000248504
-0.000102288
-2.63984e-05
2.87312e-05
0.000237457
0.000206603
0.000541222
0.000398399
0.000888511
0.000613707
0.0012268
0.000756471
0.00131794
0.000783209
0.000551362
0.00204272
0.00488263
0.00975592
0.0132374
0.0124949
0.000723118
0.011678
-0.00037907
0.0106208
-0.000777609
0.0092992
-0.000993787
0.00776161
-0.00101675
0.0061433
-0.000926727
0.00456399
-0.000765901
0.00310395
-0.000551599
0.00182499
-0.000324531
0.000758018
-0.000107688
-6.60274e-05
7.3646e-05
-0.0005985
0.000185814
-0.000861534
0.000220937
-0.000953312
0.000235357
-0.000963646
0.000231296
-0.00094971
0.000200722
-0.00095753
0.000141556
-0.00100259
7.29963e-05
-0.00107928
1.67346e-05
-0.00117319
-1.85064e-05
-0.00126741
-3.72775e-05
-0.00134775
-4.66555e-05
-0.00140792
-5.38228e-05
-0.0014547
-6.48271e-05
-0.00150014
-7.91988e-05
-0.00155683
-9.01158e-05
-0.00163605
-8.99589e-05
-0.0017498
-6.7328e-05
-0.00191141
-6.13234e-06
-0.0021208
0.000107052
-0.00237733
0.000285203
-0.00272264
0.000551868
-0.00324633
0.000922034
-0.00403445
0.00140178
-0.00523038
0.00195235
-0.00686188
0.00241466
-0.00693749
0.00211827
-0.00181642
0.00358656
0.00190233
0.00299548
0.000212034
0.00312421
-0.000906344
0.00280641
-0.00067601
0.00213718
-0.000347539
0.00129217
-8.17582e-05
0.000391852
0.000134382
-0.000430446
0.000270657
-0.00106617
0.000311156
-0.00148784
0.000313935
-0.00172263
0.000308399
-0.00182722
0.000290366
-0.00186705
0.000260718
-0.00186624
0.000234502
-0.00184742
0.000212438
-0.00183311
0.000186371
-0.00184263
0.000151023
-0.00188127
0.000111593
-0.00194128
7.66978e-05
-0.00201012
5.02807e-05
-0.00207949
3.20491e-05
-0.00214527
1.90692e-05
-0.00220742
8.28065e-06
-0.00227097
-1.32919e-06
-0.00234204
-8.1797e-06
-0.00242543
-6.78418e-06
-0.00252352
8.07861e-06
-0.0026333
4.23949e-05
-0.00274632
0.00010684
-0.00285151
0.000212187
-0.00294919
0.000382828
-0.00303569
0.000638318
-0.00310537
0.000991663
-0.00313446
0.00143081
-0.00307662
0.00189445
-0.00265421
0.00199219
-0.00107332
0.000537327
-0.00282663
-0.00021273
0.00218165
-0.00030369
0.000302968
-0.00116416
-4.59092e-05
-0.00185201
1.18108e-05
-0.00233995
0.000140363
-0.00265611
0.000234362
-0.00282273
0.000300952
-0.00288851
0.000336391
-0.00290253
0.000325135
-0.00287741
0.000288777
-0.00281898
0.000249922
-0.00274341
0.000214756
-0.00266754
0.000184805
-0.00259682
0.000163739
-0.00253455
0.00015012
-0.00248685
0.000138626
-0.00246055
0.000124669
-0.0024572
0.000108193
-0.00247249
9.19461e-05
-0.00250056
7.82925e-05
-0.00253674
6.81851e-05
-0.00257902
6.12978e-05
-0.00262742
5.66276e-05
-0.0026822
5.33981e-05
-0.00274265
5.22119e-05
-0.00280239
5.29001e-05
-0.00285267
5.83092e-05
-0.00288427
7.39411e-05
-0.00288316
0.00010568
-0.00283298
0.000161954
-0.00270608
0.000255874
-0.00247124
0.00040342
-0.00210019
0.000620557
-0.00152858
0.000859153
-0.000519055
0.000884876
0.00122664
0.000246441
0.00293426
-0.00117034
0.000176009
-0.00541231
-0.00808376
-0.0058767
-0.00556794
-0.00561392
-0.0056051
-0.00546979
-0.00524238
-0.00495021
-0.00462441
-0.00431163
-0.0040368
-0.00380209
-0.00360354
-0.00343569
-0.00328949
-0.0031574
-0.00303726
-0.00293151
-0.00284266
-0.00277044
-0.00271221
-0.00266438
-0.00262372
-0.00258802
-0.00255584
-0.00252513
-0.00249398
-0.00245758
-0.00240559
-0.00232173
-0.0021813
-0.00194652
-0.00156365
-0.000963023
-0.000123243
0.000742446
0.000968276
-0.000224247
)
;

boundaryField
{
    floor
    {
        type            calculated;
        value           nonuniform List<scalar> 
36
(
0
0
0
0
0
0
0
0
0
0
0
0
0
0
0
0
0
0
0
-2.29149e-06
-6.37221e-06
-1.00739e-05
-1.31945e-05
-1.30912e-05
-1.24578e-05
-1.16213e-05
-1.41052e-06
-2.24973e-06
-2.56002e-06
-2.99821e-06
-1.90523e-06
-4.57368e-06
-5.76274e-06
-6.36502e-06
-7.35477e-06
-6.60567e-06
)
;
    }
    ceiling
    {
        type            calculated;
        value           nonuniform List<scalar> 
43
(
-2.72226e-05
-2.65307e-05
-2.54637e-05
-5.83612e-06
3.38454e-08
2.93942e-06
5.01571e-06
6.91101e-06
8.73138e-06
1.0547e-05
1.23174e-05
1.38937e-05
1.51747e-05
1.61593e-05
1.69066e-05
1.74909e-05
1.7983e-05
1.84366e-05
1.88756e-05
1.9294e-05
1.96745e-05
2.00095e-05
2.03079e-05
2.05893e-05
2.0872e-05
2.11626e-05
2.14483e-05
2.16976e-05
2.18615e-05
2.18927e-05
2.17651e-05
2.14756e-05
2.10402e-05
2.04901e-05
1.9878e-05
1.932e-05
1.9133e-05
2.0557e-05
2.2129e-05
2.09612e-05
1.22833e-05
9.25584e-06
-6.6577e-05
)
;
    }
    sWall
    {
        type            calculated;
        value           uniform -0.000253568;
    }
    nWall
    {
        type            calculated;
        value           nonuniform List<scalar> 6(-4.9216e-05 -4.90718e-05 -4.98632e-05 -6.31622e-05 -6.8429e-05 -6.92495e-05);
    }
    sideWalls
    {
        type            empty;
        value           nonuniform 0();
    }
    glass1
    {
        type            calculated;
        value           nonuniform List<scalar> 9(-5.40607e-05 -0.000146229 -0.000224552 -0.000291857 -0.000349394 -0.000398138 -0.000443055 -0.000496771 -0.000556194);
    }
    glass2
    {
        type            calculated;
        value           nonuniform List<scalar> 2(-0.000218446 -0.000238497);
    }
    sun
    {
        type            calculated;
        value           uniform 0;
    }
    Table_master
    {
        type            calculated;
        value           nonuniform List<scalar> 9(-1.52387e-07 -1.5256e-07 -1.52611e-07 -1.52639e-07 -1.52655e-07 -1.52662e-07 -1.52662e-07 -1.52645e-07 -1.52599e-07);
    }
    Table_slave
    {
        type            calculated;
        value           nonuniform List<scalar> 9(1.52251e-07 1.52263e-07 1.52229e-07 1.52205e-07 1.52194e-07 1.52188e-07 1.52198e-07 1.52233e-07 1.52305e-07);
    }
    inlet
    {
        type            calculated;
        value           uniform -0.00476575;
    }
    outlet
    {
        type            calculated;
        value           nonuniform List<scalar> 2(0.00569305 0.00269793);
    }
}


// ************************************************************************* //
