/*--------------------------------*- C++ -*----------------------------------*\
  =========                 |
  \\      /  F ield         | OpenFOAM: The Open Source CFD Toolbox
   \\    /   O peration     | Website:  https://openfoam.org
    \\  /    A nd           | Version:  6
     \\/     M anipulation  |
\*---------------------------------------------------------------------------*/
FoamFile
{
    version     2.0;
    format      ascii;
    class       volScalarField;
    location    "1500";
    object      k;
}
// * * * * * * * * * * * * * * * * * * * * * * * * * * * * * * * * * * * * * //

dimensions      [0 2 -2 0 0 0 0];

internalField   nonuniform List<scalar> 
458
(
0.00122448
0.00143723
0.00133656
0.00127933
0.0011036
0.000888588
0.000737897
0.000645721
0.000584948
0.000538303
0.000496872
0.000458225
0.000427363
0.000426629
0.000536706
0.000165116
0.000151467
0.000121191
9.20659e-05
7.36734e-05
7.63413e-05
8.24517e-05
8.0533e-05
8.27988e-05
8.78648e-05
9.83245e-05
0.000118028
0.000140298
0.000137071
0.000138476
0.000132768
0.000136754
0.000141102
0.00249068
0.00593697
0.00356661
0.00290362
0.00213134
0.00167174
0.00138963
0.00124389
0.00117318
0.00113895
0.00112222
0.00112101
0.00115807
0.00129952
0.00165941
0.00107107
0.00105321
0.00078202
0.000364671
0.000585879
0.000466474
0.000327642
0.000191866
0.000157463
0.000149597
0.000168287
0.000204018
0.000255178
0.000322809
0.000403213
0.00046882
0.000483505
0.000529325
0.000514135
0.000658249
0.000414926
0.00273721
0.00443566
0.00466207
0.00442316
0.00269168
0.00194872
0.00171112
0.00162284
0.00160936
0.0016352
0.00167931
0.00173443
0.00181058
0.00190992
0.00205306
0.00211257
0.00194284
0.00145866
0.00116351
0.0018054
0.0013224
0.00101353
0.000756376
0.000268789
0.00019413
0.000250636
0.0003165
0.000394982
0.000495478
0.000632121
0.000829264
0.00113887
0.00169345
0.00200397
0.00301748
0.00146554
0.00487151
0.00445779
0.00435247
0.00417212
0.00296742
0.00232469
0.00210816
0.00207193
0.00212113
0.0022137
0.00232823
0.00244536
0.0025607
0.00267172
0.00273661
0.00273654
0.00267135
0.00256323
0.00190676
0.00196091
0.00213971
0.00186544
0.00165118
0.00150399
0.00146421
0.00150901
0.00156044
0.00161375
0.00168331
0.00178576
0.00194343
0.00219046
0.00258547
0.00322829
0.00372789
0.00431317
0.00393558
0.00976572
0.00979521
0.00558692
0.0045288
0.003603
0.00288018
0.0025993
0.00257644
0.00265836
0.00277337
0.00290906
0.00307433
0.0032638
0.00346165
0.00363674
0.00374487
0.00378766
0.0037255
0.00355518
0.00333919
0.00326682
0.0032044
0.00319385
0.00322261
0.00327104
0.00332105
0.00334916
0.00337393
0.00341102
0.00347972
0.00360508
0.00381998
0.00416456
0.00467735
0.00541176
0.00642922
0.00766206
0.00801137
0.00855558
0.00820248
0.0176637
0.0220357
0.0112869
0.00726477
0.00550392
0.0039325
0.00326101
0.00314821
0.00321047
0.003372
0.00359948
0.0038785
0.00419852
0.00454623
0.00490036
0.00522603
0.00547319
0.00563671
0.00566335
0.00558641
0.00549004
0.00542087
0.00539385
0.00539323
0.00539103
0.00537188
0.00534491
0.0053158
0.00529665
0.00530582
0.00536876
0.00552238
0.00582435
0.00636761
0.00730665
0.00892233
0.0117079
0.0160473
0.0212977
0.0129021
0.029126
0.0407114
0.0230079
0.0132728
0.00881267
0.0058373
0.00416868
0.00387882
0.0040148
0.00433238
0.00474293
0.00521257
0.00572773
0.00628133
0.00686467
0.00745494
0.00800412
0.00843348
0.00869404
0.00877575
0.00873689
0.0086356
0.00851054
0.00838189
0.00825336
0.00812245
0.00798608
0.00784333
0.00770024
0.00757001
0.00747343
0.00744191
0.00752341
0.00779397
0.00839358
0.00964514
0.0123914
0.0192111
0.0354875
0.0183393
0.0452434
0.0734462
0.052387
0.0235903
0.0115182
0.00717156
0.00532323
0.00526818
0.00575311
0.00640856
0.00712077
0.00783902
0.00855895
0.00928912
0.0100401
0.0108011
0.0115521
0.0121714
0.0125985
0.0128118
0.0128374
0.0127287
0.0125384
0.0123074
0.0120591
0.0118028
0.0115387
0.0112643
0.0109803
0.0106929
0.0104154
0.0101714
0.00999972
0.00996307
0.0101784
0.0109436
0.0130443
0.0196237
0.0445444
0.0249345
0.0732598
0.136931
0.23301
0.0398816
0.0139028
0.00952939
0.00892806
0.00976347
0.0108089
0.0117967
0.0127418
0.0135011
0.0141619
0.014796
0.0154592
0.0161076
0.01672
0.0172842
0.0177294
0.0179956
0.0180684
0.0179726
0.0177514
0.0174497
0.0171026
0.016732
0.0163484
0.0159547
0.0155516
0.0151406
0.0147279
0.014328
0.0139702
0.0137081
0.0136456
0.0140109
0.0154262
0.020359
0.0403198
0.0242358
0.417543
0.194156
0.0336244
0.0256115
0.0258661
0.0253929
0.0248302
0.0243207
0.0237838
0.0234757
0.023419
0.0235908
0.0239406
0.0244064
0.0249151
0.0253933
0.0257712
0.0259925
0.0260296
0.0258877
0.0255959
0.0251952
0.0247261
0.0242218
0.0237044
0.023186
0.022671
0.0221598
0.0216523
0.0211531
0.0206775
0.0202614
0.0199785
0.0199775
0.0206141
0.0229273
0.0245221
0.010501
0.197321
0.187647
0.109103
0.0754292
0.0566181
0.0458921
0.0394256
0.0353326
0.0327861
0.0313887
0.0309161
0.0311944
0.0320382
0.0332297
0.0345341
0.0357346
0.0366677
0.0372459
0.0374591
0.037356
0.0370159
0.0365239
0.0359538
0.0353607
0.034779
0.0342259
0.0337053
0.0332137
0.0327456
0.0323001
0.0318881
0.03154
0.0313096
0.0312812
0.0316583
0.0337989
0.026845
0.0101048
0.00198532
0.00659654
0.0543948
0.0531404
0.0476621
0.0415754
0.0360686
0.0312988
0.0272646
0.023908
0.0211547
0.0189348
0.0171898
0.0158715
0.0149357
0.0143344
0.0140091
0.0138901
0.0139018
0.0139733
0.0140473
0.0140857
0.0140698
0.0139961
0.0138708
0.0137051
0.0135108
0.013298
0.0130739
0.0128426
0.0126057
0.012363
0.0121142
0.0118612
0.0116095
0.011372
0.0111806
0.011145
0.0099336
0.00797762
)
;

boundaryField
{
    floor
    {
        type            kqRWallFunction;
        value           nonuniform List<scalar> 
36
(
0.000536706
0.000165116
0.000151467
0.000121191
9.20659e-05
7.36734e-05
7.63413e-05
8.24517e-05
8.0533e-05
8.27988e-05
8.78648e-05
9.83245e-05
0.000118028
0.000140298
0.000137071
0.000138476
0.000132768
0.000136754
0.000141102
0.000141102
0.000414926
0.00146554
0.00393558
0.00801137
0.00855558
0.00820248
0.000536706
0.00107107
0.00105321
0.00078202
0.000165116
0.00078202
0.000364671
0.00145866
0.00116351
0.00190676
)
;
    }
    ceiling
    {
        type            kqRWallFunction;
        value           nonuniform List<scalar> 
43
(
0.00198532
0.00659654
0.0543948
0.0531404
0.0476621
0.0415754
0.0360686
0.0312988
0.0272646
0.023908
0.0211547
0.0189348
0.0171898
0.0158715
0.0149357
0.0143344
0.0140091
0.0138901
0.0139018
0.0139733
0.0140473
0.0140857
0.0140698
0.0139961
0.0138708
0.0137051
0.0135108
0.013298
0.0130739
0.0128426
0.0126057
0.012363
0.0121142
0.0118612
0.0116095
0.011372
0.0111806
0.011145
0.0099336
0.00797762
0.0732598
0.136931
0.197321
)
;
    }
    sWall
    {
        type            kqRWallFunction;
        value           uniform 0.00198532;
    }
    nWall
    {
        type            kqRWallFunction;
        value           nonuniform List<scalar> 6(0.00820248 0.0129021 0.0183393 0.010501 0.0101048 0.00797762);
    }
    sideWalls
    {
        type            empty;
    }
    glass1
    {
        type            kqRWallFunction;
        value           nonuniform List<scalar> 9(0.00122448 0.00249068 0.00273721 0.00487151 0.00976572 0.0176637 0.029126 0.0452434 0.0732598);
    }
    glass2
    {
        type            kqRWallFunction;
        value           nonuniform List<scalar> 2(0.0249345 0.0242358);
    }
    sun
    {
        type            kqRWallFunction;
        value           nonuniform List<scalar> 
14
(
0.00122448
0.00143723
0.00133656
0.00127933
0.0011036
0.000888588
0.000737897
0.000645721
0.000584948
0.000538303
0.000496872
0.000458225
0.000427363
0.000426629
)
;
    }
    Table_master
    {
        type            kqRWallFunction;
        value           nonuniform List<scalar> 9(0.000268789 0.00019413 0.000250636 0.0003165 0.000394982 0.000495478 0.000632121 0.000829264 0.00113887);
    }
    Table_slave
    {
        type            kqRWallFunction;
        value           nonuniform List<scalar> 9(0.00146421 0.00150901 0.00156044 0.00161375 0.00168331 0.00178576 0.00194343 0.00219046 0.00258547);
    }
    inlet
    {
        type            turbulentIntensityKineticEnergyInlet;
        intensity       0.05;
        value           uniform 0.417543;
    }
    outlet
    {
        type            zeroGradient;
    }
}


// ************************************************************************* //
