/*--------------------------------*- C++ -*----------------------------------*\
  =========                 |
  \\      /  F ield         | OpenFOAM: The Open Source CFD Toolbox
   \\    /   O peration     | Website:  https://openfoam.org
    \\  /    A nd           | Version:  6
     \\/     M anipulation  |
\*---------------------------------------------------------------------------*/
FoamFile
{
    version     2.0;
    format      ascii;
    class       volScalarField;
    location    "200";
    object      nut;
}
// * * * * * * * * * * * * * * * * * * * * * * * * * * * * * * * * * * * * * //

dimensions      [0 2 -1 0 0 0 0];

internalField   nonuniform List<scalar> 
458
(
0.00074381
0.00075664
0.000667054
0.000688651
0.000714674
0.000739634
0.0007633
0.000786179
0.000809148
0.000833588
0.000854804
0.000872075
0.000885877
0.000898106
0.000908164
0.000388835
0.000421401
0.00043106
0.000362372
0.000297954
0.000277107
0.000249322
0.000228172
0.000221203
0.000229276
0.000250448
0.000287127
0.000336644
0.000393033
0.000457613
0.000505733
0.000499716
0.000444919
0.0013178
0.00231483
0.00153371
0.00212245
0.00230238
0.00246992
0.0026413
0.00279991
0.00292446
0.00298878
0.00300267
0.00292905
0.00272117
0.00230757
0.00164604
0.000999013
0.000956906
0.000743358
0.00055361
0.00109857
0.00128101
0.00132439
0.00116523
0.000686579
0.000357327
0.00028655
0.000309047
0.000397039
0.00055849
0.000833955
0.0012002
0.00150731
0.00185862
0.00183113
0.00178289
0.000581467
0.00181344
0.0039481
0.00164936
0.00298764
0.00352491
0.00374949
0.00394073
0.00410772
0.00423951
0.00432227
0.00435879
0.00431852
0.0041581
0.00382175
0.00328093
0.00260392
0.00184356
0.00107093
0.000942457
0.00258195
0.00236499
0.00202284
0.00146371
0.000509446
0.000370454
0.00030151
0.000352415
0.000408466
0.000470558
0.00054343
0.000633276
0.000752701
0.00192478
0.00181898
0.00140978
0.00071762
0.00227118
0.0059152
0.0019871
0.00307648
0.00418433
0.00447479
0.00465902
0.00482232
0.00496697
0.00508499
0.00518584
0.00526614
0.00528449
0.0051658
0.00480282
0.00410028
0.00305946
0.00193165
0.00121284
0.00306112
0.00295529
0.00249392
0.00185768
0.00126334
0.000819736
0.000827201
0.000838381
0.000851523
0.000867467
0.000887925
0.00091527
0.00095428
0.00101441
0.00266519
0.0034458
0.00346751
0.00116793
0.00268571
0.00794452
0.00273053
0.00277753
0.0043288
0.00472063
0.00487959
0.00500688
0.00512689
0.00524671
0.00540404
0.00563309
0.00591446
0.00620542
0.00643738
0.00653786
0.0064558
0.00617639
0.00579168
0.00573333
0.00541305
0.00499979
0.00465353
0.00439844
0.00422723
0.00416785
0.00412266
0.00408505
0.00406173
0.00406542
0.00410814
0.00419763
0.00433729
0.00456841
0.00468609
0.00457171
0.00378414
0.00161509
0.0014601
0.00130602
0.00306594
0.00966839
0.0040457
0.00259364
0.00390754
0.00448534
0.00468855
0.00479308
0.00485284
0.00489907
0.00504858
0.00532202
0.00570968
0.00619149
0.00671635
0.00720933
0.00758163
0.00773128
0.00762386
0.0073553
0.00698916
0.00662439
0.00632284
0.00608414
0.00588447
0.00570213
0.00551958
0.0053358
0.00516399
0.00502751
0.0049463
0.00492288
0.0049407
0.00496785
0.00498396
0.00493374
0.00456681
0.00391534
0.00290381
0.00134815
0.00341432
0.0108625
0.00629964
0.00330489
0.00300525
0.00364338
0.00416375
0.00444463
0.00451531
0.00447014
0.00455616
0.00474883
0.0050601
0.00550996
0.00608829
0.006734
0.00733385
0.00774289
0.00788688
0.00781725
0.00762719
0.00740254
0.00719312
0.00700783
0.00683404
0.00665389
0.00645028
0.00621152
0.00594186
0.00566556
0.00541214
0.00518806
0.00498608
0.00478279
0.00453888
0.00419099
0.00366269
0.00299662
0.00231107
0.00129929
0.00348768
0.0109416
0.00830049
0.00601746
0.00424121
0.00362146
0.00391066
0.00430328
0.00432315
0.00424616
0.0042321
0.00428862
0.00442258
0.00466118
0.00504486
0.0055933
0.0062535
0.00684846
0.00723165
0.00742131
0.00747323
0.00745255
0.00740803
0.00736497
0.00733176
0.00730309
0.00725706
0.00715835
0.00697752
0.00671486
0.00640466
0.00601106
0.00551653
0.00493928
0.00433111
0.00376944
0.00323975
0.00276936
0.00233705
0.00150502
0.00337396
0.00401633
0.00504135
0.00516762
0.00474735
0.0042452
0.0039257
0.00379204
0.00374593
0.0037586
0.00380137
0.00385385
0.00391384
0.00399831
0.00414464
0.00440504
0.00481326
0.00532199
0.00582056
0.00623075
0.00653138
0.00674101
0.00689124
0.00701446
0.00714364
0.00730854
0.00751904
0.00774865
0.00794229
0.00802798
0.00794482
0.00777329
0.00758177
0.00741482
0.00721165
0.00666268
0.00573598
0.00489701
0.00440849
0.00174311
0.00626116
0.00787456
0.00599663
0.00514716
0.00463076
0.00429633
0.00407251
0.00391166
0.00378907
0.00368988
0.00360648
0.00354037
0.00350388
0.00352221
0.00363108
0.00385871
0.00419879
0.00460637
0.00502114
0.00539648
0.00571176
0.00597128
0.00620031
0.00643958
0.00673363
0.00710932
0.00755144
0.007954
0.0081792
0.00823538
0.00818161
0.00809139
0.00800966
0.00794158
0.00776027
0.00694606
0.00616168
0.00173995
0.00369644
0.00793496
0.00623396
0.00540764
0.00485346
0.0044342
0.00410207
0.00382671
0.0035659
0.00331869
0.00309373
0.00289734
0.00273572
0.00261725
0.0025546
0.00256511
0.00266669
0.0028677
0.00315484
0.00349105
0.00383
0.0041377
0.00440595
0.00465366
0.00492129
0.00526027
0.00570831
0.00623417
0.00667978
0.00698965
0.00715031
0.00718792
0.00713647
0.00700438
0.00669176
0.00588196
0.00500336
0.00155749
0.00231233
0.00267359
0.0031057
0.00314267
0.00265389
0.00236007
0.0021361
0.00195141
0.00179428
0.0016581
0.00154165
0.00144
0.00134923
0.00126717
0.00119269
0.00112537
0.00106529
0.00101289
0.000968941
0.000934413
0.000910187
0.000896592
0.000892981
0.000897781
0.000909095
0.000925576
0.000947201
0.000975675
0.00101379
0.00106482
0.00113641
0.00121898
0.00129886
0.00136391
0.00140605
0.00141874
0.00139659
0.00136379
0.00134067
0.00124526
)
;

boundaryField
{
    floor
    {
        type            nutkWallFunction;
        Cmu             0.09;
        kappa           0.41;
        E               9.8;
        value           nonuniform List<scalar> 
36
(
0.000109852
4.53347e-05
4.96058e-05
5.08651e-05
4.18314e-05
3.31556e-05
3.02973e-05
2.64423e-05
2.34662e-05
2.24782e-05
2.36217e-05
2.65954e-05
3.16694e-05
3.83884e-05
4.58839e-05
5.43004e-05
6.04737e-05
5.9706e-05
5.26583e-05
5.26582e-05
7.00489e-05
8.68862e-05
0.000140278
0.000190985
0.000173615
0.000156142
0.000109852
0.000120596
0.000115631
9.00307e-05
4.53347e-05
9.00307e-05
6.65571e-05
0.00012902
0.000113921
0.000145459
)
;
    }
    ceiling
    {
        type            nutkWallFunction;
        Cmu             0.09;
        kappa           0.41;
        E               9.8;
        value           nonuniform List<scalar> 
43
(
0.00026721
0.000305672
0.00035098
0.000354812
0.000303569
0.000272304
0.000248198
0.000228119
0.000210876
0.0001958
0.000182801
0.000171366
0.00016108
0.000151715
0.000143156
0.000135369
0.000128373
0.000122236
0.000117061
0.000112977
0.000110101
0.000108484
0.000108056
0.000108629
0.000109976
0.000111935
0.000114498
0.000117863
0.000122349
0.000128326
0.000136655
0.000146188
0.000155342
0.000162749
0.000167526
0.000168961
0.000166453
0.000162732
0.000160102
0.0001492
0.000378847
0.000444522
0.000411906
)
;
    }
    sWall
    {
        type            nutkWallFunction;
        Cmu             0.09;
        kappa           0.41;
        E               9.8;
        value           uniform 0.000267274;
    }
    nWall
    {
        type            nutkWallFunction;
        Cmu             0.09;
        kappa           0.41;
        E               9.8;
        value           nonuniform List<scalar> 6(0.000156152 0.000160955 0.000155388 0.000204875 0.000184579 0.000149212);
    }
    sideWalls
    {
        type            empty;
    }
    glass1
    {
        type            nutkWallFunction;
        Cmu             0.09;
        kappa           0.41;
        E               9.8;
        value           nonuniform List<scalar> 9(9.00648e-05 0.000157684 0.000213293 0.000263162 0.000307397 0.000347343 0.000383493 0.000391069 0.000379359);
    }
    glass2
    {
        type            nutkWallFunction;
        Cmu             0.09;
        kappa           0.41;
        E               9.8;
        value           nonuniform List<scalar> 2(0.000178772 0.000205327);
    }
    sun
    {
        type            nutkWallFunction;
        Cmu             0.09;
        kappa           0.41;
        E               9.8;
        value           nonuniform List<scalar> 
14
(
9.00851e-05
9.1646e-05
8.06808e-05
8.33391e-05
8.65292e-05
8.9576e-05
9.24537e-05
9.52256e-05
9.7999e-05
0.00010094
0.000103484
0.00010555
0.000107198
0.000108655
)
;
    }
    Table_master
    {
        type            nutkWallFunction;
        Cmu             0.09;
        kappa           0.41;
        E               9.8;
        value           nonuniform List<scalar> 9(6.09581e-05 4.29269e-05 3.36605e-05 4.05152e-05 4.79195e-05 5.59743e-05 6.52618e-05 7.65068e-05 9.11638e-05);
    }
    Table_slave
    {
        type            nutkWallFunction;
        Cmu             0.09;
        kappa           0.41;
        E               9.8;
        value           nonuniform List<scalar> 9(9.92765e-05 0.000100174 0.000101517 0.000103093 0.000105001 0.000107443 0.000110697 0.00011532 0.000122401);
    }
    inlet
    {
        type            calculated;
        value           uniform 0.00626116;
    }
    outlet
    {
        type            calculated;
        value           nonuniform List<scalar> 2(0.00231233 0.00267359);
    }
}


// ************************************************************************* //
