/*--------------------------------*- C++ -*----------------------------------*=========                 |
  \      /  F ield         | OpenFOAM: The Open Source CFD Toolbox
   \    /   O peration     | Website:  https://openfoam.org
    \  /    A nd           | Version:  6
     \/     M anipulation  |
\*---------------------------------------------------------------------------*/
FoamFile
{
    version     2.0;
    format      ascii;
    class       volScalarField;
    location    "200";
    object      PMV;
}
// * * * * * * * * * * * * * * * * * * * * * * * * * * * * * * * * * * * * * //

dimensions      [0 0 0 0 0 0 0];

internalField   nonuniform List<scalar> 
458
(
1.2975561176195454
1.1033010671634715
1.14066322246027
1.1339047895373628
1.1260204629774586
1.1190149665586415
1.114008460186527
1.1120312025973162
1.1134947369123418
1.118986404289042
1.1295806762808136
1.147393542705911
1.1760010381474206
1.2004954584360434
1.173441535089715
0.5951240987293538
0.5884347344068501
0.588912543093631
0.5640671319451904
0.5444784385933437
0.5459117279196181
0.5502116243571715
0.5526004740346797
0.5454339642817774
0.5397008420544741
0.536834309830312
0.5382675735211785
0.5454339642817774
0.5621560018729638
0.5922572170777468
0.6132813976360857
0.6094587545216394
0.6108922423761425
1.2814370098479015
1.1089313965834064
1.1710340186187473
1.1569700934176446
1.1515811633321889
1.1482964491882044
1.14719855322972
1.1473350675470086
1.1498722866213198
1.1546540471083504
1.1605450720835675
1.1673374347838554
1.173745372509615
1.1727005417059817
1.1640183077911723
1.2026573980598094
1.22643536479029
1.1456530589017018
0.533995864043102
0.6811376730472875
0.6921291814112648
0.6978639507454067
0.6811376730472875
0.5984688150711499
0.588912543093631
0.5846122819761144
0.5913015935928622
0.5908237825531529
0.594646283958125
0.6061139651042755
0.634306427951289
0.6883060279828522
0.7499567248581104
0.7313176483976714
0.6744472781315797
0.5504040580678978
1.3523197044058382
1.110887635070324
1.2168574086255548
1.1942677969252193
1.1940136381258362
1.196204308830129
1.2005632320657955
1.2062401079045995
1.2116210690661144
1.2167838961443036
1.2205081227140384
1.219531241641912
1.212002645846453
1.1930431136230286
1.1677244377490512
1.147291232285148
1.115347479945536
1.0550020209946354
0.8691162263652012
0.8723125459043415
0.8704006806201796
0.8880854543803945
0.8981227690790782
0.7485229361970429
0.6596330813181782
0.6276165567923462
0.6696684668946978
0.7045545729614372
0.736096861471723
0.768118228613283
0.8034862097697776
0.8469804039013558
0.8909532583328224
0.804442114406235
0.7432420178164693
0.5441382061042014
1.4465619159606702
1.1260716534347435
1.2608805219496135
1.2325550978460142
1.2392644219076105
1.2501210736863853
1.2632832145071748
1.2763158520402944
1.2879276173064484
1.2980162313422527
1.303546622422542
1.301060981291692
1.2885251467804233
1.2637833022977518
1.2290854309185522
1.1862130233841544
1.1285732001771367
1.05900077834638
1.0211664593474528
1.0284897149528613
1.0495545056072617
1.1094426666068622
1.1584376724216956
1.1894828515035998
1.2195610034436886
1.2431716820657395
1.2646522167532093
1.2679959583402196
1.2718173290388557
1.2761163087767031
1.2804152216655067
1.2828034773780874
1.2694289784158101
1.2039808430040781
1.1394763389671743
1.0840430043420273
1.0811756144581324
1.5461765276008668
1.1552225000548286
1.2911871916616353
1.266831375672867
1.2821604577666397
1.3034278010295224
1.3269272680505402
1.3502104507568056
1.3723587159830084
1.3902926742854524
1.4011801133299677
1.4014662360580221
1.3898557487559455
1.3666276468843679
1.3337030901643023
1.2933222091928431
1.2474472892031343
1.2066525960478955
1.1843864982286911
1.1783655106843218
1.1914983480361376
1.2136121349569216
1.2320854376502675
1.2461111860572698
1.259019648260538
1.2726823202839026
1.2881733140006895
1.3069569717835388
1.3124160463703642
1.3181471109706444
1.3243556115574289
1.3291312713643113
1.3305639504487468
1.3219677456913372
1.3109832593515975
1.2995206682388443
1.247969460106612
1.1880542835599555
1.1439427806163516
1.171339193438241
1.639550044448767
1.1965795581889072
1.3204647771762774
1.2993521399032246
1.3213513690402505
1.3537211218149592
1.3892064748491892
1.4255214872557886
1.4605058558624258
1.4909800785234721
1.5083589413979748
1.5121335483893792
1.5030721106699416
1.4825224232354237
1.452202683746697
1.4145656528801585
1.373193929453347
1.3363933484663695
1.3115071373513063
1.2985690835810304
1.2961327803956728
1.2993532756924482
1.3025099252559615
1.3049580828477092
1.3071803233351154
1.310158252588848
1.3147322958343202
1.3216927533228864
1.3302360319326025
1.3403541184343595
1.3508856017214241
1.3604008032591315
1.3693458508323801
1.3782377109693873
1.391828186432898
1.4002763550194266
1.395328104600984
1.3772543758154105
1.2941417972484237
1.1827904974026826
1.7192556462890818
1.2846124806959742
1.4283436947972934
1.3589004663105086
1.3713635770903827
1.4141074895488637
1.4643010534865484
1.507658887385881
1.5420057872630555
1.573482913738021
1.5949387942927542
1.6068578940843379
1.6101950297171508
1.6018021165503624
1.5786091998196443
1.5467524436918203
1.5102778903970828
1.4757324889395873
1.4479955610345225
1.4281603542520105
1.415077907809334
1.405314622877282
1.3967445937804945
1.3879673065703346
1.3791049913485973
1.3703719472735674
1.362539871288863
1.356036761885032
1.3512803057973282
1.3473294351142815
1.3438353049021698
1.339058425814681
1.3330019574024266
1.327034775613571
1.3202245922400486
1.3128096755402372
1.3050540152970505
1.3092569558269587
1.3987596865040668
1.0980987745703976
1.8539651735189442
1.6139771081467178
1.6514596758975169
1.512337840731188
1.5053793542298284
1.5057504873926475
1.5214940470188605
1.5482064142856051
1.585402676275915
1.6140087837373742
1.6336076007814777
1.6414389629021158
1.64961807285226
1.6549986066743434
1.6488034391608475
1.6340289361698714
1.6106717557120502
1.5811111845202708
1.551545096104714
1.5238792860330874
1.4995480193059447
1.4785531849637588
1.460896285541562
1.4446693671408124
1.4303502287806362
1.4165073047961363
1.4040955268548472
1.3945474559443902
1.3897732454446439
1.3917300098183354
1.3716998611906088
1.3496035738401044
1.3258244341447183
1.3011578779874746
1.2781012285825988
1.2590415267992057
1.2454547826799058
1.237606823274978
1.2164566276245592
1.1478669554422227
2.0466471189526
1.9156606147032613
1.8319154206576842
1.716164604412282
1.6273805051664598
1.5834303381189803
1.5654775435018933
1.562154210590244
1.5670304820054775
1.5786776290248319
1.5930337027704196
1.6083022758836616
1.6222745759848227
1.6347550205476236
1.644849761357859
1.6526198954901132
1.656138850299238
1.651186237770416
1.6268792829131111
1.60066010905587
1.5753903750459821
1.551545096104714
1.5300807208004465
1.5105214413494514
1.4919138637331457
1.4737812399581711
1.4551693159455883
1.4379872478691917
1.4231902271017094
1.413643121195119
1.410301518125117
1.412688383543771
1.418894090651675
1.426054261838065
1.4341687794778921
1.4146212954359862
1.3800774889965506
1.3612803333530392
1.306110592148447
1.2019433751826745
1.8532579982845874
1.8165006676287836
1.7341461030383574
1.689320645947354
1.656425616310801
1.6358208245218289
1.6269136388831975
1.6230322385744598
1.6234841329377365
1.626263518692878
1.6311320774487923
1.6363245920312277
1.6411365982359807
1.6444694707739862
1.6458555983673668
1.6443512333907115
1.6393257298005206
1.6314066365833368
1.6212255413528862
1.610092132503127
1.5995014604827358
1.5811111845202708
1.5606068126876815
1.5405748334269627
1.520062884609049
1.4985937707849875
1.4771216164290109
1.45707832761348
1.4413283395776797
1.430827552092149
1.426054261838065
1.4246222501200667
1.419729845209032
1.4218635360058738
1.4201667511698732
1.4091859472392725
1.3196808348914497
1.2385204342742173
1.8618202826853967
1.8364353666198174
1.8155343550483967
1.7668990419783375
1.7226637315402527
1.6936208904128756
1.677409504052782
1.6690349035327183
1.6634285249930172
1.6601999156498888
1.6588338289653406
1.658371195615699
1.6578783423316215
1.6564658744156562
1.6543278380433084
1.6497609374482944
1.6436729967112667
1.6346292935820261
1.6238062507550928
1.6109853418719149
1.5978642707166277
1.5845627410235865
1.571053250938108
1.5576185545326093
1.5423523235149907
1.52481051617078
1.5026117890098982
1.4753263160046943
1.4449199833280673
1.4132778611138694
1.3832773940676741
1.358079671721359
1.339557061076227
1.327512279437745
1.3239747351228783
1.3312254050176817
1.2985612259907715
1.266551194040165
1.9246985812643376
1.9007157232360934
1.8771302451536724
1.8671937607472235
1.8791857990869871
1.8169450741457795
1.765698916833639
1.7334997317463055
1.714514751775567
1.7024502399899293
1.6944852065234661
1.6879073949457342
1.6830159391454462
1.67817995510609
1.6733580811128452
1.6680594085263387
1.661396889855255
1.6531578360063475
1.6438563929963794
1.633226022904778
1.6211737677270857
1.60866139819357
1.5955376224479723
1.5819799951403768
1.5674872777599753
1.552969507925126
1.5367673909630442
1.5197799863878738
1.500827869708527
1.4792627108835918
1.4557747027396644
1.4290929445122467
1.400475146501423
1.3712906806098957
1.3441901545441197
1.3212531938298284
1.3040775006110055
1.2955355708172822
1.2740699158916668
1.2702312141058165
)
;

boundaryField
{
    ".*"
    {
        type            zeroGradient;
    }
}


// ************************************************************************* //
