/*--------------------------------*- C++ -*----------------------------------*\
  =========                 |
  \\      /  F ield         | OpenFOAM: The Open Source CFD Toolbox
   \\    /   O peration     | Website:  https://openfoam.org
    \\  /    A nd           | Version:  6
     \\/     M anipulation  |
\*---------------------------------------------------------------------------*/
FoamFile
{
    version     2.0;
    format      ascii;
    class       volScalarField;
    location    "200";
    object      T;
}
// * * * * * * * * * * * * * * * * * * * * * * * * * * * * * * * * * * * * * //

dimensions      [0 0 0 1 0 0 0];

internalField   nonuniform List<scalar> 
458
(
301.874
301.498
301.499
301.515
301.529
301.541
301.551
301.56
301.568
301.575
301.58
301.581
301.58
301.576
301.571
300.189
300.175
300.176
300.124
300.083
300.086
300.095
300.1
300.085
300.073
300.067
300.07
300.085
300.12
300.183
300.227
300.219
300.222
302.146
301.574
301.546
301.567
301.589
301.609
301.627
301.641
301.653
301.662
301.665
301.66
301.646
301.621
301.585
301.55
301.51
301.468
300.341
300.369
300.392
300.404
300.369
300.196
300.176
300.167
300.181
300.18
300.188
300.212
300.271
300.384
300.513
300.474
300.355
300.265
302.395
301.668
301.604
301.631
301.664
301.694
301.722
301.747
301.766
301.779
301.784
301.776
301.755
301.716
301.662
301.598
301.531
301.479
300.836
300.769
300.765
300.802
300.823
300.51
300.324
300.257
300.345
300.418
300.484
300.551
300.625
300.716
300.808
300.627
300.532
300.466
302.623
301.77
301.664
301.692
301.736
301.779
301.821
301.858
301.888
301.911
301.922
301.917
301.895
301.853
301.791
301.71
301.609
301.489
301.383
301.289
301.308
301.385
301.469
301.528
301.576
301.583
301.59
301.597
301.605
301.614
301.623
301.628
301.6
301.463
301.328
301.212
301.206
302.831
301.879
301.725
301.745
301.799
301.854
301.909
301.96
302.006
302.041
302.062
302.065
302.049
302.014
301.961
301.894
301.818
301.742
301.678
301.634
301.625
301.636
301.649
301.659
301.665
301.668
301.672
301.68
301.69
301.702
301.715
301.725
301.728
301.71
301.687
301.663
301.621
301.671
301.667
301.674
303.01
301.996
301.803
301.795
301.85
301.913
301.978
302.042
302.102
302.152
302.185
302.199
302.193
302.167
302.122
302.062
301.992
301.921
301.86
301.814
301.785
301.769
301.758
301.75
301.743
301.738
301.737
301.742
301.752
301.768
301.788
301.808
301.827
301.844
301.859
301.874
301.885
301.883
301.798
301.722
303.152
302.173
301.966
301.887
301.908
301.964
302.03
302.099
302.171
302.237
302.282
302.307
302.314
302.302
302.271
302.221
302.158
302.09
302.026
301.972
301.93
301.897
301.871
301.849
301.83
301.814
301.803
301.799
301.805
301.821
301.846
301.874
301.901
301.927
301.948
301.964
301.972
301.962
301.901
301.741
303.395
302.626
302.419
302.231
302.118
302.095
302.128
302.184
302.262
302.322
302.364
302.391
302.406
302.408
302.395
302.364
302.315
302.253
302.191
302.133
302.082
302.038
302.001
301.967
301.937
301.908
301.882
301.862
301.852
301.858
301.878
301.907
301.938
301.966
301.991
302.012
302.031
302.048
302.063
302.076
303.728
303.405
303.237
303.001
302.776
302.625
302.539
302.499
302.479
302.474
302.479
302.488
302.494
302.495
302.488
302.472
302.442
302.4
302.349
302.294
302.241
302.191
302.146
302.105
302.066
302.028
301.989
301.953
301.922
301.902
301.895
301.9
301.913
301.928
301.945
301.967
301.995
302.025
302.063
302.169
303.335
303.069
302.897
302.785
302.715
302.673
302.65
302.632
302.619
302.608
302.599
302.589
302.577
302.561
302.54
302.512
302.476
302.434
302.388
302.341
302.296
302.253
302.21
302.168
302.125
302.08
302.035
301.993
301.96
301.938
301.928
301.925
301.926
301.93
301.933
301.94
301.952
301.993
303.254
303.06
302.945
302.866
302.813
302.777
302.753
302.736
302.719
302.703
302.688
302.673
302.657
302.639
302.62
302.597
302.572
302.542
302.509
302.472
302.434
302.395
302.355
302.315
302.272
302.227
302.178
302.126
302.076
302.033
301.999
301.975
301.96
301.949
301.943
301.943
301.951
301.997
303.246
303.204
303.215
303.045
302.965
302.912
302.875
302.847
302.826
302.808
302.792
302.775
302.759
302.742
302.725
302.708
302.69
302.671
302.652
302.632
302.61
302.587
302.562
302.535
302.505
302.474
302.439
302.402
302.361
302.315
302.264
302.209
302.157
302.112
302.076
302.048
302.027
302.01
301.995
302.018
)
;

boundaryField
{
    floor
    {
        type            wallHeatTransfer;
        Tinf            uniform 305.2;
        alphaWall       uniform 0.24;
        value           nonuniform List<scalar> 
36
(
302.006
301.262
301.197
301.183
301.26
301.372
301.429
301.519
301.594
301.608
301.57
301.495
301.39
301.282
301.201
301.151
301.125
301.126
301.2
301.2
301.076
301.137
301.601
301.943
301.961
301.994
302.006
301.957
301.935
301.985
301.262
301.985
301.166
301.872
301.343
301.75
)
;
    }
    ceiling
    {
        type            wallHeatTransfer;
        Tinf            uniform 303.2;
        alphaWall       uniform 0.24;
        value           nonuniform List<scalar> 
43
(
303.243
303.204
303.214
303.052
302.977
302.928
302.895
302.87
302.852
302.838
302.824
302.811
302.798
302.785
302.771
302.758
302.744
302.73
302.715
302.698
302.681
302.661
302.639
302.615
302.588
302.559
302.528
302.493
302.454
302.409
302.358
302.304
302.252
302.208
302.172
302.146
302.128
302.114
302.102
302.13
303.706
303.397
303.252
)
;
    }
    sWall
    {
        type            wallHeatTransfer;
        Tinf            uniform 315.2;
        alphaWall       uniform 0.36;
        value           uniform 304.257;
    }
    nWall
    {
        type            wallHeatTransfer;
        Tinf            uniform 307.2;
        alphaWall       uniform 0.36;
        value           nonuniform List<scalar> 6(302.395 302.421 302.457 302.541 302.592 302.72);
    }
    sideWalls
    {
        type            empty;
    }
    glass1
    {
        type            wallHeatTransfer;
        Tinf            uniform 315.2;
        alphaWall       uniform 4.3;
        value           nonuniform List<scalar> 9(311.833 310.573 309.826 309.314 308.959 308.696 308.489 308.57 308.842);
    }
    glass2
    {
        type            wallHeatTransfer;
        Tinf            uniform 307.2;
        alphaWall       uniform 4.3;
        value           nonuniform List<scalar> 2(305.231 305.114);
    }
    sun
    {
        type            wallHeatTransfer;
        Tinf            uniform 305.2;
        alphaWall       uniform 0.24;
        value           nonuniform List<scalar> 
14
(
302.335
302.004
302.053
302.054
302.052
302.05
302.047
302.044
302.041
302.038
302.033
302.028
302.021
302.014
)
;
    }
    Table_master
    {
        type            zeroGradient;
    }
    Table_slave
    {
        type            zeroGradient;
    }
    inlet
    {
        type            fixedValue;
        value           uniform 296.15;
    }
    outlet
    {
        type            zeroGradient;
    }
}


// ************************************************************************* //
