/*--------------------------------*- C++ -*----------------------------------*=========                 |
  \      /  F ield         | OpenFOAM: The Open Source CFD Toolbox
   \    /   O peration     | Website:  https://openfoam.org
    \  /    A nd           | Version:  6
     \/     M anipulation  |
\*---------------------------------------------------------------------------*/
FoamFile
{
    version     2.0;
    format      ascii;
    class       volScalarField;
    location    "1400";
    object      PMV;
}
// * * * * * * * * * * * * * * * * * * * * * * * * * * * * * * * * * * * * * //

dimensions      [0 0 0 0 0 0 0];

internalField   nonuniform List<scalar> 
458
(
1.4403382685608905
1.2055715287958315
1.169158968255651
1.1413167402175641
1.1251136665877925
1.1197088674428317
1.127020192448978
1.1499514672940947
1.193211675917822
1.2615331294326908
1.3480854855694695
1.4044483158958538
1.3893571922258383
1.3931997717144586
1.4025219286791257
1.673907232872853
1.6552684177323096
1.6452308387310486
1.650966707309857
1.659569962790465
1.6626441346363003
1.6525405142972192
1.6513493415645062
1.6551156722787883
1.6598106600687168
1.6655933294658256
1.671572258158861
1.6790810134179246
1.6885286434315825
1.7023034009555325
1.7236062917280843
1.749861494107646
1.7699148182562006
1.3750207861143817
1.2098155980565233
1.1896769757798125
1.1600041414818705
1.1428985933845863
1.1353592377194734
1.1393668427675536
1.1518115927933568
1.1736528216766293
1.211776341285728
1.2763533588755394
1.392305305978602
1.4444211191387013
1.4169158148200345
1.372387657692173
1.3614161414497146
1.3934518222445957
1.4453293560378637
1.6630500804253563
1.6328021404825483
1.6261092169735425
1.6271880178507296
1.6287938437256257
1.6347203874532952
1.6397655562661235
1.6457931010988267
1.6519888367485493
1.6574065264300284
1.6634677134075762
1.66978028094968
1.6764098193097485
1.6849340868990352
1.698027514417085
1.7204300235215984
1.7412658667245549
1.750799100349687
1.3966871062299862
1.1975779201412524
1.2119276676702866
1.1947376194293469
1.1842727502265946
1.177745942359176
1.1761340125918833
1.1668266743073188
1.149749564473211
1.1541803919583005
1.2126393840598817
1.3389489512665234
1.447246012043073
1.4770763578859867
1.4357472251733545
1.4223816685690234
1.4281923178499396
1.4355169087474315
1.56950366942637
1.5746818713720607
1.5671406095895801
1.579823956732097
1.5996011248933601
1.6087412815217375
1.635887541449424
1.6592215053319856
1.6735912297514435
1.6829865197318756
1.6906316302704023
1.6982761786795257
1.7059201561502366
1.7111381893488378
1.7164557512846415
1.73171424634336
1.7292761507014578
1.695507758490813
1.4612744008899907
1.188087353083197
1.228712384396206
1.2374695892765366
1.2504900831540895
1.2557665935200453
1.2473856860672632
1.2019712100623423
1.133431024902051
1.1055686566776184
1.163846484727567
1.3036130437633389
1.4372937952214215
1.5173924007178539
1.5027410032779296
1.4678702952213825
1.431176387496689
1.4008521300139911
1.383003342124052
1.4423169807725147
1.4880100145064172
1.5311367290210272
1.5808112960472382
1.6314547319344084
1.6720465568670346
1.68111408204965
1.688480448356057
1.6998193967452928
1.7126530190733593
1.7274167767261963
1.7436776010896793
1.7637415637822267
1.7920039330161057
1.784742785757109
1.7638308239946099
1.7230146762462069
1.6654484008429216
1.54782105676292
1.1932217725973284
1.241014355957169
1.2784641861719355
1.3332544212894966
1.37115953725351
1.3527311337261185
1.2485611681759012
1.123836627922107
1.0691626022964975
1.1302790665957732
1.282429887537539
1.4383567647927593
1.5516481505803723
1.5644216720947886
1.532648400138387
1.4841643991814604
1.4526005945035785
1.4608075559686367
1.4872709825010013
1.5314832376558944
1.5882927553723603
1.648476482266435
1.7064366672411282
1.7535919187482514
1.7785566584096455
1.7947930024456746
1.8082638247504237
1.8198287596018567
1.8276416492192382
1.8335883181739412
1.8374766377996736
1.8382459675175034
1.818103588700255
1.782998587577221
1.7210045588940546
1.7087448094789375
1.7509388285195238
1.846712403572889
1.7385831900021218
1.6405773397605425
1.2184939389700171
1.2649968464460992
1.3054082043013457
1.3952252819933975
1.4783015757688336
1.4479993766229715
1.2729029378262555
1.1121694522608936
1.0455204717128248
1.109929607518186
1.2753680019606168
1.4592753968809136
1.6017708922920841
1.6189378100131295
1.6041155612952358
1.5799516353961718
1.552569327246243
1.5628949997595118
1.5964765306506417
1.6469748057042715
1.7056216771717978
1.7647815841329464
1.8076217247018507
1.8362483999493089
1.8572346325600537
1.8724936568490773
1.8834591026755747
1.8896562164576363
1.8920395763390039
1.8906095701486672
1.8858426723543424
1.8767846829314907
1.8501051993178954
1.8078770276617264
1.7430579425233201
1.7253779790091002
1.7373691214986313
1.767331172041372
1.783794510748712
1.7306990715539439
1.297228110929493
1.363237203360717
1.3490800204855578
1.4137575063956778
1.5089281531088112
1.4138573355948398
1.2530220889482464
1.0893976223210577
1.0245852048098953
1.1027250994119142
1.2947184318121892
1.5111950901921254
1.6662609229126504
1.6825086818581148
1.6696062498121773
1.6567022845320225
1.6600479019692287
1.6868091447205875
1.7274157047837808
1.7713470269975573
1.8133478750342544
1.8496039451655173
1.8786917235688354
1.900142389232661
1.914915638002696
1.924921472888468
1.9311147977224241
1.933020317339778
1.9306384090519197
1.924921472888468
1.9168216277124288
1.9049083046101238
1.886796077734294
1.8480351776696846
1.7883319262364523
1.7551783079266634
1.7422380624735947
1.7265233170883898
1.8066567240506046
1.8657191254888417
1.6508611094423762
1.5698200830762352
1.4646962006080209
1.4560834685545458
1.45413958739856
1.3621216479511395
1.1816662462078094
1.0217671720499875
0.9928365737143916
1.1186416782143858
1.357709459788933
1.6130065434919938
1.7403107481446096
1.7536815165612487
1.747473899626168
1.7446087050504373
1.7570239054333137
1.7885317020439986
1.827661477312884
1.8639108448289579
1.89537614342278
1.9201569782959962
1.9387365378524388
1.951119919216798
1.9587392429001738
1.9630246981723654
1.9639769807294276
1.962072400734565
1.9573106912642484
1.9501674380009635
1.940641831233493
1.9292092220518993
1.912533074436027
1.8939462056898801
1.873924027198252
1.8582528477409674
1.8332442266197646
1.7782603895873363
1.7174519155708678
2.0672974231346717
1.9185004113055535
1.764467826284599
1.625233601920689
1.5418374763189233
1.4803369623736393
1.246673051037543
0.9993996467682683
0.8877185276254824
0.9666899555044037
1.1909556159598795
1.50491862595342
1.7594112508566613
1.817642223466575
1.8258221987334209
1.827050424667131
1.8387976857744412
1.858665299987481
1.8858426723543424
1.915392140534622
1.9390512040348813
1.9504994234194168
1.9567238326136234
1.959819630558619
1.9604692768176846
1.9586452144102915
1.9548978192883815
1.9484676141568202
1.9397362793313195
1.9286676622974839
1.9155776066783043
1.9012540952955124
1.886447189183359
1.869778971955322
1.8523044452741388
1.8366300113275023
1.8274263345265818
1.8238912779568983
1.8148356573630775
1.7916493203845645
-1.1755266961360966
-0.40118308100800726
0.029809288098492384
0.15535248583774122
0.2654223752434644
0.4406945239796087
0.7078382449723856
1.063168665287192
1.4313140124119432
1.765618053369335
1.834511049890097
1.8504766835420234
1.8567748742925474
1.8650464687115087
1.8787897959684543
1.8979843336445228
1.9183035080702482
1.935343751214834
1.9467234617438594
1.9527773212205353
1.954607420539013
1.9534016556696823
1.94964501478365
1.944556208474885
1.9378383769131833
1.9307800321276785
1.9228841973630257
1.9147911337059997
1.9073197204470946
1.9006965455058742
1.8946342570839136
1.890398385784718
1.8872493527883902
1.8879222379033644
1.8970726056663756
1.9306737795567464
1.9982282349921079
1.8942966664724092
-1.140830665312079
-0.21034756815010255
0.20225867504068326
0.46313098263924607
0.656479039454855
0.9445640619832664
1.3043258416532644
1.659569962790465
1.7773537695588895
1.8449745814036471
1.8739766453583355
1.8879184896104169
1.8980688155698882
1.909298478679289
1.9218235401108261
1.9351922186891384
1.94737323624463
1.9561203543419938
1.9610825879462366
1.9616775294826578
1.9597820500913963
1.9561296848792111
1.9517892289026837
1.9472351384008035
1.9424490346936882
1.9379468163171143
1.9337944505091393
1.9301301177897414
1.9277501829519725
1.9271910847649956
1.9296338262572597
1.9355921360156878
1.9446079066628805
1.953538373827586
1.9651220974850265
2.0023301293111997
1.9437241318526235
1.9217590167584646
-0.6710863354559017
-0.6420044486320746
-0.5397051606475847
0.07783988817110618
0.6105630750565174
1.1150545549889759
1.5289675860314214
1.6991093982051657
1.7945499562682303
1.854747359972195
1.8865054537892756
1.9050071400884308
1.9188978795542742
1.9288409833835425
1.9372529119853286
1.9444488803721613
1.9516384746965427
1.9577587422186875
1.9625841566030455
1.964939425389624
1.9653748194249963
1.9646462475498494
1.963056425583152
1.961317517095854
1.9590074373176594
1.9575955126496645
1.9559936218368943
1.9545877559085727
1.9533340068815452
1.9524005725161295
1.952403065517559
1.95513767135818
1.9620338607559535
1.9753622436709286
1.9884123432539689
1.9837263645292493
1.966754846990948
1.953286717703013
1.9237830668484082
1.9194759032220376
)
;

boundaryField
{
    ".*"
    {
        type            zeroGradient;
    }
}


// ************************************************************************* //
