/*--------------------------------*- C++ -*----------------------------------*\
  =========                 |
  \\      /  F ield         | OpenFOAM: The Open Source CFD Toolbox
   \\    /   O peration     | Website:  https://openfoam.org
    \\  /    A nd           | Version:  6
     \\/     M anipulation  |
\*---------------------------------------------------------------------------*/
FoamFile
{
    version     2.0;
    format      ascii;
    class       volVectorField;
    location    "1400";
    object      U;
}
// * * * * * * * * * * * * * * * * * * * * * * * * * * * * * * * * * * * * * //

dimensions      [0 1 -1 0 0 0 0];

internalField   nonuniform List<vector> 
458
(
(0.0181982 0.0945994 0)
(-0.186019 0.0315213 0)
(-0.223905 0.0194414 0)
(-0.261025 0.00952535 0)
(-0.284094 -0.00113852 0)
(-0.290062 -0.0129393 0)
(-0.274685 -0.0266493 0)
(-0.236486 -0.0427251 0)
(-0.177019 -0.0588981 0)
(-0.104207 -0.0713935 0)
(-0.0261724 -0.0742044 0)
(0.05064 -0.0460391 0)
(0.0834572 -0.0218721 0)
(0.0892178 0.00436217 0)
(0.0733147 0.0517967 0)
(-0.0195084 0.0129348 0)
(-0.0417273 -0.0169034 0)
(-0.016985 -0.0323571 0)
(0.0156426 -0.0305937 0)
(0.0401803 -0.0223896 0)
(0.0584507 -0.0123586 0)
(0.0697457 -0.00702778 0)
(0.0750765 -0.00507572 0)
(0.0774168 -0.00431238 0)
(0.078805 -0.00381781 0)
(0.0797708 -0.00340855 0)
(0.0802632 -0.00299712 0)
(0.0799905 -0.00235098 0)
(0.0783065 -0.00105688 0)
(0.0738651 0.00144799 0)
(0.0650823 0.0047103 0)
(0.0528085 0.00923202 0)
(0.00411237 0.0260652 0)
(0.191245 0.194971 0)
(-0.169919 0.0868167 0)
(-0.184109 0.0669423 0)
(-0.223603 0.0479326 0)
(-0.248258 0.0258519 0)
(-0.256805 -0.000509683 0)
(-0.245059 -0.0323484 0)
(-0.212716 -0.0673472 0)
(-0.161929 -0.0988676 0)
(-0.100766 -0.11802 0)
(-0.0403399 -0.115785 0)
(0.0193466 -0.0765319 0)
(0.0560812 -0.0328152 0)
(0.084029 0.0107297 0)
(0.104038 0.0563116 0)
(0.119309 0.0576891 0)
(0.0924525 0.0615526 0)
(0.0159726 0.0813282 0)
(0.0463037 0.0471954 0)
(0.00936108 -0.024093 0)
(0.0285844 -0.0448621 0)
(0.0452196 -0.0436152 0)
(0.0604686 -0.0341213 0)
(0.0686718 -0.0155848 0)
(0.0709603 -0.0042553 0)
(0.0711296 -9.74619e-05 0)
(0.0713561 0.00134109 0)
(0.0717844 0.00209304 0)
(0.0721047 0.00261484 0)
(0.0722547 0.00321103 0)
(0.0721612 0.00429887 0)
(0.0712865 0.00678169 0)
(0.0672616 0.0130569 0)
(0.0573161 0.0196166 0)
(0.0482843 0.0271405 0)
(-0.0355342 0.0546093 0)
(0.351844 0.292662 0)
(-0.179975 0.136917 0)
(-0.141593 0.10814 0)
(-0.181556 0.0752914 0)
(-0.206355 0.0385044 0)
(-0.217517 -0.00444917 0)
(-0.208702 -0.0543608 0)
(-0.180574 -0.108288 0)
(-0.136908 -0.153568 0)
(-0.0862861 -0.176302 0)
(-0.0383612 -0.167654 0)
(0.00604624 -0.119981 0)
(0.0398992 -0.0642218 0)
(0.0652325 -0.0146476 0)
(0.0864067 0.026843 0)
(0.0930232 0.0356969 0)
(0.0805867 0.0504659 0)
(0.0127516 0.0920734 0)
(0.113539 -0.00173814 0)
(0.0729272 -0.0378564 0)
(0.0694432 -0.0527112 0)
(0.074607 -0.0531435 0)
(0.0809661 -0.0479604 0)
(0.082743 -0.0353093 0)
(0.070769 -0.0224625 0)
(0.0614191 -0.0155499 0)
(0.0575901 -0.0117173 0)
(0.0561547 -0.00925574 0)
(0.0552517 -0.00758364 0)
(0.0546518 -0.00631121 0)
(0.0550709 -0.0047421 0)
(0.0578784 -0.000541473 0)
(0.0570227 0.0174568 0)
(0.0460705 0.0309005 0)
(0.0479071 0.0433438 0)
(-0.0748257 0.0821291 0)
(0.502242 0.371914 0)
(-0.209 0.180346 0)
(-0.0938992 0.146078 0)
(-0.13349 0.103028 0)
(-0.155246 0.0558693 0)
(-0.167355 -0.0010992 0)
(-0.160418 -0.0692841 0)
(-0.134788 -0.142066 0)
(-0.0987674 -0.199057 0)
(-0.0599297 -0.223696 0)
(-0.0248914 -0.209597 0)
(0.00649647 -0.155557 0)
(0.0324472 -0.0915739 0)
(0.0522537 -0.034931 0)
(0.0689031 0.0104617 0)
(0.078966 0.0374546 0)
(0.0893067 0.0614938 0)
(0.0860311 0.0959705 0)
(0.126 0.0889352 0)
(0.115511 0.0113962 0)
(0.101437 -0.0305374 0)
(0.09394 -0.0471024 0)
(0.0868986 -0.0494032 0)
(0.0778263 -0.0432345 0)
(0.0762053 -0.0253745 0)
(0.0872979 -0.0156349 0)
(0.0951517 -0.0103702 0)
(0.0977555 -0.00715565 0)
(0.0972212 -0.00462821 0)
(0.0944782 -0.00221847 0)
(0.0891793 0.000432112 0)
(0.0801076 0.0038676 0)
(0.0647551 0.00891605 0)
(0.0490903 0.0277016 0)
(0.0365605 0.0444614 0)
(0.0523584 0.0601931 0)
(-0.109105 0.104048 0)
(0.641516 0.432489 0)
(-0.251122 0.213584 0)
(-0.0420156 0.171678 0)
(-0.080012 0.122881 0)
(-0.0949602 0.0700779 0)
(-0.105449 0.00326038 0)
(-0.0954679 -0.0806785 0)
(-0.0710338 -0.16995 0)
(-0.0452128 -0.233313 0)
(-0.0210163 -0.256433 0)
(-0.00089499 -0.236649 0)
(0.0159491 -0.179526 0)
(0.0307971 -0.110681 0)
(0.0426059 -0.0489569 0)
(0.0533702 -0.00115446 0)
(0.0634024 0.0314396 0)
(0.0767028 0.0538464 0)
(0.09161 0.0621704 0)
(0.108962 0.0219702 0)
(0.108954 -0.0161391 0)
(0.10161 -0.0342584 0)
(0.0909748 -0.0409226 0)
(0.0792784 -0.0399954 0)
(0.0684151 -0.032218 0)
(0.063417 -0.016238 0)
(0.0643713 -0.00632818 0)
(0.0656709 -0.00171487 0)
(0.0657388 0.000974449 0)
(0.0650816 0.00351324 0)
(0.0639557 0.00655172 0)
(0.0618681 0.0105853 0)
(0.0582479 0.0162172 0)
(0.0524815 0.0243264 0)
(0.0457495 0.0384789 0)
(0.0368926 0.0548365 0)
(0.0635848 0.0746539 0)
(-0.00828852 0.109284 0)
(0.0509798 0.142384 0)
(-0.082102 0.0613332 0)
(-0.26911 -0.00625278 0)
(0.75485 0.480888 0)
(-0.300356 0.23322 0)
(0.0060768 0.175818 0)
(-0.0234642 0.133427 0)
(-0.0300269 0.0820597 0)
(-0.0376186 0.0115119 0)
(-0.0126352 -0.092386 0)
(0.0090883 -0.1931 0)
(0.021485 -0.254646 0)
(0.0283688 -0.272025 0)
(0.0308316 -0.24786 0)
(0.0310183 -0.189655 0)
(0.0310476 -0.117735 0)
(0.0312921 -0.0538253 0)
(0.0332536 -0.00775637 0)
(0.0393676 0.0218485 0)
(0.0505324 0.0381719 0)
(0.0662745 0.038077 0)
(0.0789349 0.0141621 0)
(0.0808386 -0.0073943 0)
(0.074304 -0.0212646 0)
(0.063594 -0.0277228 0)
(0.0519856 -0.0277868 0)
(0.041583 -0.0224439 0)
(0.034989 -0.0130629 0)
(0.03273 -0.00638053 0)
(0.0325526 -0.00299071 0)
(0.0332149 -0.00081984 0)
(0.0347651 0.00165635 0)
(0.0365914 0.00515108 0)
(0.0383843 0.0101881 0)
(0.0399721 0.0172492 0)
(0.0413465 0.0268355 0)
(0.0434141 0.0397495 0)
(0.0439615 0.0549366 0)
(0.0684892 0.0753365 0)
(0.05677 0.0919882 0)
(0.0939544 0.094885 0)
(0.114366 0.0547899 0)
(-0.135779 -0.0294009 0)
(0.825711 0.52335 0)
(-0.333362 0.212857 0)
(0.0476572 0.128693 0)
(0.0437951 0.124627 0)
(0.041738 0.0828947 0)
(0.0505675 -0.00339162 0)
(0.0846026 -0.116464 0)
(0.0985543 -0.20499 0)
(0.0965105 -0.25722 0)
(0.0845 -0.2683 0)
(0.0666444 -0.240578 0)
(0.0465172 -0.181383 0)
(0.0278903 -0.109035 0)
(0.0141028 -0.046607 0)
(0.00710818 -0.00652303 0)
(0.0091698 0.0154608 0)
(0.0183328 0.0255857 0)
(0.0310335 0.0240616 0)
(0.0395184 0.0104814 0)
(0.0402631 -0.00353641 0)
(0.034764 -0.0132825 0)
(0.0255983 -0.0177675 0)
(0.0155149 -0.0176869 0)
(0.00653678 -0.0142204 0)
(0.00061434 -0.00895397 0)
(-0.00164957 -0.00521737 0)
(-0.00148826 -0.00354893 0)
(0.00016271 -0.00265831 0)
(0.00315989 -0.00128729 0)
(0.00786957 0.00161768 0)
(0.0133979 0.0065123 0)
(0.019606 0.0132528 0)
(0.0266891 0.0220423 0)
(0.0357016 0.0329347 0)
(0.0447515 0.0449211 0)
(0.0662743 0.0608078 0)
(0.0806797 0.0681111 0)
(0.114234 0.0598376 0)
(0.157924 0.0473863 0)
(-0.0199585 0.0903015 0)
(0.937175 0.519792 0)
(-0.0572297 0.189993 0)
(0.126375 0.0731729 0)
(0.1673 0.0611689 0)
(0.154797 0.0182238 0)
(0.176405 -0.0647148 0)
(0.201319 -0.142379 0)
(0.198838 -0.205336 0)
(0.17564 -0.240895 0)
(0.139288 -0.241935 0)
(0.0964383 -0.210351 0)
(0.0523343 -0.151608 0)
(0.0130343 -0.082213 0)
(-0.0136414 -0.0264689 0)
(-0.0235787 -0.00131924 0)
(-0.0234316 0.0109364 0)
(-0.0171275 0.0162679 0)
(-0.00873835 0.0150892 0)
(-0.00376878 0.00756249 0)
(-0.00434534 -0.000733662 0)
(-0.00893614 -0.00659594 0)
(-0.0163095 -0.00921095 0)
(-0.0240965 -0.00922695 0)
(-0.0306591 -0.00769411 0)
(-0.0348305 -0.00579791 0)
(-0.0364987 -0.00483969 0)
(-0.0364377 -0.00496998 0)
(-0.0352664 -0.00560394 0)
(-0.0331221 -0.00605328 0)
(-0.0297012 -0.00559162 0)
(-0.0239729 -0.0034926 0)
(-0.0151303 0.000455941 0)
(-0.00634177 0.00569947 0)
(0.00600837 0.0117 0)
(0.0179899 0.0168527 0)
(0.0357504 0.0233495 0)
(0.052473 0.0195275 0)
(0.0769245 0.00268249 0)
(0.140972 0.0435812 0)
(-0.414996 0.203257 0)
(1.08605 0.457056 0)
(0.544292 0.310507 0)
(0.547373 0.280401 0)
(0.510684 0.198165 0)
(0.452922 0.106844 0)
(0.410647 0.00942895 0)
(0.359818 -0.0832761 0)
(0.303082 -0.152126 0)
(0.23976 -0.186975 0)
(0.170286 -0.185635 0)
(0.0994877 -0.154763 0)
(0.0313405 -0.0995622 0)
(-0.0248985 -0.0369789 0)
(-0.0484817 -0.00833201 0)
(-0.0571237 0.00331578 0)
(-0.0572519 0.00867023 0)
(-0.0538035 0.0108625 0)
(-0.0495027 0.010044 0)
(-0.0474101 0.00646285 0)
(-0.0486258 0.00224835 0)
(-0.0520269 -0.00107665 0)
(-0.0570057 -0.00292288 0)
(-0.0622881 -0.00363416 0)
(-0.0668315 -0.00380215 0)
(-0.0701701 -0.0039707 0)
(-0.0724968 -0.00455173 0)
(-0.0744677 -0.00545778 0)
(-0.0767526 -0.00626653 0)
(-0.079929 -0.00640587 0)
(-0.0845788 -0.00516417 0)
(-0.0914207 -0.0017193 0)
(-0.100182 0.00439699 0)
(-0.110536 0.0134273 0)
(-0.126124 0.0259393 0)
(-0.150327 0.0421618 0)
(-0.185433 0.0609634 0)
(-0.233358 0.078359 0)
(-0.286422 0.0907523 0)
(-0.356536 0.0971286 0)
(-0.622808 0.0977183 0)
(0.507593 0.201579 0)
(0.458965 0.208922 0)
(0.416651 0.132786 0)
(0.377016 0.0424407 0)
(0.334185 -0.0363049 0)
(0.274031 -0.0909034 0)
(0.201487 -0.116784 0)
(0.119557 -0.110859 0)
(0.0384525 -0.0809376 0)
(-0.0427632 -0.0267025 0)
(-0.0751715 -0.00217434 0)
(-0.0878064 0.00532325 0)
(-0.0911648 0.00787578 0)
(-0.0909298 0.00942275 0)
(-0.0891527 0.0105042 0)
(-0.0872991 0.0106612 0)
(-0.086781 0.00974839 0)
(-0.0881048 0.00846721 0)
(-0.0908087 0.00752159 0)
(-0.0941184 0.00715781 0)
(-0.0974016 0.00710031 0)
(-0.100388 0.00700727 0)
(-0.103039 0.00662851 0)
(-0.105596 0.00591428 0)
(-0.108376 0.00509352 0)
(-0.111579 0.00458198 0)
(-0.115219 0.00488892 0)
(-0.1191 0.00655265 0)
(-0.122726 0.0100947 0)
(-0.1262 0.0163852 0)
(-0.129391 0.0263551 0)
(-0.132512 0.0406235 0)
(-0.136165 0.0586851 0)
(-0.140605 0.0774743 0)
(-0.142182 0.0879775 0)
(-0.124607 0.0694418 0)
(-0.0816128 -0.0204734 0)
(-0.27495 -0.201894 0)
(0.299412 0.475559 0)
(0.0151448 0.273756 0)
(0.0703035 0.150169 0)
(0.0946957 0.0471575 0)
(0.098847 -0.0191585 0)
(0.07682 -0.0523858 0)
(0.0289693 -0.0586593 0)
(-0.043677 -0.0353054 0)
(-0.0912686 -0.0147287 0)
(-0.116689 -0.00419313 0)
(-0.12212 -0.00385111 0)
(-0.122542 -0.00547865 0)
(-0.121511 -0.00678847 0)
(-0.119755 -0.00745019 0)
(-0.117598 -0.00804385 0)
(-0.115547 -0.00935505 0)
(-0.114228 -0.0118138 0)
(-0.113963 -0.0152106 0)
(-0.114629 -0.0189459 0)
(-0.115838 -0.0223404 0)
(-0.117197 -0.0249233 0)
(-0.118467 -0.026459 0)
(-0.119574 -0.0268899 0)
(-0.120535 -0.0262381 0)
(-0.121348 -0.0245193 0)
(-0.121942 -0.0217221 0)
(-0.12217 -0.0177894 0)
(-0.121771 -0.0125775 0)
(-0.120236 -0.00580573 0)
(-0.116661 0.00299038 0)
(-0.109729 0.0145628 0)
(-0.0982102 0.0297445 0)
(-0.0816223 0.0483208 0)
(-0.0604787 0.0667236 0)
(-0.0372939 0.0786772 0)
(0.00158667 0.0659355 0)
(0.144837 -0.00561377 0)
(-0.205327 -0.111388 0)
(-0.719045 -0.696561 0)
(-0.857638 -0.166405 0)
(-0.559574 0.302896 0)
(-0.462692 0.12614 0)
(-0.233799 0.0304252 0)
(-0.148064 -0.0328359 0)
(-0.127393 -0.0355542 0)
(-0.133102 -0.0111707 0)
(-0.155245 0.0120684 0)
(-0.168405 0.0280955 0)
(-0.170062 0.0364724 0)
(-0.165174 0.0408969 0)
(-0.158941 0.0431086 0)
(-0.15342 0.0451119 0)
(-0.148582 0.0477029 0)
(-0.143771 0.0510371 0)
(-0.138525 0.0551742 0)
(-0.13283 0.0600866 0)
(-0.127025 0.065581 0)
(-0.121524 0.0712396 0)
(-0.116626 0.0764191 0)
(-0.112473 0.0804086 0)
(-0.109104 0.0826757 0)
(-0.106499 0.0829984 0)
(-0.104624 0.0814103 0)
(-0.10343 0.0780888 0)
(-0.102814 0.073319 0)
(-0.102554 0.0675272 0)
(-0.102238 0.0612994 0)
(-0.101177 0.0553426 0)
(-0.0982393 0.0504153 0)
(-0.0916144 0.0472871 0)
(-0.0789086 0.0468002 0)
(-0.0583022 0.0499004 0)
(-0.0303177 0.0571323 0)
(0.0155086 0.0680012 0)
(0.0576379 0.0695526 0)
(0.0986074 0.0563716 0)
(0.163313 0.0291111 0)
(-0.229316 -0.0216834 0)
)
;

boundaryField
{
    floor
    {
        type            noSlip;
    }
    ceiling
    {
        type            noSlip;
    }
    sWall
    {
        type            noSlip;
    }
    nWall
    {
        type            noSlip;
    }
    sideWalls
    {
        type            empty;
    }
    glass1
    {
        type            noSlip;
    }
    glass2
    {
        type            noSlip;
    }
    sun
    {
        type            noSlip;
    }
    Table_master
    {
        type            noSlip;
    }
    Table_slave
    {
        type            noSlip;
    }
    inlet
    {
        type            fixedValue;
        value           uniform (0.7 0 0);
    }
    outlet
    {
        type            zeroGradient;
    }
}


// ************************************************************************* //
