/*--------------------------------*- C++ -*----------------------------------*\
  =========                 |
  \\      /  F ield         | OpenFOAM: The Open Source CFD Toolbox
   \\    /   O peration     | Website:  https://openfoam.org
    \\  /    A nd           | Version:  6
     \\/     M anipulation  |
\*---------------------------------------------------------------------------*/
FoamFile
{
    version     2.0;
    format      ascii;
    class       volScalarField;
    location    "1100";
    object      epsilon;
}
// * * * * * * * * * * * * * * * * * * * * * * * * * * * * * * * * * * * * * //

dimensions      [0 2 -3 0 0 0 0];

internalField   nonuniform List<scalar> 
458
(
0.000371496
0.00047968
0.000509735
0.000585948
0.000662702
0.000741063
0.00082505
0.000913613
0.000984764
0.00102259
0.00101102
0.000940286
0.000810298
0.000625946
0.000382793
2.74576e-05
4.86052e-05
7.62627e-05
8.75746e-05
8.50344e-05
7.06247e-05
5.62998e-05
4.51116e-05
3.66438e-05
3.01723e-05
2.51606e-05
2.12515e-05
1.81242e-05
1.55359e-05
1.32912e-05
1.12024e-05
9.4355e-06
6.78469e-06
0.000925617
0.00136398
0.00044617
0.000431494
0.000447425
0.000477791
0.000527153
0.000596346
0.000667021
0.000717126
0.000726832
0.000687799
0.000606351
0.00049991
0.000403592
0.000579572
0.000303497
0.000145297
2.86258e-05
6.62519e-05
7.94526e-05
7.99043e-05
7.67901e-05
7.76833e-05
6.13682e-05
4.68809e-05
3.59814e-05
2.79422e-05
2.20052e-05
1.76033e-05
1.42892e-05
1.18209e-05
1.02973e-05
9.59067e-06
1.59596e-05
1.21281e-05
0.00167936
0.00334208
0.000533621
0.000400156
0.000411826
0.000455326
0.000525485
0.000619554
0.000712374
0.000774268
0.000788155
0.000750107
0.000668264
0.00055721
0.000441465
0.000363906
0.000295555
0.000334073
0.000156483
0.000134409
0.000116757
0.000101341
9.37252e-05
0.000183486
0.000121142
8.21722e-05
5.78093e-05
4.22001e-05
3.18913e-05
2.49108e-05
2.01062e-05
1.68712e-05
1.3259e-05
1.12135e-05
2.49404e-05
1.73805e-05
0.00271655
0.00695906
0.00082015
0.000391657
0.000388838
0.000447179
0.00054674
0.0006838
0.000800257
0.000864206
0.000871919
0.000825651
0.000733071
0.000609411
0.000489793
0.000396223
0.000336086
0.000328665
0.000570841
0.000339424
0.00022143
0.000161104
0.000126708
0.000111894
0.000262071
0.00019692
0.000159666
0.00013599
0.000118831
0.000104134
9.0659e-05
7.81055e-05
6.51706e-05
4.01553e-05
2.50501e-05
3.75953e-05
2.54254e-05
0.00414813
0.0125148
0.00159494
0.00043494
0.000372384
0.000445727
0.000615464
0.000835672
0.00096734
0.00101611
0.00100236
0.000933098
0.000816734
0.000670633
0.000523247
0.000400771
0.000314833
0.000271775
0.000255585
0.000218562
0.00018413
0.000155509
0.000130864
0.000110413
0.000103654
9.43248e-05
8.72359e-05
8.14037e-05
7.57515e-05
6.94337e-05
6.23053e-05
5.52254e-05
4.8628e-05
3.99633e-05
3.08695e-05
3.28971e-05
3.5758e-05
4.56305e-05
5.35527e-05
6.01869e-05
0.00615012
0.0187669
0.00360801
0.000752492
0.00046479
0.000510453
0.00088156
0.00115928
0.0012525
0.00125185
0.00119612
0.00109123
0.000936415
0.000747753
0.000557513
0.00039918
0.000290477
0.000232479
0.000209063
0.000194674
0.000178059
0.000157603
0.00013526
0.000114023
9.93258e-05
9.17836e-05
8.8402e-05
8.62075e-05
8.36435e-05
7.95573e-05
7.28509e-05
6.34998e-05
5.41239e-05
4.53645e-05
3.79305e-05
3.41444e-05
3.4217e-05
4.90446e-05
0.000243418
0.000152448
0.00861997
0.0225961
0.00777089
0.0025301
0.00145228
0.00129156
0.00167173
0.00176102
0.00170548
0.00159856
0.00146673
0.00129891
0.00108348
0.000836239
0.000594615
0.000400564
0.000276092
0.000216964
0.000197963
0.000189349
0.000176628
0.000158287
0.000137707
0.000118968
0.000106584
0.000101716
0.000101179
0.000102227
0.000103743
0.000104875
0.000104063
9.75434e-05
8.69667e-05
7.72668e-05
7.1187e-05
7.03119e-05
7.59948e-05
0.000105071
0.000403877
0.000285241
0.00930181
0.026257
0.0138546
0.00830976
0.00544134
0.0041718
0.00332782
0.00274826
0.00234288
0.002048
0.00180026
0.00153965
0.00123632
0.00091181
0.000610706
0.000386179
0.000259272
0.00020865
0.000194957
0.000187158
0.000174577
0.000158304
0.000142173
0.000129434
0.000122183
0.00012011
0.000121297
0.000124889
0.000131445
0.000141953
0.000156943
0.000175881
0.000190704
0.000208204
0.000244492
0.000322936
0.000477542
0.000712501
0.00281858
0.000645126
0.00872089
0.0151462
0.0119684
0.00896341
0.00673687
0.00521017
0.00413655
0.00338024
0.00285192
0.00246867
0.0021281
0.00175078
0.00131906
0.000898404
0.000542986
0.000329739
0.000245022
0.000214693
0.000203622
0.000195277
0.000185393
0.000175025
0.000166175
0.000159691
0.000155512
0.000152882
0.000151429
0.000152298
0.00015802
0.000171614
0.00019577
0.000232793
0.000285476
0.000358838
0.000466168
0.00061885
0.000813498
0.00102502
0.00122516
0.000600505
0.00424951
0.00547719
0.00525911
0.00469407
0.00405105
0.0034928
0.00306515
0.00268669
0.00222672
0.00166191
0.00103369
0.000601349
0.000396402
0.000309691
0.000279046
0.000269446
0.000266446
0.000264214
0.000261575
0.000259701
0.000259652
0.000258088
0.0002527
0.000241868
0.000225676
0.000206652
0.000189641
0.000180723
0.00018578
0.000207886
0.000248433
0.000310849
0.000399954
0.000516874
0.000646149
0.000742889
0.000743031
0.000390022
0.00274105
0.00534643
0.00508067
0.0042533
0.00364528
0.00332198
0.00310713
0.00272189
0.00208622
0.00143402
0.000939937
0.000661848
0.000538391
0.000496044
0.000492035
0.000504884
0.000525609
0.000549588
0.000574302
0.000597566
0.0006163
0.00062828
0.000628802
0.000613522
0.000580106
0.000530397
0.000471222
0.000412489
0.000363365
0.000331133
0.000321613
0.000336572
0.000375884
0.000433036
0.000494462
0.000563162
0.000444015
0.000439845
0.00178714
0.00209273
0.00234782
0.00269911
0.00200443
0.00141361
0.0012308
0.00123377
0.00121434
0.00112833
0.000971093
0.000809624
0.000657053
0.000547568
0.000484245
0.000450309
0.000432257
0.000421747
0.000414032
0.000406969
0.000399676
0.00039149
0.000381654
0.000368652
0.000351835
0.000331503
0.000309244
0.000287798
0.000270327
0.000259478
0.000256956
0.000263292
0.000278205
0.000302075
0.000334527
0.000371003
0.000391204
0.000319013
0.000284024
0.000543613
)
;

boundaryField
{
    floor
    {
        Cmu             0.09;
        kappa           0.41;
        E               9.8;
        type            epsilonWallFunction;
        value           nonuniform List<scalar> 
36
(
0.000382793
2.74576e-05
4.86052e-05
7.62627e-05
8.75746e-05
8.50344e-05
7.06247e-05
5.62998e-05
4.51116e-05
3.66438e-05
3.01723e-05
2.51606e-05
2.12515e-05
1.81242e-05
1.55359e-05
1.32912e-05
1.12024e-05
9.4355e-06
6.78469e-06
6.78469e-06
1.21281e-05
1.73805e-05
2.54254e-05
4.56305e-05
5.35527e-05
6.01869e-05
0.000382793
0.000579572
0.000303497
0.000145297
2.74576e-05
0.000145297
2.86258e-05
0.000334073
0.000156483
0.000570841
)
;
    }
    ceiling
    {
        Cmu             0.09;
        kappa           0.41;
        E               9.8;
        type            epsilonWallFunction;
        value           nonuniform List<scalar> 
43
(
0.00178714
0.00209273
0.00234782
0.00269911
0.00200443
0.00141361
0.0012308
0.00123377
0.00121434
0.00112833
0.000971093
0.000809624
0.000657053
0.000547568
0.000484245
0.000450309
0.000432257
0.000421747
0.000414032
0.000406969
0.000399676
0.00039149
0.000381654
0.000368652
0.000351835
0.000331503
0.000309244
0.000287798
0.000270327
0.000259478
0.000256956
0.000263292
0.000278205
0.000302075
0.000334527
0.000371003
0.000391204
0.000319013
0.000284024
0.000543613
0.00872089
0.0151462
0.00274105
)
;
    }
    sWall
    {
        Cmu             0.09;
        kappa           0.41;
        E               9.8;
        type            epsilonWallFunction;
        value           uniform 0.00178714;
    }
    nWall
    {
        Cmu             0.09;
        kappa           0.41;
        E               9.8;
        type            epsilonWallFunction;
        value           nonuniform List<scalar> 6(6.01869e-05 0.000152448 0.000285241 0.000390022 0.000439845 0.000543613);
    }
    sideWalls
    {
        type            empty;
    }
    glass1
    {
        Cmu             0.09;
        kappa           0.41;
        E               9.8;
        type            epsilonWallFunction;
        value           nonuniform List<scalar> 9(0.000371496 0.000925617 0.00167936 0.00271655 0.00414813 0.00615012 0.00861997 0.00930181 0.00872089);
    }
    glass2
    {
        Cmu             0.09;
        kappa           0.41;
        E               9.8;
        type            epsilonWallFunction;
        value           nonuniform List<scalar> 2(0.000645126 0.000600505);
    }
    sun
    {
        Cmu             0.09;
        kappa           0.41;
        E               9.8;
        type            epsilonWallFunction;
        value           nonuniform List<scalar> 
14
(
0.000371496
0.00047968
0.000509735
0.000585948
0.000662702
0.000741063
0.00082505
0.000913613
0.000984764
0.00102259
0.00101102
0.000940286
0.000810298
0.000625946
)
;
    }
    Table_master
    {
        Cmu             0.09;
        kappa           0.41;
        E               9.8;
        type            epsilonWallFunction;
        value           nonuniform List<scalar> 9(0.000183486 0.000121142 8.21722e-05 5.78093e-05 4.22001e-05 3.18913e-05 2.49108e-05 2.01062e-05 1.68712e-05);
    }
    Table_slave
    {
        Cmu             0.09;
        kappa           0.41;
        E               9.8;
        type            epsilonWallFunction;
        value           nonuniform List<scalar> 9(0.000262071 0.00019692 0.000159666 0.00013599 0.000118831 0.000104134 9.0659e-05 7.81055e-05 6.51706e-05);
    }
    inlet
    {
        type            turbulentMixingLengthDissipationRateInlet;
        mixingLength    0.01;
        phi             phi;
        k               k;
        value           uniform 0.000101881;
    }
    outlet
    {
        type            zeroGradient;
    }
}


// ************************************************************************* //
