/*--------------------------------*- C++ -*----------------------------------*\
  =========                 |
  \\      /  F ield         | OpenFOAM: The Open Source CFD Toolbox
   \\    /   O peration     | Website:  https://openfoam.org
    \\  /    A nd           | Version:  6
     \\/     M anipulation  |
\*---------------------------------------------------------------------------*/
FoamFile
{
    version     2.0;
    format      ascii;
    class       volScalarField;
    location    "1100";
    object      T;
}
// * * * * * * * * * * * * * * * * * * * * * * * * * * * * * * * * * * * * * //

dimensions      [0 0 0 1 0 0 0];

internalField   nonuniform List<scalar> 
458
(
304.337
304.098
304.087
304.084
304.081
304.077
304.073
304.068
304.06
304.049
304.037
304.027
304.021
304.021
304.03
304.118
304.104
304.099
304.103
304.108
304.111
304.115
304.118
304.121
304.125
304.128
304.131
304.134
304.138
304.141
304.145
304.15
304.163
304.501
304.138
304.12
304.123
304.127
304.128
304.126
304.12
304.104
304.079
304.052
304.029
304.015
304.011
304.013
304.018
304.024
304.037
304.118
304.088
304.087
304.094
304.101
304.104
304.106
304.108
304.11
304.112
304.114
304.116
304.118
304.121
304.124
304.129
304.136
304.154
304.671
304.185
304.155
304.168
304.183
304.194
304.199
304.193
304.168
304.124
304.074
304.034
304.011
304.004
304.008
304.013
304.018
304.029
304.08
304.075
304.081
304.094
304.107
304.108
304.11
304.111
304.112
304.114
304.115
304.117
304.118
304.12
304.123
304.127
304.132
304.15
304.844
304.241
304.189
304.211
304.241
304.269
304.288
304.286
304.246
304.175
304.096
304.036
304.005
303.998
304.004
304.012
304.018
304.025
304.031
304.043
304.062
304.084
304.106
304.126
304.143
304.155
304.165
304.175
304.183
304.189
304.194
304.198
304.2
304.182
304.163
304.148
304.151
305.013
304.31
304.224
304.244
304.287
304.335
304.375
304.376
304.317
304.216
304.109
304.033
303.997
303.991
304.001
304.015
304.027
304.035
304.047
304.065
304.088
304.113
304.138
304.161
304.181
304.196
304.209
304.219
304.227
304.232
304.234
304.233
304.229
304.215
304.194
304.17
304.158
304.161
304.166
304.21
305.165
304.397
304.276
304.274
304.315
304.37
304.442
304.438
304.353
304.227
304.105
304.02
303.982
303.982
304.002
304.026
304.046
304.062
304.08
304.103
304.128
304.154
304.18
304.202
304.221
304.236
304.247
304.256
304.262
304.265
304.265
304.26
304.252
304.239
304.22
304.196
304.179
304.175
304.178
304.214
305.299
304.538
304.403
304.368
304.385
304.431
304.493
304.462
304.347
304.196
304.063
303.981
303.956
303.973
304.009
304.048
304.079
304.104
304.127
304.152
304.178
304.203
304.226
304.246
304.261
304.273
304.281
304.286
304.289
304.29
304.288
304.281
304.271
304.258
304.241
304.221
304.203
304.196
304.194
304.217
305.498
304.922
304.762
304.657
304.612
304.627
304.588
304.456
304.268
304.087
303.962
303.911
303.923
303.973
304.036
304.091
304.131
304.16
304.184
304.207
304.23
304.252
304.27
304.284
304.294
304.301
304.305
304.307
304.307
304.305
304.301
304.296
304.286
304.273
304.26
304.246
304.235
304.231
304.231
304.317
305.778
305.511
305.282
305.083
304.934
304.805
304.553
304.251
303.993
303.836
303.789
303.825
303.912
304.01
304.098
304.159
304.195
304.22
304.24
304.259
304.276
304.291
304.303
304.311
304.317
304.319
304.32
304.319
304.317
304.314
304.311
304.308
304.306
304.305
304.308
304.316
304.331
304.35
304.368
304.415
299.622
301.397
302.302
302.561
302.74
302.933
303.151
303.393
303.627
303.829
304.005
304.121
304.188
304.227
304.251
304.269
304.285
304.298
304.309
304.317
304.323
304.326
304.328
304.329
304.329
304.328
304.327
304.326
304.326
304.325
304.326
304.328
304.332
304.34
304.351
304.366
304.383
304.413
299.83
301.409
301.968
302.324
302.675
303.022
303.35
303.671
303.902
304.053
304.153
304.214
304.25
304.273
304.288
304.3
304.31
304.317
304.323
304.327
304.33
304.332
304.333
304.334
304.335
304.336
304.336
304.336
304.336
304.337
304.337
304.339
304.342
304.347
304.354
304.365
304.375
304.396
301.152
301.085
301.082
302.317
302.933
303.376
303.655
303.837
303.981
304.09
304.165
304.213
304.246
304.268
304.282
304.292
304.298
304.303
304.307
304.309
304.311
304.313
304.314
304.315
304.317
304.318
304.32
304.321
304.323
304.325
304.328
304.33
304.332
304.335
304.338
304.341
304.347
304.351
304.375
304.473
)
;

boundaryField
{
    floor
    {
        type            wallHeatTransfer;
        Tinf            uniform 305.2;
        alphaWall       uniform 0.24;
        value           nonuniform List<scalar> 
36
(
304.158
304.338
304.3
304.277
304.275
304.28
304.291
304.303
304.315
304.327
304.339
304.35
304.361
304.371
304.381
304.391
304.403
304.416
304.442
304.442
304.406
304.385
304.368
304.35
304.348
304.379
304.158
304.135
304.161
304.199
304.338
304.199
304.336
304.162
304.234
304.147
)
;
    }
    ceiling
    {
        type            wallHeatTransfer;
        Tinf            uniform 303.2;
        alphaWall       uniform 0.24;
        value           nonuniform List<scalar> 
43
(
301.302
301.234
301.227
302.375
302.952
303.362
303.618
303.786
303.917
304.016
304.082
304.121
304.146
304.161
304.17
304.177
304.181
304.185
304.188
304.189
304.191
304.191
304.192
304.192
304.191
304.191
304.19
304.189
304.189
304.189
304.191
304.194
304.198
304.203
304.208
304.215
304.222
304.218
304.236
304.345
305.654
305.416
300.05
)
;
    }
    sWall
    {
        type            wallHeatTransfer;
        Tinf            uniform 315.2;
        alphaWall       uniform 0.36;
        value           uniform 302.646;
    }
    nWall
    {
        type            wallHeatTransfer;
        Tinf            uniform 307.2;
        alphaWall       uniform 0.36;
        value           nonuniform List<scalar> 6(304.917 304.792 304.717 304.847 304.82 304.865);
    }
    sideWalls
    {
        type            empty;
    }
    glass1
    {
        type            wallHeatTransfer;
        Tinf            uniform 315.2;
        alphaWall       uniform 4.3;
        value           nonuniform List<scalar> 9(311.886 311.32 310.957 310.676 310.44 310.225 310.048 310.098 310.291);
    }
    glass2
    {
        type            wallHeatTransfer;
        Tinf            uniform 307.2;
        alphaWall       uniform 4.3;
        value           nonuniform List<scalar> 2(306.212 306.259);
    }
    sun
    {
        type            wallHeatTransfer;
        Tinf            uniform 305.2;
        alphaWall       uniform 0.24;
        value           nonuniform List<scalar> 
14
(
304.433
304.212
304.2
304.194
304.188
304.181
304.175
304.168
304.159
304.147
304.137
304.129
304.128
304.135
)
;
    }
    Table_master
    {
        type            zeroGradient;
    }
    Table_slave
    {
        type            zeroGradient;
    }
    inlet
    {
        type            fixedValue;
        value           uniform 296.15;
    }
    outlet
    {
        type            zeroGradient;
    }
}


// ************************************************************************* //
