/*--------------------------------*- C++ -*----------------------------------*\
  =========                 |
  \\      /  F ield         | OpenFOAM: The Open Source CFD Toolbox
   \\    /   O peration     | Website:  https://openfoam.org
    \\  /    A nd           | Version:  6
     \\/     M anipulation  |
\*---------------------------------------------------------------------------*/
FoamFile
{
    version     2.0;
    format      ascii;
    class       volVectorField;
    location    "1100";
    object      U;
}
// * * * * * * * * * * * * * * * * * * * * * * * * * * * * * * * * * * * * * //

dimensions      [0 1 -1 0 0 0 0];

internalField   nonuniform List<vector> 
458
(
(0.032763 0.0829467 0)
(-0.161377 0.0247604 0)
(-0.186069 0.0176125 0)
(-0.216892 0.012049 0)
(-0.239473 0.00589897 0)
(-0.252663 -0.000703201 0)
(-0.25467 -0.00786588 0)
(-0.243908 -0.0156829 0)
(-0.220649 -0.0235594 0)
(-0.186524 -0.0300974 0)
(-0.145262 -0.0340241 0)
(-0.101668 -0.0344831 0)
(-0.0606842 -0.0310209 0)
(-0.0272118 -0.0230734 0)
(-0.0115699 -0.00863094 0)
(-0.010316 0.00752787 0)
(-0.024055 -0.0137081 0)
(-0.0048033 -0.0239577 0)
(0.018182 -0.0208417 0)
(0.0355625 -0.015286 0)
(0.0484047 -0.0083637 0)
(0.0559205 -0.00461564 0)
(0.0591585 -0.00327324 0)
(0.060332 -0.00279183 0)
(0.0608549 -0.00249931 0)
(0.0610663 -0.00226083 0)
(0.0609035 -0.00198386 0)
(0.0601752 -0.00150405 0)
(0.0583668 -0.000459226 0)
(0.054369 0.00165379 0)
(0.0468944 0.00431298 0)
(0.0371101 0.00735192 0)
(-0.000858698 0.0181625 0)
(0.201514 0.170174 0)
(-0.151757 0.0656681 0)
(-0.151176 0.0525988 0)
(-0.183372 0.0412366 0)
(-0.20598 0.028257 0)
(-0.219614 0.0134597 0)
(-0.222479 -0.00359983 0)
(-0.212806 -0.0225756 0)
(-0.191467 -0.0409597 0)
(-0.160547 -0.0554054 0)
(-0.123957 -0.0634259 0)
(-0.0861291 -0.063929 0)
(-0.0509427 -0.0571369 0)
(-0.0212191 -0.0438368 0)
(0.0017707 -0.0255298 0)
(0.021812 -0.00575071 0)
(0.0336061 0.0189907 0)
(-0.011004 0.0467868 0)
(0.0364616 0.0302343 0)
(0.0186953 -0.0191356 0)
(0.0288282 -0.0312866 0)
(0.0410082 -0.0299134 0)
(0.0519817 -0.0234964 0)
(0.0578986 -0.0103446 0)
(0.0593352 -0.00221597 0)
(0.0592714 0.000846007 0)
(0.0593526 0.00196291 0)
(0.0596245 0.00259666 0)
(0.0598252 0.00308457 0)
(0.059864 0.00356082 0)
(0.0597389 0.00438154 0)
(0.059002 0.00635286 0)
(0.055638 0.0116511 0)
(0.0471725 0.01693 0)
(0.0384545 0.022122 0)
(-0.0254652 0.0392007 0)
(0.35685 0.255057 0)
(-0.168741 0.104872 0)
(-0.1143 0.0854272 0)
(-0.14614 0.0650519 0)
(-0.166647 0.0435516 0)
(-0.179799 0.0194215 0)
(-0.182912 -0.00838239 0)
(-0.173011 -0.0388348 0)
(-0.152187 -0.0674862 0)
(-0.123534 -0.0886639 0)
(-0.0912643 -0.0990543 0)
(-0.0593872 -0.0978905 0)
(-0.0305871 -0.0865507 0)
(-0.00643338 -0.0670286 0)
(0.0125529 -0.0426675 0)
(0.0256294 -0.0195765 0)
(0.031027 0.00614368 0)
(-0.00517109 0.0441959 0)
(0.082696 -0.0185811 0)
(0.0590229 -0.0340517 0)
(0.0574555 -0.038786 0)
(0.0613192 -0.0372167 0)
(0.0660354 -0.0340677 0)
(0.0682958 -0.0252346 0)
(0.0604287 -0.0163598 0)
(0.0542637 -0.0116672 0)
(0.0519884 -0.00910858 0)
(0.0514433 -0.00748341 0)
(0.0513185 -0.00637845 0)
(0.0515104 -0.00547306 0)
(0.0524649 -0.00433688 0)
(0.0552022 -0.000915807 0)
(0.0549874 0.0151735 0)
(0.0459655 0.0270787 0)
(0.0422148 0.0378817 0)
(-0.045776 0.0632228 0)
(0.497786 0.323594 0)
(-0.203146 0.139712 0)
(-0.0745249 0.113789 0)
(-0.105702 0.0858717 0)
(-0.121095 0.0584061 0)
(-0.131758 0.0268897 0)
(-0.133209 -0.0113805 0)
(-0.120809 -0.0540204 0)
(-0.0997702 -0.0924662 0)
(-0.0742442 -0.118839 0)
(-0.0479021 -0.130119 0)
(-0.0238382 -0.12654 0)
(-0.00294464 -0.110753 0)
(0.0142227 -0.0859354 0)
(0.027635 -0.0576249 0)
(0.0388782 -0.0283524 0)
(0.051797 0.00171923 0)
(0.0602381 0.0330164 0)
(0.0935161 0.0285038 0)
(0.0939851 -0.0124669 0)
(0.0813426 -0.0294637 0)
(0.0730561 -0.0343965 0)
(0.0670631 -0.034074 0)
(0.0603616 -0.0302248 0)
(0.0589609 -0.0180894 0)
(0.0679553 -0.0119354 0)
(0.0756535 -0.00879423 0)
(0.0803896 -0.00700594 0)
(0.0835926 -0.0056261 0)
(0.0856756 -0.00414873 0)
(0.0856692 -0.0021418 0)
(0.0819103 0.000919298 0)
(0.0726595 0.00552877 0)
(0.0604223 0.0224101 0)
(0.0501612 0.0384823 0)
(0.0521866 0.0550303 0)
(-0.0483642 0.0905282 0)
(0.621019 0.376786 0)
(-0.24556 0.168169 0)
(-0.03396 0.130811 0)
(-0.0629606 0.0984612 0)
(-0.0704923 0.0677776 0)
(-0.0761765 0.0317066 0)
(-0.0714794 -0.0154946 0)
(-0.0537617 -0.0700798 0)
(-0.0336393 -0.115175 0)
(-0.0139151 -0.143013 0)
(0.00370808 -0.152352 0)
(0.0174296 -0.1448 0)
(0.0278807 -0.125454 0)
(0.0359548 -0.0984515 0)
(0.0425897 -0.0680929 0)
(0.0490955 -0.0379749 0)
(0.058508 -0.0112001 0)
(0.0717152 0.00446823 0)
(0.0824265 -0.00727497 0)
(0.0815542 -0.0206608 0)
(0.0744321 -0.0265559 0)
(0.0660137 -0.0280998 0)
(0.058362 -0.0270342 0)
(0.0519226 -0.0226818 0)
(0.0499635 -0.0129277 0)
(0.0527883 -0.00743275 0)
(0.0563994 -0.00540902 0)
(0.0596005 -0.00453751 0)
(0.0626688 -0.00344994 0)
(0.0655259 -0.00127927 0)
(0.0677165 0.00267461 0)
(0.0679044 0.00871765 0)
(0.0656313 0.0173756 0)
(0.0617636 0.0311947 0)
(0.0576228 0.0468305 0)
(0.071923 0.0649813 0)
(0.0400683 0.0911404 0)
(0.0830246 0.0970375 0)
(0.113705 0.0998522 0)
(-0.199446 0.121237 0)
(0.712077 0.421194 0)
(-0.287669 0.187446 0)
(-0.00167587 0.129058 0)
(-0.0195097 0.101566 0)
(-0.0172616 0.0717152 0)
(-0.0167849 0.0336262 0)
(0.00477973 -0.0271847 0)
(0.0270715 -0.0898239 0)
(0.0425654 -0.133647 0)
(0.0530312 -0.15737 0)
(0.0585328 -0.162323 0)
(0.0598949 -0.151633 0)
(0.058481 -0.129711 0)
(0.0556385 -0.101206 0)
(0.0527402 -0.0705984 0)
(0.0512281 -0.0417835 0)
(0.0528849 -0.0183029 0)
(0.0580123 -0.00527313 0)
(0.0614175 -0.00654769 0)
(0.0591575 -0.0125769 0)
(0.0528789 -0.0175178 0)
(0.0454125 -0.0199505 0)
(0.038521 -0.0200644 0)
(0.0330512 -0.017689 0)
(0.0305328 -0.0129533 0)
(0.0312392 -0.0100076 0)
(0.0335072 -0.00903235 0)
(0.0364152 -0.00867535 0)
(0.0398175 -0.00785062 0)
(0.043651 -0.00561889 0)
(0.0478031 -0.000878858 0)
(0.0518935 0.00692512 0)
(0.0547828 0.0174128 0)
(0.0575439 0.030717 0)
(0.0607113 0.0453047 0)
(0.0744969 0.0611833 0)
(0.0745915 0.0680449 0)
(0.0828121 0.0359019 0)
(0.116254 0.0138086 0)
(-0.198972 0.0722594 0)
(0.761823 0.461249 0)
(-0.310399 0.173569 0)
(0.0241062 0.0839773 0)
(0.0347894 0.0842666 0)
(0.0451346 0.0638655 0)
(0.0576313 0.0176121 0)
(0.0947161 -0.0517673 0)
(0.115465 -0.10746 0)
(0.123134 -0.143489 0)
(0.121364 -0.160091 0)
(0.112502 -0.159415 0)
(0.0989607 -0.144951 0)
(0.0831637 -0.121008 0)
(0.0672938 -0.0922502 0)
(0.053148 -0.0629071 0)
(0.0423145 -0.0367075 0)
(0.0359439 -0.0167978 0)
(0.0337687 -0.00577539 0)
(0.0325255 -0.00442418 0)
(0.0293592 -0.00771055 0)
(0.0242205 -0.0114163 0)
(0.0183069 -0.0137908 0)
(0.0126984 -0.0146244 0)
(0.00822157 -0.013969 0)
(0.00588733 -0.0122782 0)
(0.00589396 -0.0113707 0)
(0.00733233 -0.0114688 0)
(0.00954 -0.0118393 0)
(0.0123891 -0.0117331 0)
(0.0160383 -0.0103274 0)
(0.0207702 -0.00640888 0)
(0.027867 0.00145451 0)
(0.0354432 0.0122566 0)
(0.0432397 0.0243626 0)
(0.0518631 0.0364817 0)
(0.0658621 0.0487987 0)
(0.0777466 0.0529963 0)
(0.0873337 0.0397153 0)
(0.138558 0.0476622 0)
(-0.124708 0.124682 0)
(0.864022 0.465271 0)
(-0.0775563 0.151923 0)
(0.0986802 0.0152766 0)
(0.152138 0.00361021 0)
(0.157386 -0.0108587 0)
(0.184934 -0.051682 0)
(0.210241 -0.0914395 0)
(0.21628 -0.122461 0)
(0.205707 -0.14121 0)
(0.183837 -0.146521 0)
(0.155096 -0.139168 0)
(0.123324 -0.121711 0)
(0.0915874 -0.097462 0)
(0.0624307 -0.0705202 0)
(0.0377052 -0.0446103 0)
(0.0192939 -0.0231823 0)
(0.00792136 -0.00878502 0)
(0.00254013 -0.00186382 0)
(-0.000194235 -0.00122501 0)
(-0.00313686 -0.00371945 0)
(-0.00711332 -0.00664773 0)
(-0.0116837 -0.00889744 0)
(-0.0161347 -0.0103453 0)
(-0.0197626 -0.0111194 0)
(-0.0219762 -0.0115688 0)
(-0.0227992 -0.0123034 0)
(-0.0227997 -0.0133465 0)
(-0.0224271 -0.0143922 0)
(-0.0218076 -0.0151069 0)
(-0.0207707 -0.0150772 0)
(-0.0188387 -0.0136585 0)
(-0.0148788 -0.00990608 0)
(-0.00461452 -0.00274073 0)
(0.00738968 0.00659257 0)
(0.0184628 0.0133659 0)
(0.0326729 0.0182982 0)
(0.046077 0.0165101 0)
(0.055146 0.00757229 0)
(0.132468 0.0654209 0)
(-0.416558 0.211621 0)
(1.00349 0.426785 0)
(0.485985 0.287154 0)
(0.488041 0.205343 0)
(0.482985 0.135744 0)
(0.448342 0.0829563 0)
(0.412199 0.0287142 0)
(0.368019 -0.0253017 0)
(0.319746 -0.0674878 0)
(0.267937 -0.092695 0)
(0.214365 -0.100933 0)
(0.161638 -0.0953472 0)
(0.112352 -0.0803582 0)
(0.0680543 -0.0596787 0)
(0.0306348 -0.0376996 0)
(0.00100366 -0.0181751 0)
(-0.017605 -0.00531248 0)
(-0.0270896 0.000751041 0)
(-0.0314071 0.00262963 0)
(-0.0334897 0.00184793 0)
(-0.0355659 -0.000159132 0)
(-0.0385202 -0.00234328 0)
(-0.0421411 -0.00433284 0)
(-0.0458991 -0.00610164 0)
(-0.0493014 -0.00765588 0)
(-0.0521017 -0.00908304 0)
(-0.0544317 -0.0105065 0)
(-0.0566996 -0.0118745 0)
(-0.0593589 -0.0130285 0)
(-0.0628689 -0.0137178 0)
(-0.0677171 -0.0134499 0)
(-0.0743961 -0.0113264 0)
(-0.0833229 -0.00609609 0)
(-0.0945242 0.00325979 0)
(-0.105733 0.0156877 0)
(-0.122333 0.0312909 0)
(-0.148324 0.0509123 0)
(-0.186386 0.0741607 0)
(-0.234876 0.0982654 0)
(-0.30513 0.116749 0)
(-0.568553 0.117559 0)
(-0.0694125 0.105742 0)
(0.163816 0.0942877 0)
(0.23657 0.0411789 0)
(0.225536 -0.00560362 0)
(0.210668 -0.034869 0)
(0.189682 -0.0517092 0)
(0.157882 -0.0589864 0)
(0.117885 -0.0572226 0)
(0.0750409 -0.0482094 0)
(0.0339188 -0.0344074 0)
(-0.00438245 -0.0168999 0)
(-0.0320988 -0.00262167 0)
(-0.048753 0.00515204 0)
(-0.0573463 0.00865371 0)
(-0.0609298 0.009827 0)
(-0.0625917 0.0100147 0)
(-0.0638059 0.00964013 0)
(-0.0654035 0.00908718 0)
(-0.0674868 0.00852261 0)
(-0.0700944 0.00790457 0)
(-0.0732195 0.0070374 0)
(-0.0766878 0.00632249 0)
(-0.0804389 0.0059243 0)
(-0.0844862 0.0059696 0)
(-0.0888868 0.006602 0)
(-0.0936983 0.00791256 0)
(-0.0989874 0.00986041 0)
(-0.104839 0.0122432 0)
(-0.111267 0.014727 0)
(-0.117701 0.0177843 0)
(-0.12277 0.0232975 0)
(-0.126741 0.0332086 0)
(-0.129609 0.0478614 0)
(-0.131009 0.0663157 0)
(-0.129066 0.0842776 0)
(-0.119817 0.0877198 0)
(-0.108388 0.0399385 0)
(-0.167808 -0.171819 0)
(-0.0166862 0.226206 0)
(0.0735277 0.113876 0)
(0.0717666 0.0334398 0)
(0.0668191 -0.00663832 0)
(0.0647403 -0.024364 0)
(0.0511296 -0.0337171 0)
(0.0270448 -0.0376575 0)
(-0.00431542 -0.035648 0)
(-0.0333801 -0.0313654 0)
(-0.0570187 -0.0273355 0)
(-0.0729299 -0.0259645 0)
(-0.0807012 -0.0274508 0)
(-0.0835641 -0.0302924 0)
(-0.0843095 -0.0337766 0)
(-0.0839877 -0.0373408 0)
(-0.0833812 -0.0407839 0)
(-0.08291 -0.0443465 0)
(-0.0828294 -0.0480682 0)
(-0.0832372 -0.0518196 0)
(-0.0842079 -0.0554385 0)
(-0.0858974 -0.0587817 0)
(-0.0885346 -0.0621677 0)
(-0.0921557 -0.0655648 0)
(-0.096723 -0.0687866 0)
(-0.10205 -0.0714248 0)
(-0.107737 -0.0728198 0)
(-0.113172 -0.0721113 0)
(-0.11762 -0.0683443 0)
(-0.120399 -0.060536 0)
(-0.120952 -0.0483533 0)
(-0.118387 -0.0325968 0)
(-0.111231 -0.0134403 0)
(-0.0979042 0.00847972 0)
(-0.0770765 0.0309167 0)
(-0.0487773 0.0469113 0)
(-0.00976913 0.0381313 0)
(0.126812 -0.0293695 0)
(-0.0526192 -0.0904405 0)
(-0.0739757 -0.323988 0)
(-0.40501 -0.0997266 0)
(-0.277441 0.127566 0)
(-0.186198 0.0338509 0)
(-0.127735 0.0134384 0)
(-0.106401 0.0320909 0)
(-0.102869 0.0520244 0)
(-0.108983 0.0651897 0)
(-0.118875 0.0776776 0)
(-0.126756 0.0892807 0)
(-0.130411 0.0995017 0)
(-0.129183 0.108206 0)
(-0.125206 0.117531 0)
(-0.119696 0.12646 0)
(-0.113992 0.134141 0)
(-0.108899 0.140753 0)
(-0.104651 0.146469 0)
(-0.101227 0.151612 0)
(-0.0985527 0.156505 0)
(-0.0966073 0.161239 0)
(-0.095376 0.165763 0)
(-0.0948058 0.170024 0)
(-0.0947623 0.174054 0)
(-0.095122 0.178268 0)
(-0.0957766 0.182717 0)
(-0.0966056 0.187197 0)
(-0.097484 0.191171 0)
(-0.0982815 0.193777 0)
(-0.0988539 0.193977 0)
(-0.0989748 0.190856 0)
(-0.0981092 0.183985 0)
(-0.0951048 0.174153 0)
(-0.0881025 0.163596 0)
(-0.0750393 0.154399 0)
(-0.0551365 0.148816 0)
(-0.0304988 0.148343 0)
(0.00497639 0.150602 0)
(0.0320797 0.148454 0)
(0.187422 0.113544 0)
(-0.517233 0.20375 0)
)
;

boundaryField
{
    floor
    {
        type            noSlip;
    }
    ceiling
    {
        type            noSlip;
    }
    sWall
    {
        type            noSlip;
    }
    nWall
    {
        type            noSlip;
    }
    sideWalls
    {
        type            empty;
    }
    glass1
    {
        type            noSlip;
    }
    glass2
    {
        type            noSlip;
    }
    sun
    {
        type            noSlip;
    }
    Table_master
    {
        type            noSlip;
    }
    Table_slave
    {
        type            noSlip;
    }
    inlet
    {
        type            fixedValue;
        value           uniform (0.3 0 0);
    }
    outlet
    {
        type            zeroGradient;
    }
}


// ************************************************************************* //
