/*--------------------------------*- C++ -*----------------------------------*\
  =========                 |
  \\      /  F ield         | OpenFOAM: The Open Source CFD Toolbox
   \\    /   O peration     | Website:  https://openfoam.org
    \\  /    A nd           | Version:  6
     \\/     M anipulation  |
\*---------------------------------------------------------------------------*/
FoamFile
{
    version     2.0;
    format      ascii;
    class       surfaceScalarField;
    location    "3000";
    object      phi;
}
// * * * * * * * * * * * * * * * * * * * * * * * * * * * * * * * * * * * * * //

dimensions      [1 0 -1 0 0 0 0];

internalField   nonuniform List<scalar> 
850
(
-0.0033613
0.00342863
-0.00467775
0.00131644
-0.00565377
0.00097601
-0.00633116
0.000677382
-0.00664979
0.000318617
-0.00654245
-0.000107353
-0.0059252
-0.000617268
-0.00474791
-0.0011773
-0.0030647
-0.00168323
-0.0010814
-0.00198331
0.000785491
-0.00186691
0.0018472
-0.00106173
0.00219673
-0.000349542
0.00174938
0.000447331
0.00175285
-0.00108242
0.00108755
-0.000715037
-0.000367404
0.000112949
-0.00082801
0.000847004
-0.00073408
0.00137274
-0.000525761
0.00165636
-0.000283641
0.00177717
-0.000120835
0.00183785
-6.07128e-05
0.00187337
-3.55393e-05
0.00189157
-1.82342e-05
0.0018967
-5.15304e-06
0.001889
7.67133e-06
0.00186007
2.88989e-05
0.00178561
7.44293e-05
0.00162423
0.000161356
0.00135947
0.000264722
0.00100225
0.000357191
0.00100884
-0.00245724
0.0060685
-0.00375314
0.00261232
-0.00479533
0.00201819
-0.00551896
0.00140099
-0.00589218
0.000691831
-0.00585651
-0.000143037
-0.00534802
-0.00112578
-0.00434194
-0.00218338
-0.00295399
-0.00307119
-0.00144002
-0.00349729
-4.55222e-05
-0.00326142
0.00101658
-0.00212384
0.0016262
-0.000959183
0.00200411
6.94053e-05
0.00287988
0.000877062
0.00216621
0.00071987
0.00139873
0.000774322
0.00141806
6.94196e-05
0.00103375
0.000539108
-0.000837116
0.000975088
-0.00126401
0.0013569
-0.00111591
0.00164872
-0.000817601
0.00171466
-0.000349605
0.00172486
-0.000131064
0.00173636
-7.22373e-05
0.00174592
-4.51262e-05
0.00175156
-2.39079e-05
0.00175414
-7.75481e-06
0.00175331
8.47438e-06
0.0017453
3.68797e-05
0.0016993
0.000120392
0.0015069
0.000353727
0.00118115
0.000590442
0.000783123
0.000755185
0.00180912
-0.00175767
0.00810717
-0.00289249
0.00374713
-0.0038852
0.00301088
-0.0045855
0.00210128
-0.00499058
0.0010969
-0.00503482
-9.88158e-05
-0.00463056
-0.00153004
-0.00376914
-0.00304482
-0.00260564
-0.00423471
-0.00139285
-0.0047101
-0.000336747
-0.00431754
0.000540073
-0.00300068
0.00115107
-0.0015702
0.00161025
-0.000389797
0.00195819
0.00052911
0.00172614
0.000951901
0.00113772
0.00136273
0.00257408
0.00161438
-0.000559788
0.00182062
-0.00104337
0.00176811
-0.00121152
0.00182577
-0.0011736
0.00204896
-0.00104082
0.00169948
0.00156855
0.00149644
0.00145145
0.00142767
0.00142004
0.00142864
0.00146564
0.00158616
0.00129176
0.000648098
0.000953252
0.000928918
0.000569206
0.0011392
0.0024042
-0.00122803
0.00970121
-0.00212776
0.00464685
-0.00289585
0.00377895
-0.00347018
0.00267559
-0.00385405
0.00148076
-0.00395372
8.41394e-07
-0.00362623
-0.00185755
-0.00289764
-0.00377342
-0.00196772
-0.00516464
-0.00105804
-0.00561979
-0.000289601
-0.005086
0.000353345
-0.00364365
0.00083039
-0.00204726
0.00116929
-0.000728717
0.00143229
0.000266093
0.00151017
0.000874004
0.00154244
0.00133044
0.00259739
0.00151912
0.00221371
0.000404296
0.00207645
-0.000422547
0.00202415
-0.00099109
0.00193709
-0.00112448
0.00182224
-0.00105877
0.00160822
-0.000826813
0.00197173
-0.00036369
0.00214401
-0.000172467
0.00224752
-0.000103696
0.00230441
-5.70635e-05
0.00230404
1.78613e-07
0.0022299
7.39625e-05
0.00206143
0.000168278
0.00176594
0.000295303
0.00128061
0.000485143
0.00107874
0.000849937
0.000735976
0.00127165
0.000258131
0.00161701
0.00269572
-0.000817831
0.0109584
-0.00146705
0.00529606
-0.0018141
0.00412599
-0.00213846
0.00299994
-0.00240312
0.0017454
-0.00249723
9.49328e-05
-0.00219796
-0.00215683
-0.00162003
-0.00435136
-0.000985031
-0.00579965
-0.000432234
-0.00617259
2.54729e-06
-0.00552079
0.000373778
-0.0040149
0.000641575
-0.00231508
0.000833975
-0.000921139
0.00104707
5.2978e-05
0.00127924
0.000641809
0.00163081
0.000978845
0.00215891
0.000991004
0.00223043
0.000332753
0.00218475
-0.000376884
0.00197062
-0.000776982
0.00174157
-0.000895455
0.00152584
-0.00084307
0.00136631
-0.000667309
0.00141034
-0.000407746
0.00147531
-0.000237467
0.00152919
-0.000157612
0.00157488
-0.000102786
0.00160339
-2.83663e-05
0.00159552
8.17974e-05
0.00153281
0.000230963
0.00140507
0.000423007
0.00122242
0.000667754
0.00106278
0.00100954
0.000903327
0.00143107
0.000510879
0.00200942
0.000798041
0.00240852
-0.00151625
0.00234355
-0.00215876
0.000670058
-0.00206764
-0.000640376
0.0121007
-0.00100956
0.00566523
-0.000705217
0.00382163
-0.000673752
0.00296846
-0.000772314
0.00184395
-0.00070803
3.06323e-05
-0.000343614
-0.00252126
3.87625e-05
-0.00473374
0.000303643
-0.00606454
0.000440849
-0.00630981
0.000480349
-0.00556031
0.000501794
-0.00403637
0.000476066
-0.00228938
0.000465205
-0.000910301
0.000568275
-5.01146e-05
0.000781828
0.000428234
0.00110544
0.000655212
0.00150241
0.000594011
0.00167036
0.000164787
0.0015725
-0.000279054
0.00134692
-0.000551419
0.00109953
-0.000648097
0.00087655
-0.000620116
0.000719266
-0.000510056
0.000676723
-0.000365236
0.000706479
-0.000267257
0.00076859
-0.000219758
0.000849071
-0.000183303
0.0009409
-0.000120231
0.00102265
1.52023e-08
0.00107472
0.000178852
0.00110362
0.000394066
0.00111994
0.000651403
0.00116952
0.000959923
0.0013191
0.00128146
0.00159132
0.00173717
0.00206238
0.00193743
0.00248747
0.00191842
0.0019683
0.00118918
-2.12143e-05
-0.000738942
0.0133962
-0.000482515
0.00540879
0.000681595
0.0026575
0.000981761
0.00266827
0.00113366
0.00169203
0.001522
-0.000357735
0.00188837
-0.00288764
0.00199525
-0.00484063
0.00183014
-0.00589943
0.00148087
-0.00596055
0.00104226
-0.00512172
0.000610678
-0.00360481
0.000216654
-0.00189538
-1.22351e-05
-0.00068144
-1.75026e-05
-4.48729e-05
0.000142012
0.000268695
0.00040359
0.00039361
0.000671987
0.00032559
0.000761694
7.50551e-05
0.000664757
-0.000182144
0.000468685
-0.000355376
0.000246593
-0.000426038
4.79252e-05
-0.000421481
-8.71359e-05
-0.00037503
-0.000131448
-0.000320961
-0.000106239
-0.000292502
-4.02605e-05
-0.000285775
5.48757e-05
-0.000278478
0.000180144
-0.000245539
0.000340506
-0.000160385
0.000512907
6.41183e-06
0.00068458
0.000222355
0.000875403
0.000460542
0.00111589
0.000719399
0.00144616
0.000951151
0.001936
0.00124729
0.00259839
0.001275
0.00355965
0.000957126
0.00386991
0.000878881
0.00392995
0.0032206
0.0107958
0.00400868
0.0046207
0.00376054
0.00290562
0.00360487
0.00282393
0.00387274
0.00142414
0.00438461
-0.000869627
0.00450363
-0.00300667
0.00416514
-0.00450214
0.00343804
-0.00517234
0.00246924
-0.00499176
0.00143356
-0.00408607
0.000472105
-0.00264339
-0.000264965
-0.00115835
-0.00060909
-0.000337346
-0.000671543
1.75502e-05
-0.000580144
0.000177268
-0.000416652
0.000230089
-0.000273638
0.000182547
-0.000249576
5.09626e-05
-0.000341651
-9.01018e-05
-0.000501671
-0.00019539
-0.000676259
-0.000251485
-0.000825492
-0.000272286
-0.000924366
-0.000276195
-0.000965865
-0.000279502
-0.000965826
-0.000292582
-0.000940944
-0.000310697
-0.000896836
-0.000322627
-0.000826023
-0.000316393
-0.00070773
-0.000278719
-0.000509185
-0.000192174
-0.000255589
-3.12815e-05
3.05767e-05
0.000174337
0.000356598
0.000393338
0.000699249
0.000608462
0.00111321
0.00083329
0.00154632
0.00084186
0.00185183
0.000651575
0.000856906
0.00187377
0.00514064
0.0114893
0.0161146
0.0130542
0.00596601
0.0113132
0.00456488
0.0101941
0.00254321
0.00905689
0.000267588
0.00770714
-0.00165693
0.00620929
-0.00300429
0.00457657
-0.00353961
0.00284339
-0.00325859
0.00118136
-0.00242406
-0.000221379
-0.00124069
-0.00102501
-0.000354753
-0.00133114
-3.12453e-05
-0.00140289
8.92668e-05
-0.00136365
0.000137992
-0.00128663
0.000153035
-0.00123132
0.000127206
-0.00124257
6.21716e-05
-0.00131788
-1.4821e-05
-0.0014308
-8.25109e-05
-0.00155047
-0.000131854
-0.00165633
-0.000166473
-0.00174118
-0.000191388
-0.00180985
-0.000210871
-0.00187616
-0.00022631
-0.00195361
-0.000233298
-0.00205313
-0.000223141
-0.00218483
-0.000184741
-0.00235957
-0.000104019
-0.0025877
3.59175e-05
-0.00286122
0.0002422
-0.00322053
0.000533608
-0.00375938
0.000932144
-0.00458275
0.0014318
-0.00574302
0.00199352
-0.00735701
0.00245582
-0.00926626
0.00256078
-0.00875618
0.00136366
-0.00322841
0.0125173
0.00990297
0.0100546
0.00702762
0.0088662
0.00373166
0.00791588
0.00121795
0.00668212
-0.000423145
0.00515912
-0.00148128
0.00341373
-0.00179424
0.00141951
-0.00126439
-0.000373344
-0.000631255
-0.00152824
-8.58366e-05
-0.00197918
9.61574e-05
-0.00212967
0.000119198
-0.0021552
0.000114764
-0.00213154
0.000114294
-0.00209323
0.000114692
-0.0020683
0.000102236
-0.00207664
7.047e-05
-0.00211696
2.54527e-05
-0.00217301
-2.65048e-05
-0.00223167
-7.32308e-05
-0.00229161
-0.000106574
-0.0023569
-0.000126143
-0.00243466
-0.000133158
-0.00253233
-0.00012868
-0.00265319
-0.000112485
-0.00279384
-8.25336e-05
-0.00294255
-3.60685e-05
-0.00307406
2.7446e-05
-0.00317956
0.00014138
-0.00326736
0.000329952
-0.00334922
0.000615432
-0.00343664
0.00101953
-0.00353355
0.00152866
-0.00356907
0.002029
-0.00337953
0.00226624
-0.00207303
0.00125424
0.000168351
-0.000877762
-0.00296769
-0.000502413
0.0104748
0.00138409
0.00514112
0.00207954
0.00303622
0.00215566
0.00114184
0.00173816
-5.65589e-06
0.000795351
-0.000538497
-0.000529128
-0.000469805
-0.00178025
-1.33079e-05
-0.00254463
0.000133073
-0.00281102
0.000180515
-0.0028524
0.000137491
-0.00283183
9.85829e-05
-0.00279639
7.92859e-05
-0.00275443
7.22962e-05
-0.0027078
6.80134e-05
-0.00266258
5.69699e-05
-0.00262742
3.52747e-05
-0.00260897
6.95185e-06
-0.00260547
-3.00443e-05
-0.00261174
-6.70132e-05
-0.00262737
-9.09841e-05
-0.00265032
-0.000103243
-0.00267851
-0.000105011
-0.00271061
-9.66254e-05
-0.00274525
-7.78862e-05
-0.00278
-4.78248e-05
-0.00281243
-3.68066e-06
-0.00283061
4.55873e-05
-0.00280655
0.000117276
-0.00271219
0.000235546
-0.00251241
0.000415613
-0.00217792
0.000684996
-0.00171604
0.00106675
-0.00109375
0.00140667
5.18798e-05
0.00112057
0.00186102
-0.000554941
0.00350123
-0.00251801
0.00063349
-0.0180113
-0.0227787
-0.0122494
-0.00706868
-0.00399613
-0.00282149
-0.00279801
-0.00330964
-0.00375382
-0.00374236
-0.00358502
-0.00338039
-0.00321874
-0.00309598
-0.00299254
-0.00289611
-0.00280389
-0.00272252
-0.00266251
-0.00263041
-0.00263492
-0.00267606
-0.00274089
-0.00281773
-0.00289614
-0.00296602
-0.00301709
-0.00303813
-0.00301523
-0.00294344
-0.00280051
-0.00253999
-0.00210022
-0.00139198
-0.000302987
0.00112465
0.00226561
0.001732
-0.000764716
)
;

boundaryField
{
    floor
    {
        type            calculated;
        value           nonuniform List<scalar> 
36
(
0
0
0
0
0
0
0
0
0
0
0
0
0
0
0
0
0
0
0
-6.62618e-06
-1.71877e-05
-2.59069e-05
-3.34248e-05
-2.92953e-05
-2.75821e-05
-2.61342e-05
-3.47745e-06
-6.22326e-06
-6.85535e-06
-7.70931e-06
-5.16023e-06
-1.16414e-05
-1.56461e-05
-1.83132e-05
-2.08676e-05
-2.06371e-05
)
;
    }
    ceiling
    {
        type            calculated;
        value           nonuniform List<scalar> 
43
(
-5.59007e-05
-5.52013e-05
-5.45972e-05
-3.95805e-05
-3.63773e-05
-3.28706e-05
-2.91906e-05
-2.69214e-05
-2.56716e-05
-2.48164e-05
-2.43096e-05
-2.41642e-05
-2.42042e-05
-2.42242e-05
-2.41968e-05
-2.41818e-05
-2.42482e-05
-2.44473e-05
-2.47844e-05
-2.51988e-05
-2.55781e-05
-2.59126e-05
-2.62022e-05
-2.64478e-05
-2.66483e-05
-2.67931e-05
-2.68603e-05
-2.68187e-05
-2.6629e-05
-2.62403e-05
-2.57001e-05
-2.50142e-05
-2.42038e-05
-2.32852e-05
-2.22766e-05
-2.10132e-05
-2.0424e-05
-2.13734e-05
-2.13358e-05
-1.79369e-05
-3.08217e-06
-4.61185e-06
-6.94083e-05
)
;
    }
    sWall
    {
        type            calculated;
        value           uniform -0.000232463;
    }
    nWall
    {
        type            calculated;
        value           nonuniform List<scalar> 6(-6.50309e-05 -7.81542e-05 -8.12914e-05 -9.24121e-05 -9.99894e-05 -0.000113331);
    }
    sideWalls
    {
        type            empty;
        value           nonuniform 0();
    }
    glass1
    {
        type            calculated;
        value           nonuniform List<scalar> 9(-6.73484e-05 -0.000182639 -0.000281004 -0.000366023 -0.00043939 -0.000501927 -0.000556556 -0.000620166 -0.000690423);
    }
    glass2
    {
        type            calculated;
        value           nonuniform List<scalar> 2(-0.000353813 -0.000387166);
    }
    sun
    {
        type            calculated;
        value           uniform 0;
    }
    Table_master
    {
        type            calculated;
        value           nonuniform List<scalar> 9(-1.54998e-07 -1.5517e-07 -1.55224e-07 -1.55254e-07 -1.55273e-07 -1.55282e-07 -1.55282e-07 -1.55268e-07 -1.55225e-07);
    }
    Table_slave
    {
        type            calculated;
        value           nonuniform List<scalar> 9(1.54805e-07 1.54787e-07 1.54735e-07 1.54701e-07 1.54691e-07 1.54686e-07 1.54709e-07 1.54766e-07 1.54872e-07);
    }
    inlet
    {
        type            calculated;
        value           uniform -0.0164543;
    }
    outlet
    {
        type            calculated;
        value           nonuniform List<scalar> 2(0.0182996 0.00482262);
    }
}


// ************************************************************************* //
