/*--------------------------------*- C++ -*----------------------------------*=========                 |
  \      /  F ield         | OpenFOAM: The Open Source CFD Toolbox
   \    /   O peration     | Website:  https://openfoam.org
    \  /    A nd           | Version:  6
     \/     M anipulation  |
\*---------------------------------------------------------------------------*/
FoamFile
{
    version     2.0;
    format      ascii;
    class       volScalarField;
    location    "3000";
    object      PPD;
}
// * * * * * * * * * * * * * * * * * * * * * * * * * * * * * * * * * * * * * //

dimensions      [0 0 0 0 0 0 0];

internalField   nonuniform List<scalar> 
458
(
25.163324698832326
15.221078699697244
14.023959426941758
13.09061895491844
12.592368818402889
12.464372952994225
12.763935625857556
13.623630020725273
15.310193257850358
18.153548632425654
22.048770552312803
23.387793816966536
22.448924316197363
22.757006010520186
23.718192396241093
34.34069530556853
33.47080034742906
33.26623837743702
33.81299265155948
34.24866197908304
34.54816512932574
33.957403595547376
33.82838435623114
33.96004188131566
34.13852270832706
34.34989182605307
34.60223157982915
34.917437100973274
35.352074548992604
36.05844558140191
37.22004260687819
37.62708393746155
38.61200570500003
21.162730100668128
15.321217979330257
14.725385536963472
13.709281892507676
13.156830333255755
12.964870672022556
13.149717798850688
13.633992938749444
14.50091136386689
15.972378045247353
18.610185561210542
23.86548657881849
25.216418742599473
24.04328680491018
21.915752160114565
21.20738395749494
22.32400874250223
24.13518584211964
32.0342057859294
32.4986303270002
32.610994702780346
33.26623837743702
33.3912940116178
33.4639194874145
33.565653890646146
33.75549472319847
33.90012016246479
34.02125309925151
34.15110440959306
34.298993330270065
34.48841150198288
34.760995708036745
35.33382120375737
36.25063735128387
36.79403481425061
36.12213758289534
21.66736371746714
14.742806503648382
15.523827219646023
14.84775873563271
14.469759137316046
14.262134993261512
14.231415412408282
13.9518613781879
13.504229873490203
13.85265625955023
16.111395234168512
21.396805746467734
26.33175609442206
26.7569662714058
25.169570083839773
24.603569960650233
24.930086097063153
24.762360911424494
26.726533177075822
29.625476567059877
30.276247499008832
31.223378818898908
32.24900300062377
32.56902616270301
33.828795550474965
34.83597526854908
34.98793474051959
35.104060453711895
35.24362749950642
35.383429085757925
35.523463824106145
35.66373031725037
35.907288660313
36.22708557929238
35.95100448312104
32.19771837470081
24.22412558296452
14.266812974651103
16.099190410816263
16.348553014048676
16.741731723862515
16.83233296923798
16.500366790305208
14.869365713459075
12.817742422856455
12.306694585361441
14.419341373290223
19.845880246376282
26.19477851229881
28.347814916030785
28.034048258616863
26.98850671219762
24.89238168727921
23.789866094246335
21.811380582508264
25.58892956336541
27.892785567480374
29.89603511833853
32.1977666799193
34.630037253991546
36.42353841389921
36.49767545151144
36.57342395518125
36.89031770298483
37.27052606376508
37.80844065983451
38.530424376325165
39.59730804574203
41.31468948272351
39.825671510296274
38.27461932629766
35.177181700221794
29.818737647742424
28.118789435744006
14.27616381194153
16.523556199210773
17.95359388688182
20.115083497787097
21.54379880886549
20.48529500007747
16.332821642049197
12.416132872515135
11.257112589278563
13.321497288096666
19.0664387225726
26.1635830232933
30.18179474206019
29.90079873528009
29.236100783254656
27.260020410073523
25.92440402923077
26.291466867794185
27.546809178002675
29.812934196803994
32.799565087865645
35.92896362038182
38.9176128057262
40.97829205563641
42.066943710200505
42.721969452807826
43.05141363407974
43.25311825551154
43.310195660736376
43.32958287957447
43.38861940942648
43.33947413704564
41.88073817436625
39.529590557077746
34.65322610141186
34.194434579265206
35.46762033419613
39.99936428082733
33.66288361290191
32.69575096407446
14.973357050013448
17.386447064694224
19.110595283623482
23.25299604587765
26.67568423160172
24.735981833499125
17.282601982166767
12.079236518030726
10.610732975380458
12.745213305646018
18.781598775443967
27.047284217492617
32.36403186342952
32.34162419000948
31.517699326252796
30.83524855916761
30.769591796300148
31.59648852930978
33.33887619366111
36.02721856179547
38.95047714745288
41.20023893427331
42.964069841662784
44.29445950531764
45.20407647761037
45.81292365665253
46.19437640324158
46.34714768347016
46.21983085949838
45.889158873075154
45.43217494686135
44.748699535615415
43.16143541923598
40.43632437059181
35.678687627160826
35.27602630463467
35.32063433860691
36.73989320790618
37.178247331848866
37.47605101637688
17.72759832750789
21.601544217803976
20.94596304541797
24.244838154152305
28.326839749433532
23.48367651559994
16.577793755810376
11.594198105061167
10.210958391357934
12.617993127250728
19.55682116447464
29.516750148007972
35.0343653149058
35.33680258247422
34.640548515112584
34.225670592535224
34.73303876922745
36.39207864475172
38.636146492103215
41.027580262930755
43.21423793939495
45.05216106084493
46.42357307845732
47.31707006681086
47.85471065446112
48.16241061236878
48.29071610422195
48.21372608440343
47.93160417057016
47.393808275246855
46.75504896254202
45.965422004226774
44.84979799468197
42.4588273065147
38.24749823548683
36.394933447174964
35.265678281535315
33.79373304907024
39.938904108481935
45.232049848514855
35.12252167836844
31.233077092930856
25.711430602097735
25.50985200653146
25.175990301860864
20.788327892428327
14.197690199126257
10.095510283458708
9.657478091710317
13.242367851066035
22.246763460483365
34.869270297551424
38.32275018296827
38.8294712034076
38.636146492103215
38.78110706015684
39.75247835235788
41.57099658197516
43.61534426397331
45.533637352748336
47.11254902770296
48.29071610422195
49.06166996226429
49.473570127455694
49.65392105003579
49.6796923369905
49.57661741424978
49.344800844666636
49.01021625002078
48.547492066376364
47.88033945995635
47.16366354677882
46.19437640324158
45.10278602286154
43.94198088291335
43.36453341129788
41.92186924995109
37.64031567260222
32.81494783401145
57.41700216031062
49.249454352649835
39.900223796064004
32.153334181726194
27.97719290335867
25.097238336495337
16.083455485232008
9.47324033039628
7.6684183633406775
9.283940374216797
15.838990135608839
29.35435594249843
39.58187605031409
42.16634793449743
42.88909952948992
43.189202794697486
43.8162745283758
44.92565834070141
46.449054037884444
47.88033945995635
49.08739970934338
49.59646257051418
49.62063035966673
49.4866992454528
49.24892298386318
48.928370733869116
48.49572192376464
47.99143422069898
47.36712380877535
46.62358564114763
45.801252622914035
44.94608877517211
44.0843205661562
43.1102229208377
42.014742369207866
41.07946269131807
40.52979302679813
40.30676135285472
39.72405752472392
38.298252521687715
84.09173910822443
36.50902417247704
14.489290739465758
9.969899042594818
7.456203869066059
5.306305914105522
5.828323492698502
12.051500481231159
26.84006571052069
39.5331795428043
42.89102938970997
43.716339296476654
44.18229261747937
44.794942647468105
45.63264174693445
46.64066679620205
47.59246644060649
48.26611592543192
48.61462143213247
48.710279230653946
48.611321176189136
48.386097090971695
48.0659581854329
47.65512882880255
47.16826460773705
46.665113975339786
46.148617719081344
45.71576058617974
45.365772464387135
45.07986091730451
44.86392579150848
44.68813747524191
44.52441050972289
44.51371579359181
45.01989278383297
47.156553730334885
54.802597425497524
45.4466955016209
82.02047081400156
26.558952507861846
9.329282641601793
5.195487154970195
5.601050358413062
10.373160404614964
21.371833436058083
34.47894796161684
38.89143718403864
41.879139647443985
43.53209768719333
44.457675603448116
45.12585413356169
45.71365532443615
46.29320166391741
46.8595635198328
47.32423017502417
47.61237410630482
47.787579240162465
47.80037047978774
47.697484312913915
47.535020703307474
47.29631501210726
47.04552340839987
46.796911183144886
46.59369072572972
46.43010275923207
46.37060187856186
46.38966641174185
46.54521852104414
46.894466294399116
47.45175060433602
48.11185286445355
48.68590618879801
49.56491073081037
54.02527138627204
47.6286857349384
53.58459611384479
57.28834636547494
55.09243882410178
48.0417124923588
14.847532163416957
5.033175036562469
10.172593219260179
23.598053611923433
32.28906235879391
37.5535998082663
40.54208022050981
42.44586121005895
43.83415000548991
44.63498409446564
45.133179025931746
45.48536168889509
45.73886048088565
45.91794132829484
45.94112578974739
45.84155914965506
45.61466955573107
45.35140429531832
45.087582240725446
44.78565302646249
44.50453508676906
44.251347415520954
44.04046795558063
43.89445070587763
43.845020839859465
43.93382648489142
44.213053946734966
44.659602136394014
45.381083770497504
46.57461067172727
48.568017776604364
51.86727059776827
52.98884512433694
51.912150840840866
46.4178645400076
47.04701837051431
43.6760535749912
)
;

boundaryField
{
    ".*"
    {
        type            zeroGradient;
    }
}


// ************************************************************************* //
