/*--------------------------------*- C++ -*----------------------------------*\
  =========                 |
  \\      /  F ield         | OpenFOAM: The Open Source CFD Toolbox
   \\    /   O peration     | Website:  https://openfoam.org
    \\  /    A nd           | Version:  6
     \\/     M anipulation  |
\*---------------------------------------------------------------------------*/
FoamFile
{
    version     2.0;
    format      ascii;
    class       volScalarField;
    location    "300";
    object      epsilon;
}
// * * * * * * * * * * * * * * * * * * * * * * * * * * * * * * * * * * * * * //

dimensions      [0 2 -3 0 0 0 0];

internalField   nonuniform List<scalar> 
458
(
0.000141458
0.000153067
0.000122164
0.000136108
0.000151631
0.000167051
0.000182288
0.000197622
0.000213612
0.00023126
0.000247288
0.000260362
0.000270266
0.000278364
0.000284613
3.43663e-05
5.6986e-05
6.0493e-05
3.1978e-05
1.66417e-05
8.59588e-06
7.07139e-06
7.17918e-06
7.95789e-06
7.64401e-06
6.44285e-06
5.22588e-06
4.49861e-06
5.9013e-06
1.06099e-05
2.18279e-05
2.84778e-05
2.21339e-05
0.00069095
0.00160744
0.000154661
0.000107141
0.00010987
0.000115559
0.00012223
0.000130655
0.000141821
0.000156773
0.000174228
0.000193389
0.000213347
0.000234242
0.000267841
0.00036099
0.000317354
0.000139573
0.000104138
0.000121021
8.98863e-05
7.58392e-05
5.49773e-05
3.6289e-05
2.48937e-05
1.98087e-05
1.72191e-05
1.4875e-05
1.14792e-05
7.93572e-06
5.81165e-06
1.00397e-05
3.73999e-05
8.13998e-05
0.000136404
7.35186e-05
0.00174261
0.00534949
0.000361802
0.000121913
0.000112528
0.000117879
0.000125902
0.000136353
0.000149565
0.000165633
0.00018355
0.000201118
0.000217015
0.000231904
0.00025066
0.000282752
0.000331359
0.000425262
0.000318803
0.000274905
0.000181472
0.000165133
0.000164853
8.54182e-05
4.75514e-05
3.29343e-05
2.48485e-05
1.94379e-05
1.52718e-05
1.17425e-05
9.00183e-06
1.99749e-05
0.000174308
0.00022439
0.00031934
0.000101609
0.00343762
0.0118857
0.000874315
0.00015918
0.000123548
0.000129579
0.000140792
0.000154863
0.000171795
0.000191558
0.000213046
0.000231654
0.000245507
0.000255972
0.000266886
0.000285452
0.000326825
0.000416658
0.000561757
0.000249699
0.000150876
0.000135746
0.000147796
0.000186423
0.000271197
0.000290653
0.000325768
0.000375373
0.000440956
0.000539712
0.000611605
0.000645232
0.000622869
0.000428662
0.000348581
0.000443566
0.000425487
0.00580945
0.0206453
0.00197076
0.000240289
0.000140755
0.000144456
0.000160374
0.000181677
0.000207881
0.000238662
0.000270946
0.0002947
0.000307675
0.000312659
0.00031236
0.000308352
0.000301651
0.000287274
0.000245439
0.000166826
0.000130835
0.000120621
0.000126309
0.000141985
0.000162889
0.000185404
0.00021824
0.000263812
0.000323634
0.000400179
0.00047569
0.000523078
0.000527769
0.000478291
0.000403379
0.000379817
0.000424197
0.00069954
0.000596305
0.000454541
0.00891061
0.0287475
0.00420209
0.000515118
0.000207213
0.000182426
0.000196648
0.00022526
0.000265118
0.000316864
0.000366617
0.00039269
0.000398276
0.000392905
0.000383031
0.00037055
0.00035158
0.000315271
0.00025792
0.000197842
0.000157719
0.000139633
0.00013796
0.000146583
0.000162853
0.000188803
0.000229733
0.0002893
0.000368596
0.000463837
0.000563792
0.000653562
0.000708443
0.000729021
0.000680217
0.000596144
0.000572055
0.000616745
0.00077025
0.000787577
0.0126536
0.0326093
0.00902991
0.00214897
0.000768542
0.000439407
0.000365616
0.000369266
0.000408745
0.000487592
0.000538874
0.000541937
0.000517779
0.000484624
0.000452438
0.000424691
0.00039675
0.000356065
0.000298305
0.000239139
0.000194364
0.000169215
0.000160522
0.000163544
0.000177229
0.000205761
0.000255826
0.000333273
0.000439631
0.000567388
0.000700459
0.000824385
0.000936479
0.0010565
0.00122489
0.00133745
0.00138155
0.00123608
0.00138332
0.00122581
0.0135646
0.0396059
0.0191842
0.0109974
0.00560253
0.00271705
0.00154074
0.0011108
0.000961571
0.000918359
0.000846587
0.00075641
0.000665779
0.000584337
0.000515864
0.000461331
0.000417947
0.000375786
0.000323995
0.00027245
0.000230924
0.000204525
0.000192619
0.000192459
0.000204365
0.000234661
0.000293332
0.000390605
0.00053077
0.000702544
0.000879734
0.00104214
0.00119903
0.00139876
0.0017067
0.00212247
0.00239126
0.00245266
0.00270875
0.00129625
0.0124288
0.0210829
0.0173973
0.0128294
0.00903369
0.00605142
0.00402504
0.00277019
0.00203087
0.00154424
0.00120769
0.000968498
0.00079321
0.000660879
0.000558781
0.000479581
0.000418524
0.000370298
0.000329051
0.000293102
0.000264827
0.000246681
0.00023905
0.000240734
0.00025224
0.00028154
0.000341396
0.000449421
0.000621921
0.000850329
0.00108523
0.00126518
0.00135111
0.0013487
0.00131959
0.00130667
0.00134221
0.0014267
0.00153826
0.00141356
0.00826372
0.0119752
0.00816652
0.0057572
0.00408104
0.00293362
0.00216521
0.00164419
0.001281
0.00102107
0.000829785
0.000685155
0.000573696
0.000487594
0.000422497
0.000375603
0.00034438
0.000326417
0.000319533
0.000321378
0.000329401
0.000341655
0.000358428
0.000383973
0.00042636
0.000501394
0.000641408
0.000878718
0.00120336
0.00161949
0.00214351
0.00274037
0.00319701
0.00331726
0.00306994
0.00271303
0.00200704
0.00151087
0.00646007
0.0101232
0.00688681
0.00493383
0.0036464
0.00271972
0.00204989
0.00156755
0.00121766
0.000959912
0.00076758
0.000623226
0.00051549
0.000437204
0.000384244
0.0003546
0.000347149
0.000359808
0.000387783
0.000423613
0.000459915
0.000492594
0.000521717
0.000549824
0.000581043
0.000624853
0.000700722
0.000826772
0.000994914
0.00118264
0.00145472
0.00185166
0.00233188
0.00272413
0.00280569
0.00259368
0.00194824
0.00155894
0.00350512
0.00430003
0.00509531
0.00592343
0.00470314
0.00362741
0.0028521
0.00227181
0.00181991
0.00146646
0.00118842
0.000979567
0.000816568
0.000685104
0.000577631
0.000489953
0.000419631
0.00036521
0.000325791
0.000300646
0.000288678
0.000287895
0.000295424
0.000308297
0.000324586
0.000344078
0.000368389
0.00040227
0.000456401
0.000542134
0.000654714
0.000814641
0.00101517
0.00130275
0.00168092
0.002024
0.00212179
0.00184518
0.00149524
0.00108631
)
;

boundaryField
{
    floor
    {
        Cmu             0.09;
        kappa           0.41;
        E               9.8;
        type            epsilonWallFunction;
        value           nonuniform List<scalar> 
36
(
0.000284613
3.43663e-05
5.6986e-05
6.0493e-05
3.1978e-05
1.66417e-05
8.59588e-06
7.07139e-06
7.17918e-06
7.95789e-06
7.64401e-06
6.44285e-06
5.22588e-06
4.49861e-06
5.9013e-06
1.06099e-05
2.18279e-05
2.84778e-05
2.21339e-05
2.21339e-05
7.35186e-05
0.000101609
0.000425487
0.00069954
0.000596305
0.000454541
0.000284613
0.00036099
0.000317354
0.000139573
3.43663e-05
0.000139573
0.000104138
0.000425262
0.000318803
0.000561757
)
;
    }
    ceiling
    {
        Cmu             0.09;
        kappa           0.41;
        E               9.8;
        type            epsilonWallFunction;
        value           nonuniform List<scalar> 
43
(
0.00350512
0.00430003
0.00509531
0.00592343
0.00470314
0.00362741
0.0028521
0.00227181
0.00181991
0.00146646
0.00118842
0.000979567
0.000816568
0.000685104
0.000577631
0.000489953
0.000419631
0.00036521
0.000325791
0.000300646
0.000288678
0.000287895
0.000295424
0.000308297
0.000324586
0.000344078
0.000368389
0.00040227
0.000456401
0.000542134
0.000654714
0.000814641
0.00101517
0.00130275
0.00168092
0.002024
0.00212179
0.00184518
0.00149524
0.00108631
0.0124288
0.0210829
0.00646007
)
;
    }
    sWall
    {
        Cmu             0.09;
        kappa           0.41;
        E               9.8;
        type            epsilonWallFunction;
        value           uniform 0.00350512;
    }
    nWall
    {
        Cmu             0.09;
        kappa           0.41;
        E               9.8;
        type            epsilonWallFunction;
        value           nonuniform List<scalar> 6(0.000454541 0.000787577 0.00122581 0.00151087 0.00155894 0.00108631);
    }
    sideWalls
    {
        type            empty;
    }
    glass1
    {
        Cmu             0.09;
        kappa           0.41;
        E               9.8;
        type            epsilonWallFunction;
        value           nonuniform List<scalar> 9(0.000141458 0.00069095 0.00174261 0.00343762 0.00580945 0.00891061 0.0126536 0.0135646 0.0124288);
    }
    glass2
    {
        Cmu             0.09;
        kappa           0.41;
        E               9.8;
        type            epsilonWallFunction;
        value           nonuniform List<scalar> 2(0.00129625 0.00141356);
    }
    sun
    {
        Cmu             0.09;
        kappa           0.41;
        E               9.8;
        type            epsilonWallFunction;
        value           nonuniform List<scalar> 
14
(
0.000141458
0.000153067
0.000122164
0.000136108
0.000151631
0.000167051
0.000182288
0.000197622
0.000213612
0.00023126
0.000247288
0.000260362
0.000270266
0.000278364
)
;
    }
    Table_master
    {
        Cmu             0.09;
        kappa           0.41;
        E               9.8;
        type            epsilonWallFunction;
        value           nonuniform List<scalar> 9(8.54182e-05 4.75514e-05 3.29343e-05 2.48485e-05 1.94379e-05 1.52718e-05 1.17425e-05 9.00183e-06 1.99749e-05);
    }
    Table_slave
    {
        Cmu             0.09;
        kappa           0.41;
        E               9.8;
        type            epsilonWallFunction;
        value           nonuniform List<scalar> 9(0.000271197 0.000290653 0.000325768 0.000375373 0.000440956 0.000539712 0.000611605 0.000645232 0.000622869);
    }
    inlet
    {
        type            turbulentMixingLengthDissipationRateInlet;
        mixingLength    0.01;
        phi             phi;
        k               k;
        value           uniform 0.000101881;
    }
    outlet
    {
        type            zeroGradient;
    }
}


// ************************************************************************* //
