/*--------------------------------*- C++ -*----------------------------------*\
  =========                 |
  \\      /  F ield         | OpenFOAM: The Open Source CFD Toolbox
   \\    /   O peration     | Website:  https://openfoam.org
    \\  /    A nd           | Version:  6
     \\/     M anipulation  |
\*---------------------------------------------------------------------------*/
FoamFile
{
    version     2.0;
    format      ascii;
    class       volScalarField;
    location    "1700";
    object      T;
}
// * * * * * * * * * * * * * * * * * * * * * * * * * * * * * * * * * * * * * //

dimensions      [0 0 0 1 0 0 0];

internalField   nonuniform List<scalar> 
458
(
302.129
301.852
301.839
301.837
301.835
301.834
301.832
301.833
301.839
301.853
301.884
301.958
302.021
302.043
302.066
302.507
302.472
302.459
302.48
302.498
302.511
302.523
302.535
302.546
302.558
302.569
302.58
302.592
302.604
302.617
302.631
302.649
302.687
302.294
301.848
301.814
301.805
301.799
301.794
301.791
301.789
301.789
301.803
301.852
301.948
302.069
302.098
302.094
302.106
302.12
302.145
302.519
302.428
302.428
302.455
302.485
302.499
302.509
302.518
302.528
302.537
302.546
302.556
302.566
302.577
302.59
302.607
302.629
302.677
302.475
301.864
301.808
301.798
301.793
301.788
301.784
301.775
301.758
301.755
301.81
301.939
302.109
302.172
302.166
302.162
302.157
302.16
302.442
302.395
302.41
302.458
302.509
302.514
302.521
302.528
302.537
302.546
302.555
302.565
302.575
302.584
302.598
302.612
302.631
302.677
302.669
301.898
301.815
301.808
301.812
301.817
301.818
301.801
301.752
301.712
301.761
301.92
302.136
302.246
302.259
302.237
302.211
302.188
302.204
302.246
302.319
302.408
302.498
302.574
302.633
302.673
302.704
302.731
302.754
302.772
302.789
302.803
302.814
302.758
302.704
302.671
302.687
302.87
301.954
301.832
301.826
301.846
301.873
301.891
301.869
301.772
301.681
301.716
301.895
302.155
302.316
302.357
302.328
302.29
302.262
302.279
302.333
302.419
302.516
302.612
302.693
302.759
302.806
302.841
302.868
302.887
302.898
302.902
302.9
302.889
302.848
302.786
302.727
302.703
302.719
302.744
302.808
303.064
302.038
301.866
301.844
301.871
301.922
301.977
301.953
301.801
301.662
301.683
301.878
302.167
302.386
302.463
302.442
302.401
302.38
302.411
302.483
302.576
302.672
302.759
302.832
302.887
302.926
302.953
302.972
302.984
302.987
302.982
302.969
302.949
302.912
302.856
302.793
302.753
302.754
302.77
302.822
303.234
302.191
301.977
301.914
301.911
301.953
302.042
301.999
301.805
301.647
301.664
301.871
302.197
302.474
302.584
302.579
302.545
302.542
302.591
302.67
302.755
302.837
302.907
302.961
303
303.024
303.039
303.047
303.049
303.045
303.034
303.017
302.993
302.96
302.914
302.86
302.818
302.807
302.81
302.837
303.481
302.702
302.432
302.234
302.128
302.113
302.149
302.002
301.75
301.594
301.649
301.897
302.275
302.601
302.721
302.729
302.717
302.732
302.787
302.857
302.924
302.982
303.027
303.057
303.075
303.084
303.086
303.083
303.077
303.068
303.056
303.04
303.02
302.99
302.956
302.918
302.891
302.886
302.886
302.996
303.835
303.47
303.192
302.879
302.635
302.493
302.275
301.867
301.554
301.478
301.654
301.991
302.443
302.782
302.863
302.881
302.89
302.916
302.961
303.008
303.05
303.081
303.101
303.111
303.113
303.11
303.103
303.094
303.083
303.071
303.058
303.046
303.036
303.029
303.027
303.035
303.054
303.08
303.103
303.166
298.422
299.607
300.345
300.667
300.726
300.817
301.018
301.348
301.799
302.251
302.786
302.955
303
303.017
303.034
303.057
303.085
303.11
303.127
303.136
303.138
303.135
303.129
303.121
303.112
303.103
303.095
303.087
303.08
303.074
303.07
303.07
303.074
303.086
303.107
303.136
303.172
303.225
298.494
299.612
300.168
300.445
300.624
301.005
301.494
301.98
302.614
302.91
303.046
303.089
303.109
303.122
303.135
303.148
303.159
303.165
303.167
303.164
303.158
303.152
303.145
303.137
303.13
303.123
303.117
303.111
303.105
303.1
303.097
303.096
303.098
303.106
303.12
303.141
303.162
303.206
299.435
299.418
299.417
300.098
300.485
300.862
301.55
302.423
302.826
303.018
303.117
303.158
303.175
303.186
303.193
303.198
303.201
303.202
303.201
303.199
303.194
303.188
303.181
303.175
303.168
303.161
303.154
303.148
303.142
303.136
303.131
303.126
303.121
303.118
303.117
303.118
303.128
303.138
303.148
303.195
)
;

boundaryField
{
    floor
    {
        type            wallHeatTransfer;
        Tinf            uniform 305.2;
        alphaWall       uniform 0.24;
        value           nonuniform List<scalar> 
36
(
302.378
302.976
302.898
302.845
302.846
302.862
302.888
302.917
302.946
302.973
303
303.026
303.052
303.076
303.101
303.127
303.155
303.188
303.252
303.252
303.187
303.152
303.128
303.1
303.104
303.159
302.378
302.381
302.424
302.489
302.976
302.489
302.998
302.481
302.836
302.509
)
;
    }
    ceiling
    {
        type            wallHeatTransfer;
        Tinf            uniform 303.2;
        alphaWall       uniform 0.24;
        value           nonuniform List<scalar> 
43
(
299.617
299.601
299.599
300.23
300.61
300.98
301.651
302.484
302.86
303.037
303.127
303.163
303.179
303.188
303.194
303.198
303.201
303.202
303.201
303.199
303.195
303.19
303.184
303.179
303.173
303.167
303.161
303.155
303.15
303.144
303.139
303.134
303.13
303.127
303.125
303.126
303.134
303.144
303.153
303.196
303.805
303.459
298.776
)
;
    }
    sWall
    {
        type            wallHeatTransfer;
        Tinf            uniform 315.2;
        alphaWall       uniform 0.36;
        value           uniform 300.555;
    }
    nWall
    {
        type            wallHeatTransfer;
        Tinf            uniform 307.2;
        alphaWall       uniform 0.36;
        value           nonuniform List<scalar> 6(303.71 303.573 303.474 303.8 303.779 303.813);
    }
    sideWalls
    {
        type            empty;
    }
    glass1
    {
        type            wallHeatTransfer;
        Tinf            uniform 315.2;
        alphaWall       uniform 4.3;
        value           nonuniform List<scalar> 9(310.833 310.246 309.875 309.599 309.377 309.173 308.981 309.034 309.25);
    }
    glass2
    {
        type            wallHeatTransfer;
        Tinf            uniform 307.2;
        alphaWall       uniform 4.3;
        value           nonuniform List<scalar> 2(305.586 305.685);
    }
    sun
    {
        type            wallHeatTransfer;
        Tinf            uniform 305.2;
        alphaWall       uniform 0.24;
        value           nonuniform List<scalar> 
14
(
302.43
302.157
302.137
302.124
302.113
302.103
302.093
302.086
302.085
302.094
302.121
302.195
302.273
302.323
)
;
    }
    Table_master
    {
        type            zeroGradient;
    }
    Table_slave
    {
        type            zeroGradient;
    }
    inlet
    {
        type            fixedValue;
        value           uniform 297.15;
    }
    outlet
    {
        type            zeroGradient;
    }
}


// ************************************************************************* //
