/*--------------------------------*- C++ -*----------------------------------*=========                 |
  \      /  F ield         | OpenFOAM: The Open Source CFD Toolbox
   \    /   O peration     | Website:  https://openfoam.org
    \  /    A nd           | Version:  6
     \/     M anipulation  |
\*---------------------------------------------------------------------------*/
FoamFile
{
    version     2.0;
    format      ascii;
    class       volScalarField;
    location    "300";
    object      PMV;
}
// * * * * * * * * * * * * * * * * * * * * * * * * * * * * * * * * * * * * * //

dimensions      [0 0 0 0 0 0 0];

internalField   nonuniform List<scalar> 
458
(
1.3852312325046832
1.1463991179732889
1.116283800633117
1.0880089170294742
1.069218899459626
1.058439653110653
1.0556382124408814
1.0620615907118751
1.0786929470749254
1.1081879022308434
1.1536195064997945
1.2183429663908572
1.2782481766747054
1.288276581360199
1.3064222444051012
1.386151076332707
1.3746948441123519
1.3723080482061285
1.3780363118778636
1.3818550651774477
1.3847190828283913
1.386349742868547
1.382313480736822
1.3822679248716003
1.3835628644237905
1.3854896373217054
1.3876731720826077
1.3913710646515984
1.3966497595289185
1.401425027090088
1.4033341864338522
1.4057206087560739
1.4176522664490514
1.3242619158894202
1.1607769712057465
1.151721078483858
1.1248055412679165
1.1078332391424266
1.0980579213819834
1.0954457698604925
1.0994067601682995
1.1085877752193039
1.1235499733381689
1.1487410477052635
1.189652685827305
1.2494776415741338
1.281113473234015
1.2911417705765427
1.295917016259425
1.2825595922110102
1.2790785613762972
1.336813127258448
1.3651474963209818
1.3656248740450314
1.3718306857216849
1.3771979814078315
1.3752250519775482
1.3745293220416839
1.3747867185299831
1.3746017603943796
1.3735601878313473
1.3727027079513072
1.3726515523932032
1.3728650681663046
1.3741302704007006
1.380900383590109
1.383287079096984
1.3871057329680034
1.3656081667288382
1.3599396319339023
1.1543302063404706
1.1852777244690986
1.1707049768290272
1.164625283996568
1.1611666669376122
1.1605654716267824
1.1615500109742471
1.1561128206362408
1.1451682431990429
1.1404148162903855
1.155945343666823
1.1999909795392603
1.2764295111354296
1.2906642412060945
1.295917016259425
1.2997371493512844
1.2908798797032977
1.2551215076507303
1.3205230341662673
1.333783660772575
1.3433440571741795
1.3528272746331051
1.3551222933099192
1.3742728990024888
1.3847190828283913
1.383764414808086
1.3823324042802465
1.380900383590109
1.3794683527763991
1.378513659962183
1.3775589626772333
1.3777248428995164
1.379945697503445
1.371321647447836
1.2936831701432472
1.4362016414186984
1.1502985155488175
1.2093892966054929
1.217909972634643
1.2337112981189648
1.246895789570111
1.2541973786996778
1.250850574067085
1.2186788817564709
1.168660020155788
1.1287549371816599
1.1235798309752476
1.1615635965076123
1.2324922964500657
1.295917016259425
1.303557225318886
1.305944743493568
1.2823246111888418
1.2240341529269703
1.2691413249802372
1.3039148997532493
1.330808573322078
1.3575647122279764
1.3874324979940158
1.4091303503156307
1.402508913964042
1.3964670872352973
1.3946001407680453
1.3946618020392534
1.396253727079354
1.4014889129998294
1.4139928515427973
1.4364316340372765
1.431594197237556
1.413834219039037
1.3526124075317925
1.2486073523030208
1.5299563305908677
1.161551936548086
1.2285919379937997
1.2585390325264423
1.3062684455700262
1.3532735980751165
1.3827420605264196
1.3585197127557875
1.2753287337931325
1.1824822295471122
1.1144561789304315
1.0977391623551207
1.134636578445598
1.2054793077400074
1.2842614266839698
1.3178819899972571
1.321701785451571
1.3004506028935137
1.2911103046508687
1.3052981228404599
1.3352793310734672
1.371739906722151
1.4083650772804832
1.442822964923474
1.459645388275044
1.4715733587897977
1.4746625929285377
1.4731295512574174
1.4710010633183772
1.4673212930663528
1.46419386206049
1.46321560910461
1.461898718327743
1.4453912876634063
1.4170618533547619
1.3390704778511326
1.3384993565586478
1.325836329865855
1.4095561066311753
1.2878399690247673
1.6249665500203605
1.19548836673422
1.2665095159856177
1.2925867996532212
1.3582788290964667
1.4281514860368743
1.4677565031270055
1.4076685539894573
1.2862416785881194
1.172641177675628
1.0953815357099435
1.0771331983574817
1.1182453193024278
1.1983754844126615
1.2902050685531459
1.3417546947129824
1.3513030790951648
1.357986701889856
1.3718306857216849
1.3918789472997457
1.4157432525984313
1.4400816697479546
1.462031051840161
1.4806380269837196
1.4954266246601102
1.505920889904016
1.5130756468498563
1.5183222463129622
1.5202300535180155
1.5197531040859473
1.515937451871106
1.5097368035175316
1.4919831247011899
1.462061690890106
1.4240137946640508
1.3520844928347786
1.3437016610348909
1.3305205631665518
1.3531488782321943
1.361202577565329
1.7162299237820013
1.2862362211260818
1.4018379725176635
1.364251349143342
1.3872996671257907
1.4556469623330681
1.4390245123366159
1.3597040167946917
1.2484325579107445
1.1353723016562731
1.06284187213309
1.0568850900122908
1.1165426599824986
1.2180774490494517
1.3321854086703715
1.3761269083922374
1.3928335763160178
1.4042887589525854
1.4205157500613486
1.4405588602352826
1.4625081804157263
1.483500446015115
1.5021048782766344
1.5173683332507246
1.5278610280693536
1.5354915904968596
1.5397835980849495
1.541691114100697
1.5412142375829943
1.5388298301496717
1.5331070844379324
1.524522526996672
1.5140295881020884
1.4968808065169372
1.4522163097266252
1.3892021264512202
1.3582840718402454
1.3338592266101588
1.3034761746592765
1.4090047051124466
1.8548185996037148
1.6499899177145343
1.602967019104653
1.4807745245228494
1.443262081383736
1.4295159546697151
1.3876398652120503
1.2913639644532129
1.1617647195921297
1.0525836318292208
1.0077882727448921
1.0416957338545578
1.1440946992921954
1.2833237654392633
1.3847190828283913
1.423379188788494
1.4424676090608677
1.4563054016468122
1.472050459405065
1.4897021739160423
1.5078288590162714
1.524522526996672
1.537399165877021
1.5469366458189264
1.552658812152291
1.5559966295792729
1.5569502763043053
1.5559966295792729
1.5540893155784035
1.5507514504419395
1.5455060663186992
1.537399165877021
1.5273841041603458
1.5149835231137203
1.5016278699743901
1.4863628127139978
1.4772984724404827
1.4497176952151738
1.3668901975949297
1.2741992185536528
2.061683900242134
1.9196471422198604
1.767342474321116
1.626144215730338
1.5239840404676
1.4483723972423088
1.3162706191776856
1.1257840345924
0.9701122650856849
0.9074527179010256
0.9457574867961465
1.0671972896629105
1.2460464970117588
1.3794683527763991
1.4453306927572005
1.47586721325835
1.4930414628446296
1.505920889904016
1.5192761530732926
1.5331070844379324
1.5455060663186992
1.5559966295792729
1.5626720118924131
1.559613750384833
1.5547330331843021
1.5483091484602935
1.5406408906666649
1.5318906498602451
1.5214004035450535
1.509234196264671
1.495472434315045
1.480126102057778
1.4654510081528533
1.448405676107471
1.4280098664113494
1.4091780652034405
1.3961382150684065
1.3905223791937045
1.3797201695371926
1.3474338990719428
-1.7398714184362936
-0.9370433569638371
-0.3250254769320441
-0.03011838227613511
0.12611166144982688
0.3054592514887542
0.5235682143888892
0.7685595183985003
1.0236171064145294
1.2409966856513013
1.3923562623876227
1.4668022751753624
1.48689163166068
1.4967081831851343
1.5065337743950014
1.5162216886084325
1.5255604614485458
1.5322819003130306
1.5357934654469232
1.5361156505814872
1.5339704734860695
1.5298416314818017
1.5240313792317894
1.5168034414060763
1.5081265192986053
1.4992302946079052
1.4901727300791856
1.4821631913619877
1.4758367705389241
1.4714057293977008
1.4677819445638802
1.4651825524363973
1.462515587288923
1.4620925681463828
1.4715789949757283
1.5073942665586444
1.5767900993699797
1.418606491667148
-1.7169982319797779
-0.7191279790584082
-0.018737382172463353
0.3323580781615953
0.5501113646211562
0.7612822042882204
0.9834855974530198
1.193709553846981
1.3357357082580148
1.3849619366128032
1.426985744523306
1.4533808442911282
1.4704505266377375
1.482321466935574
1.4912601237030685
1.498587708308365
1.5040984833684568
1.508139929873565
1.5106250202115237
1.5114395581691378
1.5101405173364062
1.508287815104318
1.5050151469112332
1.5019109948342435
1.4986309856399453
1.4958380714546933
1.493267567521233
1.4918863687253239
1.49174070285578
1.4941264210005178
1.5007170186495078
1.5116076360191746
1.5234513070760098
1.5325356378402997
1.542795254825034
1.577588907927975
1.5227780565802314
1.4628499313034078
-1.0429175906935315
-1.058242756560279
-0.9453146198871587
-0.18192505235077164
0.3659532636283416
0.7324916910632593
0.9983742316921385
1.1693032179492224
1.2687306744271771
1.3372545589441647
1.3835818999670255
1.4172327157786029
1.4411589927382853
1.4549898618230666
1.4626730682425104
1.4666070691711541
1.4681067122207103
1.467358672280331
1.4653108138090412
1.4622751897228767
1.459225283783549
1.4565565821337143
1.4533777348191852
1.45079390932324
1.448918196772491
1.4479275527526556
1.4480793800198535
1.4497464375295455
1.4539780174174715
1.460523824004798
1.4701392891948992
1.4847790914774648
1.5091111123873735
1.5506238469843014
1.6050988024485577
1.6112949497597424
1.5807847385545093
1.521808656303166
1.4705262701117492
1.483970583755188
)
;

boundaryField
{
    ".*"
    {
        type            zeroGradient;
    }
}


// ************************************************************************* //
