/*--------------------------------*- C++ -*----------------------------------*\
  =========                 |
  \\      /  F ield         | OpenFOAM: The Open Source CFD Toolbox
   \\    /   O peration     | Website:  https://openfoam.org
    \\  /    A nd           | Version:  6
     \\/     M anipulation  |
\*---------------------------------------------------------------------------*/
FoamFile
{
    version     2.0;
    format      ascii;
    class       volScalarField;
    location    "1000";
    object      epsilon;
}
// * * * * * * * * * * * * * * * * * * * * * * * * * * * * * * * * * * * * * //

dimensions      [0 2 -3 0 0 0 0];

internalField   nonuniform List<scalar> 
458
(
0.00038654
0.000501472
0.000535453
0.000616732
0.000699012
0.000783685
0.000875489
0.000969712
0.00104356
0.00107936
0.00106043
0.000977724
0.000832247
0.000626858
0.000328204
2.81198e-05
4.92189e-05
7.79766e-05
9.17869e-05
8.93582e-05
7.36647e-05
5.82362e-05
4.63214e-05
3.73901e-05
3.06193e-05
2.54126e-05
2.13766e-05
1.81683e-05
1.55298e-05
1.32576e-05
1.11604e-05
9.38425e-06
6.75736e-06
0.000950119
0.0013828
0.000466348
0.000452953
0.000471479
0.000506256
0.000562419
0.00063821
0.000712718
0.000761564
0.000764797
0.000716139
0.000624527
0.000510333
0.00040666
0.000608593
0.000323796
0.000155451
2.8514e-05
6.51087e-05
8.06258e-05
8.23828e-05
8.01369e-05
8.15399e-05
6.4009e-05
4.85311e-05
3.69914e-05
2.8557e-05
2.238e-05
1.78315e-05
1.44274e-05
1.18973e-05
1.03197e-05
9.56222e-06
1.54696e-05
1.18572e-05
0.00171026
0.00334704
0.000552716
0.000419751
0.000435078
0.00048509
0.000564628
0.000668058
0.000765027
0.000824798
0.000831367
0.000783411
0.000690194
0.000568825
0.000449947
0.000371399
0.000304448
0.000349451
0.000144469
0.000131074
0.000117732
0.000104424
9.8007e-05
0.000192131
0.00012555
8.43257e-05
5.88079e-05
4.26148e-05
3.20174e-05
2.49007e-05
2.00374e-05
1.6783e-05
1.32214e-05
1.11738e-05
2.40696e-05
1.68876e-05
0.00274991
0.00693775
0.000841323
0.00041081
0.000412425
0.0004804
0.000595379
0.000744442
0.000862381
0.000922126
0.000921234
0.000864608
0.000757405
0.000625856
0.000500508
0.000403426
0.000341185
0.000332452
0.000574696
0.00034402
0.000227151
0.000167249
0.000133015
0.000118619
0.000279724
0.000209827
0.00016949
0.000143634
0.000124839
0.000108861
9.45039e-05
8.11483e-05
6.7459e-05
4.13545e-05
2.56361e-05
3.68403e-05
2.48588e-05
0.00418103
0.0124601
0.00162719
0.000457131
0.000398513
0.000488352
0.000693653
0.000917669
0.00104204
0.00108321
0.00105853
0.000977082
0.000846453
0.000688568
0.000533659
0.000408144
0.000321917
0.000279504
0.000265049
0.00022817
0.000193779
0.000165016
0.000139801
0.000118482
0.000111309
0.000100881
9.27203e-05
8.59495e-05
7.94968e-05
7.25281e-05
6.49308e-05
5.73805e-05
5.03051e-05
4.11502e-05
3.16585e-05
3.28701e-05
3.50486e-05
4.51226e-05
5.29908e-05
5.98625e-05
0.00618194
0.0186925
0.00367389
0.000795348
0.00050671
0.000580422
0.00102472
0.00126752
0.00134168
0.00132958
0.00126244
0.00114231
0.000969443
0.000765219
0.000565741
0.000404876
0.000297625
0.000242875
0.000221269
0.000207631
0.000190984
0.000169765
0.000146007
0.000122957
0.000106454
9.73287e-05
9.26969e-05
8.95119e-05
8.61536e-05
8.14753e-05
7.44118e-05
6.49766e-05
5.55064e-05
4.66083e-05
3.89831e-05
3.47632e-05
3.43496e-05
4.87975e-05
0.000239627
0.000152571
0.00863354
0.0225204
0.00786713
0.00265395
0.00159464
0.00155343
0.00185337
0.00189082
0.00180912
0.00168904
0.00154407
0.00135687
0.00111864
0.000851983
0.000599208
0.000403535
0.000282535
0.000228198
0.000212356
0.000204607
0.000191252
0.00017137
0.000148685
0.000127589
0.000112957
0.000106268
0.000104393
0.000104417
0.00010509
0.000105564
0.000104412
9.81367e-05
8.81058e-05
7.88555e-05
7.30156e-05
7.21857e-05
7.78163e-05
0.000106744
0.000398884
0.000285633
0.00930107
0.0259844
0.0137997
0.00836982
0.00563285
0.00434519
0.00346074
0.00285983
0.00244786
0.00214957
0.00188884
0.0016029
0.00127027
0.000922445
0.000608354
0.000385749
0.000265652
0.000220969
0.000210282
0.00020277
0.000188849
0.000170498
0.000151889
0.000136685
0.000127343
0.000123731
0.0001238
0.000126447
0.000132088
0.000141717
0.000155993
0.000174601
0.000190374
0.000209171
0.000246293
0.000325249
0.000479258
0.000711608
0.00279243
0.000636345
0.00871314
0.0150847
0.0119176
0.00894324
0.00676073
0.00525948
0.00420858
0.00347553
0.00297018
0.00259228
0.0022284
0.00180882
0.00133653
0.000892929
0.000524531
0.000331344
0.000255166
0.000228477
0.000218824
0.000210242
0.00019865
0.000186078
0.000174772
0.000166174
0.000160426
0.000156752
0.000154505
0.000154522
0.000159182
0.000171571
0.000194575
0.000230677
0.000282784
0.000355753
0.000461756
0.000612052
0.000803279
0.00101117
0.00120867
0.000593127
0.0041637
0.00537928
0.00525472
0.00475123
0.00414324
0.00363135
0.00322907
0.00281138
0.00227281
0.00163415
0.0009556
0.000581315
0.00039809
0.000322445
0.000295216
0.000286906
0.000283908
0.000280805
0.000276765
0.00027264
0.00026992
0.000267038
0.000261051
0.000250079
0.000233779
0.000214209
0.000195946
0.000185219
0.000188476
0.000208488
0.000247262
0.000308284
0.000396112
0.000511702
0.000639563
0.000735132
0.000734807
0.000393284
0.00266197
0.00530018
0.0051245
0.00435448
0.00378757
0.00352211
0.00326725
0.00270321
0.00198023
0.00132803
0.000871833
0.000641002
0.000541387
0.00050998
0.000510498
0.000525804
0.000548049
0.000572757
0.000597352
0.000620133
0.000638636
0.000650435
0.000652018
0.000638981
0.000608386
0.000560911
0.000502098
0.00044112
0.000387254
0.000349399
0.00033411
0.000343817
0.000378545
0.000431705
0.000489521
0.000552651
0.00044805
0.00044612
0.0017369
0.00203421
0.00227985
0.00261732
0.00196361
0.00145033
0.00135342
0.00135943
0.00131493
0.00118437
0.00100182
0.000822816
0.000667971
0.00056632
0.000508631
0.000477581
0.000460777
0.000450407
0.000442083
0.000434003
0.00042566
0.000416639
0.000406286
0.000393341
0.000376751
0.000356474
0.000333708
0.000310892
0.000291141
0.000277349
0.000271697
0.000274922
0.000287059
0.000308465
0.000338634
0.000372766
0.000390158
0.000319812
0.000285863
0.000551296
)
;

boundaryField
{
    floor
    {
        Cmu             0.09;
        kappa           0.41;
        E               9.8;
        type            epsilonWallFunction;
        value           nonuniform List<scalar> 
36
(
0.000328204
2.81198e-05
4.92189e-05
7.79766e-05
9.17869e-05
8.93582e-05
7.36647e-05
5.82362e-05
4.63214e-05
3.73901e-05
3.06193e-05
2.54126e-05
2.13766e-05
1.81683e-05
1.55298e-05
1.32576e-05
1.11604e-05
9.38425e-06
6.75736e-06
6.75736e-06
1.18572e-05
1.68876e-05
2.48588e-05
4.51226e-05
5.29908e-05
5.98625e-05
0.000328204
0.000608593
0.000323796
0.000155451
2.81198e-05
0.000155451
2.8514e-05
0.000349451
0.000144469
0.000574696
)
;
    }
    ceiling
    {
        Cmu             0.09;
        kappa           0.41;
        E               9.8;
        type            epsilonWallFunction;
        value           nonuniform List<scalar> 
43
(
0.0017369
0.00203421
0.00227985
0.00261732
0.00196361
0.00145033
0.00135342
0.00135943
0.00131493
0.00118437
0.00100182
0.000822816
0.000667971
0.00056632
0.000508631
0.000477581
0.000460777
0.000450407
0.000442083
0.000434003
0.00042566
0.000416639
0.000406286
0.000393341
0.000376751
0.000356474
0.000333708
0.000310892
0.000291141
0.000277349
0.000271697
0.000274922
0.000287059
0.000308465
0.000338634
0.000372766
0.000390158
0.000319812
0.000285863
0.000551296
0.00871314
0.0150847
0.00266197
)
;
    }
    sWall
    {
        Cmu             0.09;
        kappa           0.41;
        E               9.8;
        type            epsilonWallFunction;
        value           uniform 0.0017369;
    }
    nWall
    {
        Cmu             0.09;
        kappa           0.41;
        E               9.8;
        type            epsilonWallFunction;
        value           nonuniform List<scalar> 6(5.98625e-05 0.000152571 0.000285633 0.000393284 0.00044612 0.000551296);
    }
    sideWalls
    {
        type            empty;
    }
    glass1
    {
        Cmu             0.09;
        kappa           0.41;
        E               9.8;
        type            epsilonWallFunction;
        value           nonuniform List<scalar> 9(0.00038654 0.000950119 0.00171026 0.00274991 0.00418103 0.00618194 0.00863354 0.00930107 0.00871314);
    }
    glass2
    {
        Cmu             0.09;
        kappa           0.41;
        E               9.8;
        type            epsilonWallFunction;
        value           nonuniform List<scalar> 2(0.000636345 0.000593127);
    }
    sun
    {
        Cmu             0.09;
        kappa           0.41;
        E               9.8;
        type            epsilonWallFunction;
        value           nonuniform List<scalar> 
14
(
0.00038654
0.000501472
0.000535453
0.000616732
0.000699012
0.000783685
0.000875489
0.000969712
0.00104356
0.00107936
0.00106043
0.000977724
0.000832247
0.000626858
)
;
    }
    Table_master
    {
        Cmu             0.09;
        kappa           0.41;
        E               9.8;
        type            epsilonWallFunction;
        value           nonuniform List<scalar> 9(0.000192131 0.00012555 8.43257e-05 5.88079e-05 4.26148e-05 3.20174e-05 2.49007e-05 2.00374e-05 1.6783e-05);
    }
    Table_slave
    {
        Cmu             0.09;
        kappa           0.41;
        E               9.8;
        type            epsilonWallFunction;
        value           nonuniform List<scalar> 9(0.000279724 0.000209827 0.00016949 0.000143634 0.000124839 0.000108861 9.45039e-05 8.11483e-05 6.7459e-05);
    }
    inlet
    {
        type            turbulentMixingLengthDissipationRateInlet;
        mixingLength    0.01;
        phi             phi;
        k               k;
        value           uniform 0.000101881;
    }
    outlet
    {
        type            zeroGradient;
    }
}


// ************************************************************************* //
