/*--------------------------------*- C++ -*----------------------------------*\
  =========                 |
  \\      /  F ield         | OpenFOAM: The Open Source CFD Toolbox
   \\    /   O peration     | Website:  https://openfoam.org
    \\  /    A nd           | Version:  6
     \\/     M anipulation  |
\*---------------------------------------------------------------------------*/
FoamFile
{
    version     2.0;
    format      ascii;
    class       volScalarField;
    location    "1000";
    object      k;
}
// * * * * * * * * * * * * * * * * * * * * * * * * * * * * * * * * * * * * * //

dimensions      [0 2 -2 0 0 0 0];

internalField   nonuniform List<scalar> 
458
(
0.00210312
0.00250168
0.00261345
0.00287165
0.00312169
0.00336895
0.00362716
0.00388295
0.00407766
0.00417039
0.00412148
0.00390431
0.00350673
0.002903
0.00188583
0.0003665
0.000532297
0.000723395
0.000806466
0.000792176
0.000696474
0.000595471
0.000511195
0.00044317
0.000387908
0.000342583
0.000305276
0.000273911
0.000246704
0.000222011
0.000197933
0.000176332
0.00014166
0.00383048
0.00705377
0.00396931
0.0042042
0.00456783
0.00500775
0.00551601
0.00607318
0.00661499
0.00701456
0.00716101
0.00699354
0.00651406
0.00576432
0.00470109
0.00284632
0.00186887
0.00114585
0.000369918
0.000894253
0.001224
0.00138748
0.00140657
0.00119725
0.000971442
0.000789718
0.000651177
0.000545089
0.000462745
0.00039689
0.000342727
0.000297659
0.000265305
0.000245588
0.000327354
0.000206089
0.00566818
0.0127455
0.00475917
0.00459388
0.00486735
0.00527998
0.00581319
0.0064443
0.00705679
0.00751916
0.00774993
0.00769216
0.00732825
0.00665809
0.00575375
0.00473209
0.00374179
0.00196633
0.00109124
0.00139212
0.00161432
0.00173723
0.00172053
0.00131966
0.000993749
0.000762147
0.000599362
0.000483548
0.000399628
0.000337965
0.000292387
0.000259803
0.000243811
0.000241987
0.000433025
0.000260884
0.00777942
0.0207002
0.00581134
0.0046226
0.00474263
0.0051313
0.00573446
0.00648967
0.00713552
0.00759898
0.00786858
0.00787879
0.00757195
0.00697269
0.00621923
0.00544928
0.00467635
0.00349197
0.00273963
0.00239777
0.00232925
0.00233566
0.00230633
0.00217197
0.00169519
0.0013995
0.00121384
0.00108702
0.000989994
0.000903607
0.000822303
0.00074288
0.000656789
0.000500677
0.000388326
0.000560789
0.000337589
0.0102863
0.0314253
0.00832162
0.00475332
0.00458615
0.00501708
0.00595069
0.00692088
0.00753513
0.00793213
0.00817802
0.00816601
0.00782476
0.00717124
0.00633671
0.00550334
0.0047718
0.00413065
0.00381491
0.00351815
0.00330526
0.00312389
0.00291386
0.00264651
0.00234294
0.00211534
0.00196363
0.00184731
0.00173806
0.00161574
0.00145947
0.0012758
0.00107595
0.000851745
0.000647299
0.000605982
0.000526924
0.00050234
0.000559159
0.000606511
0.0133501
0.0429626
0.0145828
0.00610561
0.00508414
0.00548142
0.00716767
0.00805752
0.00844624
0.0086769
0.00881401
0.00873721
0.0082984
0.00748419
0.00644482
0.00542457
0.00462954
0.00416648
0.00401018
0.00393586
0.00380689
0.00358495
0.00328348
0.00293949
0.0026327
0.00243263
0.00230746
0.00220932
0.00211052
0.00199236
0.0018365
0.0016304
0.00140127
0.0011621
0.000941497
0.000777768
0.000668527
0.000758493
0.00190275
0.00113166
0.0166799
0.0505009
0.0257428
0.0124265
0.0092307
0.00919036
0.00994002
0.00998987
0.00987067
0.00982846
0.00981408
0.00960377
0.00898907
0.00794624
0.00665763
0.00544722
0.00460314
0.00424125
0.00419742
0.00417448
0.00402665
0.00375018
0.00339805
0.00303693
0.00274735
0.00257079
0.00246832
0.00239493
0.00232895
0.00225956
0.002176
0.00204776
0.00186326
0.00165648
0.00146891
0.0013252
0.00123826
0.00135286
0.00270376
0.001719
0.017529
0.05214
0.0350694
0.025299
0.0196739
0.0165051
0.0140423
0.0124585
0.0116239
0.0113009
0.0111307
0.0107174
0.00980662
0.00842868
0.00683284
0.00546387
0.00463221
0.00433117
0.00427807
0.00418856
0.00396817
0.00365169
0.00330465
0.00299092
0.00275894
0.0026148
0.00252668
0.00246963
0.00243975
0.0024456
0.00249848
0.00260481
0.00271311
0.00278279
0.00291339
0.00323739
0.00384532
0.00452927
0.00980592
0.00293223
0.0167823
0.0241969
0.02282
0.020134
0.0174896
0.0154316
0.0140245
0.0132196
0.0129323
0.0129093
0.0126957
0.0118923
0.0103822
0.00846897
0.00650024
0.00520441
0.00457624
0.00431491
0.00417939
0.00401327
0.0037764
0.00349837
0.00322641
0.00299633
0.00282034
0.00268675
0.00257647
0.00248392
0.00242033
0.00240571
0.00245732
0.0025808
0.00277162
0.00303489
0.00338242
0.00381949
0.00428562
0.00467937
0.00496368
0.00279791
0.00895631
0.0131794
0.0148686
0.0153935
0.0153349
0.0152505
0.0152639
0.0149911
0.0138774
0.0118186
0.00896147
0.00683867
0.0055382
0.00487576
0.00456359
0.00440102
0.00427039
0.00412133
0.00395456
0.00378841
0.00363979
0.00350435
0.00336093
0.00318916
0.00298005
0.0027441
0.00251226
0.00232993
0.00224509
0.00227739
0.00242559
0.00267538
0.00301223
0.00340172
0.00374884
0.00389191
0.00366067
0.00212752
0.00761269
0.0150319
0.0167284
0.0165347
0.0160716
0.0161198
0.0161511
0.0151379
0.0128873
0.0102281
0.00794775
0.00653239
0.00578116
0.00545017
0.00534182
0.00533837
0.00537835
0.0054314
0.00548638
0.00553789
0.00557297
0.00557418
0.00551741
0.00537508
0.00512859
0.00477961
0.00435689
0.00391137
0.00349818
0.00317441
0.00298394
0.00293763
0.00301975
0.00317147
0.00331047
0.00343581
0.00284227
0.00231403
0.00572689
0.00636307
0.00686551
0.00752731
0.00621497
0.00507821
0.00484938
0.00486374
0.00475702
0.00443669
0.0039682
0.00348019
0.00302858
0.00271295
0.00252543
0.00242157
0.00236443
0.00232882
0.00230004
0.00227193
0.00224272
0.00221092
0.00217414
0.00212771
0.00206745
0.00199259
0.00190683
0.00181889
0.00174101
0.00168559
0.00166261
0.00167574
0.00172471
0.00180942
0.00192555
0.00205286
0.00211623
0.00185353
0.00171992
0.00266476
)
;

boundaryField
{
    floor
    {
        type            kqRWallFunction;
        value           nonuniform List<scalar> 
36
(
0.00188583
0.0003665
0.000532297
0.000723395
0.000806466
0.000792176
0.000696474
0.000595471
0.000511195
0.00044317
0.000387908
0.000342583
0.000305276
0.000273911
0.000246704
0.000222011
0.000197933
0.000176332
0.00014166
0.00014166
0.000206089
0.000260884
0.000337589
0.00050234
0.000559159
0.000606511
0.00188583
0.00284632
0.00186887
0.00114585
0.0003665
0.00114585
0.000369918
0.00196633
0.00109124
0.00273963
)
;
    }
    ceiling
    {
        type            kqRWallFunction;
        value           nonuniform List<scalar> 
43
(
0.00572689
0.00636307
0.00686551
0.00752731
0.00621497
0.00507821
0.00484938
0.00486374
0.00475702
0.00443669
0.0039682
0.00348019
0.00302858
0.00271295
0.00252543
0.00242157
0.00236443
0.00232882
0.00230004
0.00227193
0.00224272
0.00221092
0.00217414
0.00212771
0.00206745
0.00199259
0.00190683
0.00181889
0.00174101
0.00168559
0.00166261
0.00167574
0.00172471
0.00180942
0.00192555
0.00205286
0.00211623
0.00185353
0.00171992
0.00266476
0.0167823
0.0241969
0.00761269
)
;
    }
    sWall
    {
        type            kqRWallFunction;
        value           uniform 0.00572689;
    }
    nWall
    {
        type            kqRWallFunction;
        value           nonuniform List<scalar> 6(0.000606511 0.00113166 0.001719 0.00212752 0.00231403 0.00266476);
    }
    sideWalls
    {
        type            empty;
    }
    glass1
    {
        type            kqRWallFunction;
        value           nonuniform List<scalar> 9(0.00210312 0.00383048 0.00566818 0.00777942 0.0102863 0.0133501 0.0166799 0.017529 0.0167823);
    }
    glass2
    {
        type            kqRWallFunction;
        value           nonuniform List<scalar> 2(0.00293223 0.00279791);
    }
    sun
    {
        type            kqRWallFunction;
        value           nonuniform List<scalar> 
14
(
0.00210312
0.00250168
0.00261345
0.00287165
0.00312169
0.00336895
0.00362716
0.00388295
0.00407766
0.00417039
0.00412148
0.00390431
0.00350673
0.002903
)
;
    }
    Table_master
    {
        type            kqRWallFunction;
        value           nonuniform List<scalar> 9(0.00131966 0.000993749 0.000762147 0.000599362 0.000483548 0.000399628 0.000337965 0.000292387 0.000259803);
    }
    Table_slave
    {
        type            kqRWallFunction;
        value           nonuniform List<scalar> 9(0.00169519 0.0013995 0.00121384 0.00108702 0.000989994 0.000903607 0.000822303 0.00074288 0.000656789);
    }
    inlet
    {
        type            turbulentIntensityKineticEnergyInlet;
        intensity       0.05;
        value           uniform 0.0003375;
    }
    outlet
    {
        type            zeroGradient;
    }
}


// ************************************************************************* //
