/*--------------------------------*- C++ -*----------------------------------*\
  =========                 |
  \\      /  F ield         | OpenFOAM: The Open Source CFD Toolbox
   \\    /   O peration     | Website:  https://openfoam.org
    \\  /    A nd           | Version:  6
     \\/     M anipulation  |
\*---------------------------------------------------------------------------*/
FoamFile
{
    version     2.0;
    format      ascii;
    class       volScalarField;
    location    "2400";
    object      k;
}
// * * * * * * * * * * * * * * * * * * * * * * * * * * * * * * * * * * * * * //

dimensions      [0 2 -2 0 0 0 0];

internalField   nonuniform List<scalar> 
458
(
0.00215838
0.00255636
0.00260666
0.0028533
0.00309253
0.0033219
0.00354889
0.00378591
0.00398687
0.00410998
0.00412624
0.00401613
0.00378238
0.00346194
0.00310542
0.000381197
0.000589706
0.000717831
0.000689187
0.000635461
0.000560309
0.000487988
0.000426524
0.000375475
0.000332976
0.000297737
0.000268036
0.000242526
0.00022003
0.000199307
0.000178931
0.000167619
0.000140742
0.00418236
0.0079418
0.00430338
0.00453036
0.00492671
0.00536823
0.00583922
0.00632867
0.00680717
0.00719123
0.00737924
0.00728592
0.00686077
0.0061033
0.00498929
0.00324895
0.00199451
0.00137232
0.000533173
0.00103988
0.00118818
0.00120275
0.0011281
0.00096056
0.000800413
0.000669434
0.000565639
0.000483251
0.000416651
0.000362181
0.000317129
0.000280809
0.000255931
0.00024127
0.000431506
0.000255075
0.00639188
0.0149411
0.00557043
0.00529567
0.00567465
0.00617301
0.00673135
0.00734785
0.00796956
0.00847992
0.00877087
0.00877509
0.00847091
0.00792242
0.00725826
0.00640475
0.00497727
0.00277677
0.00202603
0.00188603
0.00175467
0.00161962
0.00146025
0.00112552
0.000870887
0.000690174
0.000560843
0.000466493
0.000396238
0.000342923
0.000302032
0.000271095
0.000248779
0.000246757
0.000624072
0.000349252
0.00896373
0.0246764
0.00737916
0.0057197
0.00596684
0.00650094
0.00715009
0.00792826
0.00868363
0.00925664
0.00957762
0.00962027
0.00936654
0.00885968
0.00817184
0.00727878
0.00621112
0.00539009
0.00366456
0.00303071
0.00260821
0.00228809
0.00202104
0.00177574
0.00137219
0.00113459
0.000992662
0.000900217
0.00082983
0.000763141
0.000698329
0.000633522
0.000561033
0.00042598
0.000344285
0.000816935
0.000444442
0.0120174
0.037304
0.0113642
0.00652575
0.00635931
0.00688886
0.00769236
0.00875931
0.00961025
0.0101375
0.0103937
0.010396
0.0101058
0.00951153
0.00864409
0.00755936
0.00638564
0.00533513
0.00440153
0.00369483
0.00312236
0.0026577
0.00229048
0.0020014
0.00177482
0.00163828
0.00155773
0.00149586
0.0014276
0.00133547
0.00120615
0.00105666
0.000897049
0.000708071
0.00053991
0.000697945
0.000778385
0.000769315
0.000921134
0.00110133
0.0156908
0.0503135
0.0202661
0.00975315
0.00823225
0.00846243
0.00948038
0.0106114
0.0112043
0.0114436
0.0114966
0.011377
0.0109984
0.0102722
0.00919312
0.00786201
0.00648457
0.0052936
0.00438188
0.00372043
0.00317627
0.00271151
0.00234212
0.00207463
0.00191453
0.00184829
0.00182308
0.00180132
0.00176127
0.00168433
0.00154858
0.00136431
0.00116271
0.000952669
0.000772444
0.00072058
0.00078955
0.000819981
0.00139146
0.00117212
0.0193489
0.0582963
0.0339657
0.0200621
0.0158362
0.0143718
0.014392
0.014133
0.0137101
0.0133301
0.0130396
0.0127178
0.0121667
0.0112286
0.00988183
0.00826578
0.00663455
0.00526006
0.00425785
0.00355583
0.00301615
0.00257732
0.00224797
0.00203613
0.00193845
0.0019256
0.00194889
0.00197944
0.00200224
0.00200165
0.00195523
0.00180654
0.00160681
0.00139152
0.00121935
0.00113329
0.00118514
0.00136107
0.00183829
0.00161185
0.0200048
0.0565899
0.0407955
0.0340258
0.0289497
0.0246848
0.0210217
0.0182867
0.0165344
0.0155514
0.0149874
0.0144577
0.0136321
0.012321
0.010549
0.00853645
0.0065806
0.00500722
0.0039228
0.00318376
0.002681
0.00231078
0.00206183
0.00192623
0.00188532
0.00190988
0.00197165
0.00205721
0.00216372
0.00229165
0.00243974
0.00258913
0.00263471
0.00264414
0.00277179
0.00323416
0.00422223
0.00552692
0.0103943
0.0039426
0.0188372
0.0261329
0.0253765
0.022588
0.0202948
0.0185745
0.0175109
0.0171808
0.0173088
0.0175031
0.017387
0.0166906
0.0152763
0.0131679
0.0106287
0.00807629
0.00578701
0.00422
0.00329155
0.00269212
0.00228221
0.00200364
0.00183682
0.00176123
0.00175287
0.00179036
0.00186057
0.00195967
0.00208922
0.00225217
0.00244978
0.00267998
0.00295238
0.00329145
0.00374936
0.00430378
0.00483472
0.00519343
0.00539211
0.0035764
0.00825336
0.0207695
0.0231093
0.0244899
0.0256591
0.0259491
0.0252077
0.0235156
0.0211196
0.0182088
0.0149024
0.011315
0.00799783
0.00563794
0.00405741
0.0030974
0.00252372
0.00215787
0.00191756
0.00176418
0.00167188
0.00162167
0.00160214
0.00160662
0.0016343
0.00168856
0.00177545
0.00190293
0.00208093
0.00232159
0.00262902
0.00299683
0.00341514
0.00382114
0.004082
0.00407678
0.00383296
0.0025142
0.00864289
0.022453
0.025683
0.0245047
0.0242023
0.0232253
0.0211273
0.0183575
0.0153358
0.0123525
0.00959588
0.00716286
0.00524023
0.0039433
0.00315195
0.00270835
0.00246863
0.00233593
0.00225278
0.00218472
0.00211428
0.00204136
0.00197661
0.00192429
0.0018904
0.0018823
0.00190797
0.0019759
0.00209442
0.00228244
0.00254941
0.00289397
0.00329317
0.0036887
0.00394056
0.00422591
0.00425006
0.0026238
0.00618704
0.00722548
0.00801937
0.00936875
0.00920584
0.00885017
0.00841056
0.00768291
0.00677302
0.00583235
0.00489926
0.00399438
0.00316138
0.00244457
0.00188916
0.0015082
0.00126534
0.0011135
0.00101709
0.000953486
0.000910168
0.000880464
0.00086403
0.000861183
0.000869041
0.000889287
0.000923861
0.000974886
0.00104502
0.00113836
0.00126225
0.00141402
0.00159387
0.00180599
0.00205245
0.00235018
0.00248959
0.00238279
0.00209365
0.00183123
)
;

boundaryField
{
    floor
    {
        type            kqRWallFunction;
        value           nonuniform List<scalar> 
36
(
0.00310542
0.000381197
0.000589706
0.000717831
0.000689187
0.000635461
0.000560309
0.000487988
0.000426524
0.000375475
0.000332976
0.000297737
0.000268036
0.000242526
0.00022003
0.000199307
0.000178931
0.000167619
0.000140742
0.000140742
0.000255075
0.000349252
0.000444442
0.000769315
0.000921134
0.00110133
0.00310542
0.00324895
0.00199451
0.00137232
0.000381197
0.00137232
0.000533173
0.00277677
0.00202603
0.00366456
)
;
    }
    ceiling
    {
        type            kqRWallFunction;
        value           nonuniform List<scalar> 
43
(
0.00618704
0.00722548
0.00801937
0.00936875
0.00920584
0.00885017
0.00841056
0.00768291
0.00677302
0.00583235
0.00489926
0.00399438
0.00316138
0.00244457
0.00188916
0.0015082
0.00126534
0.0011135
0.00101709
0.000953486
0.000910168
0.000880464
0.00086403
0.000861183
0.000869041
0.000889287
0.000923861
0.000974886
0.00104502
0.00113836
0.00126225
0.00141402
0.00159387
0.00180599
0.00205245
0.00235018
0.00248959
0.00238279
0.00209365
0.00183123
0.0188372
0.0261329
0.00864289
)
;
    }
    sWall
    {
        type            kqRWallFunction;
        value           uniform 0.00618704;
    }
    nWall
    {
        type            kqRWallFunction;
        value           nonuniform List<scalar> 6(0.00110133 0.00117212 0.00161185 0.0025142 0.0026238 0.00183123);
    }
    sideWalls
    {
        type            empty;
    }
    glass1
    {
        type            kqRWallFunction;
        value           nonuniform List<scalar> 9(0.00215838 0.00418236 0.00639188 0.00896373 0.0120174 0.0156908 0.0193489 0.0200048 0.0188372);
    }
    glass2
    {
        type            kqRWallFunction;
        value           nonuniform List<scalar> 2(0.0039426 0.0035764);
    }
    sun
    {
        type            kqRWallFunction;
        value           nonuniform List<scalar> 
14
(
0.00215838
0.00255636
0.00260666
0.0028533
0.00309253
0.0033219
0.00354889
0.00378591
0.00398687
0.00410998
0.00412624
0.00401613
0.00378238
0.00346194
)
;
    }
    Table_master
    {
        type            kqRWallFunction;
        value           nonuniform List<scalar> 9(0.00112552 0.000870887 0.000690174 0.000560843 0.000466493 0.000396238 0.000342923 0.000302032 0.000271095);
    }
    Table_slave
    {
        type            kqRWallFunction;
        value           nonuniform List<scalar> 9(0.00137219 0.00113459 0.000992662 0.000900217 0.00082983 0.000763141 0.000698329 0.000633522 0.000561033);
    }
    inlet
    {
        type            turbulentIntensityKineticEnergyInlet;
        intensity       0.05;
        value           uniform 0.0003375;
    }
    outlet
    {
        type            zeroGradient;
    }
}


// ************************************************************************* //
