/*--------------------------------*- C++ -*----------------------------------*\
  =========                 |
  \\      /  F ield         | OpenFOAM: The Open Source CFD Toolbox
   \\    /   O peration     | Website:  https://openfoam.org
    \\  /    A nd           | Version:  6
     \\/     M anipulation  |
\*---------------------------------------------------------------------------*/
FoamFile
{
    version     2.0;
    format      ascii;
    class       volScalarField;
    location    "1000";
    object      nut;
}
// * * * * * * * * * * * * * * * * * * * * * * * * * * * * * * * * * * * * * //

dimensions      [0 2 -1 0 0 0 0];

internalField   nonuniform List<scalar> 
458
(
0.00107572
0.00118298
0.00122616
0.00128968
0.00134816
0.0014042
0.00146125
0.00151885
0.00156789
0.00160188
0.0016122
0.00158957
0.00152128
0.00134956
0.00105156
0.000255522
0.000291047
0.000307921
0.000310734
0.000295136
0.000265817
0.00024896
0.000235674
0.00022579
0.000221102
0.000221291
0.000226943
0.000240745
0.000264991
0.000298925
0.000330631
0.00033124
0.00026081
0.00139146
0.00324898
0.00307284
0.00353656
0.00402766
0.00452885
0.00497335
0.00534031
0.005731
0.00611952
0.0064638
0.00671181
0.00680263
0.00655041
0.00518469
0.00138952
0.00114901
0.00090107
0.000319231
0.000748905
0.00100671
0.00123667
0.00129603
0.000929946
0.000898389
0.000857657
0.000787598
0.000688988
0.000598339
0.000524918
0.00047483
0.000495359
0.000620176
0.000681984
0.000596928
0.000336601
0.00165647
0.00438268
0.00380333
0.00449591
0.00487869
0.00515687
0.00536949
0.00558353
0.00589069
0.00629614
0.00678388
0.00728738
0.00771903
0.00785835
0.00741639
0.00610809
0.00451088
0.00118949
0.000458189
0.000862458
0.00120959
0.00150995
0.00159425
0.000614705
0.000507359
0.000436916
0.000389051
0.000353827
0.000326415
0.000304129
0.000284905
0.000274726
0.000529097
0.000817908
0.000822694
0.000425118
0.00191256
0.00546439
0.00378168
0.00465575
0.00484677
0.00483912
0.00482541
0.00492716
0.00517266
0.00558625
0.00617734
0.00684137
0.00745824
0.00780146
0.00782085
0.00744399
0.00637014
0.00347201
0.00132692
0.00123773
0.00130954
0.00144818
0.0016565
0.0018209
0.00085518
0.000812935
0.000779706
0.000751797
0.000726688
0.000702437
0.000678711
0.000653338
0.000624304
0.000653919
0.000730135
0.000854481
0.000523614
0.00217942
0.00691497
0.00392419
0.00446671
0.00468911
0.0045229
0.00438566
0.00445669
0.00468067
0.00510591
0.00576909
0.00648872
0.00710772
0.0074939
0.00762084
0.00751255
0.0070257
0.00568439
0.00427794
0.00384726
0.00371944
0.0037452
0.00382911
0.00392199
0.00385142
0.00380111
0.0037493
0.00368529
0.00360189
0.00348405
0.00329
0.00300568
0.00263094
0.00224892
0.00192738
0.00165821
0.00124634
0.000596221
0.000594372
0.000564579
0.002473
0.00859307
0.00520454
0.0042219
0.00449499
0.00450618
0.00428737
0.00436273
0.00455972
0.00498026
0.00564626
0.00640306
0.0070311
0.00738587
0.00746849
0.00737998
0.00717448
0.00671968
0.00618664
0.00594362
0.00586931
0.00588008
0.00591778
0.00594504
0.00592751
0.00586493
0.00575981
0.00561251
0.00542166
0.00518167
0.00487845
0.00450059
0.00405315
0.00357447
0.00311583
0.00270975
0.00236744
0.00207693
0.00208534
0.000788193
0.00276111
0.00984421
0.00745461
0.00519583
0.00465564
0.00472271
0.00461358
0.00454002
0.00465143
0.00508478
0.00581167
0.00662203
0.00725694
0.00756943
0.00759717
0.00751027
0.0074827
0.00749583
0.00746831
0.00745496
0.00743665
0.00739729
0.00732803
0.00722414
0.00708244
0.00690361
0.00668892
0.00643779
0.00614427
0.00579435
0.00537348
0.00489145
0.00440279
0.00398643
0.00369397
0.00353107
0.00342964
0.00319661
0.00300286
0.000973915
0.00283501
0.00900668
0.00779446
0.00676634
0.00603849
0.005563
0.00500117
0.00469012
0.00480769
0.00538351
0.00626427
0.00714696
0.00775492
0.00799327
0.0079958
0.00799421
0.00815536
0.00827935
0.00831363
0.00827981
0.0081782
0.00801544
0.00780386
0.00755597
0.00728155
0.00698654
0.00667111
0.0063236
0.00591936
0.00541736
0.00479518
0.00412323
0.00355085
0.00314954
0.00285916
0.00259015
0.00230349
0.00203656
0.00182112
0.000991431
0.00278228
0.00335294
0.0037013
0.00387624
0.00389407
0.00385594
0.00390349
0.00423029
0.00494364
0.00599502
0.00712621
0.00799305
0.00841716
0.00847293
0.00852391
0.00849865
0.00839907
0.00830697
0.00820599
0.0080514
0.007825
0.0075372
0.00720836
0.00685656
0.00649343
0.0061242
0.00574848
0.00535902
0.00494223
0.00448244
0.00398308
0.00348774
0.00305238
0.00269317
0.00238531
0.00209785
0.00182621
0.00159754
0.00142343
0.00121685
0.00105521
0.00183277
0.00254934
0.00325568
0.00415491
0.00528016
0.00651191
0.00772075
0.00858332
0.00888398
0.00881993
0.00849557
0.00813383
0.00781798
0.00758681
0.00741774
0.00724983
0.00703936
0.00678051
0.00648826
0.00617933
0.00586447
0.00554876
0.00523486
0.00492583
0.00462606
0.00434072
0.00407383
0.00382654
0.00359685
0.00337974
0.0031699
0.00296617
0.00277061
0.00259674
0.00246954
0.002264
0.00129618
0.00163895
0.00383739
0.00503075
0.00632721
0.00742013
0.00800061
0.00852983
0.00909846
0.00914912
0.00865234
0.00793677
0.00727951
0.0068033
0.00650948
0.00633955
0.00623237
0.00614441
0.00605321
0.00595188
0.00584054
0.00572015
0.0055905
0.00545075
0.00530059
0.00514104
0.00497479
0.00480586
0.00463857
0.00447603
0.00431841
0.00416171
0.00399847
0.00381866
0.00360453
0.00341869
0.00347441
0.00337837
0.00149038
0.00190844
0.00197308
0.00202946
0.00233904
0.0022533
0.00210537
0.00197851
0.00194141
0.00191579
0.00185806
0.00176256
0.00166033
0.00155603
0.00147973
0.00143695
0.00141595
0.00140711
0.00140398
0.00140235
0.00139998
0.001396
0.00139023
0.00138271
0.00137353
0.00136285
0.00135094
0.0013382
0.00132517
0.0013124
0.00130038
0.00128943
0.00127965
0.00127082
0.00126197
0.00124976
0.001226
0.00119805
0.00116631
0.00116736
0.00121589
)
;

boundaryField
{
    floor
    {
        type            nutkWallFunction;
        Cmu             0.09;
        kappa           0.41;
        E               9.8;
        value           nonuniform List<scalar> 
36
(
0.000126791
2.7216e-05
3.2127e-05
3.44318e-05
3.48144e-05
3.26872e-05
2.86494e-05
2.62996e-05
2.4432e-05
2.30329e-05
2.2366e-05
2.23913e-05
2.31913e-05
2.51366e-05
2.85214e-05
3.31952e-05
3.75039e-05
3.75919e-05
2.79553e-05
2.79552e-05
3.82864e-05
5.00164e-05
6.26956e-05
7.18419e-05
7.16169e-05
6.78816e-05
0.000126791
0.000165711
0.000138142
0.000109022
2.72159e-05
0.000109022
3.59655e-05
0.000142826
5.43242e-05
0.000158594
)
;
    }
    ceiling
    {
        type            nutkWallFunction;
        Cmu             0.09;
        kappa           0.41;
        E               9.8;
        value           nonuniform List<scalar> 
43
(
0.000223394
0.000230457
0.000236599
0.000270063
0.000260887
0.000244939
0.00023116
0.000227119
0.000224326
0.000218002
0.00020748
0.000196147
0.000184502
0.000175929
0.0001711
0.000168723
0.000167722
0.000167368
0.000167183
0.000166914
0.000166463
0.000165808
0.000164954
0.000163911
0.000162697
0.00016134
0.000159889
0.000158403
0.000156945
0.000155573
0.000154322
0.000153204
0.000152196
0.000151184
0.000149786
0.000147058
0.000143841
0.000140173
0.000140293
0.000145904
0.000317381
0.000376901
0.000193601
)
;
    }
    sWall
    {
        type            nutkWallFunction;
        Cmu             0.09;
        kappa           0.41;
        E               9.8;
        value           uniform 0.000223451;
    }
    nWall
    {
        type            nutkWallFunction;
        Cmu             0.09;
        kappa           0.41;
        E               9.8;
        value           nonuniform List<scalar> 6(6.78765e-05 9.54697e-05 0.000117668 0.000155129 0.00017717 0.000145912);
    }
    sideWalls
    {
        type            empty;
    }
    glass1
    {
        type            nutkWallFunction;
        Cmu             0.09;
        kappa           0.41;
        E               9.8;
        value           nonuniform List<scalar> 9(0.000129702 0.000166097 0.000195922 0.000224247 0.000253329 0.000284887 0.000315476 0.000323273 0.00031773);
    }
    glass2
    {
        type            nutkWallFunction;
        Cmu             0.09;
        kappa           0.41;
        E               9.8;
        value           nonuniform List<scalar> 2(0.000119751 0.000146037);
    }
    sun
    {
        type            nutkWallFunction;
        Cmu             0.09;
        kappa           0.41;
        E               9.8;
        value           nonuniform List<scalar> 
14
(
0.000129615
0.000142067
0.000147044
0.000154331
0.000161003
0.000167367
0.000173816
0.000180301
0.0001858
0.000189601
0.000190753
0.000188226
0.000180577
0.000161173
)
;
    }
    Table_master
    {
        type            nutkWallFunction;
        Cmu             0.09;
        kappa           0.41;
        E               9.8;
        value           nonuniform List<scalar> 9(7.41747e-05 6.06377e-05 5.15642e-05 4.52936e-05 4.06158e-05 3.6934e-05 3.39109e-05 3.12794e-05 2.98759e-05);
    }
    Table_slave
    {
        type            nutkWallFunction;
        Cmu             0.09;
        kappa           0.41;
        E               9.8;
        value           nonuniform List<scalar> 9(0.000103543 9.84633e-05 9.44455e-05 9.10547e-05 8.79906e-05 8.5019e-05 8.20992e-05 7.8963e-05 7.53564e-05);
    }
    inlet
    {
        type            calculated;
        value           uniform 0.000167705;
    }
    outlet
    {
        type            calculated;
        value           nonuniform List<scalar> 2(0.00190844 0.00197308);
    }
}


// ************************************************************************* //
