/*--------------------------------*- C++ -*----------------------------------*=========                 |
  \      /  F ield         | OpenFOAM: The Open Source CFD Toolbox
   \    /   O peration     | Website:  https://openfoam.org
    \  /    A nd           | Version:  6
     \/     M anipulation  |
\*---------------------------------------------------------------------------*/
FoamFile
{
    version     2.0;
    format      ascii;
    class       volScalarField;
    location    "1000";
    object      PPD;
}
// * * * * * * * * * * * * * * * * * * * * * * * * * * * * * * * * * * * * * //

dimensions      [0 0 0 0 0 0 0];

internalField   nonuniform List<scalar> 
458
(
90.4644958472703
85.83190470577173
85.08996558832335
84.52538916308444
84.10082544376787
83.82311716118514
83.66305092663578
83.66463613437686
83.7919054214471
84.12082719558849
84.75420783815026
85.7617346972223
87.13997409810936
87.95664367320215
88.5465753398607
84.82682385639167
85.03324669132832
84.94744057736573
84.68827984899805
84.30346524316786
83.82357546012192
83.40820363513046
83.02370522396043
82.690177230799
82.46580788029524
82.27760679530836
82.10727626738418
81.95511891128193
81.7830984482764
81.53305459783184
81.14477161741547
80.17527458138262
79.15988657246122
90.8102212152791
86.441020573096
86.0010667373364
85.54214157970789
85.19909906589861
84.95072659059045
84.79070085062266
84.6812895021701
84.55128949413239
84.43550467367228
84.54690021014744
85.1067194394027
86.13863663464235
87.54769770975868
87.98659159024962
87.98594616514045
88.18285104474565
88.79018926237562
85.25498026125965
86.00726178423385
86.52774029360872
86.89436782332702
87.20808530855126
87.37860916967719
87.25473411218309
87.03612705917968
86.75164983283688
86.35018741209123
85.89179997051369
85.50837598683955
85.15288641637343
84.5489944226545
83.51714227179878
82.44703786760405
81.91696920992693
81.12492262947525
92.15357115249537
86.78484635456775
86.8516065953048
86.72983831904024
86.68766109640299
86.6447164719138
86.56140950185979
86.38766574706436
85.84900792471556
85.00547173257499
84.31337665914285
84.2564770570177
85.01827119914331
86.39829349732379
87.43043961609109
87.6596463094317
87.76707058713221
87.65222970608795
85.25040013314569
86.62398515579555
87.39404017846182
87.91163272075518
88.28345769782335
88.53205862647923
88.79154330077219
88.96239729164566
89.04718394582694
89.07535133742861
89.07535133742861
89.07535133742861
89.0048439644398
88.56108018065612
87.71535018426628
86.0565690495607
85.79237451607645
88.04634489673711
93.77623105326592
87.2123273432818
87.53255132405654
87.84740982350289
88.31107333211642
88.67194858411868
88.84364672099879
88.60425775368762
87.46369226575207
85.60879487049536
83.92122522972838
83.34615119558623
84.04737691531435
85.37951208069701
86.6228419941277
87.20250166771123
87.15478330377917
86.80830470472375
86.68406649750273
86.87160258314393
87.22770660838236
87.52264423578295
87.82288131029476
88.0845857983832
88.35954940912315
88.64660060593962
88.93872659526974
89.21825531941106
89.48712319661097
89.74836257414042
89.99383464602539
90.25930136610417
90.50467590043921
90.33207280698012
89.98142448450395
89.98987043788476
90.36407296629835
95.30317138990577
87.92005514088706
88.10639092763508
88.72428814790558
89.6785586989703
90.63191907410146
91.2617193664974
90.60635372360404
88.62188714040335
85.79033982525223
83.36004221156144
82.53561634930767
83.23126954715906
84.74956186276897
86.24887395336101
87.19461628810498
87.39199141796513
87.25701231031206
87.33548036741381
87.6171576937773
87.98236215800837
88.37696049987069
88.76937013167272
89.1730828574275
89.56760580028555
89.94650638308067
90.31282065838154
90.65435725641576
90.96082902647329
91.24727099139494
91.47660729809827
91.6495741798177
91.74841132698818
91.68759061339497
91.47416362786724
91.16683723104286
90.69836901209663
90.70309127405716
90.70998172689819
90.7674616822689
96.50621231743285
89.00576542772625
89.00757225274275
89.4122771983807
90.47507285702392
91.95580458876091
92.63248894850557
91.11784809631247
88.59823271468696
85.30756159033643
82.5874661255155
81.65565675015182
82.63218843999624
84.5883848818153
86.52325550764479
87.86569204305209
88.40028856131386
88.4928075464536
88.66984922406068
89.00468039972901
89.45792302476423
89.92057019012269
90.37706866395632
90.81138909213618
91.21280017774598
91.59663592721468
91.94211238188605
92.2403009111078
92.51573836972894
92.74755698720853
92.93484988103606
93.06212584457874
93.10991042419852
93.04030165355098
92.85856273568074
92.57943156389742
92.27506215560916
92.18619442363459
91.78495357861678
91.37691892752595
97.40024613247665
90.97892085866704
91.24939832317108
90.8360344531678
91.18985119900736
91.94648324686695
91.92733872142124
90.50786348033968
87.51172380814113
83.73007862935795
80.96989506974023
80.59821958468305
82.40849548032743
85.12625529774175
87.62064425188606
89.3614666240671
90.25149319330747
90.47765646588462
90.67532753825243
91.00902213082833
91.42107521234686
91.839594402944
92.25328388073518
92.62815358175123
92.97791664762613
93.2778145879606
93.52614509736078
93.74867148696332
93.94693006650955
94.12230241797619
94.2760202176211
94.39155057756025
94.46178245977455
94.46178245977455
94.39155057756025
94.23174698080832
93.97098293116008
93.65726404820053
92.80112600033941
91.67976103034628
98.37332271853528
95.64441810814446
94.70354665620043
93.47530185945739
92.99885960346536
92.9404102794514
91.94585974931825
89.07675459921944
84.54514393077832
80.19769133243092
78.30584850918677
79.64213869182467
83.09995181693793
86.82733434954908
89.81260015441511
91.32155249193895
91.89847451657573
92.1373537418905
92.34918455575864
92.63248894850557
92.95002788920965
93.2778145879606
93.59447002230024
93.87195336956138
94.13142787023297
94.35618825427005
94.55728296101616
94.74460085147314
94.91886986224338
95.08077312757
95.23095017586874
95.3470398549399
95.39287039398441
95.17665038918658
94.77210641544215
94.26558103563507
93.74066933014335
93.2228830353592
92.62190541893673
91.66613121015897
100.0
98.49428302864337
97.60672795794417
96.45317641435813
95.30966445659918
94.06074015670451
89.82688504615192
82.76600052564463
76.01431095693924
73.27335864830633
75.27888163948558
80.27998156272768
85.94994112371853
90.23513852739967
92.19349347727784
93.0123426063153
93.34802889358971
93.50659838872461
93.71037730565094
93.95625469274667
94.23112061891025
94.50534476516002
94.75299936198948
94.97598484743668
95.17603069227985
95.3547022162947
95.50594521809964
95.61392005863964
95.70170721247099
95.77497348656733
95.8125761987855
95.8064678837254
95.7322852366155
95.59157064777814
95.44167881131652
95.36755366270856
95.48306435841396
95.85373125770137
96.36486575586515
97.06419451915647
5.00810987934004
11.604788505662242
22.06116436941295
27.236512987585428
33.02717679499773
41.39051719236623
52.65770404676015
65.75498393050127
77.53950808389946
86.34038836903962
91.1882391853609
92.84285392803382
93.5053696783454
93.8477187952601
94.06501362933751
94.25897816198702
94.48531628538949
94.73917634648045
94.9953608932524
95.23558388808343
95.44610015171607
95.62309318757872
95.77029958546235
95.8977533940127
96.00032592737271
96.09352384079303
96.16461761169583
96.21465415874432
96.25081231770781
96.25295938286324
96.22014833451335
96.17026240881167
96.11979670031573
96.10838710899745
96.19940501468004
96.45749984927892
97.20259458202158
97.16758839559701
5.161302833377832
18.263609363171753
32.65204486445303
43.65677860529069
54.346049929860826
65.39414845718687
75.9854197574195
84.5757040581102
88.8477865024205
91.53755412017979
93.17728704154582
93.99326937100479
94.41453811507984
94.67961259161982
94.87530382945332
95.0706963505521
95.26926326975205
95.46721491967473
95.65538806285443
95.8271948279479
95.97746303270759
96.10879856094455
96.20948505578768
96.30280812010427
96.37657031180954
96.43924749524828
96.49224091845768
96.53697334176897
96.56864635951152
96.59629137571584
96.61838419322707
96.6564934708881
96.73204054329757
96.81895665255637
96.83126838445152
96.77474953032927
96.89012459668791
97.06622699214712
16.06403871820926
15.22983129075729
16.910096494249558
36.95743137739036
56.043197447994096
72.03935057519035
81.94057445219897
86.83906489658106
89.85351275907863
91.90671182976192
93.16652066155255
93.96627197797476
94.48938320815377
94.81742344458938
95.04514913140325
95.22330816421808
95.380416021104
95.5251904341486
95.66563271501418
95.80150322329003
95.92522907742095
96.030116942749
96.12523619151037
96.20383733982942
96.26687719327082
96.32251214062458
96.36383660370731
96.39861084074096
96.41975594244268
96.43457118349178
96.44286064211934
96.44424121543419
96.4380069770827
96.42271667797912
96.41007204236561
96.4385223998479
96.54278779713776
96.70060636499738
96.90330781440194
97.1356742210679
)
;

boundaryField
{
    ".*"
    {
        type            zeroGradient;
    }
}


// ************************************************************************* //
