/*--------------------------------*- C++ -*----------------------------------*\
  =========                 |
  \\      /  F ield         | OpenFOAM: The Open Source CFD Toolbox
   \\    /   O peration     | Website:  https://openfoam.org
    \\  /    A nd           | Version:  6
     \\/     M anipulation  |
\*---------------------------------------------------------------------------*/
FoamFile
{
    version     2.0;
    format      ascii;
    class       volVectorField;
    location    "200";
    object      U;
}
// * * * * * * * * * * * * * * * * * * * * * * * * * * * * * * * * * * * * * //

dimensions      [0 1 -1 0 0 0 0];

internalField   nonuniform List<vector> 
458
(
(0.109241 0.0703744 0)
(-0.143507 0.000646514 0)
(-0.120819 0.00520005 0)
(-0.134747 0.00668628 0)
(-0.148877 0.00592799 0)
(-0.161741 0.00417726 0)
(-0.172126 0.00176654 0)
(-0.179127 -0.00124288 0)
(-0.18192 -0.00489046 0)
(-0.179611 -0.00929065 0)
(-0.17056 -0.0148019 0)
(-0.152367 -0.0218226 0)
(-0.124176 -0.0318248 0)
(-0.0962258 -0.0478517 0)
(-0.10274 -0.0696419 0)
(0.0671202 0.00514664 0)
(-0.0195883 -0.0135834 0)
(0.00709677 -0.0162164 0)
(0.0207104 -0.00948835 0)
(0.026397 0.00388399 0)
(0.00971617 0.0174724 0)
(-0.0225104 0.00167865 0)
(-0.024888 -0.00431591 0)
(-0.0257434 -0.00595795 0)
(-0.0224969 -0.00692253 0)
(-0.018651 -0.0084359 0)
(-0.0118347 -0.0109019 0)
(0.00168276 -0.0153312 0)
(0.0121706 -0.0174362 0)
(0.0244782 -0.0119386 0)
(0.0336017 -0.0105691 0)
(0.0470469 -0.00609192 0)
(-0.0308817 0.0189344 0)
(0.322373 0.154769 0)
(-0.170826 0.0174665 0)
(-0.113747 0.020601 0)
(-0.134624 0.0226198 0)
(-0.150596 0.0216947 0)
(-0.164683 0.0189812 0)
(-0.176199 0.0149126 0)
(-0.184532 0.00956772 0)
(-0.188988 0.00289168 0)
(-0.188759 -0.0052332 0)
(-0.183181 -0.0146294 0)
(-0.171448 -0.0251971 0)
(-0.154478 -0.0377787 0)
(-0.137271 -0.053574 0)
(-0.122069 -0.0651214 0)
(-0.087221 -0.0431099 0)
(-0.0291041 -0.0405852 0)
(-0.0565556 0.0837651 0)
(0.129949 -0.00502323 0)
(0.0352445 -0.00639832 0)
(0.0129086 -0.00959838 0)
(0.0146924 -0.00821713 0)
(0.0312972 0.00971539 0)
(0.0332932 0.0256274 0)
(0.0271382 0.0164192 0)
(0.0255262 0.00660439 0)
(0.0242822 0.00127466 0)
(0.0196971 -0.00250933 0)
(0.0166634 -0.00558961 0)
(0.015357 -0.00890385 0)
(0.0172004 -0.0138196 0)
(0.0112735 -0.0180626 0)
(0.0163835 -0.0119626 0)
(0.023796 -0.0112201 0)
(0.0408207 -0.00174939 0)
(-0.097333 0.0435533 0)
(0.499323 0.237586 0)
(-0.219142 0.0471642 0)
(-0.096059 0.0416245 0)
(-0.125383 0.0390968 0)
(-0.141809 0.035832 0)
(-0.156237 0.0305391 0)
(-0.168283 0.0232631 0)
(-0.177549 0.0140434 0)
(-0.183466 0.00293064 0)
(-0.185284 -0.00986672 0)
(-0.182651 -0.024129 0)
(-0.176054 -0.0395037 0)
(-0.167159 -0.055767 0)
(-0.158586 -0.0720235 0)
(-0.148899 -0.0834603 0)
(-0.133042 -0.0847699 0)
(-0.125967 -0.0899538 0)
(-0.165648 -0.0841961 0)
(0.0489931 0.00472574 0)
(-0.0526319 0.000589926 0)
(-0.0487503 -0.0080865 0)
(-0.0412915 -0.0204695 0)
(-0.0369965 -0.0257582 0)
(0.0395976 0.0240797 0)
(0.045055 0.018056 0)
(0.0524024 0.0117063 0)
(0.057374 0.00754343 0)
(0.0591051 0.00454031 0)
(0.0573656 0.0016494 0)
(0.0526705 -0.00163449 0)
(0.0442468 -0.00623728 0)
(0.018345 -0.00992109 0)
(0.0322065 -0.00636522 0)
(0.0266994 0.00946853 0)
(-0.00334858 0.0272658 0)
(-0.1832 0.0466779 0)
(0.642444 0.307072 0)
(-0.26813 0.082748 0)
(-0.0716953 0.0640751 0)
(-0.109948 0.0562712 0)
(-0.125314 0.0509945 0)
(-0.138559 0.0438729 0)
(-0.149882 0.034466 0)
(-0.158926 0.0226351 0)
(-0.165188 0.00835937 0)
(-0.167922 -0.00807923 0)
(-0.166676 -0.0258511 0)
(-0.162907 -0.0437469 0)
(-0.158474 -0.0604921 0)
(-0.155289 -0.0743474 0)
(-0.153139 -0.082613 0)
(-0.152079 -0.0846706 0)
(-0.159545 -0.0812455 0)
(-0.178836 -0.0550461 0)
(-0.171358 0.015313 0)
(-0.128006 0.00494234 0)
(-0.11764 -0.00402074 0)
(-0.104117 -0.0162454 0)
(-0.102117 -0.0264918 0)
(-0.107191 -0.0301849 0)
(-0.102397 -0.0181851 0)
(-0.082827 -0.0165393 0)
(-0.0631806 -0.0184733 0)
(-0.0414594 -0.0219674 0)
(-0.0180247 -0.0266714 0)
(0.0173427 -0.0312201 0)
(0.0484256 -0.0308316 0)
(0.0796409 -0.027556 0)
(0.106724 -0.0213583 0)
(0.11694 -0.00917239 0)
(0.105259 0.0199979 0)
(0.0912049 0.044057 0)
(-0.0592805 0.0670063 0)
(0.75615 0.364814 0)
(-0.310642 0.12032 0)
(-0.0453476 0.0834287 0)
(-0.0898025 0.0711957 0)
(-0.103212 0.0639986 0)
(-0.113755 0.0551714 0)
(-0.122795 0.0438561 0)
(-0.130024 0.0296994 0)
(-0.135029 0.0125825 0)
(-0.136904 -0.00710651 0)
(-0.13508 -0.027789 0)
(-0.131778 -0.047132 0)
(-0.128809 -0.0633928 0)
(-0.127623 -0.075337 0)
(-0.12846 -0.0821616 0)
(-0.131666 -0.0845767 0)
(-0.138255 -0.0826833 0)
(-0.143909 -0.0702102 0)
(-0.140561 -0.0413574 0)
(-0.127373 -0.0228223 0)
(-0.112398 -0.0183962 0)
(-0.101124 -0.0226268 0)
(-0.0957192 -0.0277664 0)
(-0.0925375 -0.029571 0)
(-0.0857122 -0.0255172 0)
(-0.0738704 -0.0258668 0)
(-0.05955 -0.0290631 0)
(-0.0429794 -0.034547 0)
(-0.0242366 -0.0416961 0)
(-0.00196219 -0.0478373 0)
(0.0230511 -0.0495082 0)
(0.0486221 -0.0455357 0)
(0.0731287 -0.0329198 0)
(0.0938558 -0.00851641 0)
(0.108566 0.0276705 0)
(0.125059 0.0595735 0)
(0.101303 0.0783565 0)
(0.150611 0.101091 0)
(0.15247 0.128532 0)
(-0.0922264 0.187708 0)
(0.830446 0.416685 0)
(-0.345819 0.154422 0)
(-0.0247742 0.0931854 0)
(-0.0638365 0.0832183 0)
(-0.075583 0.0742861 0)
(-0.0828676 0.06344 0)
(-0.0882517 0.0503957 0)
(-0.0919426 0.0344609 0)
(-0.0938718 0.0151304 0)
(-0.0926059 -0.00739223 0)
(-0.088651 -0.030528 0)
(-0.0849076 -0.050249 0)
(-0.082799 -0.064961 0)
(-0.083164 -0.0743796 0)
(-0.0860271 -0.078723 0)
(-0.0912375 -0.0785279 0)
(-0.0980685 -0.0732922 0)
(-0.102967 -0.0612406 0)
(-0.102013 -0.0452307 0)
(-0.0955964 -0.0334619 0)
(-0.0873596 -0.0289245 0)
(-0.0808518 -0.0297659 0)
(-0.0770891 -0.0322259 0)
(-0.0742939 -0.0336605 0)
(-0.0699544 -0.033806 0)
(-0.0633598 -0.0361548 0)
(-0.055172 -0.0410529 0)
(-0.0456046 -0.0482413 0)
(-0.034792 -0.0569646 0)
(-0.0226405 -0.0652578 0)
(-0.00883286 -0.070431 0)
(0.00831836 -0.0694746 0)
(0.0271648 -0.0582697 0)
(0.048896 -0.0326879 0)
(0.0790476 0.00894127 0)
(0.107201 0.0443225 0)
(0.121583 0.0493502 0)
(0.133848 0.024506 0)
(0.141472 0.0432672 0)
(-0.105359 0.147813 0)
(0.852609 0.464621 0)
(-0.362104 0.157162 0)
(-0.00585412 0.0671349 0)
(-0.0165041 0.0911588 0)
(-0.0326594 0.0871067 0)
(-0.0408864 0.069325 0)
(-0.0431098 0.0522622 0)
(-0.0423109 0.0343539 0)
(-0.0397078 0.0129555 0)
(-0.0318205 -0.0122025 0)
(-0.0255812 -0.0360148 0)
(-0.022555 -0.0538557 0)
(-0.0227095 -0.065549 0)
(-0.0259308 -0.0719366 0)
(-0.0317373 -0.0739468 0)
(-0.0394391 -0.0723114 0)
(-0.0478067 -0.0668722 0)
(-0.0544801 -0.057283 0)
(-0.0571445 -0.0462527 0)
(-0.0561736 -0.0377289 0)
(-0.0537324 -0.0334746 0)
(-0.0518163 -0.0327946 0)
(-0.051129 -0.0338231 0)
(-0.0510153 -0.0351595 0)
(-0.0505002 -0.0368944 0)
(-0.0494281 -0.0403833 0)
(-0.048227 -0.0461209 0)
(-0.0471665 -0.0540983 0)
(-0.0464112 -0.0636208 0)
(-0.0459279 -0.0730837 0)
(-0.0451551 -0.0803058 0)
(-0.0427619 -0.0825774 0)
(-0.0372332 -0.0765043 0)
(-0.0264674 -0.0591695 0)
(-0.00530777 -0.0290793 0)
(0.0391376 0.00339725 0)
(0.0663704 0.00344685 0)
(0.0916781 -0.0116739 0)
(0.128146 0.044562 0)
(-0.10622 0.212086 0)
(0.9577 0.487824 0)
(-0.14345 0.142399 0)
(0.0720174 0.00630956 0)
(0.107782 0.0451353 0)
(0.0726899 0.0683172 0)
(0.0450315 0.0547374 0)
(0.0366327 0.0345129 0)
(0.0373714 0.0161434 0)
(0.0410131 -0.00576801 0)
(0.0531068 -0.0262563 0)
(0.0567699 -0.0426737 0)
(0.0548425 -0.054657 0)
(0.0492428 -0.062204 0)
(0.0409447 -0.0657083 0)
(0.0307396 -0.0658155 0)
(0.0193967 -0.0632347 0)
(0.0079383 -0.0583173 0)
(-0.00220221 -0.0510909 0)
(-0.00894122 -0.0433597 0)
(-0.0127377 -0.0372808 0)
(-0.0150064 -0.0338214 0)
(-0.0170338 -0.0327608 0)
(-0.0194851 -0.0331448 0)
(-0.0223754 -0.0341592 0)
(-0.0256129 -0.0357967 0)
(-0.0296264 -0.0387278 0)
(-0.0350447 -0.0434243 0)
(-0.0424433 -0.0500135 0)
(-0.0524306 -0.0578746 0)
(-0.0656797 -0.0658038 0)
(-0.0820927 -0.0724941 0)
(-0.099984 -0.0761734 0)
(-0.116693 -0.073939 0)
(-0.129028 -0.0627328 0)
(-0.133171 -0.0405674 0)
(-0.128273 -0.00811018 0)
(-0.125969 0.030259 0)
(-0.119609 0.0818097 0)
(-0.160543 0.169857 0)
(-0.573751 0.292225 0)
(1.10021 0.444484 0)
(0.525277 0.291305 0)
(0.516366 0.231845 0)
(0.474444 0.201802 0)
(0.376455 0.174308 0)
(0.29363 0.132712 0)
(0.244878 0.0890196 0)
(0.217032 0.0513402 0)
(0.200535 0.020026 0)
(0.181098 -0.00691877 0)
(0.162249 -0.0275696 0)
(0.144406 -0.0417197 0)
(0.127146 -0.0501365 0)
(0.110216 -0.0539276 0)
(0.0937089 -0.0542268 0)
(0.0778937 -0.0520629 0)
(0.0631792 -0.0482825 0)
(0.0502189 -0.0436242 0)
(0.0397744 -0.0389345 0)
(0.0318222 -0.0351517 0)
(0.0256615 -0.0328501 0)
(0.0204164 -0.0319801 0)
(0.0154097 -0.0320205 0)
(0.0102415 -0.0323808 0)
(0.00453388 -0.0328002 0)
(-0.00275548 -0.0336369 0)
(-0.012194 -0.035377 0)
(-0.0244874 -0.0380667 0)
(-0.0410494 -0.0407684 0)
(-0.0648075 -0.0424243 0)
(-0.0984499 -0.0428546 0)
(-0.141545 -0.0416512 0)
(-0.191665 -0.0362416 0)
(-0.24524 -0.0239671 0)
(-0.296281 -0.00442583 0)
(-0.344261 0.0161349 0)
(-0.382787 0.0271381 0)
(-0.417386 0.0182514 0)
(-0.482387 -0.0162607 0)
(-0.710849 -0.0793943 0)
(-0.357284 0.0988075 0)
(0.165419 0.189751 0)
(0.240147 0.180504 0)
(0.23167 0.144794 0)
(0.231765 0.102406 0)
(0.234273 0.062774 0)
(0.232904 0.0300236 0)
(0.226647 0.00465615 0)
(0.214178 -0.0143078 0)
(0.197652 -0.02696 0)
(0.179017 -0.0344107 0)
(0.159779 -0.0378247 0)
(0.141055 -0.0383301 0)
(0.123589 -0.0369259 0)
(0.107799 -0.0344467 0)
(0.0939161 -0.031569 0)
(0.0820744 -0.0288179 0)
(0.0721951 -0.0265214 0)
(0.0639228 -0.024798 0)
(0.0567278 -0.023574 0)
(0.050087 -0.0226348 0)
(0.0435834 -0.0217178 0)
(0.0367924 -0.0206255 0)
(0.0290445 -0.0194442 0)
(0.0199812 -0.0184813 0)
(0.0103055 -0.0178349 0)
(0.000316091 -0.0165001 0)
(-0.0117127 -0.0129775 0)
(-0.0282445 -0.00778398 0)
(-0.0470456 -0.00248116 0)
(-0.0644343 0.00415807 0)
(-0.0800693 0.0146332 0)
(-0.100419 0.0313399 0)
(-0.120397 0.0550784 0)
(-0.132759 0.0773823 0)
(-0.118393 0.0764164 0)
(0.0639675 -0.0139684 0)
(-0.254763 -0.280769 0)
(-0.189966 0.248439 0)
(0.0846878 0.185058 0)
(0.0934209 0.142997 0)
(0.126716 0.119732 0)
(0.163758 0.0900697 0)
(0.192345 0.0631519 0)
(0.208179 0.044327 0)
(0.212567 0.0341933 0)
(0.208802 0.0306294 0)
(0.199958 0.0287093 0)
(0.188218 0.0282057 0)
(0.174944 0.0292588 0)
(0.161178 0.0318631 0)
(0.147761 0.0358176 0)
(0.135297 0.0406449 0)
(0.124133 0.0455314 0)
(0.114345 0.0494422 0)
(0.10574 0.0515332 0)
(0.0979281 0.0515786 0)
(0.0904605 0.0500232 0)
(0.0829862 0.0476893 0)
(0.0753472 0.0454906 0)
(0.0675459 0.0442617 0)
(0.0595923 0.0439928 0)
(0.051545 0.0425047 0)
(0.0438281 0.0374144 0)
(0.0369563 0.0324894 0)
(0.03096 0.0343061 0)
(0.0249406 0.0422771 0)
(0.0189455 0.0430001 0)
(0.0142996 0.0427099 0)
(0.0136817 0.0467414 0)
(0.0176671 0.0565059 0)
(0.0273497 0.0687657 0)
(0.0421348 0.0738433 0)
(0.0696719 0.0489994 0)
(0.13731 -0.0329147 0)
(-0.168261 -0.182414 0)
(-0.162402 -0.363339 0)
(-0.438185 -0.0974529 0)
(-0.331353 0.151102 0)
(-0.151935 0.0514804 0)
(-0.0754011 0.0262598 0)
(0.0367424 0.0147055 0)
(0.102379 -0.0133192 0)
(0.153262 -0.040614 0)
(0.185646 -0.0652879 0)
(0.201856 -0.0878915 0)
(0.2071 -0.109283 0)
(0.205467 -0.127232 0)
(0.199286 -0.142717 0)
(0.190269 -0.156775 0)
(0.179782 -0.170046 0)
(0.168883 -0.182784 0)
(0.158294 -0.194835 0)
(0.148388 -0.205663 0)
(0.139184 -0.214555 0)
(0.130405 -0.220995 0)
(0.121624 -0.224988 0)
(0.112474 -0.227083 0)
(0.1028 -0.228096 0)
(0.0927123 -0.228713 0)
(0.082629 -0.229148 0)
(0.0732362 -0.22906 0)
(0.0648484 -0.227976 0)
(0.0563467 -0.225535 0)
(0.046384 -0.220455 0)
(0.0371055 -0.211215 0)
(0.0353608 -0.191777 0)
(0.0419059 -0.169998 0)
(0.0529476 -0.155342 0)
(0.0683326 -0.134516 0)
(0.0909446 -0.106736 0)
(0.121825 -0.0832269 0)
(0.155535 -0.0764121 0)
(0.185733 -0.0981745 0)
(0.204479 -0.136882 0)
(-0.106743 -0.20739 0)
)
;

boundaryField
{
    floor
    {
        type            noSlip;
    }
    ceiling
    {
        type            noSlip;
    }
    sWall
    {
        type            noSlip;
    }
    nWall
    {
        type            noSlip;
    }
    sideWalls
    {
        type            empty;
    }
    glass1
    {
        type            noSlip;
    }
    glass2
    {
        type            noSlip;
    }
    sun
    {
        type            noSlip;
    }
    Table_master
    {
        type            noSlip;
    }
    Table_slave
    {
        type            noSlip;
    }
    inlet
    {
        type            fixedValue;
        value           uniform (0.212132 -0.212132 0);
    }
    outlet
    {
        type            zeroGradient;
    }
}


// ************************************************************************* //
