/*--------------------------------*- C++ -*----------------------------------*\
  =========                 |
  \\      /  F ield         | OpenFOAM: The Open Source CFD Toolbox
   \\    /   O peration     | Website:  https://openfoam.org
    \\  /    A nd           | Version:  6
     \\/     M anipulation  |
\*---------------------------------------------------------------------------*/
FoamFile
{
    version     2.0;
    format      ascii;
    class       volScalarField;
    location    "1100";
    object      nut;
}
// * * * * * * * * * * * * * * * * * * * * * * * * * * * * * * * * * * * * * //

dimensions      [0 2 -1 0 0 0 0];

internalField   nonuniform List<scalar> 
458
(
0.000673576
0.000694074
0.000667839
0.000690298
0.00071068
0.000728348
0.000743802
0.000757688
0.000770718
0.000783765
0.000794644
0.000802008
0.000806053
0.000808452
0.000809593
0.000431768
0.000549034
0.000589996
0.000603146
0.000598305
0.000575661
0.000550849
0.00052804
0.000507497
0.000488453
0.000470471
0.000453245
0.000436483
0.000419775
0.000402546
0.000383675
0.000365964
0.000332249
0.00109327
0.00167776
0.00134112
0.00163306
0.00174049
0.00185194
0.00196209
0.00206194
0.00213921
0.00217795
0.00218167
0.00212449
0.00197482
0.00168905
0.00124806
0.000842769
0.000800876
0.000709129
0.000582349
0.00143619
0.0018546
0.00197207
0.00181723
0.00142432
0.00130032
0.00124395
0.00118423
0.00111663
0.00104575
0.000973129
0.000895808
0.000809868
0.000729791
0.000664567
0.000748292
0.000399219
0.0014785
0.00270331
0.00143661
0.00237425
0.0025894
0.00272779
0.00284126
0.00293217
0.00300044
0.00304144
0.00305458
0.00301896
0.00290928
0.00269749
0.0023681
0.00194578
0.00143794
0.000904896
0.000728054
0.0023107
0.00231058
0.00203961
0.00161257
0.000605351
0.000535256
0.000480844
0.000445062
0.000421066
0.000403052
0.000388398
0.00037679
0.000370211
0.000456931
0.000555783
0.000864599
0.000453067
0.00187041
0.00423187
0.00150127
0.0026723
0.00311549
0.00326695
0.00336598
0.00343737
0.00348945
0.0035241
0.0035423
0.00353649
0.00348857
0.00337047
0.00313729
0.00273256
0.00213252
0.00143167
0.000942239
0.00231031
0.00217188
0.0018928
0.00165199
0.00130884
0.000583
0.000588557
0.000599431
0.000610227
0.000616923
0.000615638
0.000602891
0.000584285
0.000561983
0.000554821
0.000573489
0.000940064
0.000517416
0.00226229
0.00617466
0.00206215
0.00250184
0.0033472
0.00356177
0.00366075
0.00371878
0.00375394
0.00377873
0.00379472
0.0038174
0.00383229
0.00381436
0.00373284
0.00356577
0.00331963
0.0030018
0.00257643
0.00219766
0.00180932
0.0015139
0.00148064
0.00166011
0.00183443
0.00200245
0.00212111
0.00221549
0.00227405
0.00228257
0.00222462
0.00201993
0.00169899
0.00134354
0.00105453
0.000989442
0.000799406
0.000617064
0.000639252
0.000646644
0.00265525
0.00820339
0.00377327
0.00232954
0.00305062
0.00351469
0.00373644
0.00385209
0.003891
0.00388196
0.0038605
0.00389412
0.00393849
0.00396127
0.00393225
0.00382642
0.00362384
0.00328336
0.00277566
0.00219797
0.00168936
0.0013509
0.00136826
0.00161735
0.00185012
0.00207786
0.00226585
0.00242786
0.00255335
0.0026302
0.00264894
0.00257329
0.00234505
0.00198928
0.00160013
0.00126148
0.00100355
0.00101964
0.00149377
0.000835578
0.00303625
0.0098657
0.00689571
0.00388203
0.00275896
0.00275912
0.00318061
0.00359156
0.00386689
0.00387539
0.00383292
0.00387056
0.00391437
0.00394117
0.0039288
0.00385272
0.00368886
0.00339135
0.00293114
0.00236375
0.0017784
0.00129838
0.00127391
0.00154994
0.00178089
0.00198687
0.00218334
0.00237009
0.00253346
0.00265915
0.00275258
0.00281376
0.0027195
0.00244049
0.00208126
0.00172178
0.00141712
0.00131524
0.0016657
0.00102126
0.00312613
0.00978865
0.00824898
0.00692172
0.00521508
0.0039837
0.003475
0.00346309
0.0036738
0.00378916
0.00380078
0.00380581
0.00381477
0.00381394
0.00378358
0.0037053
0.0035617
0.00332578
0.00297587
0.00252141
0.00193834
0.00129
0.00118276
0.00148831
0.00173667
0.00193314
0.00211009
0.00227277
0.00242035
0.00255661
0.00269586
0.00285574
0.00301451
0.00290526
0.002655
0.00248016
0.00246832
0.00254854
0.00325711
0.0014052
0.00305273
0.00366477
0.00430806
0.00459952
0.00460904
0.00432799
0.00400129
0.00376822
0.00365634
0.00360596
0.00360366
0.00362075
0.0036309
0.00361402
0.00355655
0.00345098
0.00329341
0.00307942
0.00280647
0.00247773
0.0020556
0.00128158
0.00106741
0.00139364
0.00166258
0.00184837
0.00199247
0.00210793
0.00219682
0.00226052
0.0022999
0.00231269
0.00229275
0.00224459
0.00219819
0.00218472
0.00216826
0.00210186
0.00200247
0.00137086
0.00283043
0.00541496
0.00500926
0.00472284
0.00445055
0.00421847
0.00404268
0.00391112
0.00379586
0.00368626
0.00356961
0.00343553
0.00327793
0.0030953
0.0028897
0.00266559
0.00243056
0.0021914
0.00189463
0.00121707
0.00089818
0.00120581
0.00148206
0.00166148
0.00178624
0.00187768
0.00194145
0.00198155
0.00200425
0.00201905
0.00203749
0.00205828
0.00206347
0.00204205
0.00196033
0.00179101
0.00156158
0.00110299
0.00263303
0.00588929
0.00540429
0.00502165
0.00471579
0.00444452
0.00419002
0.00395559
0.00373534
0.00347441
0.00320027
0.00292736
0.00266312
0.00241084
0.00217179
0.00194724
0.00174114
0.00155947
0.00136311
0.00094633
0.000680492
0.00087122
0.00106356
0.00121834
0.00135358
0.00148272
0.00160956
0.00173345
0.0018503
0.00195121
0.00203748
0.00211829
0.00218213
0.0022078
0.00219123
0.00214373
0.00188954
0.00111088
0.00208395
0.00225921
0.00241142
0.00256243
0.0023823
0.00222598
0.00203362
0.00187602
0.00173201
0.00159875
0.00147436
0.00136865
0.00127272
0.00118187
0.00109342
0.00100587
0.000918524
0.000831498
0.000745928
0.000664423
0.000590341
0.000526728
0.000503251
0.000552092
0.000597624
0.000641572
0.000684623
0.000727373
0.000770393
0.000814503
0.000861052
0.000912437
0.000969446
0.00102966
0.00109298
0.00115809
0.0012311
0.00121294
0.00111448
0.00102714
)
;

boundaryField
{
    floor
    {
        type            nutkWallFunction;
        Cmu             0.09;
        kappa           0.41;
        E               9.8;
        value           nonuniform List<scalar> 
36
(
9.80502e-05
5.09107e-05
6.59347e-05
7.10876e-05
7.27363e-05
7.21337e-05
6.92971e-05
6.61723e-05
6.32845e-05
6.06704e-05
5.82352e-05
5.5925e-05
5.37015e-05
5.15279e-05
4.93506e-05
4.70939e-05
4.4608e-05
4.22605e-05
3.77501e-05
3.775e-05
4.66565e-05
5.36781e-05
6.19326e-05
7.44741e-05
7.7233e-05
7.81496e-05
9.80502e-05
0.00010204
9.69966e-05
8.58479e-05
5.09107e-05
8.58479e-05
7.01505e-05
0.000109464
8.81519e-05
0.000113895
)
;
    }
    ceiling
    {
        type            nutkWallFunction;
        Cmu             0.09;
        kappa           0.41;
        E               9.8;
        value           nonuniform List<scalar> 
43
(
0.000242421
0.000261332
0.000277632
0.000293819
0.000274664
0.000257903
0.000237091
0.000219878
0.00020401
0.0001892
0.000175252
0.000163297
0.000152359
0.000141914
0.000131658
0.000121413
0.000111089
0.00010069
9.03386e-05
8.0348e-05
7.11393e-05
6.31199e-05
6.01395e-05
6.63396e-05
7.2058e-05
7.75278e-05
8.28425e-05
8.80809e-05
9.33156e-05
9.86473e-05
0.000104237
0.000110368
0.000117122
0.000124207
0.000131607
0.000139166
0.000147584
0.000145495
0.000134108
0.000123912
0.000345635
0.000408851
0.000301039
)
;
    }
    sWall
    {
        type            nutkWallFunction;
        Cmu             0.09;
        kappa           0.41;
        E               9.8;
        value           uniform 0.000242485;
    }
    nWall
    {
        type            nutkWallFunction;
        Cmu             0.09;
        kappa           0.41;
        E               9.8;
        value           nonuniform List<scalar> 6(7.8146e-05 0.000101182 0.000123226 0.000132781 0.000133698 0.000123919);
    }
    sideWalls
    {
        type            empty;
    }
    glass1
    {
        type            nutkWallFunction;
        Cmu             0.09;
        kappa           0.41;
        E               9.8;
        value           nonuniform List<scalar> 9(8.14259e-05 0.000131752 0.000175948 0.000219594 0.000262246 0.000304228 0.000344312 0.000353699 0.000346059);
    }
    glass2
    {
        type            nutkWallFunction;
        Cmu             0.09;
        kappa           0.41;
        E               9.8;
        value           nonuniform List<scalar> 2(0.000167511 0.000163615);
    }
    sun
    {
        type            nutkWallFunction;
        Cmu             0.09;
        kappa           0.41;
        E               9.8;
        value           nonuniform List<scalar> 
14
(
8.14743e-05
8.39976e-05
8.07682e-05
8.35335e-05
8.60339e-05
8.81943e-05
9.00789e-05
9.17682e-05
9.33501e-05
9.49308e-05
9.62465e-05
9.71357e-05
9.76237e-05
9.79128e-05
)
;
    }
    Table_master
    {
        type            nutkWallFunction;
        Cmu             0.09;
        kappa           0.41;
        E               9.8;
        value           nonuniform List<scalar> 9(7.30249e-05 6.42115e-05 5.7272e-05 5.26549e-05 4.9532e-05 4.71731e-05 4.52443e-05 4.37099e-05 4.28375e-05);
    }
    Table_slave
    {
        type            nutkWallFunction;
        Cmu             0.09;
        kappa           0.41;
        E               9.8;
        value           nonuniform List<scalar> 9(7.02224e-05 7.09187e-05 7.22792e-05 7.36267e-05 7.44608e-05 7.43003e-05 7.27099e-05 7.0382e-05 6.75795e-05);
    }
    inlet
    {
        type            calculated;
        value           uniform 0.000100623;
    }
    outlet
    {
        type            calculated;
        value           nonuniform List<scalar> 2(0.00208395 0.00225921);
    }
}


// ************************************************************************* //
