/*--------------------------------*- C++ -*----------------------------------*\
  =========                 |
  \\      /  F ield         | OpenFOAM: The Open Source CFD Toolbox
   \\    /   O peration     | Website:  https://openfoam.org
    \\  /    A nd           | Version:  6
     \\/     M anipulation  |
\*---------------------------------------------------------------------------*/
FoamFile
{
    version     2.0;
    format      ascii;
    class       volScalarField;
    location    "1900";
    object      epsilon;
}
// * * * * * * * * * * * * * * * * * * * * * * * * * * * * * * * * * * * * * //

dimensions      [0 2 -3 0 0 0 0];

internalField   nonuniform List<scalar> 
458
(
0.00028442
0.000357108
0.000364277
0.000415054
0.000465476
0.000514904
0.000564547
0.000616505
0.000670846
0.000713351
0.000735538
0.000729433
0.000693134
0.000636007
0.000572939
2.43261e-05
4.85925e-05
5.80546e-05
5.35347e-05
4.70669e-05
3.95031e-05
3.27751e-05
2.736e-05
2.3069e-05
1.96488e-05
1.69197e-05
1.47033e-05
1.28614e-05
1.12815e-05
9.85901e-06
8.47724e-06
7.4487e-06
5.57474e-06
0.000805214
0.00129914
0.000337683
0.000317075
0.000326919
0.000342183
0.000363179
0.000393297
0.000434116
0.000475522
0.000506367
0.000514799
0.000495894
0.000463242
0.000470744
0.00062891
0.000350287
0.000174625
6.49781e-05
8.17955e-05
7.33435e-05
6.13457e-05
5.0353e-05
4.41924e-05
3.52954e-05
2.78754e-05
2.21509e-05
1.77783e-05
1.44573e-05
1.19158e-05
9.95961e-06
8.53734e-06
7.78287e-06
7.59618e-06
1.66732e-05
1.18384e-05
0.00157914
0.00354266
0.000462984
0.000307204
0.000310669
0.00033427
0.000368676
0.00041624
0.000477388
0.000540786
0.00058868
0.000606314
0.000589469
0.00054856
0.000509153
0.000468988
0.000362069
0.000464398
0.000277154
0.000166437
0.000113121
8.1592e-05
6.398e-05
0.000105681
7.39971e-05
5.34293e-05
3.98814e-05
3.07266e-05
2.43707e-05
1.98496e-05
1.65831e-05
1.42373e-05
1.10433e-05
9.36642e-06
2.7811e-05
1.78832e-05
0.00272154
0.00770897
0.000833289
0.000322289
0.000303921
0.000334813
0.00038222
0.000450118
0.0005418
0.00063207
0.000692045
0.000709459
0.000685846
0.00063023
0.000560884
0.000479559
0.000384618
0.000368039
0.000642141
0.000337003
0.000189106
0.000120323
8.40648e-05
6.67617e-05
0.000138062
0.000106541
8.87168e-05
7.74017e-05
6.88365e-05
6.08402e-05
5.37167e-05
4.67912e-05
3.93386e-05
2.4341e-05
1.57961e-05
3.95125e-05
2.4683e-05
0.00436951
0.0139709
0.00183272
0.000419302
0.00031797
0.000341661
0.000399106
0.000503379
0.000658248
0.000782385
0.000844264
0.000848241
0.000805817
0.00072346
0.000617514
0.000496946
0.000377374
0.000285979
0.000233009
0.000175629
0.000128801
9.49527e-05
7.23198e-05
5.84626e-05
5.49486e-05
5.20137e-05
5.0047e-05
4.81608e-05
4.56094e-05
4.1948e-05
3.78439e-05
3.39394e-05
3.03989e-05
2.5073e-05
1.935e-05
3.0192e-05
3.91556e-05
5.82121e-05
8.77327e-05
0.000115533
0.00671567
0.0207399
0.0044361
0.00095856
0.000530419
0.000471803
0.000504858
0.000681931
0.000920776
0.00104461
0.00107418
0.00104102
0.00096289
0.000847616
0.000703732
0.000544998
0.000394723
0.000275714
0.000196143
0.000145394
0.000109861
8.43226e-05
6.76728e-05
5.83356e-05
5.52687e-05
5.57645e-05
5.71623e-05
5.79235e-05
5.71057e-05
5.38106e-05
4.73778e-05
4.02053e-05
3.35744e-05
2.77339e-05
2.33898e-05
2.58833e-05
3.4669e-05
4.68482e-05
0.000129352
0.00012354
0.0095407
0.0247242
0.00963946
0.00363514
0.00206885
0.00144802
0.0012502
0.00140264
0.0015015
0.00149389
0.00142089
0.00131065
0.00117188
0.00100462
0.000812559
0.00061072
0.000426121
0.000281984
0.00018782
0.000132714
0.000100501
8.08196e-05
7.00598e-05
6.57865e-05
6.61456e-05
6.91141e-05
7.27949e-05
7.62832e-05
7.88642e-05
7.92467e-05
7.52103e-05
6.52041e-05
5.51945e-05
4.68758e-05
4.23407e-05
4.39355e-05
5.52556e-05
8.14004e-05
0.000169857
0.00017586
0.0101905
0.0274618
0.0154696
0.0110377
0.00765523
0.00526212
0.00393899
0.00313632
0.00258286
0.00219359
0.00190127
0.00165569
0.0014222
0.00117944
0.000923109
0.000667777
0.000445157
0.000276829
0.000175562
0.000121778
9.8705e-05
8.76966e-05
8.32118e-05
8.25121e-05
8.41629e-05
8.74355e-05
9.20644e-05
9.83406e-05
0.000106686
0.000117153
0.000128899
0.000137351
0.000140143
0.000150059
0.000174498
0.000243139
0.000402342
0.000683022
0.00226501
0.000728862
0.00942028
0.0157751
0.0137499
0.0104812
0.00803551
0.0061871
0.00486056
0.00390146
0.00323389
0.00274203
0.00234518
0.00199451
0.00165982
0.00132292
0.000984825
0.000665569
0.000413591
0.000236396
0.000161375
0.000129913
0.00011795
0.000113723
0.000112464
0.000111978
0.000111608
0.000111708
0.000113357
0.000118168
0.000127895
0.000144136
0.000168329
0.000202235
0.000249032
0.000318671
0.000424523
0.000573537
0.000754823
0.000932789
0.0010816
0.000674805
0.00459258
0.0106401
0.00797235
0.0064503
0.00543517
0.00465696
0.00393075
0.00326286
0.00268224
0.00218029
0.00172406
0.00128628
0.000873965
0.000498299
0.000305438
0.000219831
0.000191869
0.000186044
0.000186561
0.000187487
0.000186706
0.000182602
0.0001746
0.000163348
0.000150823
0.000140108
0.000134771
0.000138229
0.000153619
0.000181638
0.000224508
0.000286548
0.000372185
0.00047839
0.000584414
0.000653873
0.000671486
0.000476318
0.00315855
0.00744858
0.00631994
0.00524959
0.00462088
0.0040395
0.00348175
0.00292707
0.00245868
0.00205613
0.0016287
0.0012053
0.000851776
0.000603805
0.000480453
0.000435306
0.000429625
0.000437243
0.000445787
0.000451351
0.00045277
0.000446458
0.000429551
0.000401188
0.000363518
0.000321714
0.000282525
0.00025212
0.000235117
0.000234862
0.000252756
0.000290407
0.000347771
0.00041855
0.000484795
0.00056318
0.000697052
0.000525767
0.00178533
0.00226575
0.00266787
0.00330872
0.00310648
0.00282622
0.00236743
0.00179019
0.00132906
0.00113336
0.00100853
0.000890951
0.000764179
0.000634834
0.000512719
0.000408243
0.000339262
0.000300754
0.000279796
0.000267327
0.0002593
0.00025266
0.000243936
0.00023255
0.000218966
0.000204669
0.000191841
0.000182798
0.000179527
0.000183677
0.000194943
0.000212441
0.000236757
0.000269173
0.000310743
0.000362163
0.000396279
0.000375474
0.000321233
0.00027938
)
;

boundaryField
{
    floor
    {
        Cmu             0.09;
        kappa           0.41;
        E               9.8;
        type            epsilonWallFunction;
        value           nonuniform List<scalar> 
36
(
0.000572939
2.43261e-05
4.85925e-05
5.80546e-05
5.35347e-05
4.70669e-05
3.95031e-05
3.27751e-05
2.736e-05
2.3069e-05
1.96488e-05
1.69197e-05
1.47033e-05
1.28614e-05
1.12815e-05
9.85901e-06
8.47724e-06
7.4487e-06
5.57474e-06
5.57474e-06
1.18384e-05
1.78832e-05
2.4683e-05
5.82121e-05
8.77327e-05
0.000115533
0.000572939
0.00062891
0.000350287
0.000174625
2.43261e-05
0.000174625
6.49781e-05
0.000464398
0.000277154
0.000642141
)
;
    }
    ceiling
    {
        Cmu             0.09;
        kappa           0.41;
        E               9.8;
        type            epsilonWallFunction;
        value           nonuniform List<scalar> 
43
(
0.00178533
0.00226575
0.00266787
0.00330872
0.00310648
0.00282622
0.00236743
0.00179019
0.00132906
0.00113336
0.00100853
0.000890951
0.000764179
0.000634834
0.000512719
0.000408243
0.000339262
0.000300754
0.000279796
0.000267327
0.0002593
0.00025266
0.000243936
0.00023255
0.000218966
0.000204669
0.000191841
0.000182798
0.000179527
0.000183677
0.000194943
0.000212441
0.000236757
0.000269173
0.000310743
0.000362163
0.000396279
0.000375474
0.000321233
0.00027938
0.00942028
0.0157751
0.00315855
)
;
    }
    sWall
    {
        Cmu             0.09;
        kappa           0.41;
        E               9.8;
        type            epsilonWallFunction;
        value           uniform 0.00178533;
    }
    nWall
    {
        Cmu             0.09;
        kappa           0.41;
        E               9.8;
        type            epsilonWallFunction;
        value           nonuniform List<scalar> 6(0.000115533 0.00012354 0.00017586 0.000476318 0.000525767 0.00027938);
    }
    sideWalls
    {
        type            empty;
    }
    glass1
    {
        Cmu             0.09;
        kappa           0.41;
        E               9.8;
        type            epsilonWallFunction;
        value           nonuniform List<scalar> 9(0.00028442 0.000805214 0.00157914 0.00272154 0.00436951 0.00671567 0.0095407 0.0101905 0.00942028);
    }
    glass2
    {
        Cmu             0.09;
        kappa           0.41;
        E               9.8;
        type            epsilonWallFunction;
        value           nonuniform List<scalar> 2(0.000728862 0.000674805);
    }
    sun
    {
        Cmu             0.09;
        kappa           0.41;
        E               9.8;
        type            epsilonWallFunction;
        value           nonuniform List<scalar> 
14
(
0.00028442
0.000357108
0.000364277
0.000415054
0.000465476
0.000514904
0.000564547
0.000616505
0.000670846
0.000713351
0.000735538
0.000729433
0.000693134
0.000636007
)
;
    }
    Table_master
    {
        Cmu             0.09;
        kappa           0.41;
        E               9.8;
        type            epsilonWallFunction;
        value           nonuniform List<scalar> 9(0.000105681 7.39971e-05 5.34293e-05 3.98814e-05 3.07266e-05 2.43707e-05 1.98496e-05 1.65831e-05 1.42373e-05);
    }
    Table_slave
    {
        Cmu             0.09;
        kappa           0.41;
        E               9.8;
        type            epsilonWallFunction;
        value           nonuniform List<scalar> 9(0.000138062 0.000106541 8.87168e-05 7.74017e-05 6.88365e-05 6.08402e-05 5.37167e-05 4.67912e-05 3.93386e-05);
    }
    inlet
    {
        type            turbulentMixingLengthDissipationRateInlet;
        mixingLength    0.01;
        phi             phi;
        k               k;
        value           uniform 0.000101881;
    }
    outlet
    {
        type            zeroGradient;
    }
}


// ************************************************************************* //
