/*--------------------------------*- C++ -*----------------------------------*\
  =========                 |
  \\      /  F ield         | OpenFOAM: The Open Source CFD Toolbox
   \\    /   O peration     | Website:  https://openfoam.org
    \\  /    A nd           | Version:  6
     \\/     M anipulation  |
\*---------------------------------------------------------------------------*/
FoamFile
{
    version     2.0;
    format      ascii;
    class       volScalarField;
    location    "1900";
    object      k;
}
// * * * * * * * * * * * * * * * * * * * * * * * * * * * * * * * * * * * * * //

dimensions      [0 2 -2 0 0 0 0];

internalField   nonuniform List<scalar> 
458
(
0.00171415
0.001995
0.00202162
0.00220537
0.00238054
0.00254622
0.00270736
0.00287102
0.00303735
0.00316433
0.00322961
0.00321171
0.00310425
0.00293124
0.0027341
0.000332753
0.000527779
0.000594254
0.000562995
0.000516683
0.000459728
0.000405921
0.000359878
0.00032119
0.000288602
0.000261218
0.000237876
0.00021757
0.000199366
0.000182233
0.000164781
0.000151167
0.000124609
0.00343043
0.00646997
0.00317233
0.00331624
0.00356841
0.0038507
0.00415666
0.00448999
0.00484377
0.00518423
0.00543335
0.0054992
0.0053075
0.00483053
0.00406328
0.00290939
0.0019695
0.00123823
0.000640564
0.000920142
0.000985513
0.000962329
0.000884957
0.000755427
0.000634941
0.000536536
0.000457995
0.000395043
0.000343696
0.000301192
0.000265525
0.000236509
0.000217897
0.000208614
0.000334127
0.000205872
0.00537467
0.012576
0.00406489
0.0038263
0.00405038
0.00434661
0.00467697
0.00506022
0.0054982
0.00594535
0.00630303
0.00648533
0.006452
0.00623191
0.00592878
0.0054473
0.00436028
0.00237684
0.00168485
0.00153904
0.00140261
0.00126819
0.00112788
0.00088596
0.000698594
0.000562255
0.000462658
0.000388825
0.000333163
0.000290566
0.000257742
0.000232823
0.000213085
0.000210388
0.000455648
0.000271039
0.00772588
0.0214948
0.00542689
0.00405903
0.0041748
0.00446297
0.00479669
0.00521972
0.00575852
0.00629568
0.00670052
0.00691634
0.00693397
0.00676615
0.00645798
0.00594998
0.00513117
0.00440929
0.0029501
0.00241759
0.00204709
0.00176428
0.00153596
0.00134179
0.00105876
0.00089076
0.000788409
0.000719857
0.000665717
0.000613108
0.000564263
0.000514656
0.000458444
0.000349512
0.000281007
0.000570526
0.000335995
0.0105932
0.0334478
0.00865672
0.0044868
0.00427652
0.00451357
0.00485806
0.00540196
0.00616447
0.00680028
0.00719676
0.00737737
0.00736485
0.00713481
0.00668071
0.00599022
0.00511451
0.004244
0.00343913
0.002846
0.00237148
0.00199311
0.00170637
0.00149625
0.00134722
0.00126659
0.00122208
0.00118462
0.00113575
0.00106391
0.000962519
0.000845795
0.000720183
0.000567341
0.000428786
0.000518262
0.000526281
0.000595309
0.000782543
0.000940166
0.0141079
0.0460088
0.0165838
0.00671459
0.00526349
0.00515877
0.00541795
0.00621239
0.00718878
0.00775711
0.00801314
0.00807321
0.00796205
0.00763456
0.00704014
0.00617698
0.00515726
0.00417709
0.00338563
0.00282064
0.00237602
0.00201362
0.00174702
0.00157665
0.00149593
0.00148009
0.00148317
0.00147688
0.00144564
0.00137643
0.00125293
0.00109729
0.000928083
0.000753417
0.000603085
0.000550013
0.0005648
0.000602891
0.00115552
0.000983118
0.0178288
0.0541201
0.0300945
0.0156024
0.0109211
0.0089735
0.0084648
0.00900079
0.0093175
0.00934528
0.00924084
0.00907122
0.00879931
0.00832859
0.00757244
0.00652927
0.00533815
0.00421127
0.00333245
0.00272062
0.0022846
0.00196261
0.00175255
0.00164521
0.00161912
0.00163978
0.00167051
0.00169353
0.0016999
0.00167863
0.00160921
0.00145821
0.00127395
0.00108286
0.000930475
0.00084614
0.000857235
0.000980821
0.00138552
0.00124408
0.0186294
0.0546043
0.0386995
0.031442
0.0247668
0.0194907
0.0163786
0.014167
0.0125562
0.0114978
0.010825
0.0103369
0.00983953
0.00915548
0.00816667
0.00687728
0.0054699
0.00416695
0.00320161
0.00255092
0.00217144
0.00193858
0.00181249
0.00175984
0.0017528
0.00177025
0.00179882
0.00183653
0.00188793
0.00195778
0.00204465
0.00211236
0.00209457
0.00206069
0.00210505
0.0023923
0.003071
0.00407991
0.008195
0.00320995
0.0176785
0.0249296
0.0249855
0.0224913
0.0202052
0.0179157
0.0159297
0.0143987
0.0134082
0.0127491
0.0122174
0.0116577
0.0109405
0.00993406
0.00856603
0.00689347
0.00524092
0.00379226
0.00295276
0.00247157
0.00221181
0.0020753
0.00200376
0.0019603
0.00192649
0.00189665
0.00187375
0.00186731
0.00188925
0.00194891
0.00204902
0.00218702
0.00236958
0.00262485
0.00299194
0.0034677
0.00396407
0.00434071
0.00455431
0.00304921
0.00993725
0.023381
0.0210828
0.0195158
0.0184687
0.0176663
0.0166421
0.0154476
0.01421
0.0129671
0.0116265
0.010011
0.00807144
0.00583239
0.00429235
0.0033891
0.00295205
0.00275422
0.00266044
0.00260128
0.00254374
0.00246562
0.00235719
0.00222036
0.00206846
0.0019246
0.00181721
0.0017743
0.00181836
0.00194584
0.00214838
0.00242473
0.00277158
0.00314837
0.00345214
0.00356487
0.00347958
0.00241731
0.00853197
0.0209629
0.0206101
0.0189935
0.018201
0.0174067
0.0163981
0.0149866
0.0136614
0.0124757
0.0110964
0.00936462
0.00752985
0.00595181
0.00496814
0.00448891
0.00432657
0.00429675
0.00429299
0.00427827
0.00424337
0.00416159
0.00401157
0.00378487
0.00349189
0.00316306
0.00284157
0.00257027
0.00238704
0.00231792
0.00236508
0.00252189
0.00276502
0.0030399
0.00325631
0.00352849
0.00412971
0.00258185
0.00583276
0.00683706
0.00762379
0.00880039
0.00843808
0.00792266
0.00704027
0.00584355
0.00479125
0.00430854
0.00398606
0.00366986
0.00331289
0.00292762
0.00253896
0.00218113
0.00192794
0.00177915
0.0016955
0.00164476
0.00161166
0.00158403
0.00154736
0.00149882
0.00143987
0.00137649
0.00131836
0.00127659
0.00126132
0.00128068
0.00133252
0.00141111
0.00151683
0.0016523
0.00181832
0.00201375
0.0021383
0.00206279
0.00185901
0.00169381
)
;

boundaryField
{
    floor
    {
        type            kqRWallFunction;
        value           nonuniform List<scalar> 
36
(
0.0027341
0.000332753
0.000527779
0.000594254
0.000562995
0.000516683
0.000459728
0.000405921
0.000359878
0.00032119
0.000288602
0.000261218
0.000237876
0.00021757
0.000199366
0.000182233
0.000164781
0.000151167
0.000124609
0.000124609
0.000205872
0.000271039
0.000335995
0.000595309
0.000782543
0.000940166
0.0027341
0.00290939
0.0019695
0.00123823
0.000332753
0.00123823
0.000640564
0.00237684
0.00168485
0.0029501
)
;
    }
    ceiling
    {
        type            kqRWallFunction;
        value           nonuniform List<scalar> 
43
(
0.00583276
0.00683706
0.00762379
0.00880039
0.00843808
0.00792266
0.00704027
0.00584355
0.00479125
0.00430854
0.00398606
0.00366986
0.00331289
0.00292762
0.00253896
0.00218113
0.00192794
0.00177915
0.0016955
0.00164476
0.00161166
0.00158403
0.00154736
0.00149882
0.00143987
0.00137649
0.00131836
0.00127659
0.00126132
0.00128068
0.00133252
0.00141111
0.00151683
0.0016523
0.00181832
0.00201375
0.0021383
0.00206279
0.00185901
0.00169381
0.0176785
0.0249296
0.00853197
)
;
    }
    sWall
    {
        type            kqRWallFunction;
        value           uniform 0.00583276;
    }
    nWall
    {
        type            kqRWallFunction;
        value           nonuniform List<scalar> 6(0.000940166 0.000983118 0.00124408 0.00241731 0.00258185 0.00169381);
    }
    sideWalls
    {
        type            empty;
    }
    glass1
    {
        type            kqRWallFunction;
        value           nonuniform List<scalar> 9(0.00171415 0.00343043 0.00537467 0.00772588 0.0105932 0.0141079 0.0178288 0.0186294 0.0176785);
    }
    glass2
    {
        type            kqRWallFunction;
        value           nonuniform List<scalar> 2(0.00320995 0.00304921);
    }
    sun
    {
        type            kqRWallFunction;
        value           nonuniform List<scalar> 
14
(
0.00171415
0.001995
0.00202162
0.00220537
0.00238054
0.00254622
0.00270736
0.00287102
0.00303735
0.00316433
0.00322961
0.00321171
0.00310425
0.00293124
)
;
    }
    Table_master
    {
        type            kqRWallFunction;
        value           nonuniform List<scalar> 9(0.00088596 0.000698594 0.000562255 0.000462658 0.000388825 0.000333163 0.000290566 0.000257742 0.000232823);
    }
    Table_slave
    {
        type            kqRWallFunction;
        value           nonuniform List<scalar> 9(0.00105876 0.00089076 0.000788409 0.000719857 0.000665717 0.000613108 0.000564263 0.000514656 0.000458444);
    }
    inlet
    {
        type            turbulentIntensityKineticEnergyInlet;
        intensity       0.05;
        value           uniform 0.0003375;
    }
    outlet
    {
        type            zeroGradient;
    }
}


// ************************************************************************* //
