/*--------------------------------*- C++ -*----------------------------------*\
  =========                 |
  \\      /  F ield         | OpenFOAM: The Open Source CFD Toolbox
   \\    /   O peration     | Website:  https://openfoam.org
    \\  /    A nd           | Version:  6
     \\/     M anipulation  |
\*---------------------------------------------------------------------------*/
FoamFile
{
    version     2.0;
    format      ascii;
    class       volScalarField;
    location    "1900";
    object      alphat;
}
// * * * * * * * * * * * * * * * * * * * * * * * * * * * * * * * * * * * * * //

dimensions      [1 -1 -1 0 0 0 0];

internalField   nonuniform List<scalar> 
458
(
0.00107638
0.00116218
0.00116996
0.00122198
0.0012696
0.00131305
0.00135398
0.00139432
0.00143416
0.00146386
0.00147893
0.00147487
0.00145004
0.00140909
0.0013609
0.000474704
0.000597874
0.000634431
0.000617518
0.000591572
0.000558011
0.000524336
0.000493701
0.000466406
0.000442111
0.000420611
0.000401377
0.000383862
0.000367452
0.000351307
0.000334062
0.000319964
0.000290494
0.00152177
0.00335946
0.00310744
0.00361642
0.0040612
0.00451819
0.00496033
0.00534461
0.00563525
0.0058934
0.00607943
0.00612612
0.00592445
0.00525374
0.00365826
0.00140387
0.00115502
0.000915773
0.000658594
0.00107959
0.00138115
0.00157449
0.00162216
0.00134682
0.00119131
0.00107709
0.00098766
0.000915541
0.000852201
0.000794044
0.000738334
0.000683371
0.000636283
0.000597554
0.000698374
0.000373394
0.00190363
0.00465374
0.00372079
0.00496847
0.00550513
0.00589202
0.0061849
0.00641267
0.00660112
0.00681392
0.00703602
0.00723318
0.00736458
0.00738393
0.00720082
0.00659956
0.00547713
0.00126886
0.00106828
0.00148433
0.00181385
0.00205582
0.00207369
0.000774623
0.000687853
0.000617093
0.000559776
0.000513171
0.000475022
0.000443619
0.000417813
0.000397104
0.000428835
0.000492892
0.000778619
0.000428432
0.00228095
0.00624632
0.00368434
0.00532889
0.00597746
0.00620043
0.00627361
0.00630806
0.00637834
0.00653537
0.00676228
0.00702939
0.00730996
0.00757589
0.00775558
0.0077002
0.00714031
0.00551001
0.00141365
0.00180891
0.0023112
0.00269799
0.00292677
0.00281238
0.00084674
0.000776647
0.000730656
0.00069816
0.000671387
0.000644309
0.00061811
0.000590315
0.000557147
0.000523387
0.000521366
0.000859183
0.000477008
0.00266932
0.00834347
0.00426188
0.00500421
0.00599444
0.00621376
0.00616168
0.00603988
0.00601461
0.00615845
0.00639318
0.00668833
0.0070184
0.00733821
0.00753861
0.00753163
0.00723015
0.00656926
0.00529429
0.00480992
0.00455369
0.00436293
0.00419851
0.00399326
0.00344437
0.00321614
0.00311169
0.00303837
0.0029491
0.00281371
0.00255273
0.00219793
0.00177919
0.00133873
0.000990903
0.000927807
0.00073772
0.000634835
0.000727733
0.000797652
0.00307891
0.0106307
0.00646027
0.00490163
0.00544287
0.00587743
0.00605763
0.00589541
0.00584613
0.00600079
0.00622868
0.00652588
0.00686456
0.00717149
0.00734605
0.00730256
0.00702836
0.00660047
0.0060949
0.00570665
0.00535874
0.00501415
0.00470271
0.0044432
0.00422173
0.00409602
0.00401252
0.00392624
0.00381579
0.00367108
0.00345489
0.00312264
0.0026751
0.00213427
0.00162158
0.00121886
0.00095959
0.000809087
0.00107639
0.000815737
0.00345962
0.0123324
0.00978505
0.00697562
0.00600549
0.00579277
0.00596977
0.00601548
0.00602181
0.00608976
0.00626228
0.00654449
0.00688946
0.00720138
0.00736103
0.0072814
0.00697512
0.00655947
0.00616612
0.00581584
0.00541518
0.00496928
0.00457087
0.00428967
0.00413208
0.00405616
0.00399679
0.00391988
0.00382019
0.00370727
0.00358991
0.00340023
0.00306597
0.00260835
0.00213226
0.00169932
0.00138689
0.00123244
0.00117854
0.000917691
0.00353403
0.0112876
0.0100696
0.00931927
0.00833969
0.00751514
0.00709002
0.00666275
0.00635666
0.00627835
0.00642347
0.00672879
0.00710002
0.00741364
0.00753703
0.00738821
0.00701024
0.00654119
0.00608819
0.00557142
0.0049805
0.00446772
0.00411582
0.00391306
0.00380566
0.00373651
0.0036641
0.00357561
0.00348302
0.0034109
0.00338138
0.00338705
0.003264
0.00295055
0.00264782
0.00245441
0.00244422
0.00254118
0.00309156
0.00147348
0.00343938
0.00408776
0.0047154
0.00501658
0.00528393
0.00539787
0.00543404
0.00553309
0.00579163
0.00617906
0.0066379
0.00710851
0.00752433
0.00778343
0.00777324
0.00744744
0.00692612
0.00634351
0.00563313
0.00490225
0.00432394
0.00394806
0.00372171
0.00357743
0.00346652
0.00335696
0.00322872
0.00307602
0.00290928
0.0027471
0.00260014
0.00246554
0.00235042
0.0022538
0.00219805
0.00218539
0.00216974
0.00210509
0.00199839
0.00143558
0.00230299
0.0054265
0.0058541
0.00618519
0.00656671
0.00700919
0.00736598
0.00764266
0.00786416
0.00805335
0.00818466
0.00813066
0.00777644
0.00711953
0.00628977
0.00544747
0.00473507
0.00425057
0.00395492
0.00376227
0.00361264
0.00347042
0.00331724
0.00314602
0.00295703
0.00275574
0.00255408
0.00237396
0.0022435
0.0021728
0.00214286
0.00213857
0.00215116
0.00215946
0.00212514
0.00202534
0.00187888
0.0012783
0.00245949
0.00622845
0.00706533
0.00720561
0.00750715
0.0078483
0.00807601
0.00801916
0.0079288
0.00790288
0.00788912
0.00758984
0.006942
0.00611729
0.00535603
0.00482574
0.00454209
0.00440153
0.00430954
0.00422719
0.00414541
0.00404347
0.00390504
0.00372184
0.00349619
0.00324146
0.00297887
0.0027311
0.00252592
0.00238431
0.00230656
0.0022825
0.00229118
0.00230098
0.00227939
0.00230375
0.00254967
0.00132113
0.00201166
0.00217872
0.0023007
0.00245665
0.00240124
0.00232424
0.00218915
0.00199301
0.00180358
0.00170956
0.00164378
0.00157679
0.00149781
0.00140782
0.00131089
0.00121492
0.00114218
0.0010972
0.00107108
0.00105491
0.00104423
0.00103522
0.00102315
0.00100696
0.000986948
0.000964968
0.000944356
0.000929262
0.000923672
0.000930719
0.000949353
0.000976931
0.00101285
0.00105709
0.0011089
0.00116694
0.00120245
0.00118102
0.00112117
0.00107007
)
;

boundaryField
{
    floor
    {
        type            compressible::alphatWallFunction;
        Prt             0.85;
        value           nonuniform List<scalar> 
36
(
0.000192229
6.53939e-05
8.40988e-05
8.95518e-05
8.70327e-05
8.31519e-05
7.81008e-05
7.29946e-05
6.83135e-05
6.4112e-05
6.03459e-05
5.69912e-05
5.39713e-05
5.12051e-05
4.85985e-05
4.60193e-05
4.32468e-05
4.09665e-05
3.6156e-05
3.61554e-05
4.95438e-05
5.82143e-05
6.57484e-05
8.96182e-05
0.000103317
0.000113485
0.000192227
0.00019806
0.000163989
0.000130423
6.53931e-05
0.000130422
9.31454e-05
0.000179668
0.000151915
0.000199379
)
;
    }
    ceiling
    {
        type            compressible::alphatWallFunction;
        Prt             0.85;
        value           nonuniform List<scalar> 
43
(
0.000278578
0.000300228
0.000315928
0.000335991
0.000328953
0.000319117
0.000301756
0.000276332
0.000251517
0.000239101
0.000230371
0.000221442
0.000210857
0.000198715
0.00018554
0.000172382
0.00016233
0.000156076
0.000152431
0.00015017
0.000148674
0.000147412
0.000145718
0.000143442
0.000140622
0.000137517
0.000134599
0.000132457
0.000131663
0.000132665
0.000135309
0.000139211
0.000144273
0.000150481
0.000157712
0.000165766
0.000170672
0.000167713
0.00015942
0.000152299
0.000459162
0.000538207
0.000336032
)
;
    }
    sWall
    {
        type            compressible::alphatWallFunction;
        Prt             0.85;
        value           uniform 0.000277389;
    }
    nWall
    {
        type            compressible::alphatWallFunction;
        Prt             0.85;
        value           nonuniform List<scalar> 6(0.000113301 0.00011591 0.000130506 0.000180781 0.000186631 0.000151993);
    }
    sideWalls
    {
        type            empty;
    }
    glass1
    {
        type            compressible::alphatWallFunction;
        Prt             0.85;
        value           nonuniform List<scalar> 9(0.000149362 0.000209453 0.00025953 0.000308035 0.00035714 0.000408168 0.000455013 0.000464227 0.000452861);
    }
    glass2
    {
        type            compressible::alphatWallFunction;
        Prt             0.85;
        value           nonuniform List<scalar> 2(0.000206224 0.000201174);
    }
    sun
    {
        type            compressible::alphatWallFunction;
        Prt             0.85;
        value           nonuniform List<scalar> 
14
(
0.00015307
0.000164982
0.000166057
0.000173234
0.000179772
0.000185714
0.00019129
0.000196768
0.00020216
0.00020617
0.000208199
0.000207653
0.000204303
0.000198767
)
;
    }
    Table_master
    {
        type            compressible::alphatWallFunction;
        Prt             0.85;
        value           nonuniform List<scalar> 9(0.000110207 9.75234e-05 8.7036e-05 7.84327e-05 7.13567e-05 6.55044e-05 6.06422e-05 5.66139e-05 5.3358e-05);
    }
    Table_slave
    {
        type            compressible::alphatWallFunction;
        Prt             0.85;
        value           nonuniform List<scalar> 9(0.000120621 0.000110503 0.000103806 9.90429e-05 9.50988e-05 9.10901e-05 8.71917e-05 8.30334e-05 7.80394e-05);
    }
    inlet
    {
        type            fixedValue;
        value           uniform 1.94e-05;
    }
    outlet
    {
        type            zeroGradient;
    }
}


// ************************************************************************* //
