/*--------------------------------*- C++ -*----------------------------------*\
  =========                 |
  \\      /  F ield         | OpenFOAM: The Open Source CFD Toolbox
   \\    /   O peration     | Website:  https://openfoam.org
    \\  /    A nd           | Version:  6
     \\/     M anipulation  |
\*---------------------------------------------------------------------------*/
FoamFile
{
    version     2.0;
    format      ascii;
    class       volScalarField;
    location    "1900";
    object      T;
}
// * * * * * * * * * * * * * * * * * * * * * * * * * * * * * * * * * * * * * //

dimensions      [0 0 0 1 0 0 0];

internalField   nonuniform List<scalar> 
458
(
304.222
303.969
303.958
303.955
303.952
303.949
303.946
303.943
303.938
303.932
303.923
303.913
303.902
303.893
303.888
303.924
303.909
303.906
303.907
303.908
303.91
303.911
303.912
303.913
303.913
303.914
303.914
303.914
303.914
303.913
303.913
303.912
303.919
304.398
304.008
303.985
303.988
303.991
303.993
303.993
303.991
303.987
303.976
303.959
303.936
303.913
303.892
303.879
303.876
303.88
303.891
303.912
303.9
303.899
303.9
303.902
303.902
303.901
303.901
303.9
303.898
303.897
303.896
303.895
303.894
303.893
303.894
303.895
303.908
304.579
304.054
304.014
304.022
304.034
304.045
304.052
304.056
304.053
304.039
304.011
303.973
303.933
303.899
303.877
303.867
303.866
303.873
303.887
303.89
303.896
303.902
303.906
303.905
303.904
303.903
303.901
303.9
303.898
303.896
303.893
303.891
303.89
303.889
303.889
303.902
304.757
304.112
304.043
304.054
304.075
304.097
304.116
304.13
304.133
304.114
304.073
304.015
303.955
303.905
303.874
303.861
303.86
303.864
303.872
303.88
303.891
303.902
303.912
303.918
303.923
303.926
303.929
303.931
303.932
303.932
303.931
303.93
303.928
303.914
303.901
303.892
303.9
304.926
304.187
304.079
304.08
304.106
304.137
304.17
304.199
304.21
304.186
304.128
304.049
303.97
303.906
303.869
303.854
303.855
303.863
303.875
303.889
303.904
303.918
303.929
303.937
303.943
303.946
303.949
303.95
303.95
303.948
303.946
303.942
303.937
303.926
303.912
303.898
303.898
303.941
303.991
303.996
305.075
304.285
304.148
304.121
304.137
304.167
304.205
304.25
304.268
304.234
304.158
304.061
303.969
303.898
303.858
303.844
303.85
303.865
303.884
303.904
303.922
303.938
303.949
303.957
303.962
303.964
303.966
303.965
303.964
303.961
303.956
303.951
303.943
303.934
303.92
303.906
303.9
303.919
303.935
303.964
305.207
304.443
304.311
304.256
304.238
304.244
304.267
304.302
304.301
304.246
304.15
304.039
303.939
303.869
303.834
303.83
303.847
303.873
303.9
303.925
303.945
303.96
303.97
303.976
303.979
303.98
303.98
303.979
303.976
303.972
303.966
303.958
303.95
303.94
303.928
303.915
303.906
303.911
303.919
303.941
305.408
304.839
304.697
304.584
304.495
304.442
304.418
304.39
304.322
304.212
304.08
303.956
303.862
303.81
303.798
303.816
303.851
303.891
303.925
303.953
303.97
303.981
303.988
303.992
303.993
303.994
303.993
303.991
303.988
303.984
303.979
303.971
303.961
303.952
303.943
303.934
303.93
303.934
303.947
304.058
305.692
305.432
305.138
304.895
304.714
304.578
304.471
304.364
304.198
304.022
303.873
303.773
303.729
303.73
303.765
303.818
303.873
303.924
303.956
303.976
303.989
303.997
304.001
304.004
304.006
304.006
304.006
304.005
304.003
304.002
304.001
304.002
304.005
304.011
304.023
304.041
304.066
304.093
304.115
304.163
295.879
300.047
301.815
302.53
302.86
303.007
303.138
303.255
303.365
303.473
303.583
303.686
303.778
303.866
303.922
303.958
303.98
303.993
304.001
304.007
304.011
304.014
304.017
304.019
304.021
304.023
304.025
304.027
304.029
304.032
304.037
304.044
304.054
304.069
304.088
304.106
304.121
304.134
296.952
300.171
301.464
302.226
302.629
302.864
303.05
303.226
303.388
303.536
303.68
303.789
303.866
303.922
303.957
303.978
303.991
304
304.006
304.011
304.016
304.02
304.024
304.028
304.032
304.036
304.039
304.042
304.044
304.047
304.051
304.056
304.064
304.074
304.086
304.099
304.095
304.118
300.182
300.078
300.072
301.932
302.477
302.806
303.065
303.289
303.477
303.611
303.714
303.795
303.857
303.901
303.931
303.952
303.966
303.974
303.98
303.986
303.99
303.995
304
304.004
304.009
304.013
304.018
304.022
304.027
304.032
304.036
304.041
304.046
304.051
304.056
304.064
304.073
304.076
304.075
304.112
)
;

boundaryField
{
    floor
    {
        type            wallHeatTransfer;
        Tinf            uniform 305.2;
        alphaWall       uniform 0.24;
        value           nonuniform List<scalar> 
36
(
304.018
304.19
304.14
304.129
304.134
304.142
304.152
304.163
304.174
304.184
304.194
304.203
304.211
304.22
304.228
304.236
304.245
304.253
304.277
304.277
304.22
304.191
304.17
304.158
304.181
304.173
304.018
304.004
304.028
304.065
304.19
304.065
304.129
304.012
304.043
304
)
;
    }
    ceiling
    {
        type            wallHeatTransfer;
        Tinf            uniform 303.2;
        alphaWall       uniform 0.24;
        value           nonuniform List<scalar> 
43
(
300.403
300.293
300.278
302.011
302.523
302.832
303.075
303.282
303.455
303.577
303.67
303.743
303.797
303.833
303.857
303.871
303.879
303.884
303.888
303.891
303.895
303.898
303.901
303.904
303.907
303.909
303.911
303.914
303.917
303.922
303.928
303.934
303.941
303.949
303.957
303.968
303.978
303.98
303.975
304.004
305.574
305.341
297.341
)
;
    }
    sWall
    {
        type            wallHeatTransfer;
        Tinf            uniform 315.2;
        alphaWall       uniform 0.36;
        value           uniform 301.777;
    }
    nWall
    {
        type            wallHeatTransfer;
        Tinf            uniform 307.2;
        alphaWall       uniform 0.36;
        value           nonuniform List<scalar> 6(304.655 304.62 304.551 304.589 304.565 304.632);
    }
    sideWalls
    {
        type            empty;
    }
    glass1
    {
        type            wallHeatTransfer;
        Tinf            uniform 315.2;
        alphaWall       uniform 4.3;
        value           nonuniform List<scalar> 9(312.024 311.381 310.964 310.637 310.361 310.115 309.925 309.985 310.192);
    }
    glass2
    {
        type            wallHeatTransfer;
        Tinf            uniform 307.2;
        alphaWall       uniform 4.3;
        value           nonuniform List<scalar> 2(306.099 306.151);
    }
    sun
    {
        type            wallHeatTransfer;
        Tinf            uniform 305.2;
        alphaWall       uniform 0.24;
        value           nonuniform List<scalar> 
14
(
304.338
304.107
304.096
304.089
304.083
304.077
304.071
304.065
304.059
304.051
304.042
304.033
304.025
304.02
)
;
    }
    Table_master
    {
        type            zeroGradient;
    }
    Table_slave
    {
        type            zeroGradient;
    }
    inlet
    {
        type            fixedValue;
        value           uniform 292.15;
    }
    outlet
    {
        type            zeroGradient;
    }
}


// ************************************************************************* //
