/*--------------------------------*- C++ -*----------------------------------*\
  =========                 |
  \\      /  F ield         | OpenFOAM: The Open Source CFD Toolbox
   \\    /   O peration     | Website:  https://openfoam.org
    \\  /    A nd           | Version:  6
     \\/     M anipulation  |
\*---------------------------------------------------------------------------*/
FoamFile
{
    version     2.0;
    format      ascii;
    class       volScalarField;
    location    "2400";
    object      nut;
}
// * * * * * * * * * * * * * * * * * * * * * * * * * * * * * * * * * * * * * //

dimensions      [0 2 -1 0 0 0 0];

internalField   nonuniform List<scalar> 
458
(
0.000797189
0.000845084
0.000840402
0.000872269
0.00090042
0.000925102
0.0009473
0.000968052
0.000988534
0.00100703
0.00101957
0.00102444
0.00102169
0.00101502
0.00100812
0.000479483
0.000512149
0.000510912
0.000503821
0.000493695
0.000478019
0.000460925
0.00044464
0.000429537
0.000415714
0.000402937
0.000390953
0.000379462
0.00036803
0.000356024
0.000342219
0.000327313
0.000297636
0.00117494
0.00219614
0.00194791
0.00226784
0.00248765
0.00271508
0.00293861
0.00314008
0.00329086
0.00339141
0.00344275
0.00340328
0.0032094
0.00276615
0.00196106
0.00104176
0.000931059
0.000839889
0.000666153
0.000926832
0.00114643
0.0013013
0.00135612
0.00114791
0.00104562
0.000975364
0.000920863
0.000871433
0.000823982
0.000776543
0.000725526
0.000668261
0.000616823
0.000577176
0.000635087
0.000353954
0.00150974
0.00314231
0.00222006
0.00314968
0.00344965
0.00366006
0.00382039
0.00394425
0.00404176
0.00412516
0.00420644
0.00426577
0.00428331
0.00425387
0.00416581
0.00387274
0.00299468
0.0010442
0.000789974
0.00125275
0.00155587
0.00175665
0.00175034
0.000601716
0.000547299
0.000501436
0.000463578
0.000432567
0.000407189
0.000386449
0.000369861
0.000357761
0.000402106
0.000477735
0.000701627
0.000393192
0.0018506
0.00449005
0.0021672
0.00342454
0.00384265
0.00397466
0.00401913
0.00402994
0.00404678
0.00408857
0.00415875
0.0042345
0.00429882
0.00435763
0.0044184
0.00441399
0.00419153
0.00355042
0.000951706
0.00145037
0.0018838
0.00212368
0.00223406
0.00210145
0.00062347
0.000593649
0.000580316
0.000573384
0.000566396
0.00055491
0.000539413
0.000521958
0.000499408
0.000475213
0.000484439
0.000746364
0.000432336
0.00220362
0.00630581
0.00261213
0.00318899
0.00392337
0.00405586
0.0040275
0.00395187
0.00390849
0.00393111
0.00401322
0.00410091
0.00416428
0.00420523
0.00424166
0.00425784
0.00418836
0.00398057
0.00338089
0.00306177
0.00285445
0.00269127
0.0025828
0.00249532
0.00228898
0.00227956
0.00231816
0.00234888
0.00234711
0.0022958
0.00214461
0.0018858
0.00154904
0.00117475
0.000883092
0.000818709
0.00062845
0.000500572
0.00053127
0.000555259
0.00257375
0.00830573
0.00437343
0.00297258
0.00350721
0.00384942
0.0039482
0.00390233
0.00380417
0.00382683
0.00394348
0.00404382
0.00409675
0.0041079
0.00410745
0.00410821
0.00407496
0.00394755
0.0036516
0.0033258
0.00302072
0.00275624
0.00260264
0.00255848
0.00259642
0.00269327
0.0027902
0.00285928
0.00289018
0.00287593
0.00279699
0.00259428
0.00226943
0.00183614
0.00140861
0.00108451
0.000834942
0.000823888
0.00119395
0.000741775
0.00293404
0.0099143
0.0074125
0.00457577
0.00355121
0.00331945
0.00347447
0.00372214
0.00377923
0.00387731
0.00398693
0.00406297
0.00408544
0.00406597
0.00404413
0.00404875
0.00404772
0.00394802
0.00368122
0.00331901
0.00294694
0.00265532
0.00253908
0.0025393
0.002609
0.00271389
0.00281604
0.0028939
0.0029453
0.00297088
0.00297027
0.002889
0.0026499
0.00227673
0.00187054
0.00150416
0.0012035
0.00109286
0.00134799
0.000893315
0.00301737
0.00949798
0.00827328
0.00725666
0.00590149
0.00483439
0.00430963
0.0042086
0.00417034
0.00413444
0.00413425
0.00413828
0.00410265
0.00403935
0.00400331
0.00402924
0.00406751
0.00398517
0.00368995
0.003224
0.00280178
0.00256917
0.00249116
0.00249279
0.00253522
0.00259562
0.00265634
0.00270918
0.00275696
0.00280763
0.00287069
0.00293847
0.00289152
0.00260259
0.0023148
0.00210869
0.00204189
0.00206843
0.00265555
0.00125055
0.00295085
0.00353795
0.0041851
0.00449117
0.00462778
0.00452643
0.00435699
0.00424094
0.00417275
0.00417573
0.00419932
0.00418172
0.00407913
0.00396258
0.00392751
0.00400066
0.00408456
0.0039825
0.00357714
0.00304955
0.00268747
0.00250941
0.0024292
0.00239453
0.00238267
0.00237909
0.00237269
0.00235762
0.00233224
0.00229487
0.00224087
0.00216251
0.00205866
0.00195424
0.00188368
0.00186318
0.00185924
0.00182559
0.00176063
0.0012393
0.00253503
0.0052813
0.00504816
0.00492455
0.0048208
0.00475201
0.00470287
0.00461662
0.00447808
0.00425746
0.00394511
0.00375499
0.0037694
0.00393975
0.00406478
0.00382915
0.00334295
0.00293484
0.00268979
0.00253801
0.00242294
0.00232449
0.00223728
0.002158
0.00208268
0.00200853
0.00193629
0.00187081
0.00181941
0.00178936
0.00178064
0.0017763
0.00177882
0.0017785
0.00174432
0.00164568
0.00149749
0.00106676
0.00241346
0.00572262
0.00550229
0.00526517
0.005085
0.00492915
0.0047522
0.00451212
0.00413588
0.00367603
0.0031721
0.00317985
0.0035038
0.00395284
0.0042086
0.00400526
0.00366507
0.00338694
0.00319488
0.00304241
0.00289486
0.00274025
0.00257986
0.00242041
0.00226989
0.00213552
0.00202271
0.00193441
0.00187019
0.00182484
0.00181529
0.00183391
0.00186723
0.00189291
0.00189614
0.00188552
0.00196922
0.00108857
0.00190904
0.00208079
0.0022216
0.00238168
0.00226795
0.0021616
0.00198494
0.00179181
0.0016003
0.00141372
0.00126801
0.00112796
0.000969063
0.000877525
0.000924082
0.000950679
0.000933859
0.000889412
0.000851094
0.000824537
0.000804632
0.000786881
0.000770196
0.000755737
0.000745377
0.000740686
0.000742491
0.000750919
0.000765722
0.000786694
0.000814092
0.000849154
0.000888127
0.000931514
0.000979891
0.00103154
0.00108705
0.00107702
0.00100133
0.000936441
)
;

boundaryField
{
    floor
    {
        type            nutkWallFunction;
        Cmu             0.09;
        kappa           0.41;
        E               9.8;
        value           nonuniform List<scalar> 
36
(
0.000121682
5.70816e-05
6.1253e-05
6.1095e-05
6.01904e-05
5.88958e-05
5.68847e-05
5.46824e-05
5.25748e-05
5.06114e-05
4.88067e-05
4.71318e-05
4.55548e-05
4.40368e-05
4.25207e-05
4.09219e-05
3.90749e-05
3.70697e-05
3.30411e-05
3.3041e-05
4.06452e-05
4.58495e-05
5.09758e-05
5.97763e-05
6.36858e-05
6.6721e-05
0.000121682
0.00012563
0.000112582
0.000101703
5.70815e-05
0.000101703
8.05569e-05
0.00012592
9.5681e-05
0.000115024
)
;
    }
    ceiling
    {
        type            nutkWallFunction;
        Cmu             0.09;
        kappa           0.41;
        E               9.8;
        value           nonuniform List<scalar> 
43
(
0.000223376
0.000242077
0.000257288
0.000274578
0.000262415
0.000250969
0.000231802
0.00021063
0.000189385
0.000168418
0.000151831
0.000135687
0.000117093
0.000106195
0.000111742
0.0001149
0.000112912
0.000107626
0.000103043
9.9852e-05
9.74525e-05
9.5307e-05
9.32852e-05
9.15291e-05
9.02686e-05
8.96975e-05
8.99178e-05
9.09444e-05
9.2744e-05
9.52863e-05
9.85956e-05
0.000102811
0.000107474
0.000112636
0.00011836
0.000124436
0.000130925
0.000129756
0.000120886
0.000113221
0.000335031
0.000395897
0.000277698
)
;
    }
    sWall
    {
        type            nutkWallFunction;
        Cmu             0.09;
        kappa           0.41;
        E               9.8;
        value           uniform 0.000223437;
    }
    nWall
    {
        type            nutkWallFunction;
        Cmu             0.09;
        kappa           0.41;
        E               9.8;
        value           nonuniform List<scalar> 6(6.67147e-05 8.98311e-05 0.000108096 0.000128566 0.000131111 0.000113226);
    }
    sideWalls
    {
        type            empty;
    }
    glass1
    {
        type            nutkWallFunction;
        Cmu             0.09;
        kappa           0.41;
        E               9.8;
        value           nonuniform List<scalar> 9(9.65554e-05 0.000141254 0.000179475 0.000217424 0.00025593 0.000295599 0.000333639 0.000342375 0.000335425);
    }
    glass2
    {
        type            nutkWallFunction;
        Cmu             0.09;
        kappa           0.41;
        E               9.8;
        value           nonuniform List<scalar> 2(0.000149877 0.000148586);
    }
    sun
    {
        type            nutkWallFunction;
        Cmu             0.09;
        kappa           0.41;
        E               9.8;
        value           nonuniform List<scalar> 
14
(
9.65536e-05
0.000102321
0.000101758
0.000105577
0.000108936
0.000111872
0.000114504
0.000116959
0.000119375
0.000121553
0.000123026
0.000123598
0.000123276
0.000122492
)
;
    }
    Table_master
    {
        type            nutkWallFunction;
        Cmu             0.09;
        kappa           0.41;
        E               9.8;
        value           nonuniform List<scalar> 9(7.25554e-05 6.5717e-05 5.98886e-05 5.50281e-05 5.10096e-05 4.76942e-05 4.49652e-05 4.27693e-05 4.11596e-05);
    }
    Table_slave
    {
        type            nutkWallFunction;
        Cmu             0.09;
        kappa           0.41;
        E               9.8;
        value           nonuniform List<scalar> 9(7.52666e-05 7.15458e-05 6.98751e-05 6.90048e-05 6.8126e-05 6.66787e-05 6.47196e-05 6.25049e-05 5.963e-05);
    }
    inlet
    {
        type            calculated;
        value           uniform 0.000100623;
    }
    outlet
    {
        type            calculated;
        value           nonuniform List<scalar> 2(0.00190904 0.00208079);
    }
}


// ************************************************************************* //
