/*--------------------------------*- C++ -*----------------------------------*\
  =========                 |
  \\      /  F ield         | OpenFOAM: The Open Source CFD Toolbox
   \\    /   O peration     | Website:  https://openfoam.org
    \\  /    A nd           | Version:  6
     \\/     M anipulation  |
\*---------------------------------------------------------------------------*/
FoamFile
{
    version     2.0;
    format      ascii;
    class       volScalarField;
    location    "2900";
    object      epsilon;
}
// * * * * * * * * * * * * * * * * * * * * * * * * * * * * * * * * * * * * * //

dimensions      [0 2 -3 0 0 0 0];

internalField   nonuniform List<scalar> 
458
(
0.000512451
0.000676918
0.000719925
0.000832998
0.000950194
0.00107267
0.00120798
0.00132685
0.00140107
0.0014117
0.00134944
0.00121579
0.00101972
0.000770778
0.000462468
4.63831e-05
8.34844e-05
0.000130046
0.000144781
0.000139031
0.000115941
9.31789e-05
7.52369e-05
6.15255e-05
5.09658e-05
4.27358e-05
3.62665e-05
3.10689e-05
2.67507e-05
2.2995e-05
1.94953e-05
1.65713e-05
1.20986e-05
0.00127348
0.00176307
0.000638456
0.000623223
0.000663031
0.000727809
0.000820381
0.000919977
0.000995199
0.00102116
0.000987854
0.000899556
0.000771489
0.000626623
0.000517808
0.000795184
0.000424464
0.000206098
4.94733e-05
0.000110788
0.000128562
0.000127596
0.000121229
0.000122737
9.81072e-05
7.58935e-05
5.88968e-05
4.61846e-05
3.66873e-05
2.95614e-05
2.41419e-05
2.00603e-05
1.7522e-05
1.63394e-05
2.7968e-05
2.12799e-05
0.00228663
0.00417939
0.000797915
0.000612532
0.000660797
0.000767605
0.000914698
0.00106217
0.00116348
0.00119334
0.00115106
0.00104663
0.000898613
0.000729629
0.000581992
0.000488683
0.000405781
0.000470935
0.000277526
0.000222123
0.000186261
0.000158901
0.000146444
0.000296411
0.000195607
0.000132948
9.37884e-05
6.86467e-05
5.19858e-05
4.06618e-05
3.28665e-05
2.7659e-05
2.13694e-05
1.80813e-05
4.41992e-05
3.0134e-05
0.00364782
0.00850057
0.00126864
0.000657707
0.000698117
0.000866108
0.00110941
0.00131233
0.00142268
0.00143535
0.00136767
0.00123236
0.00104698
0.000853156
0.000678432
0.000545652
0.000460262
0.000471108
0.000856437
0.000511809
0.00033362
0.000243179
0.00019138
0.000170305
0.000410743
0.000304796
0.000244261
0.000205491
0.000177057
0.00015262
0.000131463
0.000111722
9.15826e-05
5.49965e-05
3.42107e-05
6.39626e-05
4.22042e-05
0.00549621
0.014933
0.00250988
0.00086854
0.000838085
0.00112505
0.00151786
0.00173556
0.00180434
0.00176645
0.00165007
0.00146724
0.00123601
0.000988341
0.000759894
0.000578451
0.000453427
0.000393828
0.000380094
0.00032951
0.000278421
0.000233715
0.000194582
0.000163043
0.000154457
0.000140839
0.00013009
0.000120774
0.000111368
0.0001009
8.98348e-05
7.89355e-05
6.86711e-05
5.51464e-05
4.18669e-05
5.07908e-05
6.10958e-05
7.40371e-05
8.49071e-05
8.81495e-05
0.00803542
0.0220067
0.00564931
0.00185331
0.00156299
0.00209745
0.00238347
0.00243616
0.00236741
0.00223351
0.00204043
0.00178341
0.00147316
0.00114332
0.000839413
0.000599722
0.000439653
0.000355754
0.000322447
0.00029905
0.000269106
0.000232525
0.000194429
0.000160458
0.000138568
0.000128096
0.000123719
0.000120648
0.000116491
0.000109662
9.88125e-05
8.55457e-05
7.27345e-05
6.07168e-05
5.08701e-05
4.84597e-05
5.30266e-05
7.97984e-05
0.000332434
0.000208913
0.0108068
0.026181
0.0115363
0.00585583
0.00480986
0.00439371
0.00394509
0.00353521
0.00318933
0.0028822
0.00256097
0.00218597
0.00175773
0.00131502
0.000916351
0.000615448
0.000428707
0.000339711
0.00030652
0.000285117
0.00025608
0.000219794
0.000183217
0.000153037
0.000135227
0.000129996
0.000131547
0.00013524
0.000138982
0.000141103
0.000139192
0.000127448
0.000113826
0.000101788
9.50281e-05
9.71177e-05
0.000112229
0.000163346
0.000590012
0.000407791
0.0112984
0.0270026
0.0160855
0.0118475
0.00922936
0.00720368
0.00578062
0.00483719
0.00420497
0.00371424
0.00322518
0.00266994
0.00206165
0.00145904
0.000939403
0.000584352
0.000391198
0.000310308
0.00027958
0.000255048
0.000224247
0.000191035
0.000162204
0.000142547
0.000134252
0.000135819
0.000143673
0.000155668
0.000171445
0.000191279
0.00021523
0.000241966
0.000257189
0.00028379
0.00033907
0.000467521
0.000741577
0.00111971
0.0036454
0.000997159
0.0103454
0.0166712
0.0136097
0.010515
0.00835963
0.00704146
0.0062528
0.00575068
0.00532044
0.00477922
0.00403181
0.00313073
0.00221597
0.00139238
0.000742164
0.000441042
0.000314207
0.00026083
0.000232858
0.000208743
0.00018302
0.000159213
0.000141391
0.000131807
0.00013066
0.000136648
0.000148416
0.00016581
0.000189923
0.000222761
0.000267038
0.000325941
0.000403875
0.000508289
0.000662329
0.000874373
0.00113029
0.00138707
0.00162986
0.000911481
0.00268741
0.00686135
0.00815156
0.00852968
0.00844882
0.00784666
0.00667995
0.0051456
0.00346646
0.00209524
0.00124166
0.00073175
0.000442285
0.000303285
0.000239076
0.000206406
0.000184294
0.000165109
0.000148167
0.000134793
0.000126192
0.000122177
0.0001221
0.000125533
0.000132626
0.000144014
0.000160945
0.000185306
0.000219815
0.00026839
0.000336408
0.000428136
0.000548078
0.000689341
0.000820007
0.000884937
0.000857001
0.000493939
0.00324601
0.00818583
0.00788755
0.00663541
0.00571093
0.00472225
0.0036516
0.00260046
0.00169535
0.00104261
0.000646194
0.000424761
0.000308553
0.00025238
0.000226021
0.000213264
0.000206086
0.000200959
0.000196549
0.000192209
0.000187642
0.000182826
0.000178122
0.000174745
0.000174184
0.000177381
0.000185566
0.000200463
0.000224548
0.000261586
0.00031587
0.000391878
0.00049133
0.000605169
0.000713768
0.000798447
0.000713431
0.000520032
0.00204834
0.00259283
0.0030394
0.00389011
0.0036142
0.00342963
0.00313309
0.00266464
0.00211024
0.00156246
0.00109601
0.000756993
0.00054169
0.000413548
0.000336614
0.000286982
0.000251211
0.000222343
0.000197483
0.000176237
0.000159006
0.000145942
0.000136779
0.000131309
0.000129837
0.000132413
0.000138514
0.000148566
0.000163264
0.000183747
0.000212018
0.000248743
0.000294729
0.000351994
0.000422382
0.000505331
0.000584342
0.000551261
0.00043156
0.000339119
)
;

boundaryField
{
    floor
    {
        Cmu             0.09;
        kappa           0.41;
        E               9.8;
        type            epsilonWallFunction;
        value           nonuniform List<scalar> 
36
(
0.000462468
4.63831e-05
8.34844e-05
0.000130046
0.000144781
0.000139031
0.000115941
9.31789e-05
7.52369e-05
6.15255e-05
5.09658e-05
4.27358e-05
3.62665e-05
3.10689e-05
2.67507e-05
2.2995e-05
1.94953e-05
1.65713e-05
1.20986e-05
1.20986e-05
2.12799e-05
3.0134e-05
4.22042e-05
7.40371e-05
8.49071e-05
8.81495e-05
0.000462468
0.000795184
0.000424464
0.000206098
4.63831e-05
0.000206098
4.94733e-05
0.000470935
0.000277526
0.000856437
)
;
    }
    ceiling
    {
        Cmu             0.09;
        kappa           0.41;
        E               9.8;
        type            epsilonWallFunction;
        value           nonuniform List<scalar> 
43
(
0.00204834
0.00259283
0.0030394
0.00389011
0.0036142
0.00342963
0.00313309
0.00266464
0.00211024
0.00156246
0.00109601
0.000756993
0.00054169
0.000413548
0.000336614
0.000286982
0.000251211
0.000222343
0.000197483
0.000176237
0.000159006
0.000145942
0.000136779
0.000131309
0.000129837
0.000132413
0.000138514
0.000148566
0.000163264
0.000183747
0.000212018
0.000248743
0.000294729
0.000351994
0.000422382
0.000505331
0.000584342
0.000551261
0.00043156
0.000339119
0.0103454
0.0166712
0.00324601
)
;
    }
    sWall
    {
        Cmu             0.09;
        kappa           0.41;
        E               9.8;
        type            epsilonWallFunction;
        value           uniform 0.00204834;
    }
    nWall
    {
        Cmu             0.09;
        kappa           0.41;
        E               9.8;
        type            epsilonWallFunction;
        value           nonuniform List<scalar> 6(8.81495e-05 0.000208913 0.000407791 0.000493939 0.000520032 0.000339119);
    }
    sideWalls
    {
        type            empty;
    }
    glass1
    {
        Cmu             0.09;
        kappa           0.41;
        E               9.8;
        type            epsilonWallFunction;
        value           nonuniform List<scalar> 9(0.000512451 0.00127348 0.00228663 0.00364782 0.00549621 0.00803542 0.0108068 0.0112984 0.0103454);
    }
    glass2
    {
        Cmu             0.09;
        kappa           0.41;
        E               9.8;
        type            epsilonWallFunction;
        value           nonuniform List<scalar> 2(0.000997159 0.000911481);
    }
    sun
    {
        Cmu             0.09;
        kappa           0.41;
        E               9.8;
        type            epsilonWallFunction;
        value           nonuniform List<scalar> 
14
(
0.000512451
0.000676918
0.000719925
0.000832998
0.000950194
0.00107267
0.00120798
0.00132685
0.00140107
0.0014117
0.00134944
0.00121579
0.00101972
0.000770778
)
;
    }
    Table_master
    {
        Cmu             0.09;
        kappa           0.41;
        E               9.8;
        type            epsilonWallFunction;
        value           nonuniform List<scalar> 9(0.000296411 0.000195607 0.000132948 9.37884e-05 6.86467e-05 5.19858e-05 4.06618e-05 3.28665e-05 2.7659e-05);
    }
    Table_slave
    {
        Cmu             0.09;
        kappa           0.41;
        E               9.8;
        type            epsilonWallFunction;
        value           nonuniform List<scalar> 9(0.000410743 0.000304796 0.000244261 0.000205491 0.000177057 0.00015262 0.000131463 0.000111722 9.15826e-05);
    }
    inlet
    {
        type            turbulentMixingLengthDissipationRateInlet;
        mixingLength    0.01;
        phi             phi;
        k               k;
        value           uniform 0.000101881;
    }
    outlet
    {
        type            zeroGradient;
    }
}


// ************************************************************************* //
