/*--------------------------------*- C++ -*----------------------------------*\
  =========                 |
  \\      /  F ield         | OpenFOAM: The Open Source CFD Toolbox
   \\    /   O peration     | Website:  https://openfoam.org
    \\  /    A nd           | Version:  6
     \\/     M anipulation  |
\*---------------------------------------------------------------------------*/
FoamFile
{
    version     2.0;
    format      ascii;
    class       volScalarField;
    location    "100";
    object      alphat;
}
// * * * * * * * * * * * * * * * * * * * * * * * * * * * * * * * * * * * * * //

dimensions      [1 -1 -1 0 0 0 0];

internalField   nonuniform List<scalar> 
458
(
0.000880319
0.000900296
0.000822553
0.000853016
0.000885685
0.000916511
0.000945586
0.000973656
0.00100185
0.00103142
0.00105656
0.00107606
0.00108985
0.00109974
0.0011053
0.000755479
0.000955789
0.000997629
0.000980896
0.000921748
0.000828042
0.000748726
0.00067781
0.000613548
0.000554995
0.000501992
0.000455124
0.000415586
0.000384673
0.000367052
0.000406088
0.000594565
0.000519676
0.00152977
0.00253768
0.00180126
0.00239457
0.00258494
0.00277663
0.00297162
0.00315293
0.00329847
0.00338495
0.00341708
0.00335415
0.00314145
0.0026968
0.00196529
0.00120564
0.00113865
0.000929871
0.000859315
0.00280903
0.00316207
0.00283812
0.00227079
0.00182623
0.0015279
0.00128727
0.00108688
0.000934538
0.000826583
0.000756256
0.000717594
0.000704447
0.000708444
0.000770888
0.00148533
0.000755002
0.0020931
0.00423841
0.00189354
0.00341967
0.0038514
0.00406992
0.00426146
0.00442762
0.00456005
0.00464641
0.00468733
0.00464206
0.00446249
0.00409386
0.00351942
0.00281917
0.00205094
0.00126068
0.001333
0.00391394
0.00351171
0.00273338
0.00195491
0.000705884
0.000562193
0.000523623
0.000488473
0.000459021
0.000434747
0.000414579
0.000397457
0.000392707
0.000698194
0.00116926
0.00254051
0.000882032
0.00262333
0.00640957
0.00212972
0.00369372
0.00460068
0.00485054
0.00502845
0.00518576
0.00532347
0.00543399
0.00552365
0.00557618
0.00554505
0.00535202
0.00489971
0.00412811
0.00310085
0.00209091
0.00147209
0.00293674
0.00365405
0.00321333
0.00255513
0.00185727
0.00126267
0.00128189
0.00129115
0.00126735
0.00126222
0.00126473
0.00126131
0.00123854
0.00118488
0.00128393
0.00144861
0.00220564
0.00121648
0.00311389
0.00879665
0.00285449
0.00341185
0.00488159
0.00521618
0.00537897
0.00551545
0.00564387
0.00576914
0.00590808
0.00610237
0.00633274
0.00654332
0.00665015
0.00657602
0.00629267
0.00584188
0.0053173
0.00486573
0.00464843
0.00434704
0.00416993
0.00412458
0.00421641
0.00445674
0.00478912
0.00506646
0.00513374
0.00514362
0.00507274
0.00490988
0.00463475
0.0040179
0.00333601
0.0027531
0.00220738
0.00132774
0.00127175
0.00120057
0.00357365
0.0109654
0.00442996
0.00306242
0.00453574
0.00513412
0.00537047
0.00550102
0.00557857
0.00563519
0.00573377
0.00596295
0.00631067
0.00673253
0.00714548
0.00744259
0.00751594
0.0072761
0.00673208
0.00603117
0.00537662
0.0049143
0.00463602
0.00445149
0.00437198
0.00447101
0.00489391
0.00542444
0.00564167
0.00568497
0.00562821
0.00552671
0.00540288
0.0051345
0.00461449
0.00389529
0.00317778
0.0027936
0.00311307
0.00140467
0.00400434
0.012574
0.00738156
0.00385736
0.00339937
0.00411504
0.00481841
0.00523675
0.0054083
0.00534375
0.00532865
0.00547453
0.00577211
0.00620603
0.00672378
0.00722134
0.00755089
0.00756122
0.00721293
0.00661941
0.00598138
0.00546634
0.00506533
0.00466452
0.00426584
0.00407483
0.00450976
0.00525192
0.00554509
0.0055703
0.00549562
0.00545071
0.00549904
0.00561362
0.00544428
0.00495252
0.00435174
0.00387431
0.00386365
0.00171492
0.00409586
0.0126317
0.00977491
0.00728386
0.00517586
0.0041436
0.00428444
0.00484685
0.00526665
0.00510208
0.00497664
0.00498676
0.00513396
0.00541757
0.00583263
0.00634047
0.00682867
0.0071002
0.00705163
0.00675282
0.00635337
0.00599396
0.00566707
0.00519308
0.00445424
0.00380344
0.00416764
0.0052312
0.00559166
0.00552996
0.00536894
0.00531723
0.00548381
0.00592855
0.00657875
0.00641833
0.00631304
0.00588555
0.00635309
0.00206571
0.00397596
0.00476884
0.00534241
0.00550629
0.00522683
0.00472353
0.00433263
0.00415623
0.00413125
0.00416586
0.00424782
0.00436722
0.00452541
0.00473316
0.00500877
0.00536548
0.0057767
0.0061447
0.00635964
0.00639183
0.0063103
0.00623344
0.00620888
0.0059859
0.00499967
0.0036548
0.00379055
0.00529609
0.00584097
0.00565171
0.00525142
0.00491469
0.00471953
0.00461613
0.00451609
0.00437918
0.00408463
0.00366149
0.00329604
0.00201052
0.00343146
0.00517098
0.00525932
0.00501465
0.00472042
0.00448402
0.00432506
0.00423144
0.00420544
0.00423618
0.00430989
0.0044228
0.00458339
0.00480727
0.00509978
0.00543154
0.00574001
0.00596815
0.0061034
0.00621755
0.00646785
0.0067643
0.00595899
0.00358267
0.0032809
0.00517858
0.00617713
0.00608598
0.00559278
0.00506904
0.00466992
0.00443444
0.00424983
0.0039784
0.00356375
0.00301353
0.00243825
0.00170435
0.00320196
0.00570869
0.00569852
0.00537479
0.00508063
0.00480867
0.00457481
0.00438638
0.0042423
0.004092
0.0039665
0.00389366
0.00389768
0.00399747
0.00419992
0.00448923
0.00482209
0.00513714
0.00537894
0.00556053
0.00583284
0.00620302
0.00577555
0.0034318
0.00265855
0.00449271
0.00556567
0.00567771
0.00548381
0.00521641
0.00493078
0.00478964
0.00470714
0.00456058
0.00431018
0.00396308
0.00302709
0.00173915
0.00268612
0.00283875
0.00297752
0.00309322
0.00287334
0.00258314
0.0023951
0.0022299
0.00208446
0.00195666
0.00184402
0.00174994
0.00166908
0.0015989
0.00153879
0.00148947
0.00145246
0.00142936
0.00142062
0.00142425
0.00143595
0.00145249
0.00147673
0.00151267
0.00150857
0.00142571
0.00141146
0.00152679
0.00156746
0.00158131
0.00159902
0.00163742
0.00170879
0.00179804
0.0019069
0.00202014
0.00208323
0.00204123
0.00187639
0.00173219
)
;

boundaryField
{
    floor
    {
        type            compressible::alphatWallFunction;
        Prt             0.85;
        value           nonuniform List<scalar> 
36
(
0.000156852
0.00010713
0.000135862
0.000141783
0.00013944
0.000131071
0.000117664
0.000106176
9.5782e-05
8.62494e-05
7.74571e-05
6.93989e-05
6.21848e-05
5.60256e-05
5.11565e-05
4.835e-05
5.44794e-05
8.33609e-05
7.20358e-05
7.20349e-05
0.00010704
0.000125358
0.000172182
0.000187458
0.000179805
0.000170027
0.000156851
0.000170748
0.000161492
0.000132202
0.000107129
0.0001322
0.000122122
0.000178324
0.000188196
0.000207062
)
;
    }
    ceiling
    {
        type            compressible::alphatWallFunction;
        Prt             0.85;
        value           nonuniform List<scalar> 
43
(
0.000364923
0.00038413
0.000401503
0.000415979
0.000388542
0.000351977
0.000328047
0.000306859
0.000288066
0.000271435
0.000256678
0.000244278
0.000233561
0.000224213
0.000216172
0.000209547
0.00020456
0.000201442
0.000200259
0.00020075
0.000202331
0.000204564
0.000207833
0.000212677
0.00021205
0.000200884
0.000199033
0.000214548
0.000219973
0.00022182
0.000224187
0.000229311
0.000238793
0.000250589
0.000264889
0.000279669
0.000287864
0.000282411
0.000260888
0.000241893
0.000524477
0.000619678
0.00042938
)
;
    }
    sWall
    {
        type            compressible::alphatWallFunction;
        Prt             0.85;
        value           uniform 0.000363666;
    }
    nWall
    {
        type            compressible::alphatWallFunction;
        Prt             0.85;
        value           nonuniform List<scalar> 6(0.000169712 0.000197593 0.000239134 0.000237764 0.00024237 0.000241446);
    }
    sideWalls
    {
        type            empty;
    }
    glass1
    {
        type            compressible::alphatWallFunction;
        Prt             0.85;
        value           nonuniform List<scalar> 9(0.000120984 0.000208913 0.000282082 0.000349218 0.000410196 0.000466525 0.000518668 0.000529856 0.000515727);
    }
    glass2
    {
        type            compressible::alphatWallFunction;
        Prt             0.85;
        value           nonuniform List<scalar> 2(0.000282088 0.000275086);
    }
    sun
    {
        type            compressible::alphatWallFunction;
        Prt             0.85;
        value           nonuniform List<scalar> 
14
(
0.000125164
0.000127989
0.000116851
0.00012123
0.000125905
0.000130299
0.000134426
0.000138397
0.000142372
0.000146528
0.00015005
0.000152775
0.000154699
0.000156077
)
;
    }
    Table_master
    {
        type            compressible::alphatWallFunction;
        Prt             0.85;
        value           nonuniform List<scalar> 9(0.000100217 7.88329e-05 7.29816e-05 6.76066e-05 6.30632e-05 5.92899e-05 5.6134e-05 5.34391e-05 5.26851e-05);
    }
    Table_slave
    {
        type            compressible::alphatWallFunction;
        Prt             0.85;
        value           nonuniform List<scalar> 9(0.000178916 0.000181543 0.00018278 0.000179517 0.000178816 0.00017916 0.000178689 0.000175559 0.000168163);
    }
    inlet
    {
        type            fixedValue;
        value           uniform 1.94e-05;
    }
    outlet
    {
        type            zeroGradient;
    }
}


// ************************************************************************* //
