/*--------------------------------*- C++ -*----------------------------------*\
  =========                 |
  \\      /  F ield         | OpenFOAM: The Open Source CFD Toolbox
   \\    /   O peration     | Website:  https://openfoam.org
    \\  /    A nd           | Version:  6
     \\/     M anipulation  |
\*---------------------------------------------------------------------------*/
FoamFile
{
    version     2.0;
    format      ascii;
    class       volScalarField;
    location    "100";
    object      T;
}
// * * * * * * * * * * * * * * * * * * * * * * * * * * * * * * * * * * * * * //

dimensions      [0 0 0 1 0 0 0];

internalField   nonuniform List<scalar> 
458
(
300.46
300.026
300.015
300.019
300.023
300.026
300.029
300.031
300.033
300.034
300.034
300.033
300.029
300.026
300.023
299.762
299.747
299.768
299.786
299.783
299.773
299.76
299.745
299.727
299.705
299.677
299.642
299.601
299.555
299.507
299.452
299.42
299.448
300.75
300.062
300.02
300.029
300.038
300.047
300.055
300.061
300.067
300.071
300.071
300.066
300.055
300.037
300.015
299.997
299.977
300.006
299.763
299.753
299.782
299.806
299.793
299.747
299.709
299.677
299.648
299.617
299.583
299.545
299.501
299.455
299.407
299.366
299.353
299.412
301.021
300.134
300.051
300.063
300.081
300.099
300.115
300.129
300.14
300.147
300.148
300.14
300.121
300.09
300.051
300.011
299.976
299.96
299.814
299.815
299.837
299.844
299.826
299.69
299.622
299.588
299.557
299.527
299.494
299.46
299.422
299.384
299.377
299.37
299.395
299.423
301.27
300.224
300.089
300.101
300.129
300.158
300.186
300.211
300.231
300.245
300.25
300.242
300.218
300.18
300.128
300.068
300.004
299.94
299.896
299.867
299.885
299.9
299.895
299.873
299.849
299.823
299.787
299.759
299.748
299.74
299.734
299.727
299.716
299.689
299.635
299.572
299.522
301.498
300.329
300.134
300.135
300.172
300.212
300.253
300.291
300.325
300.35
300.364
300.361
300.34
300.302
300.251
300.19
300.127
300.069
300.025
299.997
299.993
299.989
299.974
299.95
299.919
299.88
299.83
299.791
299.778
299.771
299.766
299.758
299.746
299.726
299.692
299.641
299.58
299.576
299.572
299.621
301.693
300.45
300.204
300.169
300.205
300.252
300.302
300.353
300.402
300.443
300.469
300.476
300.462
300.429
300.381
300.322
300.259
300.201
300.154
300.122
300.101
300.083
300.06
300.028
299.988
299.934
299.86
299.815
299.8
299.796
299.793
299.787
299.774
299.751
299.721
299.681
299.636
299.612
299.593
299.627
301.846
300.65
300.389
300.265
300.253
300.288
300.337
300.391
300.45
300.509
300.551
300.569
300.565
300.541
300.501
300.448
300.389
300.331
300.281
300.242
300.211
300.183
300.15
300.111
300.061
299.992
299.888
299.833
299.819
299.819
299.821
299.817
299.804
299.778
299.742
299.705
299.669
299.642
299.622
299.642
302.118
301.207
300.938
300.685
300.512
300.436
300.431
300.462
300.51
300.578
300.62
300.638
300.637
300.622
300.594
300.554
300.503
300.448
300.399
300.356
300.319
300.284
300.244
300.196
300.138
300.057
299.917
299.849
299.837
299.841
299.846
299.847
299.839
299.818
299.771
299.739
299.716
299.703
299.702
299.939
302.498
302.112
301.836
301.529
301.243
301.027
300.885
300.803
300.766
300.74
300.722
300.706
300.69
300.671
300.647
300.618
300.581
300.54
300.497
300.455
300.417
300.379
300.337
300.283
300.218
300.135
299.952
299.865
299.853
299.861
299.872
299.88
299.887
299.894
299.907
299.924
299.963
300.015
300.068
300.19
298.143
300.017
300.641
300.786
300.805
300.792
300.777
300.762
300.746
300.728
300.709
300.689
300.668
300.645
300.619
300.59
300.558
300.525
300.492
300.458
300.418
300.367
300.306
300.233
299.997
299.881
299.868
299.878
299.893
299.909
299.924
299.939
299.953
299.973
300.003
300.036
300.06
300.07
298.579
299.966
300.455
300.628
300.689
300.706
300.708
300.702
300.695
300.686
300.675
300.664
300.652
300.638
300.623
300.606
300.587
300.565
300.542
300.516
300.484
300.441
300.394
300.355
300.056
299.899
299.882
299.888
299.899
299.911
299.925
299.939
299.954
299.973
299.995
300.017
300.011
300.047
299.361
299.316
299.314
300.132
300.434
300.598
300.631
300.645
300.65
300.651
300.65
300.649
300.647
300.645
300.642
300.638
300.633
300.626
300.618
300.608
300.595
300.578
300.558
300.53
300.5
300.459
300.156
299.932
299.926
299.93
299.935
299.939
299.943
299.948
299.955
299.966
299.982
299.992
299.992
300.033
)
;

boundaryField
{
    floor
    {
        type            wallHeatTransfer;
        Tinf            uniform 305.2;
        alphaWall       uniform 0.24;
        value           nonuniform List<scalar> 
36
(
300.625
300.594
300.452
300.449
300.473
300.502
300.551
300.598
300.645
300.693
300.742
300.79
300.834
300.871
300.898
300.901
300.776
300.462
300.582
300.582
300.298
300.214
300.136
300.145
300.16
300.23
300.625
300.564
300.57
300.691
300.594
300.691
300.522
300.511
300.358
300.391
)
;
    }
    ceiling
    {
        type            wallHeatTransfer;
        Tinf            uniform 303.2;
        alphaWall       uniform 0.24;
        value           nonuniform List<scalar> 
43
(
299.584
299.53
299.52
300.29
300.585
300.753
300.794
300.817
300.831
300.841
300.85
300.857
300.863
300.868
300.872
300.875
300.875
300.872
300.866
300.856
300.843
300.826
300.804
300.774
300.747
300.721
300.449
300.229
300.217
300.219
300.221
300.219
300.214
300.208
300.203
300.202
300.211
300.223
300.24
300.293
302.528
302.151
298.811
)
;
    }
    sWall
    {
        type            wallHeatTransfer;
        Tinf            uniform 315.2;
        alphaWall       uniform 0.36;
        value           uniform 300.702;
    }
    nWall
    {
        type            wallHeatTransfer;
        Tinf            uniform 307.2;
        alphaWall       uniform 0.36;
        value           nonuniform List<scalar> 6(300.8 300.678 300.546 300.927 300.894 300.884);
    }
    sideWalls
    {
        type            empty;
    }
    glass1
    {
        type            wallHeatTransfer;
        Tinf            uniform 315.2;
        alphaWall       uniform 4.3;
        value           nonuniform List<scalar> 9(311.451 310.099 309.285 308.712 308.302 307.991 307.739 307.826 308.121);
    }
    glass2
    {
        type            wallHeatTransfer;
        Tinf            uniform 307.2;
        alphaWall       uniform 4.3;
        value           nonuniform List<scalar> 2(304.171 304.315);
    }
    sun
    {
        type            wallHeatTransfer;
        Tinf            uniform 305.2;
        alphaWall       uniform 0.24;
        value           nonuniform List<scalar> 
14
(
301.111
300.725
300.762
300.746
300.73
300.716
300.703
300.69
300.678
300.666
300.655
300.645
300.636
300.629
)
;
    }
    Table_master
    {
        type            zeroGradient;
    }
    Table_slave
    {
        type            zeroGradient;
    }
    inlet
    {
        type            fixedValue;
        value           uniform 293.15;
    }
    outlet
    {
        type            zeroGradient;
    }
}


// ************************************************************************* //
