/*--------------------------------*- C++ -*----------------------------------*\
  =========                 |
  \\      /  F ield         | OpenFOAM: The Open Source CFD Toolbox
   \\    /   O peration     | Website:  https://openfoam.org
    \\  /    A nd           | Version:  6
     \\/     M anipulation  |
\*---------------------------------------------------------------------------*/
FoamFile
{
    version     2.0;
    format      ascii;
    class       surfaceScalarField;
    location    "2300";
    object      phi;
}
// * * * * * * * * * * * * * * * * * * * * * * * * * * * * * * * * * * * * * //

dimensions      [1 0 -1 0 0 0 0];

internalField   nonuniform List<scalar> 
850
(
-0.00261073
0.00266952
-0.00316031
0.0005496
-0.00373521
0.000574919
-0.00427436
0.000539161
-0.00473836
0.000464016
-0.00511026
0.000371922
-0.00537445
0.000264204
-0.00551197
0.000137537
-0.0055
-1.19529e-05
-0.0053091
-0.000190881
-0.00491487
-0.000394219
-0.00430472
-0.000610138
-0.00344392
-0.000860779
-0.00215606
-0.00128785
-0.00215472
0.000718431
-0.000716471
0.00123322
-0.000514766
0.00158603
-0.000352788
0.00187244
-0.000286385
0.00210377
-0.000231304
0.00221398
-0.000110181
0.00223864
-2.46354e-05
0.00223391
4.75133e-06
0.00221791
1.60248e-05
0.00219309
2.48432e-05
0.00215967
3.34523e-05
0.00211411
4.55796e-05
0.00204392
7.02161e-05
0.00191927
0.000124676
0.00169042
0.000228879
0.00132657
0.000363869
0.000837424
0.000489175
0.000840333
-0.00190621
0.00473223
-0.00265616
0.00129957
-0.00334004
0.00125882
-0.00390771
0.00110684
-0.00438587
0.000942196
-0.00477499
0.000761061
-0.0050648
0.000554031
-0.00523894
0.000311695
-0.00527764
2.67575e-05
-0.0051687
-0.0002998
-0.00490854
-0.000654362
-0.00450202
-0.00101664
-0.00396932
-0.00139347
-0.00346907
-0.00178807
-0.00373155
-0.00189223
-0.00237381
-0.00135515
-0.00115042
-0.00122061
-0.00114301
0.000635174
-0.00134646
0.000980799
-0.000860366
0.00126898
-0.000640943
0.00154576
-0.000563136
0.00178467
-0.000470192
0.00183694
-0.000162429
0.00184544
-3.31065e-05
0.0018529
-2.68688e-06
0.00185824
1.07147e-05
0.00186023
2.28742e-05
0.00185971
3.39983e-05
0.00185627
4.90511e-05
0.00184525
8.12591e-05
0.00179265
0.000177302
0.00158541
0.000436141
0.00121878
0.000730525
0.000730336
0.00097765
0.00157858
-0.00139154
0.00635994
-0.00215628
0.00206434
-0.00278951
0.00189206
-0.0032855
0.00160285
-0.00370653
0.00136324
-0.00405598
0.00111054
-0.00432307
0.000821139
-0.00449114
0.000479778
-0.00454107
7.67107e-05
-0.00445432
-0.000386534
-0.00422535
-0.000883316
-0.00387118
-0.0013708
-0.00344862
-0.00181601
-0.00307902
-0.00215766
-0.0027376
-0.00223363
-0.00200023
-0.0020925
-0.00113706
-0.00208376
-0.00227345
0.000306001
-0.00164458
0.000617445
-0.00117179
0.000885546
-0.000909019
0.00114059
-0.000818158
0.00151912
-0.000848691
0.00135687
0.00132394
0.00132143
0.00133232
0.00135538
0.00138956
0.00143879
0.00152023
0.00169771
0.00146409
0.000669787
0.00114468
0.00104996
0.000664083
0.00145827
0.00225506
-0.00102745
0.00768871
-0.00173945
0.00277635
-0.00217129
0.00232393
-0.00253039
0.00196197
-0.00285331
0.00168617
-0.0031352
0.00139244
-0.00336262
0.00104858
-0.00351679
0.000633966
-0.00357208
0.000132019
-0.0034981
-0.000460489
-0.00329131
-0.00109009
-0.00298755
-0.00167454
-0.00264967
-0.00215388
-0.00233101
-0.00247631
-0.00197204
-0.00259259
-0.00150559
-0.00255895
-0.00110206
-0.00248728
-0.00120234
-0.00217315
0.00025297
-0.00144713
0.000207049
-0.00159864
0.000378179
-0.00134289
0.000563886
-0.0010947
0.000695312
-0.000949558
0.000649236
-0.00080259
0.00110917
-0.00046006
0.00145055
-0.00034151
0.00174469
-0.000294264
0.00199424
-0.000249679
0.00218224
-0.000188127
0.00228038
-9.82673e-05
0.00225347
2.67867e-05
0.00206786
0.000185475
0.0016654
0.000402338
0.00150202
0.000833191
0.00120895
0.00134305
0.000778193
0.00188906
0.00304959
-0.000759773
0.00880344
-0.00139205
0.00340865
-0.00151344
0.00244533
-0.00169671
0.00214526
-0.00189661
0.0018861
-0.00208435
0.00158019
-0.00224211
0.00120636
-0.00235353
0.000745409
-0.00239204
0.000170552
-0.00231139
-0.000541122
-0.00211881
-0.00128266
-0.00186923
-0.00192411
-0.00161575
-0.00240734
-0.00137937
-0.00271268
-0.00113224
-0.00283971
-0.00086856
-0.00282262
-0.000663192
-0.00269264
-0.000451129
-0.0023852
3.71038e-05
-0.00193534
0.000148532
-0.00171004
0.000222974
-0.00141731
0.000319004
-0.0011907
0.000412505
-0.00104303
0.000518604
-0.000908665
0.000789003
-0.000730434
0.00106246
-0.000614946
0.00131147
-0.000543241
0.0015333
-0.000471493
0.00171782
-0.000372623
0.00184424
-0.000224654
0.00188091
-9.86487e-06
0.00181001
0.000256398
0.00165502
0.000557359
0.00153229
0.000955938
0.0014488
0.00142658
0.00140176
0.00193613
0.00229404
0.00215734
0.0014263
0.000884574
0.00136543
7.70922e-05
0.00143596
-0.000682834
0.00988586
-0.00120196
0.00392778
-0.000866565
0.00210996
-0.000777801
0.00205651
-0.000854772
0.00196309
-0.000951316
0.00167675
-0.00101628
0.00127135
-0.0010446
0.00077375
-0.00101604
0.000142008
-0.000892185
-0.000664953
-0.000715768
-0.00145906
-0.000543192
-0.00209667
-0.000405337
-0.00254519
-0.000303448
-0.00281457
-0.000218873
-0.00292428
-0.000147023
-0.00289446
-0.00010285
-0.0027368
-3.85941e-05
-0.00244944
8.4304e-05
-0.00205822
8.75779e-05
-0.00171329
6.67992e-05
-0.0013965
7.55614e-05
-0.00119944
0.000115347
-0.00108279
0.000196731
-0.000990023
0.000355168
-0.000888846
0.000547061
-0.000806814
0.00074187
-0.000738025
0.000930012
-0.00065961
0.00110699
-0.000549579
0.00126244
-0.000380075
0.00137526
-0.000122659
0.00142402
0.000207655
0.0014341
0.000547306
0.00147646
0.0009136
0.00162154
0.00128152
0.00188991
0.00166778
0.00220009
0.00184719
0.00178426
0.00130044
0.000967928
0.000893448
0.00245986
-0.000876601
0.011201
-0.000909563
0.00396076
4.97181e-05
0.0011507
0.00044592
0.00166033
0.000427844
0.00198118
0.000370128
0.00173449
0.000382224
0.00125927
0.000450812
0.000705182
0.000599763
-6.92197e-06
0.000781653
-0.000846822
0.000903014
-0.0015804
0.000944472
-0.00213812
0.000913676
-0.00251438
0.000830197
-0.00273108
0.00071675
-0.00281084
0.000585583
-0.00276329
0.000439733
-0.00259095
0.000298931
-0.00230863
0.000180466
-0.00193974
2.33536e-05
-0.00155616
-0.000114455
-0.00125867
-0.000200367
-0.0011135
-0.000239838
-0.0010433
-0.000235037
-0.000994798
-0.000178223
-0.000945636
-8.57787e-05
-0.000899234
2.62159e-05
-0.000849995
0.00015013
-0.0007835
0.00028628
-0.000685705
0.000441986
-0.000535757
0.000625524
-0.000306174
0.000802033
3.11706e-05
0.000956319
0.000393044
0.00114173
0.000728218
0.00140494
0.00101833
0.00175096
0.00132179
0.00215196
0.00144621
0.00234471
0.00110771
0.00184854
0.00138964
0.00436652
0.00218778
0.00950161
0.00270534
0.00344321
0.00297356
0.000882489
0.00287485
0.00175906
0.00262338
0.00223267
0.00247752
0.00188037
0.00245042
0.00128639
0.00253837
0.000617258
0.00269706
-0.000165595
0.00276556
-0.000915301
0.00269903
-0.00151385
0.00251035
-0.00194943
0.00223795
-0.00224197
0.00191921
-0.00241234
0.00158165
-0.00247328
0.0012371
-0.00241874
0.000887585
-0.00224143
0.000544245
-0.00196528
0.000218719
-0.00161419
-9.81566e-05
-0.00123926
-0.000345842
-0.00101096
-0.000524755
-0.000934561
-0.000652889
-0.000915137
-0.00073995
-0.000907712
-0.00078925
-0.000896311
-0.000810533
-0.000877926
-0.000812628
-0.000847875
-0.000797645
-0.00079846
-0.000762021
-0.000721305
-0.000691858
-0.000605896
-0.000557658
-0.00044035
-0.000313462
-0.000213002
-1.78455e-05
9.74524e-05
0.000299213
0.000411184
0.000658747
0.000658823
0.00108228
0.00089828
0.00153239
0.000996127
0.00177121
0.00086892
0.00105062
0.00211025
0.00566198
0.0100325
0.0134651
0.0123369
0.00201072
0.010144
0.00395191
0.00856875
0.00380797
0.00747786
0.00297128
0.0067126
0.00205166
0.00618169
0.00114819
0.00568493
0.000331177
0.00512912
-0.00035948
0.00453465
-0.000919377
0.00392801
-0.00134278
0.00332798
-0.00164195
0.00274911
-0.00183346
0.00219819
-0.00192237
0.00166278
-0.00188333
0.00113027
-0.00170892
0.000610144
-0.00144514
0.000115966
-0.00111999
-0.00031125
-0.00081201
-0.000631242
-0.000690936
-0.000885014
-0.000680762
-0.00109834
-0.000701788
-0.00128296
-0.000723058
-0.00144446
-0.000734795
-0.00158907
-0.000733288
-0.00172321
-0.000713709
-0.00185256
-0.000669083
-0.0019832
-0.000590645
-0.002122
-0.000467067
-0.00227835
-0.000283975
-0.00246153
-2.98025e-05
-0.00266118
0.000297129
-0.00294555
0.000695572
-0.00346062
0.00117392
-0.00430062
0.00173831
-0.00560831
0.00230383
-0.00734866
0.0026093
-0.00723425
0.00199587
-0.00130333
0.00303717
0.00334228
0.00414238
0.00284669
0.00547058
0.00247976
0.00587284
0.00256902
0.00587216
0.00205234
0.00575169
0.00126866
0.00553571
0.000547158
0.00519215
-1.59161e-05
0.00471497
-0.000442199
0.00414264
-0.000770454
0.0035207
-0.00102001
0.0028908
-0.00120357
0.00228383
-0.0013154
0.00167514
-0.00127464
0.00103273
-0.0010665
0.000403201
-0.000815597
-0.000160575
-0.000556189
-0.000584726
-0.000387829
-0.000910461
-0.000365172
-0.00120125
-0.000389947
-0.00147861
-0.000424402
-0.00174764
-0.000454004
-0.00200857
-0.000473839
-0.00226124
-0.000480592
-0.00250525
-0.000469675
-0.00273932
-0.000434983
-0.00296069
-0.000369252
-0.00316323
-0.000264506
-0.00333583
-0.000111348
-0.0034674
0.000101789
-0.00355251
0.000382264
-0.00361454
0.000757636
-0.00367572
0.00123512
-0.00373085
0.00179347
-0.00376878
0.00234178
-0.00368606
0.00252662
-0.00221598
0.000525808
-0.00344721
-0.000312449
0.00369987
0.00127563
0.0012586
0.00223827
0.00151712
0.00305775
0.00174953
0.00368592
0.00142417
0.00408236
0.000872215
0.00421382
0.000415705
0.00412054
7.73612e-05
0.0038426
-0.000164257
0.00341685
-0.000344705
0.00288489
-0.000488043
0.00229352
-0.000612199
0.00171618
-0.00073806
0.00116449
-0.000722939
0.000493149
-0.000395134
-6.81367e-05
-0.000254283
-0.000473391
-0.000150904
-0.000760165
-0.000101024
-0.00102484
-0.000100465
-0.00129794
-0.000116817
-0.00158403
-0.000138293
-0.00187809
-0.000159918
-0.00217347
-0.000178433
-0.00246332
-0.000190716
-0.00273935
-0.000193616
-0.00299043
-0.00018388
-0.00320186
-0.000157792
-0.00335545
-0.000110892
-0.00342815
-3.86226e-05
-0.00340361
7.72734e-05
-0.00327119
0.000249869
-0.00299744
0.000483907
-0.0025653
0.000803008
-0.00195708
0.00118528
-0.00103364
0.00141836
0.000526
0.000967
0.00144058
-0.000388746
-0.00192745
-0.00596764
-0.00819168
-0.00446039
-0.00319075
-0.00166775
8.43501e-05
0.00150813
0.00237888
0.00279245
0.00286718
0.00269984
0.00235158
0.00185947
0.00124261
0.000499111
-0.000230716
-0.000634422
-0.000897729
-0.00105821
-0.00116949
-0.00128081
-0.001409
-0.00155911
-0.00173115
-0.00192191
-0.00212503
-0.00233101
-0.00252713
-0.00269699
-0.00281971
-0.00286989
-0.00280386
-0.00256489
-0.00209154
-0.00129878
-0.000123442
0.00128519
0.0022423
0.0018431
)
;

boundaryField
{
    floor
    {
        type            calculated;
        value           nonuniform List<scalar> 
36
(
0
0
0
0
0
0
0
0
0
0
0
0
0
0
0
0
0
0
0
-2.88289e-06
-7.88583e-06
-1.23731e-05
-1.63065e-05
-1.68087e-05
-1.61934e-05
-1.53537e-05
-1.32285e-06
-2.57893e-06
-2.76977e-06
-2.92756e-06
-1.93682e-06
-4.46758e-06
-5.16491e-06
-6.60565e-06
-7.84938e-06
-8.1673e-06
)
;
    }
    ceiling
    {
        type            calculated;
        value           nonuniform List<scalar> 
43
(
-3.46982e-05
-3.31124e-05
-3.14223e-05
-1.10439e-05
-5.87508e-06
-2.57437e-06
4.00252e-07
1.46158e-06
2.14205e-06
2.6332e-06
3.08824e-06
3.55878e-06
4.07194e-06
4.6678e-06
5.44378e-06
6.91873e-06
8.6055e-06
9.05745e-06
9.60556e-06
1.02836e-05
1.08879e-05
1.14056e-05
1.18355e-05
1.21571e-05
1.23529e-05
1.24243e-05
1.23889e-05
1.227e-05
1.20882e-05
1.18577e-05
1.15847e-05
1.12641e-05
1.09238e-05
1.05889e-05
1.02647e-05
9.976e-06
9.75512e-06
9.90831e-06
1.04876e-05
1.18013e-05
1.42708e-05
1.06403e-05
-4.51599e-05
)
;
    }
    sWall
    {
        type            calculated;
        value           uniform -0.000244687;
    }
    nWall
    {
        type            calculated;
        value           nonuniform List<scalar> 6(-5.51474e-05 -5.59537e-05 -5.80857e-05 -7.20772e-05 -7.91524e-05 -9.613e-05);
    }
    sideWalls
    {
        type            empty;
        value           nonuniform 0();
    }
    glass1
    {
        type            calculated;
        value           nonuniform List<scalar> 9(-5.87807e-05 -0.000156484 -0.000236169 -0.000301304 -0.00035494 -0.00039957 -0.000438493 -0.000488416 -0.000545161);
    }
    glass2
    {
        type            calculated;
        value           nonuniform List<scalar> 2(-0.000244819 -0.000268916);
    }
    sun
    {
        type            calculated;
        value           uniform 0;
    }
    Table_master
    {
        type            calculated;
        value           nonuniform List<scalar> 9(-1.52703e-07 -1.52794e-07 -1.52816e-07 -1.52824e-07 -1.52827e-07 -1.52824e-07 -1.52816e-07 -1.52797e-07 -1.52744e-07);
    }
    Table_slave
    {
        type            calculated;
        value           nonuniform List<scalar> 9(1.5281e-07 1.52727e-07 1.52631e-07 1.5255e-07 1.5249e-07 1.52462e-07 1.52468e-07 1.52486e-07 1.52559e-07);
    }
    inlet
    {
        type            calculated;
        value           uniform -0.00436875;
    }
    outlet
    {
        type            calculated;
        value           nonuniform List<scalar> 2(0.00624702 0.00225715);
    }
}


// ************************************************************************* //
