/*--------------------------------*- C++ -*----------------------------------*\
  =========                 |
  \\      /  F ield         | OpenFOAM: The Open Source CFD Toolbox
   \\    /   O peration     | Website:  https://openfoam.org
    \\  /    A nd           | Version:  6
     \\/     M anipulation  |
\*---------------------------------------------------------------------------*/
FoamFile
{
    version     2.0;
    format      ascii;
    class       volScalarField;
    location    "1000";
    object      alphat;
}
// * * * * * * * * * * * * * * * * * * * * * * * * * * * * * * * * * * * * * //

dimensions      [1 -1 -1 0 0 0 0];

internalField   nonuniform List<scalar> 
458
(
0.00105688
0.00112335
0.00110322
0.00114172
0.00117679
0.00120755
0.0012351
0.00126083
0.00128532
0.00129961
0.00130028
0.00128455
0.00125307
0.00121293
0.00117293
0.000492904
0.000600632
0.000606653
0.000601726
0.000592944
0.000571161
0.00054497
0.00051984
0.000496249
0.000473938
0.000452788
0.000432703
0.000413554
0.000395095
0.000376733
0.00035745
0.000355724
0.000334732
0.00155934
0.00329345
0.00296069
0.00347098
0.00383171
0.00419911
0.00455039
0.00484352
0.00503638
0.00518039
0.00523679
0.0051412
0.00479306
0.00402385
0.0026455
0.00118373
0.00104626
0.000989634
0.000735779
0.00107365
0.00137358
0.00168117
0.00181508
0.00147884
0.00133885
0.00122531
0.00112375
0.00103311
0.000952818
0.00088189
0.000818809
0.000764495
0.000725553
0.000686706
0.000883648
0.000487168
0.00198709
0.0046777
0.00343175
0.00482886
0.00528689
0.00556602
0.00576823
0.00591686
0.00601734
0.00612365
0.00621946
0.00627522
0.00626006
0.00614335
0.00585956
0.00521453
0.00379726
0.00121881
0.000932284
0.0015889
0.00208348
0.00248209
0.00244874
0.000746773
0.000672184
0.000612213
0.000565012
0.000527656
0.000497606
0.000473069
0.000453005
0.000437362
0.000493416
0.0005734
0.000983194
0.0005773
0.00240215
0.00641208
0.00342503
0.00517593
0.00578469
0.00589502
0.00589532
0.0058814
0.00588954
0.00594665
0.00603883
0.00614086
0.00624131
0.00633618
0.00637118
0.00618821
0.00558956
0.00439292
0.0010591
0.00200005
0.00256175
0.00301048
0.00323732
0.00294284
0.000782628
0.000758232
0.000757375
0.000764578
0.000770565
0.000768446
0.000752588
0.000730625
0.000702175
0.000669796
0.000659848
0.0010824
0.000655079
0.0028145
0.00858214
0.00401607
0.00486158
0.00583482
0.00590689
0.00577743
0.00564896
0.0055959
0.0056332
0.00571886
0.00581154
0.00590771
0.00602495
0.00612111
0.0060714
0.00578442
0.00524547
0.00429724
0.003843
0.00373284
0.00369454
0.00365213
0.0035366
0.00318121
0.00318737
0.0032673
0.00333889
0.00336871
0.00333536
0.00321681
0.00289401
0.00241698
0.0018817
0.00142715
0.00121482
0.00104135
0.000786829
0.000809775
0.000810311
0.00323424
0.0108541
0.0060437
0.00461069
0.00536237
0.00568968
0.0056768
0.00554308
0.00541139
0.00545571
0.00553535
0.00559352
0.0056332
0.00570657
0.00580415
0.0058014
0.0055939
0.00522047
0.00469659
0.00425907
0.00393791
0.00371339
0.00359395
0.00355767
0.0035974
0.00372506
0.00386183
0.00396823
0.00402785
0.0040313
0.00397114
0.00379874
0.00343784
0.00290405
0.00231621
0.00174518
0.00137982
0.00140393
0.00199713
0.00103866
0.0036266
0.012562
0.00936821
0.00618852
0.00516097
0.00505923
0.00531633
0.00547249
0.00540954
0.00544624
0.00548871
0.00548775
0.00544424
0.00544192
0.00553332
0.00558832
0.00542754
0.00503451
0.00452511
0.00404239
0.00366438
0.00344674
0.00338127
0.00341585
0.00352589
0.00368223
0.00383592
0.00395864
0.00404528
0.00409613
0.0041156
0.0041041
0.00392901
0.00352858
0.00301321
0.00247899
0.00205902
0.00192531
0.00235835
0.00129666
0.00370363
0.0117283
0.0101817
0.00887652
0.0073489
0.00625896
0.00584303
0.00577453
0.00563142
0.00554791
0.00550786
0.00542541
0.00527877
0.00519486
0.0052988
0.00543465
0.00530903
0.00484351
0.00421053
0.00363772
0.00330637
0.00318289
0.00318204
0.00324855
0.00335611
0.00348332
0.00360725
0.00371507
0.00380791
0.00389562
0.00399562
0.00412934
0.00427152
0.00410119
0.00379933
0.00360111
0.00364489
0.00373319
0.00451455
0.00174469
0.00360106
0.0042865
0.00510559
0.00550353
0.00567937
0.00559337
0.00545707
0.0053786
0.0053757
0.00543395
0.00544729
0.00530702
0.00503008
0.00485959
0.00503176
0.00529818
0.00518019
0.00455085
0.00375873
0.00324091
0.00302522
0.00296812
0.00298266
0.00303319
0.00310305
0.00317872
0.00324744
0.00330083
0.00333561
0.00335128
0.00334652
0.00331557
0.00324813
0.00316129
0.00307583
0.00301673
0.00293094
0.00277016
0.00259118
0.00168741
0.00338809
0.00645274
0.0062202
0.00611133
0.00603653
0.0059995
0.00595193
0.00582801
0.00555889
0.00508776
0.00453226
0.00427438
0.00464364
0.0050976
0.00486488
0.00394009
0.00322146
0.00291817
0.0028146
0.00277476
0.0027613
0.00276691
0.00278753
0.00281645
0.00284513
0.00286587
0.00287388
0.00286857
0.00285462
0.00284219
0.00284656
0.00284971
0.00282737
0.00275726
0.00259436
0.00231364
0.00196372
0.00133983
0.00313581
0.00707606
0.006813
0.00651411
0.00627507
0.0060422
0.0057528
0.00535481
0.00471409
0.00393789
0.00325277
0.00304182
0.0036757
0.00410331
0.00367852
0.00290489
0.00251247
0.00236994
0.00228757
0.0022133
0.00215225
0.00211608
0.00211083
0.00213727
0.00219316
0.00227454
0.00237578
0.00248888
0.00260218
0.00269754
0.00279961
0.00289402
0.00296064
0.00296842
0.00290588
0.00279355
0.00235095
0.00135047
0.0024635
0.00266535
0.00283793
0.00297144
0.00275439
0.00259177
0.00234514
0.00210939
0.00187656
0.00165186
0.00146643
0.00127531
0.00105828
0.00093007
0.000933207
0.00093176
0.000829953
0.000769451
0.000743982
0.000738954
0.000743428
0.000754678
0.000772283
0.000795829
0.000824676
0.000858159
0.000895727
0.000937059
0.000982173
0.00103164
0.00108693
0.00115126
0.00122081
0.00129518
0.0013734
0.00145389
0.00153097
0.00150352
0.00137779
0.00126464
)
;

boundaryField
{
    floor
    {
        type            compressible::alphatWallFunction;
        Prt             0.85;
        value           nonuniform List<scalar> 
36
(
0.000166426
6.81383e-05
8.44543e-05
8.53587e-05
8.46212e-05
8.33043e-05
8.00295e-05
7.60718e-05
7.22522e-05
6.86456e-05
6.52149e-05
6.1944e-05
5.88199e-05
5.58243e-05
5.29198e-05
5.00133e-05
4.69414e-05
4.6666e-05
4.32953e-05
4.32947e-05
6.72469e-05
8.09441e-05
9.25515e-05
0.000111844
0.000115162
0.00011524
0.000166424
0.000167915
0.000148783
0.000140819
6.81374e-05
0.000140817
0.00010442
0.000172742
0.000132713
0.000150596
)
;
    }
    ceiling
    {
        type            compressible::alphatWallFunction;
        Prt             0.85;
        value           nonuniform List<scalar> 
43
(
0.000336721
0.000362323
0.000384052
0.000400873
0.000373689
0.000353164
0.000321772
0.000291399
0.000261033
0.000231343
0.000206497
0.000180507
0.000150468
0.00013254
0.000133007
0.000132739
0.000118194
0.000109449
0.000105739
0.000105002
0.000105653
0.000107292
0.000109851
0.000113263
0.000117428
0.00012224
0.000127614
0.000133495
0.000139879
0.000146841
0.000154577
0.000163521
0.000173126
0.000183329
0.000193988
0.000204885
0.000215256
0.000211569
0.000194585
0.000179152
0.000478956
0.000562118
0.000421129
)
;
    }
    sWall
    {
        type            compressible::alphatWallFunction;
        Prt             0.85;
        value           uniform 0.000335498;
    }
    nWall
    {
        type            compressible::alphatWallFunction;
        Prt             0.85;
        value           nonuniform List<scalar> 6(0.000115024 0.000147477 0.000183167 0.000189075 0.000190522 0.000178803);
    }
    sideWalls
    {
        type            empty;
    }
    glass1
    {
        type            compressible::alphatWallFunction;
        Prt             0.85;
        value           nonuniform List<scalar> 9(0.000146325 0.000213976 0.000269809 0.000322857 0.000374681 0.000426681 0.000474703 0.000484204 0.000471958);
    }
    glass2
    {
        type            compressible::alphatWallFunction;
        Prt             0.85;
        value           nonuniform List<scalar> 2(0.000241685 0.0002342);
    }
    sun
    {
        type            compressible::alphatWallFunction;
        Prt             0.85;
        value           nonuniform List<scalar> 
14
(
0.000150304
0.000159559
0.000156762
0.000162114
0.000166971
0.000171218
0.000175012
0.000178547
0.000181903
0.000183857
0.000183948
0.000181794
0.000177476
0.000171952
)
;
    }
    Table_master
    {
        type            compressible::alphatWallFunction;
        Prt             0.85;
        value           nonuniform List<scalar> 9(0.000106174 9.52286e-05 8.63215e-05 7.92357e-05 7.35756e-05 6.8986e-05 6.52123e-05 6.21083e-05 5.9676e-05);
    }
    Table_slave
    {
        type            compressible::alphatWallFunction;
        Prt             0.85;
        value           nonuniform List<scalar> 9(0.000111392 0.000107845 0.000107718 0.000108764 0.000109632 0.000109323 0.000107016 0.00010381 9.96399e-05);
    }
    inlet
    {
        type            fixedValue;
        value           uniform 1.94e-05;
    }
    outlet
    {
        type            zeroGradient;
    }
}


// ************************************************************************* //
