/*--------------------------------*- C++ -*----------------------------------*\
  =========                 |
  \\      /  F ield         | OpenFOAM: The Open Source CFD Toolbox
   \\    /   O peration     | Website:  https://openfoam.org
    \\  /    A nd           | Version:  6
     \\/     M anipulation  |
\*---------------------------------------------------------------------------*/
FoamFile
{
    version     2.0;
    format      ascii;
    class       volScalarField;
    location    "2300";
    object      nut;
}
// * * * * * * * * * * * * * * * * * * * * * * * * * * * * * * * * * * * * * //

dimensions      [0 2 -1 0 0 0 0];

internalField   nonuniform List<scalar> 
458
(
0.00110769
0.00121287
0.00123395
0.00129418
0.00135071
0.00140416
0.00145724
0.00150521
0.00153659
0.00154657
0.00153144
0.00148949
0.00142079
0.00132823
0.00121742
0.000474391
0.000576549
0.0006592
0.000671968
0.000656165
0.000614561
0.000569424
0.000528687
0.000493137
0.000462135
0.000435006
0.000411172
0.000390056
0.000370837
0.000352569
0.000334005
0.000320026
0.000291194
0.00151335
0.00382763
0.00371177
0.00433631
0.00494749
0.00554509
0.00604628
0.00643563
0.00677009
0.00702525
0.00717159
0.00718147
0.00701605
0.00657174
0.00536946
0.00128587
0.00103322
0.000792793
0.000497596
0.00116543
0.00171765
0.00212626
0.002233
0.0016584
0.00140371
0.00122933
0.00109897
0.000997797
0.000916772
0.000848446
0.000784608
0.000720967
0.000663043
0.000614842
0.000720567
0.000367974
0.00184858
0.0052476
0.00465403
0.0058412
0.00644644
0.00689894
0.00724807
0.00753614
0.00782599
0.00810307
0.00833167
0.00847323
0.0084862
0.00831268
0.00779532
0.00641668
0.0050186
0.00107579
0.000928609
0.00152458
0.00214385
0.00269556
0.00277678
0.000859042
0.000747184
0.000657034
0.000585101
0.000527411
0.000480705
0.000442596
0.000411648
0.000387467
0.000427262
0.000501129
0.000830802
0.000424015
0.00216799
0.00668202
0.00474459
0.00621808
0.0067603
0.00698405
0.00714847
0.0073364
0.00759015
0.0078908
0.00819144
0.00844344
0.00859453
0.00859722
0.00842709
0.00798534
0.00707717
0.00442228
0.00135648
0.00181687
0.00254631
0.00329795
0.00385996
0.00373455
0.000968096
0.000875939
0.000812384
0.0007652
0.000725942
0.000688758
0.000653635
0.000617008
0.000574829
0.000538847
0.000541562
0.000955708
0.000478503
0.00249197
0.00849286
0.00531725
0.00609182
0.00674798
0.00686423
0.00687613
0.00702111
0.00725218
0.00757134
0.00791957
0.0082327
0.00843491
0.00848126
0.00838008
0.00814625
0.00773102
0.00691949
0.00586364
0.00560473
0.00564807
0.00575641
0.00578757
0.00555586
0.00456833
0.00408729
0.00381394
0.00361647
0.00342624
0.00318952
0.00283236
0.00238943
0.00189556
0.00142193
0.00106336
0.00100785
0.000804769
0.000631192
0.000688699
0.000754709
0.00283312
0.0104591
0.00732255
0.00634902
0.00676646
0.00688236
0.00687734
0.00695814
0.00712949
0.00741979
0.00779319
0.00815122
0.00838291
0.00841807
0.00826389
0.00800058
0.00773683
0.00753648
0.00740381
0.00737868
0.0073353
0.00720426
0.00696754
0.00660456
0.00608248
0.00563648
0.00527295
0.00495115
0.0046427
0.00432822
0.0039573
0.00349315
0.0029375
0.0023287
0.00178455
0.00133898
0.00105926
0.000887029
0.00112173
0.00078201
0.00313171
0.0117874
0.0100453
0.00822821
0.00782933
0.00750549
0.00720307
0.00707548
0.0071716
0.00747662
0.00790207
0.00830402
0.00853924
0.00852645
0.00828678
0.00796016
0.00776447
0.00783788
0.00805027
0.00815906
0.00805235
0.00775147
0.00731494
0.00679022
0.00622567
0.00571175
0.00526844
0.00488053
0.00453697
0.00423752
0.00398296
0.00372624
0.00334918
0.00285863
0.00235974
0.00190226
0.00158011
0.00142096
0.00134158
0.00093277
0.00317917
0.0102241
0.00935072
0.00861179
0.00797341
0.00737239
0.00701004
0.00697634
0.00725764
0.0077583
0.00831729
0.00874883
0.00891129
0.00876359
0.00838782
0.00801662
0.00793379
0.00816526
0.00837299
0.00830595
0.00796174
0.0074245
0.00677237
0.00608077
0.0054318
0.00488723
0.00445028
0.00410268
0.00383494
0.00364645
0.00353886
0.00350434
0.00344817
0.00318063
0.0029246
0.00277763
0.00281856
0.00292221
0.00339012
0.00143616
0.00308576
0.00362057
0.00395791
0.00410312
0.00440581
0.00496139
0.00575749
0.00673361
0.00776372
0.0086795
0.00931276
0.00953921
0.00934389
0.00884819
0.00828427
0.00807016
0.0080674
0.00807722
0.00791842
0.00753362
0.00694613
0.00623053
0.00547328
0.00476789
0.00418354
0.00373487
0.00339632
0.00313913
0.00294321
0.00279229
0.00266958
0.00255933
0.00246724
0.00239113
0.00233416
0.00229368
0.00222737
0.0021088
0.00197018
0.00136024
0.00143011
0.00478743
0.00768628
0.0094322
0.0105359
0.0111436
0.0113096
0.0111128
0.0106347
0.00995069
0.00910213
0.00826652
0.00766923
0.00739775
0.00718204
0.00684428
0.00635913
0.00576034
0.00510827
0.00446349
0.00388695
0.00342284
0.00307049
0.00280413
0.00259984
0.0024446
0.00233176
0.00225711
0.00221754
0.00221251
0.00222426
0.00223893
0.00224517
0.00222048
0.00213111
0.00197062
0.00176639
0.00113441
0.00208419
0.00767835
0.00971921
0.0103258
0.0105139
0.0103498
0.00988302
0.00920764
0.00842177
0.00762577
0.00688696
0.00627751
0.0058223
0.00544769
0.00505865
0.00464503
0.00422606
0.00382615
0.0034731
0.00318374
0.00295722
0.00277479
0.0026188
0.00247927
0.00235482
0.00225474
0.00218363
0.00214063
0.00213044
0.00215133
0.00219788
0.00225929
0.00231668
0.00234679
0.00230731
0.00229395
0.00233149
0.00115931
0.00179318
0.00193973
0.00204474
0.00222479
0.0021912
0.00216606
0.00211608
0.00202012
0.00188357
0.00171597
0.00153111
0.00134746
0.00118599
0.00105999
0.000969169
0.000905046
0.000857911
0.000820601
0.000789107
0.000761972
0.000739097
0.00072057
0.000706333
0.000696229
0.000690765
0.000691109
0.000698663
0.000713345
0.000735503
0.000766115
0.000804589
0.00084989
0.000901967
0.000960715
0.0010252
0.0010992
0.00112759
0.00110035
0.00103168
0.000963904
)
;

boundaryField
{
    floor
    {
        type            nutkWallFunction;
        Cmu             0.09;
        kappa           0.41;
        E               9.8;
        value           nonuniform List<scalar> 
36
(
0.00014601
5.64262e-05
6.94075e-05
7.97037e-05
8.1281e-05
7.93301e-05
7.41652e-05
6.85135e-05
6.33656e-05
5.88331e-05
5.48473e-05
5.13319e-05
4.82206e-05
4.5445e-05
4.29019e-05
4.04691e-05
3.798e-05
3.60936e-05
3.21682e-05
3.21681e-05
4.25195e-05
4.98967e-05
5.69518e-05
7.62292e-05
8.33357e-05
9.14064e-05
0.000146011
0.000153865
0.000124626
9.60269e-05
5.64261e-05
9.60269e-05
5.94011e-05
0.000129607
0.000112284
0.000161917
)
;
    }
    ceiling
    {
        type            nutkWallFunction;
        Cmu             0.09;
        kappa           0.41;
        E               9.8;
        value           nonuniform List<scalar> 
43
(
0.000210649
0.000226718
0.000238154
0.000257724
0.000254135
0.000251436
0.000246039
0.000235626
0.000220711
0.00020224
0.000181635
0.000160891
0.000142393
0.000127762
0.000117093
0.000109492
0.000103865
9.93841e-05
9.55833e-05
9.22939e-05
8.951e-05
8.72477e-05
8.55045e-05
8.42648e-05
8.35932e-05
8.3635e-05
8.45619e-05
8.63612e-05
8.90686e-05
9.27933e-05
9.74498e-05
0.000102899
0.000109122
0.000116093
0.000123688
0.000132337
0.000135638
0.000132471
0.000124448
0.00011647
0.000349075
0.000404317
0.000242233
)
;
    }
    sWall
    {
        type            nutkWallFunction;
        Cmu             0.09;
        kappa           0.41;
        E               9.8;
        value           uniform 0.000210707;
    }
    nWall
    {
        type            nutkWallFunction;
        Cmu             0.09;
        kappa           0.41;
        E               9.8;
        value           nonuniform List<scalar> 6(9.14058e-05 9.47196e-05 0.000112787 0.000136439 0.000139325 0.000116476);
    }
    sideWalls
    {
        type            empty;
    }
    glass1
    {
        type            nutkWallFunction;
        Cmu             0.09;
        kappa           0.41;
        E               9.8;
        value           nonuniform List<scalar> 9(0.000133437 0.000179875 0.000217189 0.000252056 0.000286864 0.000323005 0.000354267 0.000359217 0.000349504);
    }
    glass2
    {
        type            nutkWallFunction;
        Cmu             0.09;
        kappa           0.41;
        E               9.8;
        value           nonuniform List<scalar> 2(0.000171019 0.000162411);
    }
    sun
    {
        type            nutkWallFunction;
        Cmu             0.09;
        kappa           0.41;
        E               9.8;
        value           nonuniform List<scalar> 
14
(
0.000133327
0.000145494
0.000147919
0.000154821
0.000161267
0.000167332
0.000173332
0.000178733
0.000182256
0.000183373
0.000181676
0.000176962
0.000169212
0.000158702
)
;
    }
    Table_master
    {
        type            nutkWallFunction;
        Cmu             0.09;
        kappa           0.41;
        E               9.8;
        value           nonuniform List<scalar> 9(0.000103999 9.04953e-05 7.94376e-05 7.04838e-05 6.32062e-05 5.72424e-05 5.2323e-05 4.82888e-05 4.51101e-05);
    }
    Table_slave
    {
        type            nutkWallFunction;
        Cmu             0.09;
        kappa           0.41;
        E               9.8;
        value           nonuniform List<scalar> 9(0.000116968 0.000106021 9.83936e-05 9.26855e-05 8.79044e-05 8.33476e-05 7.90163e-05 7.44696e-05 6.9193e-05);
    }
    inlet
    {
        type            calculated;
        value           uniform 0.000100623;
    }
    outlet
    {
        type            calculated;
        value           nonuniform List<scalar> 2(0.00179318 0.00193973);
    }
}


// ************************************************************************* //
