/*--------------------------------*- C++ -*----------------------------------*\
  =========                 |
  \\      /  F ield         | OpenFOAM: The Open Source CFD Toolbox
   \\    /   O peration     | Website:  https://openfoam.org
    \\  /    A nd           | Version:  6
     \\/     M anipulation  |
\*---------------------------------------------------------------------------*/
FoamFile
{
    version     2.0;
    format      ascii;
    class       volScalarField;
    location    "1200";
    object      alphat;
}
// * * * * * * * * * * * * * * * * * * * * * * * * * * * * * * * * * * * * * //

dimensions      [1 -1 -1 0 0 0 0];

internalField   nonuniform List<scalar> 
458
(
0.000845712
0.000871894
0.00073592
0.000730813
0.000734458
0.000738893
0.000742941
0.000746255
0.000750043
0.000754671
0.000759849
0.000765124
0.000770662
0.000777434
0.000783414
0.000279762
0.00030632
0.000318944
0.000261941
0.000203379
0.000186104
0.000180004
0.000180825
0.000188525
0.000206013
0.00023048
0.000252453
0.000259588
0.000278217
0.0003151
0.000365547
0.000404687
0.000355066
0.00151951
0.00339505
0.00255777
0.00343678
0.00377595
0.003855
0.00383591
0.00377039
0.00367631
0.00355848
0.00340655
0.00319313
0.00286821
0.0023482
0.00157309
0.000859369
0.000814177
0.000576641
0.000424545
0.000822093
0.000961248
0.000961434
0.000751816
0.00032384
0.00023594
0.000245933
0.00030354
0.000422815
0.000604118
0.000800569
0.000935813
0.00110794
0.00149826
0.0015181
0.00145988
0.000418592
0.00214068
0.00645697
0.00404484
0.0045625
0.00523411
0.00552055
0.00560424
0.00559617
0.00552828
0.00541577
0.00525966
0.00504706
0.00473843
0.004267
0.00357167
0.00271282
0.00177972
0.000896839
0.000702392
0.00196417
0.00178466
0.00145995
0.00103672
0.000358456
0.000249837
0.000267482
0.000306199
0.000346554
0.000391565
0.000445425
0.000517075
0.00062942
0.00195903
0.00185222
0.00143339
0.000585888
0.00271701
0.0101311
0.00708575
0.00626307
0.00635775
0.00648917
0.00654102
0.00653822
0.00650697
0.00646577
0.00640815
0.0063306
0.00618656
0.00590756
0.00537701
0.00449114
0.00323248
0.00183947
0.000968011
0.00254082
0.00248336
0.00200651
0.00148293
0.00102372
0.000681479
0.000685494
0.000692729
0.000702757
0.000717126
0.000737851
0.00076717
0.000807894
0.000873856
0.00271738
0.00300175
0.00268688
0.000910249
0.00322568
0.0136387
0.0110189
0.00906045
0.00815005
0.00768074
0.00736779
0.00715166
0.00702488
0.00698332
0.0069805
0.00705635
0.00714186
0.00721
0.00717809
0.00697397
0.00658176
0.00602861
0.00543691
0.00525625
0.00484769
0.00443577
0.00411751
0.00388232
0.00371072
0.0036284
0.00355531
0.00348514
0.00342707
0.00339805
0.00341288
0.00347567
0.00358567
0.00377641
0.00380807
0.00364377
0.00293431
0.00130073
0.00116706
0.00103135
0.00367303
0.0159968
0.0140742
0.0113503
0.00990782
0.00891528
0.00816225
0.00760562
0.00722058
0.00700404
0.00697783
0.0071521
0.00735704
0.00765857
0.0079533
0.00811856
0.00809744
0.00786352
0.00743742
0.00693634
0.00643099
0.00600704
0.00569239
0.0054667
0.0052955
0.00514813
0.00499473
0.00481723
0.00461819
0.00442618
0.00427731
0.00418387
0.00412723
0.00407395
0.0040008
0.00388949
0.00362202
0.00301217
0.00226989
0.00108587
0.00395699
0.0159017
0.0135823
0.011906
0.0107638
0.00969741
0.00874239
0.0079473
0.00732357
0.00688042
0.00662881
0.00659642
0.00682954
0.00727955
0.007834
0.00828728
0.00852446
0.0085015
0.00822828
0.00779666
0.00732329
0.00689828
0.00656355
0.00632073
0.0061518
0.00603175
0.00592675
0.00578993
0.00557891
0.0052948
0.00499041
0.00470887
0.0044528
0.00419991
0.00392222
0.00357975
0.00311298
0.00252228
0.00191954
0.00106575
0.00388417
0.0117342
0.0114153
0.0115145
0.0108291
0.00984935
0.00885424
0.00797604
0.00725879
0.00671164
0.00633611
0.00614377
0.00616464
0.00645298
0.0070101
0.00763969
0.00813286
0.00835454
0.0082862
0.00800642
0.00763552
0.00726506
0.00694948
0.00671171
0.00655791
0.00648832
0.00649413
0.00653923
0.0065455
0.00642862
0.00618871
0.00585826
0.00545293
0.00497179
0.0044229
0.00384375
0.0032737
0.00274439
0.00234004
0.00142592
0.0036562
0.00407149
0.0135606
0.0134793
0.0115812
0.00986337
0.00858412
0.00766534
0.00699774
0.00650404
0.00615024
0.00593226
0.00586546
0.00597686
0.00628018
0.0067437
0.00722263
0.00753985
0.00764326
0.00755758
0.00736075
0.00712565
0.00690146
0.00671608
0.00658601
0.00652662
0.00655727
0.0066952
0.00692743
0.00716519
0.00732213
0.00735114
0.00729172
0.0072449
0.00725938
0.00713398
0.00642458
0.0052009
0.00466461
0.00167252
0.0233353
0.020728
0.0120188
0.00937645
0.00822566
0.00747529
0.00692767
0.00651932
0.00622917
0.00604774
0.00596734
0.00597613
0.00605737
0.00619257
0.00635978
0.00653515
0.00667345
0.00673433
0.00673468
0.00669373
0.00663019
0.00656042
0.0064987
0.00645939
0.00646021
0.00652342
0.00666248
0.00687067
0.00714562
0.00743074
0.0076514
0.0077875
0.00783739
0.00767117
0.00711744
0.0061549
0.00506258
0.00168456
0.00766132
0.0116989
0.00854221
0.00742751
0.0069257
0.0065796
0.00630189
0.00607566
0.00591256
0.00581887
0.00579102
0.0058182
0.0058883
0.00599078
0.00611505
0.00624819
0.00637436
0.00647954
0.00655491
0.00659912
0.00661685
0.00661519
0.00660063
0.00657764
0.00654857
0.0065149
0.00647938
0.0064492
0.00644037
0.00647078
0.00654213
0.00663286
0.00666112
0.00637087
0.00577061
0.0048461
0.00415266
0.00167283
0.0024107
0.00378517
0.00551945
0.00345525
0.0022728
0.00196244
0.00195245
0.00186851
0.00176339
0.00166346
0.00158659
0.00152697
0.00148381
0.00145509
0.00143845
0.00143147
0.00143185
0.00143716
0.00144509
0.00145367
0.00146082
0.00146563
0.00146794
0.00146816
0.00146689
0.00146474
0.00146218
0.00145949
0.00145708
0.00145523
0.00145302
0.00144917
0.00144123
0.00142495
0.00139602
0.00136887
0.00132822
0.00125928
0.00124279
0.00141579
)
;

boundaryField
{
    floor
    {
        type            compressible::alphatWallFunction;
        Prt             0.85;
        value           nonuniform List<scalar> 
36
(
0.000111458
3.43825e-05
3.87418e-05
4.07961e-05
3.14263e-05
2.15069e-05
1.8509e-05
1.74423e-05
1.7586e-05
1.89318e-05
2.19613e-05
2.61408e-05
2.98419e-05
3.10338e-05
3.41279e-05
4.01744e-05
4.82984e-05
5.44986e-05
4.66259e-05
4.66253e-05
5.6679e-05
8.23181e-05
0.000129669
0.000184083
0.000165705
0.000146798
0.000111456
0.000122406
0.000115904
8.09448e-05
3.4382e-05
8.09439e-05
5.76009e-05
0.00012776
9.96089e-05
0.000137865
)
;
    }
    ceiling
    {
        type            compressible::alphatWallFunction;
        Prt             0.85;
        value           nonuniform List<scalar> 
43
(
0.000330309
0.00050141
0.000708481
0.000461045
0.000312661
0.000272479
0.000271176
0.000260183
0.00024634
0.000233096
0.000222848
0.000214862
0.000209058
0.000205186
0.000202937
0.000201993
0.000202043
0.000202759
0.000203829
0.000204987
0.000205951
0.000206598
0.000206909
0.000206937
0.000206764
0.000206474
0.000206126
0.000205761
0.000205436
0.000205184
0.000204885
0.000204363
0.00020329
0.000201088
0.00019717
0.000193484
0.000187951
0.000178522
0.000176259
0.000199849
0.000485812
0.000536296
0.000955626
)
;
    }
    sWall
    {
        type            compressible::alphatWallFunction;
        Prt             0.85;
        value           uniform 0.000329245;
    }
    nWall
    {
        type            compressible::alphatWallFunction;
        Prt             0.85;
        value           nonuniform List<scalar> 6(0.00014662 0.000154247 0.000151439 0.000235554 0.000233994 0.000199545);
    }
    sideWalls
    {
        type            empty;
    }
    glass1
    {
        type            compressible::alphatWallFunction;
        Prt             0.85;
        value           nonuniform List<scalar> 9(0.000117463 0.00020945 0.000290411 0.000363426 0.000426623 0.000481418 0.000515912 0.00050727 0.000479836);
    }
    glass2
    {
        type            compressible::alphatWallFunction;
        Prt             0.85;
        value           nonuniform List<scalar> 2(0.000200143 0.000233099);
    }
    sun
    {
        type            compressible::alphatWallFunction;
        Prt             0.85;
        value           nonuniform List<scalar> 
14
(
0.000120457
0.000124195
0.000104543
0.000103798
0.000104331
0.00010498
0.000105571
0.000106055
0.000106608
0.000107282
0.000108036
0.000108803
0.000109608
0.000110591
)
;
    }
    Table_master
    {
        type            compressible::alphatWallFunction;
        Prt             0.85;
        value           nonuniform List<scalar> 9(4.72229e-05 2.94637e-05 3.24083e-05 3.87847e-05 4.53173e-05 5.24865e-05 6.09266e-05 7.19569e-05 8.88797e-05);
    }
    Table_slave
    {
        type            compressible::alphatWallFunction;
        Prt             0.85;
        value           nonuniform List<scalar> 9(9.65911e-05 9.71833e-05 9.82488e-05 9.97232e-05 0.000101831 0.000104863 0.000109134 0.000115035 0.000124518);
    }
    inlet
    {
        type            fixedValue;
        value           uniform 1.94e-05;
    }
    outlet
    {
        type            zeroGradient;
    }
}


// ************************************************************************* //
