/*--------------------------------*- C++ -*----------------------------------*=========                 |
  \      /  F ield         | OpenFOAM: The Open Source CFD Toolbox
   \    /   O peration     | Website:  https://openfoam.org
    \  /    A nd           | Version:  6
     \/     M anipulation  |
\*---------------------------------------------------------------------------*/
FoamFile
{
    version     2.0;
    format      ascii;
    class       volScalarField;
    location    "1200";
    object      PPD;
}
// * * * * * * * * * * * * * * * * * * * * * * * * * * * * * * * * * * * * * //

dimensions      [0 0 0 0 0 0 0];

internalField   nonuniform List<scalar> 
458
(
89.22831504439974
84.24326549889898
84.38819416911656
84.30636052573549
84.24981594509094
84.21371428726594
84.22669880023317
84.24743619925967
84.27819782447347
84.34552910982246
84.47164026714013
84.66982127266284
85.02424128308093
85.35618326392384
84.96274883907029
70.22796431930459
70.2999528774224
70.5155420299015
70.20395427352828
69.93938966739577
70.13188269548746
70.4197946178262
70.32393517079252
70.03569093307763
69.81886006674937
69.74646117539147
69.7223147497593
69.64983522754285
69.842979535346
70.49161571458076
71.53758330389903
71.91439872292393
71.84389303680985
90.42254426127307
85.80408428309514
86.12559899820444
85.90338346465097
85.82604814823901
85.75674256648496
85.7127841207176
85.64851279181755
85.58176141882281
85.53387974892405
85.48112468164906
85.42335027732301
85.37214388286355
85.163960896967
84.77844411967095
85.00348474519397
85.3307568298293
84.57574456771272
70.17459885998778
72.35933406320436
72.49925902468605
72.61564760060907
72.33598593084294
71.11138601825921
71.58479043093014
71.65554502524604
71.63196765264227
71.60838278470314
71.72623207620146
72.17233177215479
73.26374724008838
74.42767756092347
75.8124681585879
75.96665398645794
74.405066345502
70.23414506324903
92.49466790799683
87.60671183567592
88.38492453098758
88.00701105190097
87.83382042720174
87.6869064708107
87.5334715875627
87.378000032757
87.22404468988907
87.07478365491967
86.90147690031603
86.70253757433254
86.39046910799023
85.92276724057064
85.30955939963413
84.74359344448106
84.01394136306646
82.94755254492968
77.75993883172082
77.22668953931154
77.14081018380803
77.50473475194894
77.80233632838053
74.85564933049
72.73183898714959
73.30979816815119
74.33718125880361
75.21359956255377
76.03259646978253
76.8822556725532
77.86585913938126
79.34305669867608
81.02367315634518
79.24069793706406
77.65377415488315
73.58706758411564
94.4544996865216
89.89920056762942
91.09314740716461
90.88020058846452
90.62565012573342
90.3345947186847
89.95363753991222
89.57467749382279
89.23601736416047
88.92159180761575
88.63581900261552
88.31113555359411
87.88131219559463
87.2953539244974
86.5442398063435
85.64041671279328
84.41235976111311
82.86885915373078
81.875374652468
81.73079671878574
82.25317795698157
83.29607486685552
84.1598763203266
84.71716704772037
85.22019913605465
85.5024655969923
85.80009081583782
86.1464129877093
86.25904974474481
86.35632875125586
86.45318428705639
86.51751923089115
86.4209461799969
85.48241981032581
84.74930760153049
83.79840236989206
83.69068508819615
96.08271599503819
92.25144162268285
93.61890547565996
93.49215442372035
93.19270796126877
92.73577784184289
92.23516690978693
91.73409529414964
91.27150520669902
90.89132387439852
90.60205899903515
90.21402793184484
89.7020475073435
89.0994157882438
88.40251810102582
87.60362803243731
86.70658159750089
85.85227207359124
85.2798856196221
85.02522344306341
85.1456397142072
85.4385762482998
85.68746671174394
85.86395729456751
85.99784445879811
86.15542350520039
86.32381655966225
86.5345702367395
86.78680900883207
86.9783073559038
87.1036745229831
87.22828538713053
87.29030707568097
87.22828538713053
87.19720359776954
87.0880449784504
86.51228760137866
85.6634291910425
85.00184984232475
85.87266752349848
97.29291146405816
94.34523530711641
95.5219492542158
95.25144147072665
94.83856909045026
94.36429582829011
93.89089528433325
93.46750632903797
92.97727766797581
92.48842373637025
91.98735570995761
91.54642194650971
91.19878763276797
90.84145828952651
90.3629158287046
89.61313552130703
88.86366670450091
88.15954875543919
87.61411924193351
87.26314663172263
87.12263994411964
87.06042678883924
87.03546413303278
87.00222197910765
86.97554472869307
86.96112159280368
86.97208871241625
87.02077728920642
87.10164114661376
87.2231886477169
87.35068572655449
87.48418867462225
87.58601650719301
87.67952922293603
87.8109035886968
88.00843561891674
88.05070368402096
87.93578185078442
86.72447650605908
85.29337534171529
98.19705013718313
96.17120465659956
96.32278213477673
95.83858709280653
95.45922836202756
95.05574529690485
94.597045932689
94.13506654579736
93.69897272731085
93.32976341422534
93.06146640720031
92.85200508105284
92.41197259291135
91.99873846596651
91.5700410939314
91.13787263964831
90.67811225060318
90.20242814127799
89.73770751939466
89.32790837492053
88.99242360912781
88.72200254786853
88.47642557093603
88.27161612942018
88.0793571836482
87.91511293904699
87.77966528588875
87.70400209666143
87.68883393526488
87.62937657061539
87.55149433368408
87.46063580566087
87.3566335326577
87.22493080471716
87.10457966436896
86.97694955862914
86.8688245825453
86.94868132471026
87.68801555609372
83.85344488764022
98.98591853400238
98.3339090243793
96.69170495995407
95.69804079618922
95.27748847417539
94.98395606659456
94.70092509567152
94.38513019065336
94.06358334940971
93.73864078297895
93.44842718458638
93.19724415283005
92.99502866036708
92.83079924686103
92.60745705568326
92.21286409631263
91.8152842714096
91.3917804838515
90.965774507078
90.56387517921758
90.20242814127799
89.885312430937
89.58867910283797
89.30021112667293
89.02064062017882
88.76498454796734
88.50549457503078
88.28632236189848
88.12390231564578
88.06448511513965
88.10906578392397
88.01860941574375
87.62532288698847
87.18840695148654
86.7562310886038
86.33595348186257
86.05291953777908
85.86169261644235
85.5328440552393
84.47101422514605
100.0
100.0
94.96064616022873
92.88985993631009
92.9864327283595
93.53281153749201
93.86476938097705
93.974362787306
93.94419738773439
93.8141964066459
93.63835984528787
93.43673890654513
93.24306697954715
93.05367326707675
92.86596872809966
92.67480536763131
92.4840590190859
92.3092985634014
92.01010990248363
91.66406035277315
91.33178657293487
91.00284348268448
90.69074706425222
90.38429643427378
90.07111754730886
89.75118494206592
89.42447705614933
89.10500796510368
88.80786004789739
88.57795986858225
88.4181454572421
88.35967585499701
88.37431102096583
88.43273324957497
88.47642557093603
88.52001131496478
88.60686310689458
88.73634171549851
87.60389954283895
84.95163074483906
25.64468391480976
82.87615577532478
91.10118515913986
93.2304952264907
93.64310045384534
93.84582541001501
93.90365412682904
93.84137403009345
93.71044765918528
93.54804343396148
93.36624361953056
93.18865116829888
93.00783472445913
92.83786987508657
92.64817633103718
92.44991943904003
92.24501690269142
92.02514537197587
91.7990782829992
91.57833528182
91.35302969447665
91.12534026796426
90.89745887448208
90.67053443017622
90.38429643427378
90.04471477472994
89.68368016853658
89.34173929644562
89.02064062017882
88.77928821388883
88.57373835438375
88.33918284395065
88.16546030156306
87.96258008070781
87.67208311357699
87.28729357094961
86.57174358949356
86.36872995060656
44.76811243009078
78.25534692166978
89.84292564259975
92.87299386386948
93.83874385986807
94.1987758940281
94.2461125527891
94.0346098893564
93.80934242766864
93.57535803337409
93.35876986831899
93.14510185067768
92.95102505960983
92.7625095115726
92.56531657639681
92.37930680571553
92.16699720182739
91.94980364327138
91.72294923377933
91.4826019194636
91.22636583101038
90.96578032037853
90.68820692995392
90.40689886496823
90.10892404283327
89.79347953637341
89.46156718947782
89.13108709300013
88.78748509779113
88.42584154571722
88.07121954137969
87.6926631342368
87.35206930128646
87.07647550079965
86.8899026601726
86.73130063671911
86.1030921467549
86.8891458638445
82.38998411945288
70.87286362610283
52.6408192218176
80.8629692291053
90.38316349456208
91.75204622314166
92.38611061649321
92.65671011955388
92.72164075772204
92.65931052720086
92.53667571081324
92.39437048152466
92.24035440992033
92.07946700682412
91.91351162926723
91.75537464631137
91.59169888311524
91.42107511547744
91.2419880447739
91.03951140476438
90.83739383731178
90.6053916602278
90.36992681427525
90.10135772987893
89.813273321467
89.50545760936576
89.19350224569328
88.8473674178532
88.48458914313602
88.10946697322409
87.72042655011441
87.34381184084702
86.96705925891213
86.63069646769789
86.32561043954354
86.13559839085482
86.04877032403394
86.09547434618082
85.49807760564948
82.94753921000174
)
;

boundaryField
{
    ".*"
    {
        type            zeroGradient;
    }
}


// ************************************************************************* //
