/*--------------------------------*- C++ -*----------------------------------*\
  =========                 |
  \\      /  F ield         | OpenFOAM: The Open Source CFD Toolbox
   \\    /   O peration     | Website:  https://openfoam.org
    \\  /    A nd           | Version:  6
     \\/     M anipulation  |
\*---------------------------------------------------------------------------*/
FoamFile
{
    version     2.0;
    format      ascii;
    class       surfaceScalarField;
    location    "1900";
    object      phi;
}
// * * * * * * * * * * * * * * * * * * * * * * * * * * * * * * * * * * * * * //

dimensions      [1 0 -1 0 0 0 0];

internalField   nonuniform List<scalar> 
850
(
-0.00275459
0.00280959
-0.00358515
0.00083056
-0.00427017
0.000685019
-0.00485284
0.000582669
-0.00530557
0.000452736
-0.00561343
0.000307859
-0.00575883
0.000145403
-0.00571916
-3.9678e-05
-0.0054683
-0.000250858
-0.00499457
-0.000473727
-0.00431503
-0.000679541
-0.00347252
-0.000842512
-0.00251017
-0.00096236
-0.0014072
-0.00110297
-0.00140623
-0.000387238
0.000389229
7.04222e-05
-0.000457654
0.000616828
-0.000546401
0.000990846
-0.000374012
0.00122381
-0.000232962
0.00134433
-0.000120506
0.00139609
-5.17535e-05
0.00142019
-2.4093e-05
0.00143112
-1.0921e-05
0.00143259
-1.45891e-06
0.00142609
6.50985e-06
0.00140996
1.61392e-05
0.0013759
3.40683e-05
0.00130214
7.37784e-05
0.00115245
0.000149704
0.000911472
0.000240987
0.000617692
0.000293794
0.000620373
-0.00196743
0.00492454
-0.00283653
0.00169966
-0.00356397
0.00141246
-0.00413955
0.00115824
-0.0045815
0.000894693
-0.00488907
0.000615427
-0.00504723
0.000303559
-0.00503162
-5.52873e-05
-0.00482083
-0.000461645
-0.00441293
-0.000881627
-0.00383847
-0.00125401
-0.0031535
-0.00152748
-0.0024309
-0.00168497
-0.00180708
-0.00172679
-0.00168799
-0.00152532
-0.000816637
-0.000869497
-0.000401986
-0.00041249
-0.000395526
0.000609701
-0.000215624
0.000927261
-0.00077521
0.00112423
-0.000743367
0.00130574
-0.000555514
0.00143411
-0.000361329
0.00145467
-0.000141057
0.00145683
-5.39142e-05
0.00146046
-2.77154e-05
0.00146375
-1.42023e-05
0.00146547
-3.16447e-06
0.00146551
6.4749e-06
0.00146323
1.84287e-05
0.00145528
4.20361e-05
0.00141404
0.000115027
0.00124662
0.000317136
0.000953018
0.000534603
0.000576954
0.000669871
0.00120432
-0.00139305
0.00654216
-0.00217882
0.00248543
-0.00282488
0.00205853
-0.00331151
0.00164487
-0.00369278
0.00127596
-0.00397105
0.000893703
-0.00412544
0.000457946
-0.00412132
-5.94093e-05
-0.00392675
-0.000656219
-0.00354673
-0.00126164
-0.00302464
-0.00177611
-0.00242503
-0.00212709
-0.00182377
-0.00228624
-0.00131245
-0.00223811
-0.000902246
-0.00193552
-0.00039646
-0.00137528
7.77595e-06
-0.000816726
-0.000382573
0.00113575
-0.00134555
0.00136046
-0.000999921
0.00140565
-0.000788553
0.00146436
-0.000614219
0.0015599
-0.000456865
0.001419
0.00136525
0.00133769
0.00132365
0.00132064
0.00132728
0.00134587
0.00138807
0.00150326
0.00126446
0.000555946
0.000958277
0.000840802
0.000533712
0.00109445
0.00174877
-0.000995709
0.00782706
-0.00165603
0.00314576
-0.00207211
0.00247461
-0.00239135
0.00196411
-0.00265487
0.00153948
-0.00286075
0.00109959
-0.00298361
0.000580802
-0.0029705
-7.25145e-05
-0.00277235
-0.000854372
-0.00241252
-0.00162147
-0.00195318
-0.00223546
-0.00146051
-0.00261978
-0.000991303
-0.00275545
-0.000584345
-0.00264508
-0.000208972
-0.0023109
0.000213817
-0.00179807
0.000665024
-0.00126793
0.00117045
-0.000887998
0.00190555
-0.000729549
0.00148835
-0.000928346
0.00141124
-0.000922811
0.00137438
-0.000751692
0.0013492
-0.000589031
0.00131013
-0.000417793
0.00151251
-0.000202521
0.00164736
-0.000134993
0.00175918
-0.000111968
0.0018513
-9.22679e-05
0.00191117
-6.00129e-05
0.00191693
-5.90262e-06
0.00184353
7.32624e-05
0.00166072
0.000182665
0.001317
0.000343579
0.00118355
0.000689415
0.000917916
0.00110645
0.000512504
0.00149987
0.00227534
-0.000719773
0.00889018
-0.00125633
0.00368231
-0.00132527
0.00254355
-0.00140564
0.00204449
-0.00149923
0.00163307
-0.00158061
0.00118096
-0.00162264
0.000622834
-0.00155426
-0.000140889
-0.00132634
-0.0010823
-0.000998892
-0.00194892
-0.000641863
-0.00259249
-0.000305097
-0.00295655
-1.60889e-05
-0.00304447
0.000220497
-0.00288167
0.000430716
-0.00252113
0.000665528
-0.00203289
0.0009294
-0.0015318
0.00117716
-0.00113576
0.0013542
-0.000906591
0.00127755
-0.00085169
0.00115122
-0.000796478
0.00107216
-0.000672632
0.00102663
-0.000543495
0.00102714
-0.000418294
0.00112615
-0.000301516
0.00123093
-0.000239773
0.00133103
-0.000212049
0.00142388
-0.000185114
0.0015004
-0.000136518
0.00154325
-4.87411e-05
0.00153143
8.50965e-05
0.00145291
0.000261195
0.00131274
0.000483759
0.00119243
0.000809743
0.00107512
0.00122376
0.000854101
0.00172091
0.0010222
0.00210726
-0.000921601
0.00195651
-0.00154103
0.000630521
-0.0014867
-0.000646176
0.00992506
-0.00105081
0.00408695
-0.00063974
0.00213248
-0.000360536
0.00176529
-0.000244739
0.00151728
-0.000172907
0.00110914
-6.33035e-05
0.000513234
0.000136173
-0.000340361
0.000397972
-0.0013441
0.000649541
-0.0022005
0.000843654
-0.00278662
0.000963639
-0.00307655
0.0010127
-0.00309354
0.00101381
-0.0028828
0.000998045
-0.00250537
0.000996528
-0.00203138
0.00101481
-0.00155009
0.00102563
-0.00114657
0.000994203
-0.000875164
0.000881916
-0.000739398
0.000739256
-0.000653812
0.000634706
-0.000568076
0.000579953
-0.000488733
0.000580416
-0.000418748
0.00063868
-0.00035977
0.000724415
-0.000325497
0.000819064
-0.000306687
0.000916718
-0.000282755
0.00101372
-0.000233511
0.00110239
-0.000137398
0.0011626
2.49044e-05
0.00118486
0.000238944
0.00118438
0.000484252
0.00121118
0.000782957
0.00131335
0.00112161
0.00151218
0.00152209
0.001853
0.00176645
0.00210788
0.00170165
0.00163747
0.00110094
0.000204262
-0.000751207
0.0111056
-0.000697361
0.00403311
0.000378947
0.00105618
0.000994615
0.00114963
0.00125884
0.00125306
0.00147313
0.000894855
0.00176978
0.000216592
0.00209752
-0.0006681
0.00233064
-0.00157722
0.0024277
-0.00229757
0.00238665
-0.00274559
0.00222955
-0.00291947
0.00199026
-0.00285426
0.00170856
-0.00260111
0.00142267
-0.00221949
0.00116071
-0.00176941
0.000934448
-0.00132382
0.000735206
-0.000947324
0.00055422
-0.000694173
0.000374943
-0.000560113
0.000216904
-0.000495765
0.000104942
-0.000456105
4.52602e-05
-0.000429041
3.54367e-05
-0.000408913
6.83594e-05
-0.000392681
0.000126391
-0.000383515
0.000196116
-0.000376399
0.000274907
-0.000361533
0.000367021
-0.000325612
0.000478401
-0.000248764
0.000606718
-0.000103398
0.000735222
0.000110454
0.000864651
0.000354837
0.00103568
0.000611945
0.00128856
0.000868748
0.00166055
0.0011501
0.00216755
0.00125947
0.00280201
0.0010672
0.00291646
0.000986499
0.00317938
0.00236305
0.00922247
0.00298578
0.00341038
0.00343863
0.000603326
0.00366553
0.000922738
0.00378075
0.00113784
0.0039717
0.000703914
0.00425438
-6.60721e-05
0.0044735
-0.000887223
0.00447706
-0.00158078
0.00424744
-0.00206797
0.00383282
-0.00233099
0.00329865
-0.00238533
0.00270643
-0.00226206
0.00210899
-0.00200369
0.00154768
-0.00165819
0.00104457
-0.0012663
0.000617946
-0.000897196
0.00026642
-0.00059579
-6.11641e-06
-0.000421628
-0.000214761
-0.000351459
-0.000368791
-0.000341724
-0.000475322
-0.000349562
-0.000541375
-0.000362976
-0.000574478
-0.000375797
-0.00058222
-0.000384926
-0.000575356
-0.000390367
-0.000561463
-0.000390278
-0.000541723
-0.000381259
-0.000509704
-0.000357617
-0.000448068
-0.000310387
-0.000325305
-0.000226146
-0.000141068
-7.37684e-05
7.85738e-05
0.00013521
0.000341419
0.000349115
0.00066048
0.000549701
0.00106322
0.000747375
0.00152913
0.00079358
0.00192695
0.000669396
0.00126441
0.00164905
0.004667
0.00974439
0.0131434
0.012472
0.00127479
0.0110503
0.00234442
0.0100408
0.00214737
0.00930421
0.00144046
0.00856438
0.000673738
0.00771127
-3.41374e-05
0.00674651
-0.000616067
0.00572525
-0.00104675
0.00469493
-0.00130071
0.00369488
-0.00138531
0.00275433
-0.00132153
0.0018983
-0.00114767
0.00114871
-0.000908603
0.000503806
-0.000621385
-1.40607e-05
-0.00037932
-0.000388965
-0.000220875
-0.000640988
-0.000169594
-0.000819224
-0.00017321
-0.0009576
-0.000203336
-0.00106819
-0.000238959
-0.00115811
-0.000273042
-0.00123302
-0.00030087
-0.00129829
-0.000319647
-0.00136132
-0.000327321
-0.00143059
-0.000320992
-0.001515
-0.000296836
-0.00162362
-0.000248985
-0.00176568
-0.000168307
-0.00194419
-4.76226e-05
-0.002148
0.000130052
-0.00238861
0.000375838
-0.00273819
0.00069871
-0.00329263
0.00110416
-0.00413061
0.00158536
-0.00538378
0.00204676
-0.00693418
0.00221982
-0.00668226
0.00139714
-0.00176999
0.00322014
0.00260274
0.00401358
0.00155078
0.00526421
0.000896558
0.00552519
0.00117933
0.00529724
0.000901552
0.00490679
0.000356197
0.00440384
-0.000113208
0.00376402
-0.000407
0.00302339
-0.000560121
0.00223541
-0.000597354
0.0014473
-0.000533425
0.000703176
-0.00040354
3.50404e-05
-0.000240457
-0.000498039
-8.82907e-05
-0.000857054
-2.02904e-05
-0.00108121
3.29335e-06
-0.00123643
-1.43617e-05
-0.0013597
-4.99249e-05
-0.00147533
-8.76879e-05
-0.00159335
-0.00012093
-0.00171491
-0.000151459
-0.00183926
-0.000176511
-0.00196506
-0.00019383
-0.00209173
-0.000200641
-0.00221966
-0.000193042
-0.00234999
-0.000166494
-0.00248305
-0.000115908
-0.00261805
-3.32929e-05
-0.00274556
7.98953e-05
-0.00285057
0.00023508
-0.00293529
0.000460574
-0.00300744
0.000770864
-0.00306595
0.00116268
-0.00308335
0.00160278
-0.0030344
0.00199783
-0.00276229
0.00194772
-0.00148738
0.000122246
-0.00319349
-0.00025405
0.00291996
0.000572104
0.000724492
0.000811575
0.000656972
0.0012188
0.000772004
0.00149438
0.000625899
0.00153175
0.000318761
0.00137285
4.56616e-05
0.0010588
-9.29692e-05
0.000623813
-0.000125137
0.000124269
-9.78018e-05
-0.000371511
-3.76226e-05
-0.000804762
2.97294e-05
-0.00112772
8.25151e-05
-0.00132311
0.000107121
-0.00144039
9.70033e-05
-0.00150906
7.1981e-05
-0.00156514
4.17353e-05
-0.00162963
1.4575e-05
-0.00171045
-6.85162e-06
-0.00180984
-2.15233e-05
-0.00193034
-3.09494e-05
-0.00207081
-3.60228e-05
-0.00222723
-3.7394e-05
-0.00239218
-3.56803e-05
-0.0025542
-3.10088e-05
-0.00269824
-2.24323e-05
-0.00280651
-7.62806e-06
-0.00285885
1.90651e-05
-0.00285332
7.43729e-05
-0.0027827
0.000164474
-0.00262102
0.000298909
-0.00234194
0.000491799
-0.00192318
0.000743942
-0.00132488
0.00100449
-0.000384544
0.0010575
0.000982401
0.000580788
0.0016474
-0.000542745
-0.00147677
-0.00524479
-0.00800939
-0.00505178
-0.00431252
-0.00364674
-0.00286954
-0.00224137
-0.00192316
-0.00188082
-0.00197927
-0.00211165
-0.00221823
-0.00226603
-0.00224776
-0.00217793
-0.00208469
-0.00200254
-0.00194605
-0.00192024
-0.00192188
-0.00194518
-0.00198336
-0.00203121
-0.00208445
-0.00213941
-0.00219307
-0.00224246
-0.00228359
-0.00231012
-0.00230995
-0.00225431
-0.00210827
-0.00182742
-0.0013532
-0.000626349
0.000361556
0.0014027
0.00196684
0.0014068
)
;

boundaryField
{
    floor
    {
        type            calculated;
        value           nonuniform List<scalar> 
36
(
0
0
0
0
0
0
0
0
0
0
0
0
0
0
0
0
0
0
0
-2.6674e-06
-6.97684e-06
-1.07302e-05
-1.40518e-05
-1.2696e-05
-1.10758e-05
-1.03327e-05
-9.68941e-07
-1.85675e-06
-2.15905e-06
-2.55244e-06
-1.98409e-06
-3.90494e-06
-4.83916e-06
-5.1761e-06
-5.8195e-06
-5.55455e-06
)
;
    }
    ceiling
    {
        type            calculated;
        value           nonuniform List<scalar> 
43
(
-4.06357e-05
-3.92619e-05
-3.76595e-05
-1.47647e-05
-8.81144e-06
-5.19568e-06
-2.25398e-06
5.60412e-07
3.34307e-06
5.49842e-06
7.26062e-06
8.79732e-06
1.01977e-05
1.14746e-05
1.27018e-05
1.38986e-05
1.48613e-05
1.55125e-05
1.59344e-05
1.6232e-05
1.64625e-05
1.66726e-05
1.69211e-05
1.72258e-05
1.75889e-05
1.79913e-05
1.83892e-05
1.87188e-05
1.89122e-05
1.89147e-05
1.87441e-05
1.84512e-05
1.80628e-05
1.76012e-05
1.71011e-05
1.65989e-05
1.63748e-05
1.66553e-05
1.73114e-05
1.87482e-05
1.4852e-05
1.13324e-05
-6.32638e-05
)
;
    }
    sWall
    {
        type            calculated;
        value           uniform -0.000274647;
    }
    nWall
    {
        type            calculated;
        value           nonuniform List<scalar> 6(-4.39819e-05 -5.3478e-05 -5.86487e-05 -6.38662e-05 -6.93028e-05 -8.87047e-05);
    }
    sideWalls
    {
        type            empty;
        value           nonuniform 0();
    }
    glass1
    {
        type            calculated;
        value           nonuniform List<scalar> 9(-5.49999e-05 -0.000147528 -0.000224575 -0.000289193 -0.000343354 -0.000388702 -0.00042935 -0.000479908 -0.000536772);
    }
    glass2
    {
        type            calculated;
        value           nonuniform List<scalar> 2(-0.000223193 -0.000245253);
    }
    sun
    {
        type            calculated;
        value           uniform 0;
    }
    Table_master
    {
        type            calculated;
        value           nonuniform List<scalar> 9(-1.5242e-07 -1.52497e-07 -1.52524e-07 -1.52542e-07 -1.52553e-07 -1.52559e-07 -1.52559e-07 -1.5255e-07 -1.52517e-07);
    }
    Table_slave
    {
        type            calculated;
        value           nonuniform List<scalar> 9(1.52366e-07 1.52359e-07 1.52326e-07 1.52298e-07 1.52282e-07 1.52284e-07 1.52291e-07 1.52325e-07 1.52396e-07);
    }
    inlet
    {
        type            calculated;
        value           uniform -0.00454821;
    }
    outlet
    {
        type            calculated;
        value           nonuniform List<scalar> 2(0.00556008 0.00280386);
    }
}


// ************************************************************************* //
