/*--------------------------------*- C++ -*----------------------------------*\
  =========                 |
  \\      /  F ield         | OpenFOAM: The Open Source CFD Toolbox
   \\    /   O peration     | Website:  https://openfoam.org
    \\  /    A nd           | Version:  6
     \\/     M anipulation  |
\*---------------------------------------------------------------------------*/
FoamFile
{
    version     2.0;
    format      ascii;
    class       volScalarField;
    location    "2900";
    object      epsilon;
}
// * * * * * * * * * * * * * * * * * * * * * * * * * * * * * * * * * * * * * //

dimensions      [0 2 -3 0 0 0 0];

internalField   nonuniform List<scalar> 
458
(
0.000559342
0.000743015
0.000802682
0.000932042
0.00106763
0.00121364
0.00137482
0.0015019
0.00156705
0.00154893
0.0014414
0.00124895
0.000961884
0.000582545
0.000320669
4.80994e-05
8.07547e-05
0.000126532
0.000151648
0.0001461
0.000119002
9.33838e-05
7.3957e-05
5.9581e-05
4.88056e-05
4.0604e-05
3.42397e-05
2.92243e-05
2.51378e-05
2.16418e-05
1.84398e-05
1.58511e-05
1.18249e-05
0.00132909
0.00181121
0.000695758
0.00068654
0.000735909
0.000821356
0.000943433
0.00106105
0.00113387
0.00113483
0.00106019
0.000926147
0.000749707
0.000568883
0.000450683
0.000743408
0.000443974
0.000233332
4.55991e-05
9.06901e-05
0.000118976
0.000125136
0.000123836
0.000127792
0.000100188
7.57234e-05
5.7549e-05
4.43499e-05
3.47548e-05
2.7685e-05
2.24032e-05
1.84253e-05
1.58628e-05
1.46078e-05
2.598e-05
1.99681e-05
0.00232795
0.00414838
0.00083113
0.000666856
0.000731916
0.000867616
0.00104892
0.00120837
0.00129427
0.00129052
0.00120313
0.00105351
0.000860884
0.000680288
0.000529465
0.000436213
0.000382293
0.000451179
0.000170007
0.000170747
0.000162951
0.000151658
0.000147778
0.000300762
0.000193712
0.000128186
8.8043e-05
6.28063e-05
4.64278e-05
3.54592e-05
2.80579e-05
2.32749e-05
1.77846e-05
1.51472e-05
4.44318e-05
2.83206e-05
0.00364705
0.00834278
0.00125737
0.00070119
0.000771767
0.00098769
0.00126484
0.00145618
0.00153061
0.00150414
0.00138969
0.00120526
0.000992868
0.000784504
0.000605926
0.000477569
0.000401061
0.000411586
0.000707754
0.000446166
0.000306157
0.000235312
0.000194775
0.000180468
0.000447904
0.000333362
0.000264042
0.000216896
0.000180669
0.00015203
0.000127246
0.00010431
8.17739e-05
4.6517e-05
2.77686e-05
7.31917e-05
3.93464e-05
0.00541979
0.014677
0.00239705
0.000876695
0.000910388
0.00131985
0.00169664
0.00185969
0.00187819
0.00180141
0.0016415
0.00141164
0.00114215
0.000876426
0.000654387
0.000494522
0.000392801
0.00035632
0.00036905
0.000326095
0.000284382
0.000248243
0.000213971
0.000183495
0.000174744
0.000158179
0.000143684
0.000130167
0.000116506
0.00010285
8.90585e-05
7.55687e-05
6.2809e-05
4.75227e-05
3.41889e-05
5.41736e-05
7.22247e-05
8.87157e-05
0.000116885
0.000153927
0.0078503
0.0217655
0.00532086
0.00172002
0.00157286
0.00228252
0.00249536
0.00248591
0.00238616
0.00222539
0.00199008
0.00167797
0.00131879
0.000969648
0.000685724
0.000489354
0.000375745
0.000332494
0.000327951
0.000319641
0.000298858
0.000266289
0.000227235
0.00018856
0.000160153
0.000142956
0.000132244
0.000122921
0.000112708
0.000100835
8.75103e-05
7.40484e-05
6.16496e-05
5.01759e-05
4.17231e-05
4.58361e-05
6.38361e-05
7.90823e-05
0.000171064
0.00017206
0.010548
0.0260325
0.0109264
0.00537865
0.00465882
0.00424107
0.0037977
0.00341499
0.0031003
0.00279782
0.00244052
0.00200366
0.00151773
0.00105807
0.000702185
0.000474477
0.00036046
0.000328291
0.000330039
0.000325176
0.000301013
0.000262903
0.000219984
0.000180752
0.000153034
0.00013862
0.000131984
0.000127886
0.000124018
0.000119254
0.000110991
0.000100563
9.01153e-05
8.07964e-05
7.64091e-05
8.16943e-05
0.000105154
0.000151155
0.000278754
0.000297871
0.0110925
0.0272113
0.0158491
0.0112509
0.00851418
0.00657444
0.00530834
0.00451498
0.00398361
0.00351899
0.00298788
0.00236295
0.00169155
0.00108223
0.00065852
0.000422052
0.000334319
0.000317524
0.000316309
0.000302242
0.000270718
0.000230611
0.000191948
0.000161564
0.000143088
0.000135648
0.000135441
0.000139846
0.0001483
0.000161081
0.000177994
0.00019432
0.000210666
0.00023924
0.000290549
0.000417255
0.000691814
0.0011406
0.00334087
0.00107426
0.0102302
0.0167777
0.0132676
0.0102491
0.0080673
0.00673046
0.00594683
0.00544844
0.00499567
0.00438229
0.00354028
0.00258315
0.00161845
0.000820292
0.000485489
0.000350298
0.000300272
0.000283421
0.000270403
0.000248482
0.000218836
0.000187362
0.000160011
0.000140772
0.00013073
0.00012879
0.000133355
0.000144033
0.000161806
0.000188558
0.000226802
0.000280096
0.000353866
0.000458167
0.000605748
0.00080064
0.00102443
0.00123522
0.00141743
0.000901767
0.00309583
0.00490462
0.00676155
0.00724624
0.00717911
0.00664982
0.00565513
0.00409738
0.00246241
0.00143321
0.000831436
0.000500584
0.000349606
0.00028366
0.000253523
0.000234923
0.000215702
0.000192731
0.000168784
0.000147634
0.00013156
0.000120968
0.000115367
0.000114034
0.000116828
0.000124393
0.000138066
0.000159794
0.000192415
0.000239897
0.000306793
0.000398431
0.000517356
0.000653562
0.000774162
0.000834803
0.000811402
0.000522074
0.00280811
0.00765442
0.00787103
0.00627114
0.00503245
0.00385325
0.002758
0.001857
0.0011521
0.000714241
0.000471682
0.000345929
0.000284866
0.000254865
0.000238589
0.000227406
0.000217349
0.000207319
0.000197703
0.000189109
0.000181847
0.000175859
0.000171042
0.000167439
0.000165484
0.000166233
0.000171317
0.000182921
0.000203813
0.000237472
0.000288172
0.000360004
0.000453327
0.000560774
0.000642467
0.00073109
0.000740886
0.000557886
0.00211526
0.00252222
0.00284421
0.00363349
0.00316585
0.00272693
0.00237885
0.00196025
0.00152037
0.00112898
0.000821471
0.000613441
0.000487743
0.000412723
0.000364648
0.000329703
0.000299826
0.000270708
0.000241376
0.000213383
0.000188957
0.000169398
0.000154757
0.000144426
0.000137803
0.000134677
0.000135278
0.000140152
0.000150032
0.000165772
0.00018839
0.000219244
0.00026021
0.000313553
0.000380887
0.000471258
0.000504465
0.000465647
0.0003849
0.00031461
)
;

boundaryField
{
    floor
    {
        Cmu             0.09;
        kappa           0.41;
        E               9.8;
        type            epsilonWallFunction;
        value           nonuniform List<scalar> 
36
(
0.000320669
4.80994e-05
8.07547e-05
0.000126532
0.000151648
0.0001461
0.000119002
9.33838e-05
7.3957e-05
5.9581e-05
4.88056e-05
4.0604e-05
3.42397e-05
2.92243e-05
2.51378e-05
2.16418e-05
1.84398e-05
1.58511e-05
1.18249e-05
1.18249e-05
1.99681e-05
2.83206e-05
3.93464e-05
8.87157e-05
0.000116885
0.000153927
0.000320669
0.000743408
0.000443974
0.000233332
4.80994e-05
0.000233332
4.55991e-05
0.000451179
0.000170007
0.000707754
)
;
    }
    ceiling
    {
        Cmu             0.09;
        kappa           0.41;
        E               9.8;
        type            epsilonWallFunction;
        value           nonuniform List<scalar> 
43
(
0.00211526
0.00252222
0.00284421
0.00363349
0.00316585
0.00272693
0.00237885
0.00196025
0.00152037
0.00112898
0.000821471
0.000613441
0.000487743
0.000412723
0.000364648
0.000329703
0.000299826
0.000270708
0.000241376
0.000213383
0.000188957
0.000169398
0.000154757
0.000144426
0.000137803
0.000134677
0.000135278
0.000140152
0.000150032
0.000165772
0.00018839
0.000219244
0.00026021
0.000313553
0.000380887
0.000471258
0.000504465
0.000465647
0.0003849
0.00031461
0.0102302
0.0167777
0.00280811
)
;
    }
    sWall
    {
        Cmu             0.09;
        kappa           0.41;
        E               9.8;
        type            epsilonWallFunction;
        value           uniform 0.00211526;
    }
    nWall
    {
        Cmu             0.09;
        kappa           0.41;
        E               9.8;
        type            epsilonWallFunction;
        value           nonuniform List<scalar> 6(0.000153927 0.00017206 0.000297871 0.000522074 0.000557886 0.00031461);
    }
    sideWalls
    {
        type            empty;
    }
    glass1
    {
        Cmu             0.09;
        kappa           0.41;
        E               9.8;
        type            epsilonWallFunction;
        value           nonuniform List<scalar> 9(0.000559342 0.00132909 0.00232795 0.00364705 0.00541979 0.0078503 0.010548 0.0110925 0.0102302);
    }
    glass2
    {
        Cmu             0.09;
        kappa           0.41;
        E               9.8;
        type            epsilonWallFunction;
        value           nonuniform List<scalar> 2(0.00107426 0.000901767);
    }
    sun
    {
        Cmu             0.09;
        kappa           0.41;
        E               9.8;
        type            epsilonWallFunction;
        value           nonuniform List<scalar> 
14
(
0.000559342
0.000743015
0.000802682
0.000932042
0.00106763
0.00121364
0.00137482
0.0015019
0.00156705
0.00154893
0.0014414
0.00124895
0.000961884
0.000582545
)
;
    }
    Table_master
    {
        Cmu             0.09;
        kappa           0.41;
        E               9.8;
        type            epsilonWallFunction;
        value           nonuniform List<scalar> 9(0.000300762 0.000193712 0.000128186 8.8043e-05 6.28063e-05 4.64278e-05 3.54592e-05 2.80579e-05 2.32749e-05);
    }
    Table_slave
    {
        Cmu             0.09;
        kappa           0.41;
        E               9.8;
        type            epsilonWallFunction;
        value           nonuniform List<scalar> 9(0.000447904 0.000333362 0.000264042 0.000216896 0.000180669 0.00015203 0.000127246 0.00010431 8.17739e-05);
    }
    inlet
    {
        type            turbulentMixingLengthDissipationRateInlet;
        mixingLength    0.01;
        phi             phi;
        k               k;
        value           uniform 0.000101881;
    }
    outlet
    {
        type            zeroGradient;
    }
}


// ************************************************************************* //
