/*--------------------------------*- C++ -*----------------------------------*\
  =========                 |
  \\      /  F ield         | OpenFOAM: The Open Source CFD Toolbox
   \\    /   O peration     | Website:  https://openfoam.org
    \\  /    A nd           | Version:  6
     \\/     M anipulation  |
\*---------------------------------------------------------------------------*/
FoamFile
{
    version     2.0;
    format      ascii;
    class       volScalarField;
    location    "800";
    object      alphat;
}
// * * * * * * * * * * * * * * * * * * * * * * * * * * * * * * * * * * * * * //

dimensions      [1 -1 -1 0 0 0 0];

internalField   nonuniform List<scalar> 
458
(
0.000839517
0.000867195
0.000816942
0.000849242
0.000881435
0.000910824
0.000937699
0.000962793
0.000987051
0.00101175
0.00103481
0.00105314
0.00106648
0.00107617
0.00108168
0.000497998
0.000635105
0.00064164
0.000602892
0.000538123
0.000471764
0.000404748
0.000343519
0.00029426
0.000256277
0.000226646
0.000204541
0.000196673
0.00019921
0.000244567
0.000374673
0.00053046
0.000482807
0.00139491
0.00235981
0.00179904
0.00222782
0.00238689
0.00255257
0.00272136
0.00288111
0.00301459
0.0030977
0.00313003
0.00307994
0.00289357
0.00248906
0.00181336
0.00115018
0.00109904
0.000803812
0.000706635
0.00149648
0.00170253
0.00161232
0.00140537
0.000985147
0.000709777
0.000546589
0.000450306
0.000391692
0.000358971
0.000352301
0.000319317
0.000338772
0.000544189
0.00110179
0.00187177
0.000680246
0.00188094
0.00378255
0.00196866
0.00327144
0.00361025
0.00380984
0.0039806
0.00412505
0.0042405
0.00432028
0.00436558
0.00435068
0.00423385
0.00396098
0.00349343
0.00285274
0.00203181
0.00116729
0.000959179
0.00247339
0.00215493
0.00170732
0.00131709
0.000474846
0.00034364
0.000278722
0.000243448
0.00022334
0.000210315
0.000199336
0.000198129
0.000321308
0.00102191
0.00162635
0.00265109
0.000798364
0.00235103
0.00569013
0.00214473
0.00368001
0.00439659
0.00461846
0.00475907
0.004863
0.00494188
0.00500011
0.00503864
0.00506082
0.00504384
0.00494859
0.00470275
0.00419518
0.00331529
0.0021301
0.00119137
0.00256934
0.00269853
0.00221253
0.00168333
0.00119696
0.000848038
0.000867612
0.000906258
0.000959879
0.0010271
0.00111963
0.00120239
0.0012461
0.00124866
0.00155496
0.00185849
0.00249403
0.00109541
0.00280285
0.00795049
0.00288969
0.00349999
0.00475126
0.00507882
0.00521364
0.00528766
0.00533046
0.00535753
0.00537543
0.00541166
0.00547978
0.00557322
0.00566593
0.0057196
0.00569627
0.00553607
0.00514272
0.00472471
0.00426113
0.0038636
0.00359959
0.00342808
0.0033309
0.00337169
0.00354047
0.00380885
0.00413375
0.00447052
0.00473789
0.00485094
0.00480936
0.00463012
0.0040761
0.00351408
0.00236763
0.00124434
0.00118086
0.00108618
0.00324485
0.0102125
0.00488557
0.00333176
0.00434499
0.00500819
0.00532891
0.00548681
0.00554521
0.00553103
0.00547242
0.00544785
0.0054945
0.00560191
0.00575258
0.00591977
0.00605127
0.00604065
0.00578937
0.00535658
0.00491887
0.00460197
0.00439747
0.00422805
0.00407313
0.00401344
0.00412447
0.0043896
0.00473399
0.00507332
0.00534291
0.00548888
0.00551556
0.00547605
0.00527455
0.00474935
0.00402662
0.00355355
0.00344995
0.00130505
0.00365869
0.0120294
0.00845116
0.00511553
0.00383758
0.00391189
0.00452463
0.0051076
0.00548643
0.0056298
0.00546429
0.00535094
0.00532663
0.00536699
0.00545789
0.00558395
0.00570481
0.00573084
0.00558134
0.00527879
0.00494726
0.00470505
0.00456564
0.00445569
0.00431548
0.00420764
0.00427323
0.00454172
0.00490581
0.00523539
0.00545619
0.00556176
0.00560338
0.00568319
0.00590389
0.00594659
0.00552487
0.0049289
0.00451383
0.00154352
0.00374344
0.0117708
0.00996674
0.00854108
0.00668349
0.00519184
0.00453225
0.0046112
0.00501321
0.00537631
0.00528335
0.00513948
0.00504841
0.00501133
0.00501332
0.00504152
0.0050784
0.00507913
0.00498701
0.00479369
0.00456218
0.00438112
0.00429731
0.00429561
0.0043219
0.00433435
0.00442383
0.00470696
0.00508739
0.00539467
0.00554412
0.00554465
0.00548185
0.00549743
0.00572603
0.00609384
0.00596759
0.00507975
0.00447703
0.00161685
0.00363586
0.00433737
0.00466351
0.00506081
0.00525316
0.00507965
0.00475681
0.0045109
0.0044169
0.00442381
0.00445481
0.00447592
0.00448345
0.00447617
0.00445311
0.00441476
0.00436179
0.004288
0.00418029
0.00403637
0.00387968
0.00375213
0.00369531
0.00374096
0.00392012
0.00423143
0.00452259
0.00485701
0.0052743
0.00559011
0.0056866
0.00552647
0.00512457
0.0045472
0.00391817
0.00340032
0.00297253
0.00261512
0.0022996
0.00159484
0.00126897
0.00248534
0.00355266
0.00414987
0.00434138
0.00433232
0.00426321
0.00418797
0.00412093
0.00406882
0.00401405
0.00394379
0.0038517
0.00373788
0.00360735
0.00346695
0.00332289
0.00318213
0.00305638
0.00296417
0.00293047
0.00298812
0.00318637
0.00358882
0.00418348
0.00480687
0.00531905
0.00569542
0.00602455
0.00631809
0.00657984
0.00673749
0.00660577
0.00598009
0.00515065
0.00444221
0.00388364
0.00155082
0.00243504
0.00389286
0.00451309
0.0047634
0.00473665
0.00461197
0.00442602
0.004227
0.00403228
0.00382317
0.00358507
0.0033392
0.00309787
0.00286819
0.00265461
0.00246062
0.00228972
0.00214615
0.00203579
0.0019676
0.00195503
0.00201761
0.00218316
0.00248908
0.00296311
0.00355405
0.00410168
0.00451958
0.00487753
0.00526258
0.00570719
0.00611912
0.00630114
0.00619012
0.00579243
0.00530865
0.00420009
0.00158823
0.00246395
0.00252492
0.00258449
0.00277262
0.00271769
0.0026264
0.00239006
0.00222167
0.00207342
0.0019388
0.00181419
0.0017014
0.00160074
0.00150667
0.00141614
0.0013276
0.00124051
0.00115515
0.00107252
0.000994123
0.00092171
0.00085702
0.000801594
0.000756811
0.000724173
0.000705855
0.000705158
0.000725607
0.000771058
0.000837409
0.000915826
0.00099822
0.00108938
0.00122571
0.00141051
0.00157881
0.00164745
0.00158125
0.00148714
0.00135157
)
;

boundaryField
{
    floor
    {
        type            compressible::alphatWallFunction;
        Prt             0.85;
        value           nonuniform List<scalar> 
36
(
0.000153735
6.89079e-05
8.95771e-05
9.0546e-05
8.47658e-05
7.50056e-05
6.48562e-05
5.44224e-05
4.46963e-05
3.67078e-05
3.04262e-05
2.5438e-05
2.16588e-05
2.0299e-05
2.07373e-05
2.84826e-05
4.9727e-05
7.39017e-05
6.6591e-05
6.65902e-05
9.62714e-05
0.000113514
0.000155652
0.000176245
0.000167498
0.000154356
0.000153733
0.00016326
0.000156151
0.000114312
6.89071e-05
0.00011431
0.000100141
0.000165619
0.000136503
0.00016894
)
;
    }
    ceiling
    {
        type            compressible::alphatWallFunction;
        Prt             0.85;
        value           nonuniform List<scalar> 
43
(
0.000336901
0.000344657
0.000352216
0.000376007
0.00036911
0.000357591
0.000327545
0.000305943
0.000286776
0.000269244
0.000252896
0.000237992
0.0002246
0.000211999
0.00019979
0.000187764
0.000175845
0.000164072
0.000152579
0.00014158
0.00013133
0.000122093
0.000114114
0.000107618
0.000102854
0.000100168
0.000100063
0.000103053
0.000109669
0.000119247
0.000130448
0.000142087
0.000154831
0.000173702
0.000198934
0.000221597
0.000230769
0.000221954
0.000209335
0.000191002
0.000483218
0.00056824
0.000333155
)
;
    }
    sWall
    {
        type            compressible::alphatWallFunction;
        Prt             0.85;
        value           uniform 0.000335734;
    }
    nWall
    {
        type            compressible::alphatWallFunction;
        Prt             0.85;
        value           nonuniform List<scalar> 6(0.000154127 0.000184311 0.000216565 0.000217526 0.00022253 0.00019065);
    }
    sideWalls
    {
        type            empty;
    }
    glass1
    {
        type            compressible::alphatWallFunction;
        Prt             0.85;
        value           nonuniform List<scalar> 9(0.000116099 0.000192183 0.000256145 0.000316443 0.000373292 0.000428046 0.00047866 0.000489091 0.000476245);
    }
    glass2
    {
        type            compressible::alphatWallFunction;
        Prt             0.85;
        value           nonuniform List<scalar> 2(0.00022486 0.000221973);
    }
    sun
    {
        type            compressible::alphatWallFunction;
        Prt             0.85;
        value           nonuniform List<scalar> 
14
(
0.000119478
0.00012343
0.000116208
0.000120855
0.000125467
0.000129659
0.000133479
0.000137035
0.000140461
0.00014394
0.000147179
0.000149747
0.000151613
0.000152966
)
;
    }
    Table_master
    {
        type            compressible::alphatWallFunction;
        Prt             0.85;
        value           nonuniform List<scalar> 9(6.54587e-05 4.48188e-05 3.4251e-05 2.83771e-05 2.49776e-05 2.2752e-05 2.08595e-05 2.06539e-05 4.12692e-05);
    }
    Table_slave
    {
        type            compressible::alphatWallFunction;
        Prt             0.85;
        value           nonuniform List<scalar> 9(0.000120797 0.000123602 0.000129121 0.000136733 0.000146208 0.000159129 0.000170602 0.000176624 0.000176985);
    }
    inlet
    {
        type            fixedValue;
        value           uniform 1.94e-05;
    }
    outlet
    {
        type            zeroGradient;
    }
}


// ************************************************************************* //
