/*--------------------------------*- C++ -*----------------------------------*\
  =========                 |
  \\      /  F ield         | OpenFOAM: The Open Source CFD Toolbox
   \\    /   O peration     | Website:  https://openfoam.org
    \\  /    A nd           | Version:  6
     \\/     M anipulation  |
\*---------------------------------------------------------------------------*/
FoamFile
{
    version     2.0;
    format      ascii;
    class       volScalarField;
    location    "800";
    object      epsilon;
}
// * * * * * * * * * * * * * * * * * * * * * * * * * * * * * * * * * * * * * //

dimensions      [0 2 -3 0 0 0 0];

internalField   nonuniform List<scalar> 
458
(
0.000133626
0.000146801
0.000122718
0.000137861
0.000154145
0.000170088
0.000185597
0.000200904
0.000216478
0.000233143
0.000249455
0.000262941
0.000273053
0.000280552
0.000284868
2.77254e-05
5.74823e-05
5.9271e-05
4.91542e-05
3.49415e-05
2.35386e-05
1.48626e-05
9.08677e-06
5.71243e-06
3.77418e-06
2.61088e-06
1.91922e-06
1.70569e-06
1.77237e-06
3.28465e-06
1.18259e-05
3.35345e-05
2.5258e-05
0.000614393
0.00139263
0.000146965
0.000111432
0.000115043
0.000120782
0.000127192
0.000135151
0.000145748
0.000160103
0.000177856
0.000197429
0.000217108
0.000235368
0.000261823
0.000342454
0.000298707
0.000116865
7.92086e-05
0.000100152
7.33639e-05
5.9811e-05
4.74668e-05
2.48602e-05
1.28972e-05
6.91725e-06
4.09341e-06
2.7265e-06
2.0106e-06
1.58941e-06
1.43701e-06
2.32195e-06
1.26133e-05
3.68352e-05
0.000136119
7.05999e-05
0.00150968
0.00452994
0.000315113
0.00012518
0.000118704
0.000123911
0.000131191
0.000140738
0.000153129
0.000168645
0.000186973
0.000205066
0.000220065
0.000230358
0.000239575
0.000257106
0.000285866
0.000357815
0.000198228
0.00017518
0.00010137
8.55623e-05
8.37658e-05
2.39872e-05
9.07598e-06
4.84253e-06
3.22824e-06
2.49343e-06
2.08234e-06
1.77269e-06
1.74103e-06
7.44153e-06
0.000101624
0.000126254
0.000386958
0.000114158
0.00295402
0.0100802
0.000738708
0.00015933
0.000131903
0.000138463
0.000148913
0.000161874
0.000177736
0.000196777
0.000219131
0.000240657
0.000256521
0.000264748
0.000266991
0.000268272
0.000278621
0.000313821
0.000380243
0.000155783
8.59461e-05
7.21206e-05
7.68534e-05
9.65381e-05
0.000137065
0.000146774
0.000167272
0.000198758
0.000243521
0.000315435
0.000390863
0.000435144
0.000437919
0.000308359
0.000247544
0.00033067
0.000295274
0.00501466
0.0177124
0.00171078
0.000239043
0.000152958
0.000156592
0.000170751
0.00018999
0.000214299
0.000243857
0.000277838
0.000310094
0.000331421
0.000339826
0.000336922
0.000325464
0.000308409
0.000281994
0.000224878
0.000134386
8.79465e-05
7.016e-05
6.8007e-05
7.3621e-05
8.25974e-05
9.47567e-05
0.000116361
0.0001494
0.000195811
0.000258618
0.000331199
0.000381124
0.000394587
0.00035716
0.000294526
0.000277106
0.000292523
0.000432984
0.000370015
0.00028803
0.0077932
0.025042
0.00396853
0.000564513
0.000242239
0.000203252
0.000207606
0.000228512
0.000261363
0.000306162
0.000363214
0.000410661
0.000434318
0.000437456
0.000426537
0.000406195
0.000376238
0.000327736
0.000255268
0.00017678
0.00011992
8.93818e-05
7.67305e-05
7.38803e-05
7.81536e-05
9.21146e-05
0.000120409
0.000166388
0.000231546
0.000313452
0.000404533
0.000491748
0.000547042
0.000560238
0.000483996
0.000389467
0.000351704
0.000376548
0.000525272
0.000499565
0.0111862
0.0289518
0.00920547
0.0026011
0.00100855
0.000538614
0.000395765
0.000364507
0.000380762
0.000428337
0.000515968
0.000563676
0.000568791
0.000548602
0.000515845
0.000477362
0.000433066
0.00037449
0.000298538
0.00021934
0.000155736
0.000114685
9.17491e-05
8.05555e-05
7.97671e-05
9.39027e-05
0.000129753
0.000192277
0.000281901
0.000392231
0.000511329
0.000627839
0.000734782
0.000836734
0.000950041
0.000872477
0.000847749
0.000774602
0.00096972
0.000826718
0.0120085
0.0345924
0.0178586
0.0117101
0.00681565
0.00353267
0.00189148
0.00120716
0.000945967
0.000867192
0.000850785
0.000803666
0.000737959
0.000666851
0.000596967
0.000530495
0.000466157
0.000398212
0.000323017
0.000247746
0.000184029
0.000137833
0.000108018
9.02268e-05
8.41241e-05
9.64078e-05
0.00013932
0.000220619
0.000338908
0.000482372
0.000634034
0.000784144
0.000940851
0.00114261
0.00145788
0.00191586
0.00222299
0.00232627
0.00306095
0.000952196
0.0110365
0.0186817
0.0143325
0.0109404
0.00827236
0.00592975
0.00409008
0.00283767
0.00206485
0.00161279
0.00129409
0.00106237
0.000888949
0.000753895
0.000643928
0.000550457
0.000467746
0.000391417
0.000319233
0.000252927
0.000196463
0.00015237
0.00012054
9.94052e-05
8.85703e-05
9.34968e-05
0.000135947
0.000229471
0.000375921
0.000555802
0.000734698
0.000882324
0.000973926
0.00100266
0.000994813
0.00101854
0.00107457
0.00115378
0.00122918
0.000914684
0.00380467
0.00474841
0.00498865
0.00447936
0.00361541
0.00278378
0.00213487
0.0016665
0.00132783
0.00107953
0.000891627
0.000744152
0.000623981
0.000522627
0.000434914
0.000357952
0.000290493
0.000232554
0.000184723
0.00014727
0.000119792
0.000101565
9.24778e-05
9.49824e-05
0.000118147
0.000177362
0.000300926
0.000502018
0.000749329
0.00105535
0.00142866
0.00184388
0.00217059
0.00219755
0.00197663
0.00169795
0.00128465
0.000839613
0.00318283
0.00730047
0.00587169
0.0048742
0.0037777
0.00290838
0.00223071
0.00172747
0.00135679
0.00107928
0.000868496
0.000704753
0.000574069
0.000467045
0.000377813
0.000303064
0.000241099
0.00019098
0.000151905
0.000122931
0.000103015
9.12464e-05
8.71323e-05
9.09316e-05
0.000104151
0.000129729
0.000172335
0.000239988
0.000338481
0.000484606
0.000700786
0.000995514
0.00136371
0.00166412
0.00170267
0.00151768
0.0011968
0.000901804
0.00333026
0.00358258
0.00384209
0.00476703
0.00450398
0.0040731
0.00307467
0.00247076
0.0020089
0.00164268
0.00134595
0.00111024
0.00092465
0.00077104
0.000640259
0.00052753
0.000430379
0.000347521
0.00027816
0.000221517
0.000176556
0.000141934
0.000116142
9.77453e-05
8.56357e-05
7.92951e-05
7.90469e-05
8.60994e-05
0.000103274
0.000132241
0.00017289
0.000223711
0.000290536
0.000413811
0.000630925
0.00088522
0.00100606
0.000889761
0.000740174
0.000555877
)
;

boundaryField
{
    floor
    {
        Cmu             0.09;
        kappa           0.41;
        E               9.8;
        type            epsilonWallFunction;
        value           nonuniform List<scalar> 
36
(
0.000284868
2.77254e-05
5.74823e-05
5.9271e-05
4.91542e-05
3.49415e-05
2.35386e-05
1.48626e-05
9.08677e-06
5.71243e-06
3.77418e-06
2.61088e-06
1.91922e-06
1.70569e-06
1.77237e-06
3.28465e-06
1.18259e-05
3.35345e-05
2.5258e-05
2.5258e-05
7.05999e-05
0.000114158
0.000295274
0.000432984
0.000370015
0.00028803
0.000284868
0.000342454
0.000298707
0.000116865
2.77254e-05
0.000116865
7.92086e-05
0.000357815
0.000198228
0.000380243
)
;
    }
    ceiling
    {
        Cmu             0.09;
        kappa           0.41;
        E               9.8;
        type            epsilonWallFunction;
        value           nonuniform List<scalar> 
43
(
0.00333026
0.00358258
0.00384209
0.00476703
0.00450398
0.0040731
0.00307467
0.00247076
0.0020089
0.00164268
0.00134595
0.00111024
0.00092465
0.00077104
0.000640259
0.00052753
0.000430379
0.000347521
0.00027816
0.000221517
0.000176556
0.000141934
0.000116142
9.77453e-05
8.56357e-05
7.92951e-05
7.90469e-05
8.60994e-05
0.000103274
0.000132241
0.00017289
0.000223711
0.000290536
0.000413811
0.000630925
0.00088522
0.00100606
0.000889761
0.000740174
0.000555877
0.0110365
0.0186817
0.00318283
)
;
    }
    sWall
    {
        Cmu             0.09;
        kappa           0.41;
        E               9.8;
        type            epsilonWallFunction;
        value           uniform 0.00333026;
    }
    nWall
    {
        Cmu             0.09;
        kappa           0.41;
        E               9.8;
        type            epsilonWallFunction;
        value           nonuniform List<scalar> 6(0.00028803 0.000499565 0.000826718 0.000839613 0.000901804 0.000555877);
    }
    sideWalls
    {
        type            empty;
    }
    glass1
    {
        Cmu             0.09;
        kappa           0.41;
        E               9.8;
        type            epsilonWallFunction;
        value           nonuniform List<scalar> 9(0.000133626 0.000614393 0.00150968 0.00295402 0.00501466 0.0077932 0.0111862 0.0120085 0.0110365);
    }
    glass2
    {
        Cmu             0.09;
        kappa           0.41;
        E               9.8;
        type            epsilonWallFunction;
        value           nonuniform List<scalar> 2(0.000952196 0.000914684);
    }
    sun
    {
        Cmu             0.09;
        kappa           0.41;
        E               9.8;
        type            epsilonWallFunction;
        value           nonuniform List<scalar> 
14
(
0.000133626
0.000146801
0.000122718
0.000137861
0.000154145
0.000170088
0.000185597
0.000200904
0.000216478
0.000233143
0.000249455
0.000262941
0.000273053
0.000280552
)
;
    }
    Table_master
    {
        Cmu             0.09;
        kappa           0.41;
        E               9.8;
        type            epsilonWallFunction;
        value           nonuniform List<scalar> 9(2.39872e-05 9.07598e-06 4.84253e-06 3.22824e-06 2.49343e-06 2.08234e-06 1.77269e-06 1.74103e-06 7.44153e-06);
    }
    Table_slave
    {
        Cmu             0.09;
        kappa           0.41;
        E               9.8;
        type            epsilonWallFunction;
        value           nonuniform List<scalar> 9(0.000137065 0.000146774 0.000167272 0.000198758 0.000243521 0.000315435 0.000390863 0.000435144 0.000437919);
    }
    inlet
    {
        type            turbulentMixingLengthDissipationRateInlet;
        mixingLength    0.01;
        phi             phi;
        k               k;
        value           uniform 0.00193196;
    }
    outlet
    {
        type            zeroGradient;
    }
}


// ************************************************************************* //
