/*--------------------------------*- C++ -*----------------------------------*\
  =========                 |
  \\      /  F ield         | OpenFOAM: The Open Source CFD Toolbox
   \\    /   O peration     | Website:  https://openfoam.org
    \\  /    A nd           | Version:  6
     \\/     M anipulation  |
\*---------------------------------------------------------------------------*/
FoamFile
{
    version     2.0;
    format      ascii;
    class       surfaceScalarField;
    location    "800";
    object      phi;
}
// * * * * * * * * * * * * * * * * * * * * * * * * * * * * * * * * * * * * * //

dimensions      [1 0 -1 0 0 0 0];

internalField   nonuniform List<scalar> 
850
(
-0.00245599
0.00251953
-0.00267116
0.000215238
-0.00300615
0.000335054
-0.00339325
0.000387165
-0.00376636
0.000373183
-0.00409477
0.000328475
-0.00435577
0.000261073
-0.00452697
0.000171264
-0.00458423
5.73282e-05
-0.00449961
-8.45556e-05
-0.00424236
-0.000257173
-0.0037855
-0.000456793
-0.00308269
-0.000702737
-0.00195986
-0.00112276
-0.00195774
-0.000230105
0.000234098
0.000118489
-0.000348519
0.000568677
-0.000450104
0.000888558
-0.000319793
0.000945414
-5.67703e-05
0.00076155
0.000183944
0.000606455
0.000155165
0.000511126
9.53896e-05
0.000438948
7.22292e-05
0.000368051
7.09407e-05
0.000297984
7.01066e-05
0.00028315
1.48706e-05
0.000410605
-0.000127432
0.000482034
-7.14262e-05
0.000488111
-6.06308e-06
0.000519005
-3.08783e-05
0.000546685
-2.76545e-05
0.000550961
-0.00182186
0.00450662
-0.00243278
0.000826228
-0.00294933
0.000851668
-0.00339735
0.000835253
-0.00380401
0.000779902
-0.00416191
0.000686438
-0.00445577
0.000555001
-0.00466698
0.000382542
-0.00477582
0.000166231
-0.00476484
-9.54612e-05
-0.00461945
-0.000402498
-0.00431901
-0.000757168
-0.00385038
-0.00117129
-0.00332589
-0.00164719
-0.00333247
-0.00195108
-0.00156346
-0.00176506
0.000285897
-0.00184523
0.000298876
0.000628627
-0.000385215
0.000431619
-0.000151425
0.000284963
-0.000303351
0.000462206
-0.000496929
0.000575069
-0.000169518
0.000431719
0.000327397
0.000420564
0.000166413
0.00042794
8.80929e-05
0.000436251
6.39804e-05
0.000443609
6.36353e-05
0.000453498
6.0267e-05
0.000475965
-7.54337e-06
0.000498905
-0.000150327
0.000452568
-2.5075e-05
0.000388874
5.76083e-05
0.000371069
-1.30996e-05
0.00028742
5.60097e-05
0.00084854
-0.00136874
0.00612143
-0.002129
0.00158655
-0.00268951
0.00141224
-0.00313939
0.00128519
-0.0035456
0.00118618
-0.00391023
0.00105114
-0.00422156
0.000866391
-0.00446339
0.00062444
-0.0046182
0.000321098
-0.0046709
-4.26932e-05
-0.00461131
-0.000462022
-0.0044393
-0.000929111
-0.00418793
-0.0014226
-0.00395487
-0.00188018
-0.0037414
-0.00216448
-0.00323168
-0.00227471
-0.00269962
-0.0023772
-0.00239079
-0.00100738
0.000634441
-0.00114961
-9.0965e-06
-0.00108005
-0.000372812
-0.000892758
-0.000684112
-0.000119568
-0.00094259
0.000208086
0.000374766
0.000463102
0.000527302
0.000591145
0.000651618
0.000644283
0.000494161
0.000469241
0.000838315
-0.000311505
0.000583473
0.000241736
-1.73536e-05
0.000656856
0.000846187
-0.0010348
0.00746824
-0.00182052
0.00237233
-0.00228635
0.00187813
-0.00267562
0.00167452
-0.0030378
0.00154842
-0.0033741
0.00138749
-0.00367447
0.00116682
-0.0039243
0.000874331
-0.00410663
0.000503496
-0.0042037
5.44372e-05
-0.00420606
-0.000459606
-0.00412955
-0.00100556
-0.00402126
-0.00153083
-0.00394125
-0.00196012
-0.00388082
-0.00222485
-0.0038186
-0.00233685
-0.00389784
-0.00229789
-0.00450391
-0.00178464
-0.00359133
-0.000900831
-0.00264963
-0.000307169
-0.00235276
-0.000305886
-0.00221533
-0.000510155
-0.00221871
-0.000680651
-0.00248263
-0.000678593
-0.00203845
-0.000444253
-0.00165329
-0.000385235
-0.00123881
-0.000414555
-0.000748201
-0.000490685
-0.000149088
-0.00059919
0.000553731
-0.000702892
0.00130267
-0.000749016
0.00200419
-0.000701596
0.00252695
-0.000522836
0.0023711
-0.000155587
0.0020534
0.000559488
0.0014088
0.0013015
0.00227088
-0.00077859
0.00861421
-0.00152885
0.00312265
-0.00178166
0.002131
-0.00205439
0.00194731
-0.00233458
0.00182868
-0.00260339
0.00165636
-0.00284954
0.00141303
-0.00306162
0.00108647
-0.00322631
0.000668245
-0.0033282
0.000156386
-0.00335062
-0.000437131
-0.00330956
-0.00104656
-0.00325278
-0.00158756
-0.0032186
-0.00199424
-0.00320874
-0.00223466
-0.00323265
-0.00231288
-0.00333495
-0.00219554
-0.00335228
-0.00176724
-0.00305257
-0.00120048
-0.00256812
-0.000791548
-0.00221117
-0.000662765
-0.00202881
-0.000692445
-0.00197021
-0.000739178
-0.00193568
-0.000713051
-0.00173416
-0.000645705
-0.00147151
-0.000647811
-0.00116181
-0.000724179
-0.000792761
-0.000859664
-0.000356227
-0.00103565
0.000154622
-0.00121366
0.000722192
-0.00131651
0.00130231
-0.00128164
0.00182052
-0.00104097
0.00214374
-0.000478746
0.00228788
0.000415414
0.00232863
0.00126081
0.00311673
0.00148283
0.00248793
0.000644686
0.00187795
0.000626549
0.00194585
-0.000717922
0.00974703
-0.00136775
0.00377253
-0.00121348
0.0019768
-0.00126786
0.00200175
-0.00146347
0.00202435
-0.00165732
0.00185026
-0.00182004
0.00157581
-0.00195143
0.00121792
-0.00204947
0.000766338
-0.00210655
0.000213517
-0.00210526
-0.000438371
-0.00206757
-0.00108419
-0.00203997
-0.0016151
-0.0020474
-0.00198677
-0.00209146
-0.00219054
-0.00217152
-0.00223276
-0.00226727
-0.00209973
-0.0022565
-0.00177795
-0.00208679
-0.00137014
-0.00183469
-0.00104359
-0.00163219
-0.000865198
-0.00152769
-0.000796883
-0.00149661
-0.000770197
-0.00146865
-0.00074095
-0.00138911
-0.000725184
-0.00126775
-0.000769112
-0.00111016
-0.000881705
-0.000914806
-0.00105494
-0.000681326
-0.00126906
-0.000408526
-0.00148639
-7.53366e-05
-0.00164962
0.000329148
-0.00168605
0.000792937
-0.00150469
0.00132209
-0.00100783
0.00183705
-9.94835e-05
0.00227092
0.000826997
0.00266065
0.00109316
0.00240828
0.000897118
0.00156568
0.00146921
0.00356539
-0.000911036
0.0111156
-0.00107322
0.00393477
-0.000260465
0.0011641
-6.57305e-05
0.00180707
-0.000250076
0.00220875
-0.000454876
0.00205512
-0.000569493
0.00169048
-0.000610046
0.00125852
-0.000600193
0.000756537
-0.000547371
0.000160747
-0.000482241
-0.000503449
-0.000445557
-0.00112082
-0.000466601
-0.00159401
-0.000548335
-0.00190498
-0.00067777
-0.00206106
-0.000835287
-0.0020752
-0.000981275
-0.00195369
-0.00104957
-0.00170961
-0.00101683
-0.00140283
-0.000934027
-0.00112634
-0.000869236
-0.000929939
-0.000856261
-0.000809808
-0.000887787
-0.000738621
-0.000933455
-0.000695232
-0.000972676
-0.000685913
-0.00100709
-0.000734648
-0.00103772
-0.00085102
-0.00106401
-0.00102859
-0.00108293
-0.00125007
-0.00108589
-0.00148335
-0.00105237
-0.00168307
-0.000949656
-0.00178868
-0.000733637
-0.00172063
-0.00034714
-0.00139426
0.000291506
-0.000738064
0.000996063
0.000122505
0.00162278
0.000466512
0.00209593
0.000424038
0.00178092
0.0017843
0.00540221
0.00202217
0.00960414
0.0024415
0.0035155
0.00280212
0.000803538
0.00253308
0.00207616
0.00204315
0.00269874
0.00161282
0.0024855
0.00136953
0.00193383
0.00130068
0.00132742
0.00134352
0.000713749
0.00146438
3.99423e-05
0.00156014
-0.000599155
0.00153755
-0.00109818
0.00140668
-0.00146309
0.00119829
-0.00169654
0.00094206
-0.00180478
0.000666713
-0.00179981
0.000409
-0.00169594
0.000211628
-0.00151219
9.32243e-05
-0.00128438
2.80424e-05
-0.00106112
-2.61114e-05
-0.000875743
-9.809e-05
-0.000737787
-0.000194983
-0.000641687
-0.000312017
-0.000578157
-0.000450556
-0.000547335
-0.000623641
-0.000561524
-0.000839996
-0.00063462
-0.00110383
-0.000764706
-0.00141272
-0.000941109
-0.00175791
-0.00113808
-0.00211609
-0.00132481
-0.0024415
-0.00146319
-0.00266481
-0.00149724
-0.00270182
-0.00135718
-0.00246125
-0.00097856
-0.00194994
-0.000388735
-0.00163252
0.000149187
-0.00172634
0.000517968
-0.00169482
0.00175289
0.00400583
0.0101665
0.0136757
0.0123619
0.00211739
0.0104502
0.00398794
0.00862708
0.00452191
0.0071269
0.00398574
0.00604127
0.00301951
0.00535091
0.00201783
0.00493517
0.00112954
0.00458848
0.000386689
0.00421774
-0.000228369
0.00383416
-0.000714542
0.00343088
-0.00105976
0.00300801
-0.00127363
0.00257708
-0.00137381
0.00215645
-0.00137914
0.00176902
-0.00130846
0.00143862
-0.00118175
0.00117768
-0.0010234
0.000977086
-0.000860487
0.000814706
-0.000713326
0.000668143
-0.000591187
0.000521439
-0.000494946
0.000364206
-0.00042089
0.000181325
-0.000364421
-5.66399e-05
-0.000323533
-0.000377505
-0.000313724
-0.000799661
-0.000342506
-0.00133948
-0.000401234
-0.00201079
-0.000466698
-0.00281956
-0.00051596
-0.00375392
-0.000528746
-0.00478062
-0.000470446
-0.00583488
-0.000302833
-0.00681421
8.61081e-07
-0.00768835
0.000485494
-0.00866896
0.00112989
-0.00975287
0.00160197
-0.00842235
0.000422464
-0.00408833
0.00918019
0.00325499
0.00814359
0.00502455
0.00750158
0.00516395
0.00703794
0.00444942
0.00670141
0.00335608
0.00648798
0.0022313
0.00632156
0.00129601
0.00611677
0.000591522
0.00580995
7.85039e-05
0.00539207
-0.000296618
0.0048991
-0.000566746
0.00436835
-0.000742841
0.00383134
-0.000836752
0.00331437
-0.000862134
0.00283906
-0.000833105
0.00242166
-0.000764314
0.0020699
-0.000671608
0.00178031
-0.00057086
0.00154133
-0.000474303
0.0013385
-0.000388324
0.00115794
-0.000314351
0.000987798
-0.000250715
0.000817893
-0.000194485
0.000638545
-0.000144156
0.000429178
-0.000104331
0.000164421
-7.77209e-05
-0.000170067
-6.67096e-05
-0.000569702
-6.70088e-05
-0.00100651
-7.90884e-05
-0.00144164
-9.35436e-05
-0.00183739
-7.46089e-05
-0.00218435
4.42119e-05
-0.00252659
0.000343186
-0.00279363
0.00075263
-0.00266956
0.00100591
-0.00167583
0.000608336
-0.000294733
-0.000958549
-0.00430475
-0.00173318
0.00501285
0.000241283
0.0030501
0.0021046
0.00330066
0.00336935
0.00318469
0.00436295
0.00236252
0.00509028
0.00150401
0.00551237
0.000873959
0.00566527
0.000438656
0.00560978
0.00013404
0.00539493
-8.17316e-05
0.00506068
-0.000232452
0.00464845
-0.000330574
0.00419667
-0.000384933
0.00373775
-0.00040318
0.00329755
-0.000392861
0.00289477
-0.000361503
0.00254009
-0.000316888
0.00223601
-0.000266744
0.00197914
-0.0002174
0.0017635
-0.000172644
0.00158292
-0.000133744
0.00143229
-0.000100043
0.00130761
-6.97811e-05
0.00120531
-4.18225e-05
0.00111871
-1.76959e-05
0.0010384
2.61047e-06
0.000948928
2.27929e-05
0.000833654
4.82993e-05
0.000686582
6.80254e-05
0.000523656
6.94329e-05
0.000382934
6.61743e-05
0.000293288
0.000133933
0.000338469
0.000298093
0.000603601
0.00048759
0.00110333
0.000506268
0.00161055
0.000101203
0.00148885
-0.000836749
-0.00273056
-0.0119136
-0.014927
-0.00989736
-0.00683623
-0.00352769
-0.000336933
0.00203013
0.0035383
0.00441629
0.00485898
0.00499716
0.00491969
0.00469164
0.00436562
0.00398539
0.00358711
0.00319936
0.0028432
0.00253194
0.00227112
0.00205998
0.00189392
0.00176711
0.00167432
0.00161206
0.00157798
0.00156815
0.00157864
0.00160922
0.00166515
0.00174064
0.00181735
0.00189059
0.00203125
0.00233565
0.0028292
0.00334134
0.00344867
0.0026184
)
;

boundaryField
{
    floor
    {
        type            calculated;
        value           nonuniform List<scalar> 
36
(
0
0
0
0
0
0
0
0
0
0
0
0
0
0
0
0
0
0
0
-4.23546e-06
-1.01175e-05
-1.49553e-05
-1.58634e-05
-1.58401e-05
-1.6505e-05
-1.74074e-05
-2.04521e-06
-3.87475e-06
-4.05433e-06
-5.13192e-06
-3.92664e-06
-7.77458e-06
-9.23253e-06
-9.87154e-06
-1.2176e-05
-1.16646e-05
)
;
    }
    ceiling
    {
        type            calculated;
        value           nonuniform List<scalar> 
43
(
-1.71471e-05
-1.70429e-05
-1.67354e-05
-1.1005e-05
-7.85327e-06
-6.02706e-06
-4.51022e-06
-4.12721e-06
-3.99462e-06
-3.9999e-06
-4.09643e-06
-4.23007e-06
-4.36496e-06
-4.51057e-06
-4.67328e-06
-4.85848e-06
-5.07068e-06
-5.31315e-06
-5.58708e-06
-5.89054e-06
-6.21749e-06
-6.55746e-06
-6.89584e-06
-7.21464e-06
-7.49301e-06
-7.70712e-06
-7.83147e-06
-7.84951e-06
-7.75898e-06
-7.60536e-06
-7.43205e-06
-7.25267e-06
-7.03877e-06
-6.69269e-06
-6.25229e-06
-5.89226e-06
-5.78256e-06
-6.03461e-06
-6.38741e-06
-6.39549e-06
9.23187e-06
6.35102e-06
-2.46777e-05
)
;
    }
    sWall
    {
        type            calculated;
        value           uniform -0.000206212;
    }
    nWall
    {
        type            calculated;
        value           nonuniform List<scalar> 6(-5.04316e-05 -5.37969e-05 -5.58307e-05 -7.82141e-05 -8.52456e-05 -0.000105663);
    }
    sideWalls
    {
        type            empty;
        value           nonuniform 0();
    }
    glass1
    {
        type            calculated;
        value           nonuniform List<scalar> 9(-6.34819e-05 -0.000165167 -0.000246013 -0.000311952 -0.000367327 -0.000414837 -0.00045746 -0.000510683 -0.000571578);
    }
    glass2
    {
        type            calculated;
        value           nonuniform List<scalar> 2(-0.000298371 -0.000328099);
    }
    sun
    {
        type            calculated;
        value           uniform 0;
    }
    Table_master
    {
        type            calculated;
        value           nonuniform List<scalar> 9(-1.54279e-07 -1.54369e-07 -1.54393e-07 -1.54403e-07 -1.54403e-07 -1.54401e-07 -1.54424e-07 -1.54445e-07 -1.54448e-07);
    }
    Table_slave
    {
        type            calculated;
        value           nonuniform List<scalar> 9(1.53247e-07 1.53395e-07 1.53513e-07 1.53636e-07 1.53781e-07 1.53777e-07 1.53564e-07 1.53326e-07 1.53152e-07);
    }
    inlet
    {
        type            calculated;
        value           uniform -0.0103178;
    }
    outlet
    {
        type            calculated;
        value           nonuniform List<scalar> 2(0.0121369 0.00303048);
    }
}


// ************************************************************************* //
