/*--------------------------------*- C++ -*----------------------------------*\
  =========                 |
  \\      /  F ield         | OpenFOAM: The Open Source CFD Toolbox
   \\    /   O peration     | Website:  https://openfoam.org
    \\  /    A nd           | Version:  6
     \\/     M anipulation  |
\*---------------------------------------------------------------------------*/
FoamFile
{
    version     2.0;
    format      ascii;
    class       volScalarField;
    location    "1700";
    object      epsilon;
}
// * * * * * * * * * * * * * * * * * * * * * * * * * * * * * * * * * * * * * //

dimensions      [0 2 -3 0 0 0 0];

internalField   nonuniform List<scalar> 
458
(
0.000113891
0.000124081
9.76209e-05
0.000108659
0.000121298
0.000133965
0.00014658
0.000159379
0.000172844
0.000187856
0.000201432
0.000212811
0.000221994
0.000230129
0.000236618
9.95818e-06
1.27957e-05
1.08135e-05
6.97455e-06
5.18479e-06
3.5584e-06
2.87174e-06
3.3902e-06
4.64032e-06
6.24414e-06
7.56004e-06
7.68022e-06
8.30192e-06
9.77691e-06
1.26835e-05
1.7192e-05
1.67363e-05
9.46969e-06
0.000552948
0.00124125
0.000125472
8.35564e-05
8.55743e-05
9.01986e-05
9.54937e-05
0.000101983
0.000110442
0.000121788
0.000134802
0.000149215
0.000165195
0.000184303
0.000216127
0.000299053
0.000256835
8.04221e-05
2.28882e-05
4.92502e-05
2.70951e-05
1.39976e-05
8.34716e-06
4.64179e-06
4.7645e-06
7.1377e-06
1.10105e-05
1.50815e-05
1.86347e-05
2.24225e-05
2.69299e-05
3.25829e-05
3.57965e-05
3.5276e-05
4.07127e-05
1.50533e-05
0.0014098
0.00417756
0.000307246
9.591e-05
8.71922e-05
9.20927e-05
9.93914e-05
0.000108553
0.00011972
0.000132873
0.000146844
0.000159967
0.000171478
0.000181626
0.000192309
0.000208738
0.000236182
0.000311721
0.000107101
7.70039e-05
4.70763e-05
3.80639e-05
2.98196e-05
7.80703e-06
8.44497e-06
1.14535e-05
1.52569e-05
2.0035e-05
2.63938e-05
3.57985e-05
5.15577e-05
8.37615e-05
6.45931e-05
5.94866e-05
6.41715e-05
5.95378e-05
0.00280231
0.00930019
0.000760385
0.000129579
9.5759e-05
0.00010121
0.000112121
0.00012577
0.000141871
0.00016008
0.000178227
0.000193165
0.000204472
0.000213222
0.000219872
0.000225283
0.000234372
0.000257087
0.000313429
0.000106684
6.99407e-05
5.90399e-05
6.09313e-05
7.11693e-05
9.59485e-05
9.39986e-05
9.3824e-05
9.51612e-05
9.86393e-05
0.000105305
0.000116756
0.00013571
0.000171859
0.000118871
0.000137823
0.00015454
0.000194718
0.0047508
0.0160835
0.00170845
0.000206151
0.000111336
0.000114191
0.000129825
0.000150914
0.000176715
0.00020645
0.000232884
0.000250704
0.000261731
0.000269806
0.000275685
0.000276905
0.000269742
0.000246657
0.000196687
0.000126548
8.95881e-05
7.39854e-05
6.85249e-05
6.73252e-05
6.76952e-05
6.77882e-05
6.96006e-05
7.37882e-05
8.12021e-05
9.30899e-05
0.000111109
0.000137058
0.000171471
0.000205436
0.000254264
0.000315515
0.000354145
0.00053317
0.000372928
0.000253932
0.00727641
0.0222771
0.00352663
0.000456597
0.000172265
0.000151669
0.000168751
0.000199021
0.000240393
0.000291621
0.000324797
0.00033739
0.000338728
0.000338619
0.000341302
0.000344603
0.000340351
0.000314502
0.00026059
0.000196912
0.000148444
0.000119488
0.000104342
9.66818e-05
9.25853e-05
9.07405e-05
9.16456e-05
9.60567e-05
0.000105288
0.000121363
0.000146896
0.000184621
0.000236324
0.000301231
0.000379256
0.000469072
0.000541861
0.000540456
0.000316516
0.000285767
0.0102859
0.0251122
0.00726819
0.0017925
0.000632745
0.000381805
0.000342378
0.000359856
0.000414192
0.000478382
0.000490575
0.000472066
0.000443
0.000417313
0.000402423
0.000398117
0.000395327
0.000376835
0.000332764
0.000274275
0.000220961
0.000182778
0.000158981
0.000144903
0.00013655
0.000132129
0.000131528
0.000135538
0.000146005
0.000165895
0.000198621
0.000246597
0.000310399
0.000387852
0.000473406
0.000554722
0.000603468
0.00058802
0.000501252
0.000274816
0.0110109
0.0311869
0.0151319
0.00858766
0.00419361
0.00210931
0.00133784
0.00105217
0.000958922
0.000869103
0.00076908
0.000671303
0.000585683
0.000517661
0.00046962
0.000441335
0.000427441
0.000413945
0.000385863
0.000342452
0.000295875
0.000256972
0.000229541
0.00021164
0.000200442
0.000194166
0.00019235
0.000195775
0.000207065
0.000231438
0.000275568
0.000342375
0.000429238
0.000526882
0.000624897
0.000721344
0.000819942
0.000930957
0.00106306
0.000742272
0.0099966
0.0166415
0.018123
0.0134199
0.00890191
0.00573346
0.00378932
0.0026412
0.00192183
0.00144627
0.00112456
0.000899805
0.000739961
0.000626418
0.000547794
0.000496475
0.000465732
0.000446572
0.000428268
0.000404309
0.00037598
0.000348404
0.000325618
0.00030893
0.000297792
0.000291113
0.000288036
0.000288446
0.000293879
0.000309575
0.000340818
0.000391572
0.000469759
0.000584635
0.000749743
0.000952907
0.00111725
0.0012565
0.00232464
0.00111236
0.0238681
0.0349293
0.014514
0.00807043
0.00502961
0.00335957
0.00236663
0.0017336
0.00131712
0.00104022
0.000856024
0.000735082
0.000658251
0.000612385
0.000587665
0.000575948
0.000569965
0.000562548
0.000550913
0.000536779
0.000523165
0.000512244
0.000504695
0.000499963
0.000496807
0.000493892
0.000490798
0.000491246
0.000493239
0.000502147
0.000523668
0.000560829
0.000606731
0.000645605
0.000666569
0.000652056
0.000813598
0.00111018
0.0202051
0.0253307
0.0118775
0.00694631
0.00452721
0.00316183
0.0023443
0.00184245
0.0015261
0.00132911
0.00121408
0.0011584
0.00114635
0.00116404
0.00119687
0.00123041
0.00125312
0.00125452
0.00123617
0.00120787
0.00117899
0.00115497
0.00113709
0.00112354
0.00111034
0.00109221
0.00106408
0.00101796
0.000954098
0.000881084
0.000816121
0.000777324
0.000767287
0.000764864
0.000743985
0.00067307
0.000860091
0.00108158
0.00196534
0.00409258
0.0103575
0.00896575
0.00644658
0.00473531
0.00349017
0.00261725
0.00199974
0.00155455
0.00125181
0.00103971
0.000889716
0.000786272
0.000720082
0.000684531
0.000673548
0.000680509
0.000698203
0.000722937
0.000746074
0.00076155
0.000768711
0.000769561
0.000766694
0.000762224
0.000757461
0.000752991
0.000749044
0.000746371
0.000743352
0.000737415
0.000724059
0.000696685
0.000659409
0.000620314
0.000563992
0.000477323
0.00044665
0.00065102
)
;

boundaryField
{
    floor
    {
        Cmu             0.09;
        kappa           0.41;
        E               9.8;
        type            epsilonWallFunction;
        value           nonuniform List<scalar> 
36
(
0.000236618
9.95818e-06
1.27957e-05
1.08135e-05
6.97455e-06
5.18479e-06
3.5584e-06
2.87174e-06
3.3902e-06
4.64032e-06
6.24414e-06
7.56004e-06
7.68022e-06
8.30192e-06
9.77691e-06
1.26835e-05
1.7192e-05
1.67363e-05
9.46969e-06
9.46969e-06
1.50533e-05
5.95378e-05
0.000194718
0.00053317
0.000372928
0.000253932
0.000236618
0.000299053
0.000256835
8.04221e-05
9.95818e-06
8.04221e-05
2.28882e-05
0.000311721
0.000107101
0.000313429
)
;
    }
    ceiling
    {
        Cmu             0.09;
        kappa           0.41;
        E               9.8;
        type            epsilonWallFunction;
        value           nonuniform List<scalar> 
43
(
0.00196534
0.00409258
0.0103575
0.00896575
0.00644658
0.00473531
0.00349017
0.00261725
0.00199974
0.00155455
0.00125181
0.00103971
0.000889716
0.000786272
0.000720082
0.000684531
0.000673548
0.000680509
0.000698203
0.000722937
0.000746074
0.00076155
0.000768711
0.000769561
0.000766694
0.000762224
0.000757461
0.000752991
0.000749044
0.000746371
0.000743352
0.000737415
0.000724059
0.000696685
0.000659409
0.000620314
0.000563992
0.000477323
0.00044665
0.00065102
0.0099966
0.0166415
0.0202051
)
;
    }
    sWall
    {
        Cmu             0.09;
        kappa           0.41;
        E               9.8;
        type            epsilonWallFunction;
        value           uniform 0.00196534;
    }
    nWall
    {
        Cmu             0.09;
        kappa           0.41;
        E               9.8;
        type            epsilonWallFunction;
        value           nonuniform List<scalar> 6(0.000253932 0.000285767 0.000274816 0.00111018 0.00108158 0.00065102);
    }
    sideWalls
    {
        type            empty;
    }
    glass1
    {
        Cmu             0.09;
        kappa           0.41;
        E               9.8;
        type            epsilonWallFunction;
        value           nonuniform List<scalar> 9(0.000113891 0.000552948 0.0014098 0.00280231 0.0047508 0.00727641 0.0102859 0.0110109 0.0099966);
    }
    glass2
    {
        Cmu             0.09;
        kappa           0.41;
        E               9.8;
        type            epsilonWallFunction;
        value           nonuniform List<scalar> 2(0.000742272 0.00111236);
    }
    sun
    {
        Cmu             0.09;
        kappa           0.41;
        E               9.8;
        type            epsilonWallFunction;
        value           nonuniform List<scalar> 
14
(
0.000113891
0.000124081
9.76209e-05
0.000108659
0.000121298
0.000133965
0.00014658
0.000159379
0.000172844
0.000187856
0.000201432
0.000212811
0.000221994
0.000230129
)
;
    }
    Table_master
    {
        Cmu             0.09;
        kappa           0.41;
        E               9.8;
        type            epsilonWallFunction;
        value           nonuniform List<scalar> 9(7.80703e-06 8.44497e-06 1.14535e-05 1.52569e-05 2.0035e-05 2.63938e-05 3.57985e-05 5.15577e-05 8.37615e-05);
    }
    Table_slave
    {
        Cmu             0.09;
        kappa           0.41;
        E               9.8;
        type            epsilonWallFunction;
        value           nonuniform List<scalar> 9(9.59485e-05 9.39986e-05 9.3824e-05 9.51612e-05 9.86393e-05 0.000105305 0.000116756 0.00013571 0.000171859);
    }
    inlet
    {
        type            turbulentMixingLengthDissipationRateInlet;
        mixingLength    0.01;
        phi             phi;
        k               k;
        value           uniform 3.77337e-06;
    }
    outlet
    {
        type            zeroGradient;
    }
}


// ************************************************************************* //
