/*--------------------------------*- C++ -*----------------------------------*\
  =========                 |
  \\      /  F ield         | OpenFOAM: The Open Source CFD Toolbox
   \\    /   O peration     | Website:  https://openfoam.org
    \\  /    A nd           | Version:  6
     \\/     M anipulation  |
\*---------------------------------------------------------------------------*/
FoamFile
{
    version     2.0;
    format      ascii;
    class       volScalarField;
    location    "1600";
    object      nut;
}
// * * * * * * * * * * * * * * * * * * * * * * * * * * * * * * * * * * * * * //

dimensions      [0 2 -1 0 0 0 0];

internalField   nonuniform List<scalar> 
458
(
0.000708136
0.000738577
0.00072302
0.000747797
0.000769491
0.000788033
0.000804121
0.000818517
0.000832018
0.000845598
0.000855975
0.000862094
0.000864262
0.000864645
0.000863937
0.000548424
0.000516268
0.000498488
0.000490344
0.000482257
0.000466631
0.000448817
0.000431991
0.000416041
0.000400821
0.000386217
0.000372098
0.000358277
0.000344436
0.000330069
0.000314147
0.000300336
0.000272906
0.00109926
0.00180309
0.00153129
0.00181198
0.00194737
0.00208673
0.00222305
0.00234567
0.00243924
0.00248323
0.00248892
0.00242487
0.00225287
0.0019208
0.00139412
0.000886888
0.000829201
0.000783438
0.000658721
0.00111834
0.00148982
0.00169975
0.0016935
0.00136282
0.00122558
0.00112163
0.00103216
0.000951308
0.000876848
0.000806468
0.000736388
0.000663429
0.000599018
0.000546785
0.000631598
0.000341298
0.00145412
0.00274415
0.0016927
0.0026063
0.00284601
0.00301122
0.0031426
0.00324572
0.00332401
0.00337342
0.0034001
0.00338896
0.00331773
0.00316563
0.00290877
0.00248958
0.00179176
0.000919601
0.000759317
0.00199189
0.00230273
0.00230955
0.00199998
0.000565815
0.000501328
0.00045149
0.000413573
0.00038444
0.000361522
0.000343161
0.000328691
0.000318819
0.000371617
0.000444524
0.000714237
0.00039177
0.00181896
0.00416172
0.00169585
0.00291271
0.00333613
0.00348811
0.00357218
0.00361981
0.00364957
0.00367117
0.00369041
0.00370031
0.00368332
0.00362152
0.00348561
0.00321178
0.00269915
0.00184724
0.000897633
0.00237762
0.00252382
0.00247116
0.00232122
0.00198162
0.000535376
0.00051662
0.000516123
0.000520053
0.000521503
0.000515875
0.000500914
0.000484448
0.000463254
0.000444528
0.000455065
0.000799389
0.000441136
0.00219278
0.00603981
0.002197
0.00272614
0.0035197
0.0037147
0.0037741
0.0037787
0.00376298
0.00375581
0.00376599
0.00379418
0.00381111
0.00379119
0.00371108
0.00355884
0.00336845
0.00319091
0.00295182
0.0027726
0.00258553
0.00238522
0.00222099
0.00210586
0.00193221
0.0019676
0.00202739
0.00206954
0.00207716
0.00203907
0.00193683
0.00170536
0.00140137
0.00107386
0.000814307
0.000804505
0.000683159
0.000596962
0.000666913
0.000724797
0.00257736
0.0080757
0.00395032
0.00252774
0.00316528
0.00359451
0.00378532
0.00384748
0.00382179
0.00375766
0.0037568
0.00380641
0.00384498
0.00384067
0.00376908
0.00362155
0.0034295
0.00323532
0.00302204
0.00278076
0.00255322
0.0023161
0.0021544
0.00210205
0.00214124
0.00223638
0.00232834
0.0023946
0.00242633
0.00241977
0.00237109
0.0022218
0.001963
0.00160638
0.00124956
0.000963306
0.000812314
0.000727543
0.000978204
0.000742203
0.00295341
0.00975664
0.00710484
0.00409533
0.00303222
0.00289548
0.00319405
0.00354029
0.00378609
0.00372393
0.00375207
0.00380734
0.00384227
0.00383357
0.00375915
0.0036069
0.00339523
0.00317116
0.00296853
0.00278455
0.00256115
0.00230556
0.00214485
0.0021044
0.00214676
0.00222774
0.0023113
0.00238115
0.00243031
0.00245956
0.0024737
0.00246068
0.00228147
0.00196814
0.00162701
0.00131636
0.00111337
0.00103993
0.00102491
0.000830176
0.00304291
0.00955491
0.00820653
0.00701965
0.00546967
0.00428989
0.00373834
0.00363743
0.00377594
0.00381528
0.00381809
0.00382382
0.00382132
0.00378561
0.00369073
0.00352158
0.00329352
0.00307011
0.00290951
0.00279477
0.00258837
0.0023243
0.00216448
0.0021157
0.00213016
0.00217089
0.0022169
0.00226149
0.00230672
0.00236094
0.0024374
0.00254415
0.00259933
0.0023439
0.00211412
0.00199817
0.00206483
0.00225066
0.00283283
0.00135159
0.00297601
0.00357636
0.00422657
0.00452802
0.00460011
0.00439652
0.00412774
0.00392663
0.00382816
0.00377578
0.00376823
0.00377166
0.0037541
0.00368877
0.00355625
0.00335012
0.00309738
0.00289306
0.00280237
0.00277157
0.00258902
0.00233452
0.00217825
0.00210925
0.00208525
0.00207834
0.0020741
0.00206703
0.00205644
0.0020427
0.00202424
0.00199687
0.00195683
0.00191609
0.0019052
0.00192672
0.00193515
0.0018853
0.00178947
0.00129778
0.00267677
0.00536688
0.00500461
0.00477475
0.00455907
0.00437605
0.00423788
0.00412162
0.00400457
0.00387741
0.00372721
0.00354159
0.00331133
0.00303598
0.00275292
0.00260918
0.00264137
0.00271666
0.00257118
0.00236199
0.00221391
0.00211563
0.00204586
0.00199229
0.00194797
0.00190922
0.00187558
0.00184979
0.00183667
0.0018413
0.00186363
0.00188793
0.00191355
0.00192456
0.00188693
0.00178303
0.00163616
0.00110898
0.00251075
0.00581406
0.00540946
0.00508355
0.00481536
0.00458518
0.00435864
0.00413914
0.00389013
0.00360007
0.00329777
0.00299556
0.00269643
0.00240102
0.00215049
0.00223385
0.00255253
0.00284541
0.00283105
0.0027162
0.00258244
0.00244787
0.0023184
0.00220051
0.00210048
0.00202234
0.00196763
0.00193579
0.00192344
0.00192137
0.00194346
0.0019892
0.00204236
0.0020809
0.00207274
0.00211022
0.00219988
0.00113278
0.00197923
0.00215618
0.00230559
0.00246974
0.0023305
0.00220816
0.00201305
0.00185165
0.00169828
0.00155085
0.0014189
0.00130514
0.00119901
0.00109428
0.000986072
0.000869197
0.000741235
0.000655951
0.000686871
0.000702524
0.000691569
0.000677202
0.000664454
0.000655103
0.000650932
0.000653358
0.000662988
0.000679703
0.00070311
0.000733072
0.000770246
0.000816891
0.000869271
0.000925714
0.000986448
0.00105479
0.0010885
0.00106876
0.0010055
0.000944852
)
;

boundaryField
{
    floor
    {
        type            nutkWallFunction;
        Cmu             0.09;
        kappa           0.41;
        E               9.8;
        value           nonuniform List<scalar> 
36
(
0.000104581
6.58567e-05
6.17788e-05
5.95111e-05
5.84695e-05
5.74328e-05
5.54223e-05
5.31197e-05
5.09342e-05
4.88526e-05
4.68567e-05
4.49325e-05
4.30634e-05
4.12249e-05
3.93745e-05
3.74437e-05
3.52912e-05
3.34127e-05
2.9647e-05
2.9647e-05
3.89547e-05
4.56661e-05
5.21241e-05
7.19638e-05
8.06531e-05
8.77613e-05
0.000104581
0.000107324
0.000100414
9.48913e-05
6.58566e-05
9.48913e-05
7.96378e-05
0.00011122
9.19649e-05
0.000108606
)
;
    }
    ceiling
    {
        type            nutkWallFunction;
        Cmu             0.09;
        kappa           0.41;
        E               9.8;
        value           nonuniform List<scalar> 
43
(
0.000231041
0.000250234
0.000266312
0.000283975
0.000269129
0.000255994
0.000234866
0.000217214
0.000200284
0.000183853
0.000169001
0.000156073
0.000143898
0.000131764
0.000119089
0.000105216
8.97736e-05
7.92947e-05
8.31021e-05
8.50271e-05
8.36844e-05
8.19174e-05
8.03458e-05
7.91906e-05
7.86751e-05
7.89759e-05
8.01667e-05
8.22284e-05
8.51052e-05
8.87707e-05
9.3294e-05
9.89333e-05
0.000105221
0.000111948
0.000119133
0.000127157
0.000131093
0.000128791
0.000121377
0.000114218
0.000337656
0.00039983
0.000288065
)
;
    }
    sWall
    {
        type            nutkWallFunction;
        Cmu             0.09;
        kappa           0.41;
        E               9.8;
        value           uniform 0.000231103;
    }
    nWall
    {
        type            nutkWallFunction;
        Cmu             0.09;
        kappa           0.41;
        E               9.8;
        value           nonuniform List<scalar> 6(8.776e-05 8.98847e-05 0.000100536 0.000133486 0.000136251 0.000114222);
    }
    sideWalls
    {
        type            empty;
    }
    glass1
    {
        type            nutkWallFunction;
        Cmu             0.09;
        kappa           0.41;
        E               9.8;
        value           nonuniform List<scalar> 9(8.56862e-05 0.000132455 0.000173199 0.000213937 0.000254758 0.000295981 0.000335666 0.00034504 0.000338056);
    }
    glass2
    {
        type            nutkWallFunction;
        Cmu             0.09;
        kappa           0.41;
        E               9.8;
        value           nonuniform List<scalar> 2(0.000161429 0.000155291);
    }
    sun
    {
        type            nutkWallFunction;
        Cmu             0.09;
        kappa           0.41;
        E               9.8;
        value           nonuniform List<scalar> 
14
(
8.5719e-05
8.94404e-05
8.75409e-05
9.05635e-05
9.32001e-05
9.54468e-05
9.73911e-05
9.91269e-05
0.000100752
0.000102383
0.000103627
0.00010436
0.00010462
0.000104665
)
;
    }
    Table_master
    {
        type            nutkWallFunction;
        Cmu             0.09;
        kappa           0.41;
        E               9.8;
        value           nonuniform List<scalar> 9(6.80575e-05 5.98798e-05 5.34708e-05 4.85356e-05 4.47051e-05 4.16658e-05 3.9213e-05 3.7268e-05 3.59347e-05);
    }
    Table_slave
    {
        type            nutkWallFunction;
        Cmu             0.09;
        kappa           0.41;
        E               9.8;
        value           nonuniform List<scalar> 9(6.42105e-05 6.18288e-05 6.1766e-05 6.22666e-05 6.24514e-05 6.17357e-05 5.98275e-05 5.77193e-05 5.49923e-05);
    }
    inlet
    {
        type            calculated;
        value           uniform 0.000100623;
    }
    outlet
    {
        type            calculated;
        value           nonuniform List<scalar> 2(0.00197923 0.00215618);
    }
}


// ************************************************************************* //
