/*--------------------------------*- C++ -*----------------------------------*\
  =========                 |
  \\      /  F ield         | OpenFOAM: The Open Source CFD Toolbox
   \\    /   O peration     | Website:  https://openfoam.org
    \\  /    A nd           | Version:  6
     \\/     M anipulation  |
\*---------------------------------------------------------------------------*/
FoamFile
{
    version     2.0;
    format      ascii;
    class       volScalarField;
    location    "1600";
    object      k;
}
// * * * * * * * * * * * * * * * * * * * * * * * * * * * * * * * * * * * * * //

dimensions      [0 2 -2 0 0 0 0];

internalField   nonuniform List<scalar> 
458
(
0.0030286
0.00367502
0.00399719
0.00442388
0.00483717
0.00526
0.00572755
0.00621047
0.0066674
0.00702815
0.00719031
0.00683508
0.00556529
0.00420328
0.00314337
0.000580599
0.000789602
0.00108101
0.00129814
0.0013343
0.00117426
0.00100156
0.000860347
0.000748549
0.000659232
0.00058724
0.000528506
0.000479712
0.000438298
0.000401233
0.000365227
0.000329834
0.000274927
0.00481099
0.00838438
0.00548741
0.00582426
0.0062807
0.00688502
0.00763811
0.00858066
0.00962168
0.0105134
0.0110343
0.0110955
0.00989492
0.00797938
0.00552886
0.00437754
0.00333507
0.00232061
0.000546993
0.00097543
0.00170017
0.00209929
0.00224714
0.0019385
0.0015655
0.00126577
0.00104215
0.000874003
0.000745577
0.000645731
0.000565992
0.000496944
0.000444415
0.000412648
0.000506025
0.000343305
0.00656901
0.0136514
0.00598424
0.00589117
0.00607555
0.00646423
0.00708563
0.00796266
0.00898249
0.0099465
0.010733
0.0113
0.010865
0.00940926
0.00747761
0.00579694
0.00453634
0.00287422
0.000711791
0.00140815
0.00198074
0.00241619
0.00258135
0.00203269
0.00154883
0.00118831
0.000929077
0.000742641
0.000606742
0.000505721
0.000429953
0.000378963
0.000361093
0.000368514
0.000643518
0.000401989
0.00844878
0.0206776
0.00647805
0.00557565
0.00548842
0.00568697
0.0062319
0.00715605
0.00822372
0.00930197
0.0103249
0.0110608
0.010737
0.00936533
0.00783623
0.00634759
0.00512247
0.00372712
0.00318164
0.00272687
0.0027682
0.00303719
0.00328306
0.00330429
0.00270099
0.00228366
0.00199279
0.00177154
0.00158948
0.00143489
0.001291
0.00114716
0.000993709
0.000743969
0.000567659
0.000861794
0.000498349
0.0105702
0.0305401
0.00805592
0.00530594
0.00492534
0.00503948
0.00570036
0.00692548
0.008126
0.00934639
0.0105325
0.0112133
0.0105987
0.00897258
0.00740253
0.00622249
0.00530044
0.00458283
0.00450846
0.0043868
0.00440067
0.00448914
0.00446998
0.00423723
0.00382293
0.00347129
0.00322609
0.00302001
0.00280389
0.00254778
0.00224858
0.00191259
0.00155663
0.00118579
0.000877911
0.000866592
0.000767236
0.000725435
0.00078242
0.000794415
0.0131432
0.04213
0.0130117
0.00587186
0.00474538
0.00463287
0.00567983
0.00738405
0.00866984
0.00999801
0.0112479
0.0117525
0.0107552
0.00862364
0.00670342
0.00563537
0.00519519
0.00513577
0.00537909
0.00565723
0.0058102
0.0057456
0.00542924
0.00491629
0.00438044
0.0040119
0.00377192
0.00356024
0.00331975
0.00303122
0.00269442
0.0023215
0.0019338
0.00155314
0.00123181
0.00102666
0.00090145
0.001087
0.0024825
0.00140187
0.0161447
0.0500622
0.023318
0.0109981
0.00703158
0.00595319
0.00733274
0.00875708
0.00988218
0.0111488
0.0123465
0.0126327
0.0111632
0.0084141
0.00611285
0.00515488
0.00520392
0.00567265
0.00625292
0.00664678
0.00663833
0.00629554
0.00572093
0.00505409
0.00448059
0.0041213
0.00390522
0.00372718
0.00353799
0.00331714
0.00305811
0.00276534
0.00245195
0.00213213
0.00185834
0.00165991
0.00155924
0.00176225
0.00357355
0.00215772
0.0171126
0.051679
0.0355122
0.0241211
0.0160912
0.0122885
0.0114295
0.0113168
0.0118541
0.0129002
0.0138942
0.0137554
0.0115703
0.00807611
0.00569093
0.00516503
0.00547944
0.00608606
0.0066275
0.00680746
0.00653305
0.00596406
0.00528024
0.00464256
0.0041709
0.00388816
0.00372359
0.00361048
0.0035246
0.00346863
0.00344899
0.00345463
0.00346018
0.00346599
0.00356616
0.00396191
0.00484296
0.00593553
0.0119256
0.00390714
0.0167237
0.0249439
0.0256496
0.023291
0.0198064
0.0170329
0.0149409
0.0140238
0.0143163
0.01519
0.015777
0.0147825
0.0113162
0.00713473
0.00551192
0.0052851
0.0055543
0.00592141
0.00612036
0.0060018
0.00559707
0.00502032
0.004427
0.00392682
0.0035706
0.00334546
0.00320572
0.00311804
0.00307274
0.00307356
0.00312654
0.00324601
0.00345384
0.00376743
0.00420569
0.0047637
0.00534874
0.0058125
0.00613854
0.00367686
0.00833071
0.0119767
0.0137193
0.0142696
0.0147635
0.016269
0.01749
0.018089
0.017548
0.0144643
0.00866493
0.00581538
0.00506803
0.00498884
0.00507846
0.0051227
0.00499761
0.00467762
0.00423339
0.00376019
0.00332716
0.00297452
0.00270727
0.00250834
0.00236222
0.00226636
0.00222797
0.0022567
0.00236266
0.00255133
0.00282274
0.003178
0.00360155
0.004031
0.0043282
0.00432449
0.00398843
0.00241032
0.00905836
0.0337233
0.0295429
0.0300881
0.0316809
0.0277087
0.0229781
0.0194664
0.0147066
0.00948733
0.00607833
0.0048278
0.00443096
0.00431299
0.00425851
0.00417137
0.00400486
0.00375523
0.00345445
0.00314373
0.00285426
0.00260326
0.00239594
0.00223438
0.00212055
0.00205697
0.0020464
0.00209276
0.00220141
0.00237961
0.00263648
0.00297779
0.00338719
0.00379675
0.00413259
0.0043253
0.00400696
0.00249379
0.0158456
0.0158975
0.0161624
0.0221482
0.0182091
0.014418
0.00942732
0.00607664
0.0049579
0.0041415
0.00335163
0.0027071
0.00234047
0.0021277
0.00201741
0.00194319
0.00186863
0.00177447
0.00165733
0.00152856
0.00140558
0.0013019
0.00122334
0.00117011
0.00114011
0.00113182
0.00114448
0.00117806
0.00123313
0.00131099
0.00141359
0.00154371
0.00170512
0.00190252
0.00213904
0.00240402
0.00269044
0.00259225
0.00218931
0.0018683
)
;

boundaryField
{
    floor
    {
        type            kqRWallFunction;
        value           nonuniform List<scalar> 
36
(
0.00314337
0.000580599
0.000789602
0.00108101
0.00129814
0.0013343
0.00117426
0.00100156
0.000860347
0.000748549
0.000659232
0.00058724
0.000528506
0.000479712
0.000438298
0.000401233
0.000365227
0.000329834
0.000274927
0.000274927
0.000343305
0.000401989
0.000498349
0.000725435
0.00078242
0.000794415
0.00314337
0.00437754
0.00333507
0.00232061
0.000580599
0.00232061
0.000546993
0.00287422
0.000711791
0.00318164
)
;
    }
    ceiling
    {
        type            kqRWallFunction;
        value           nonuniform List<scalar> 
43
(
0.0158456
0.0158975
0.0161624
0.0221482
0.0182091
0.014418
0.00942732
0.00607664
0.0049579
0.0041415
0.00335163
0.0027071
0.00234047
0.0021277
0.00201741
0.00194319
0.00186863
0.00177447
0.00165733
0.00152856
0.00140558
0.0013019
0.00122334
0.00117011
0.00114011
0.00113182
0.00114448
0.00117806
0.00123313
0.00131099
0.00141359
0.00154371
0.00170512
0.00190252
0.00213904
0.00240402
0.00269044
0.00259225
0.00218931
0.0018683
0.0167237
0.0249439
0.00905836
)
;
    }
    sWall
    {
        type            kqRWallFunction;
        value           uniform 0.0158456;
    }
    nWall
    {
        type            kqRWallFunction;
        value           nonuniform List<scalar> 6(0.000794415 0.00140187 0.00215772 0.00241032 0.00249379 0.0018683);
    }
    sideWalls
    {
        type            empty;
    }
    glass1
    {
        type            kqRWallFunction;
        value           nonuniform List<scalar> 9(0.0030286 0.00481099 0.00656901 0.00844878 0.0105702 0.0131432 0.0161447 0.0171126 0.0167237);
    }
    glass2
    {
        type            kqRWallFunction;
        value           nonuniform List<scalar> 2(0.00390714 0.00367686);
    }
    sun
    {
        type            kqRWallFunction;
        value           nonuniform List<scalar> 
14
(
0.0030286
0.00367502
0.00399719
0.00442388
0.00483717
0.00526
0.00572755
0.00621047
0.0066674
0.00702815
0.00719031
0.00683508
0.00556529
0.00420328
)
;
    }
    Table_master
    {
        type            kqRWallFunction;
        value           nonuniform List<scalar> 9(0.00203269 0.00154883 0.00118831 0.000929077 0.000742641 0.000606742 0.000505721 0.000429953 0.000378963);
    }
    Table_slave
    {
        type            kqRWallFunction;
        value           nonuniform List<scalar> 9(0.00270099 0.00228366 0.00199279 0.00177154 0.00158948 0.00143489 0.001291 0.00114716 0.000993709);
    }
    inlet
    {
        type            turbulentIntensityKineticEnergyInlet;
        intensity       0.05;
        value           uniform 0.00375;
    }
    outlet
    {
        type            zeroGradient;
    }
}


// ************************************************************************* //
