/*--------------------------------*- C++ -*----------------------------------*\
  =========                 |
  \\      /  F ield         | OpenFOAM: The Open Source CFD Toolbox
   \\    /   O peration     | Website:  https://openfoam.org
    \\  /    A nd           | Version:  6
     \\/     M anipulation  |
\*---------------------------------------------------------------------------*/
FoamFile
{
    version     2.0;
    format      ascii;
    class       volScalarField;
    location    "1000";
    object      epsilon;
}
// * * * * * * * * * * * * * * * * * * * * * * * * * * * * * * * * * * * * * //

dimensions      [0 2 -3 0 0 0 0];

internalField   nonuniform List<scalar> 
458
(
0.000123336
0.000132173
0.000109479
0.000122562
0.000136669
0.000150616
0.000164364
0.00017816
0.000192473
0.00020813
0.000223071
0.000236019
0.000246888
0.000256899
0.000265909
6.44624e-05
0.00012964
0.000163566
0.000168994
0.000144801
0.000102651
7.32468e-05
5.19552e-05
3.63614e-05
2.52076e-05
1.74684e-05
1.22652e-05
8.87079e-06
6.71123e-06
5.37049e-06
5.35086e-06
2.72541e-05
1.75205e-05
0.000602368
0.00148043
0.000131985
9.68507e-05
9.99083e-05
0.000105332
0.000111849
0.00012025
0.000131478
0.000146498
0.000164361
0.000184185
0.000204974
0.000226192
0.00025714
0.000338047
0.000307764
0.000144236
0.000102263
0.000212008
0.00015344
0.000143169
0.000128657
8.72343e-05
5.9081e-05
4.13794e-05
2.87499e-05
2.00794e-05
1.43876e-05
1.07602e-05
8.52263e-06
7.25119e-06
6.76996e-06
1.04827e-05
0.000110093
4.87888e-05
0.00155371
0.00506291
0.000303865
0.000108512
0.000102846
0.000108547
0.000116615
0.000127087
0.000140304
0.000156398
0.000174609
0.000192888
0.000210144
0.000227175
0.000248846
0.000284425
0.000335767
0.000419173
0.00041661
0.000321087
0.000201675
0.000166062
0.000150642
0.000118497
5.44683e-05
3.60638e-05
2.65309e-05
2.06137e-05
1.67025e-05
1.40417e-05
1.22111e-05
1.10605e-05
1.31758e-05
2.20094e-05
0.000292039
9.44847e-05
0.00314715
0.0115776
0.000762166
0.000139049
0.000113494
0.000120914
0.000132326
0.00014629
0.000162886
0.00018217
0.000203561
0.000222577
0.000237318
0.000249227
0.000262823
0.000287221
0.00034061
0.000452533
0.000625412
0.000353004
0.000208389
0.000158864
0.000144428
0.000169785
0.000274299
0.000234944
0.000208389
0.000199108
0.00019442
0.000188066
0.000174984
0.000152309
0.000129907
9.30887e-05
7.39429e-05
0.000394762
0.000160987
0.00544758
0.0205689
0.00181305
0.000207174
0.000127312
0.000134001
0.000150335
0.00017147
0.00019723
0.00022742
0.000260017
0.000285069
0.000299216
0.000304331
0.000302778
0.000296699
0.000288484
0.000276283
0.000245392
0.000178655
0.000142726
0.000131054
0.000133143
0.00014753
0.000173903
0.000171331
0.000154081
0.000148111
0.00014745
0.000145664
0.000137607
0.000120725
0.000102919
8.79062e-05
7.75346e-05
0.000186269
0.000395312
0.000310814
0.000222141
0.000281009
0.00852804
0.0290675
0.00409928
0.000457668
0.000180406
0.00016259
0.000177991
0.000206071
0.000244733
0.000295297
0.000348465
0.000379844
0.000389931
0.000386944
0.000376844
0.000361558
0.000337032
0.00029298
0.000230503
0.000173412
0.000143423
0.000137765
0.000143226
0.000155585
0.000178578
0.000181979
0.000167124
0.000165186
0.000172437
0.000181993
0.000185908
0.000174739
0.000141179
0.000111253
9.16695e-05
0.000119319
0.000210608
0.000235457
0.000327626
0.000321665
0.0123674
0.0331912
0.00920123
0.0020831
0.000693875
0.000382387
0.000316991
0.000323101
0.000362175
0.000440238
0.000505395
0.000521338
0.000506592
0.000479054
0.000448735
0.000419581
0.000387226
0.000339051
0.00027349
0.00021265
0.000178476
0.000169817
0.000168805
0.000171051
0.000194284
0.000212034
0.000198991
0.00019778
0.000211927
0.00023632
0.000263723
0.000281857
0.000262551
0.000206738
0.000172821
0.000181303
0.000241585
0.000328462
0.00057248
0.000566106
0.0133671
0.0405179
0.0197245
0.0112615
0.00557973
0.00260249
0.00142243
0.00100609
0.000868886
0.000848296
0.000801984
0.00073078
0.000653289
0.000580333
0.000516292
0.000462434
0.000416372
0.000369181
0.000313366
0.000262277
0.000235145
0.000231545
0.000222752
0.000200159
0.000217746
0.000263119
0.000260011
0.000259151
0.000275399
0.000311953
0.000369573
0.000446239
0.000534928
0.000567457
0.000632577
0.000924957
0.00153943
0.00235839
0.00693237
0.00173889
0.0123317
0.0211879
0.01793
0.0132808
0.00931286
0.00617345
0.00405225
0.00275226
0.00199758
0.00151581
0.00118817
0.000958926
0.000792667
0.000667524
0.000570308
0.00049345
0.000432179
0.000381805
0.000339268
0.000309561
0.00030397
0.000325582
0.000325068
0.000251973
0.000246477
0.000334031
0.000359767
0.00036217
0.00036955
0.000400843
0.00046673
0.000575478
0.000731237
0.000935664
0.00118969
0.00154709
0.00193865
0.0022745
0.00256395
0.00141401
0.00926514
0.0136672
0.00886364
0.00610519
0.00426072
0.00302898
0.0022209
0.00168342
0.00131313
0.00105168
0.000861605
0.000719204
0.000610097
0.000526109
0.000462883
0.000417737
0.000389039
0.000380584
0.000407075
0.000480325
0.000514476
0.000339176
0.000277769
0.000418533
0.000508914
0.000543598
0.000537664
0.000533351
0.000549812
0.000604228
0.000715085
0.000879479
0.00107922
0.0012884
0.00142664
0.00140221
0.00119635
0.000810767
0.00756069
0.0117564
0.00757842
0.00532108
0.0038889
0.00288221
0.00216721
0.00165906
0.00129353
0.00102569
0.000827131
0.000679488
0.000570989
0.000494447
0.000446021
0.000423995
0.000427529
0.000457371
0.000515176
0.000573792
0.000548808
0.000407346
0.000307359
0.000509866
0.000675423
0.000706795
0.000703753
0.000688005
0.000686132
0.000717217
0.000807742
0.000958076
0.00115617
0.00137752
0.00156383
0.00170946
0.0010335
0.000856214
0.0040724
0.00498209
0.00591075
0.00680671
0.00522624
0.00395322
0.0030814
0.00244724
0.0019616
0.00158556
0.00129142
0.00106985
0.000897082
0.000757809
0.000643977
0.000551171
0.000476931
0.000419894
0.000379327
0.000355378
0.000350249
0.000363299
0.000377526
0.000334531
0.000297607
0.000393806
0.000445705
0.000465402
0.000476472
0.000493253
0.000526674
0.000590994
0.000680247
0.000803924
0.000959039
0.0011607
0.00124332
0.00117282
0.000944145
0.000747766
)
;

boundaryField
{
    floor
    {
        Cmu             0.09;
        kappa           0.41;
        E               9.8;
        type            epsilonWallFunction;
        value           nonuniform List<scalar> 
36
(
0.000265909
6.44624e-05
0.00012964
0.000163566
0.000168994
0.000144801
0.000102651
7.32468e-05
5.19552e-05
3.63614e-05
2.52076e-05
1.74684e-05
1.22652e-05
8.87079e-06
6.71123e-06
5.37049e-06
5.35086e-06
2.72541e-05
1.75205e-05
1.75205e-05
4.87888e-05
9.44847e-05
0.000160987
0.000310814
0.000222141
0.000281009
0.000265909
0.000338047
0.000307764
0.000144236
6.44624e-05
0.000144236
0.000102263
0.000419173
0.00041661
0.000625412
)
;
    }
    ceiling
    {
        Cmu             0.09;
        kappa           0.41;
        E               9.8;
        type            epsilonWallFunction;
        value           nonuniform List<scalar> 
43
(
0.0040724
0.00498209
0.00591075
0.00680671
0.00522624
0.00395322
0.0030814
0.00244724
0.0019616
0.00158556
0.00129142
0.00106985
0.000897082
0.000757809
0.000643977
0.000551171
0.000476931
0.000419894
0.000379327
0.000355378
0.000350249
0.000363299
0.000377526
0.000334531
0.000297607
0.000393806
0.000445705
0.000465402
0.000476472
0.000493253
0.000526674
0.000590994
0.000680247
0.000803924
0.000959039
0.0011607
0.00124332
0.00117282
0.000944145
0.000747766
0.0123317
0.0211879
0.00756069
)
;
    }
    sWall
    {
        Cmu             0.09;
        kappa           0.41;
        E               9.8;
        type            epsilonWallFunction;
        value           uniform 0.0040724;
    }
    nWall
    {
        Cmu             0.09;
        kappa           0.41;
        E               9.8;
        type            epsilonWallFunction;
        value           nonuniform List<scalar> 6(0.000281009 0.000321665 0.000566106 0.000810767 0.000856214 0.000747766);
    }
    sideWalls
    {
        type            empty;
    }
    glass1
    {
        Cmu             0.09;
        kappa           0.41;
        E               9.8;
        type            epsilonWallFunction;
        value           nonuniform List<scalar> 9(0.000123336 0.000602368 0.00155371 0.00314715 0.00544758 0.00852804 0.0123674 0.0133671 0.0123317);
    }
    glass2
    {
        Cmu             0.09;
        kappa           0.41;
        E               9.8;
        type            epsilonWallFunction;
        value           nonuniform List<scalar> 2(0.00173889 0.00141401);
    }
    sun
    {
        Cmu             0.09;
        kappa           0.41;
        E               9.8;
        type            epsilonWallFunction;
        value           nonuniform List<scalar> 
14
(
0.000123336
0.000132173
0.000109479
0.000122562
0.000136669
0.000150616
0.000164364
0.00017816
0.000192473
0.00020813
0.000223071
0.000236019
0.000246888
0.000256899
)
;
    }
    Table_master
    {
        Cmu             0.09;
        kappa           0.41;
        E               9.8;
        type            epsilonWallFunction;
        value           nonuniform List<scalar> 9(0.000118497 5.44683e-05 3.60638e-05 2.65309e-05 2.06137e-05 1.67025e-05 1.40417e-05 1.22111e-05 1.10605e-05);
    }
    Table_slave
    {
        Cmu             0.09;
        kappa           0.41;
        E               9.8;
        type            epsilonWallFunction;
        value           nonuniform List<scalar> 9(0.000274299 0.000234944 0.000208389 0.000199108 0.00019442 0.000188066 0.000174984 0.000152309 0.000129907);
    }
    inlet
    {
        type            turbulentMixingLengthDissipationRateInlet;
        mixingLength    0.01;
        phi             phi;
        k               k;
        value           uniform 0.000101881;
    }
    outlet
    {
        type            zeroGradient;
    }
}


// ************************************************************************* //
