/*--------------------------------*- C++ -*----------------------------------*\
  =========                 |
  \\      /  F ield         | OpenFOAM: The Open Source CFD Toolbox
   \\    /   O peration     | Website:  https://openfoam.org
    \\  /    A nd           | Version:  6
     \\/     M anipulation  |
\*---------------------------------------------------------------------------*/
FoamFile
{
    version     2.0;
    format      ascii;
    class       volVectorField;
    location    "1000";
    object      U;
}
// * * * * * * * * * * * * * * * * * * * * * * * * * * * * * * * * * * * * * //

dimensions      [0 1 -1 0 0 0 0];

internalField   nonuniform List<vector> 
458
(
(0.106765 0.070272 0)
(-0.14287 0.00149672 0)
(-0.123995 0.00670358 0)
(-0.140759 0.00744163 0)
(-0.157066 0.00624793 0)
(-0.171746 0.00417717 0)
(-0.18367 0.00148874 0)
(-0.191952 -0.00178691 0)
(-0.195749 -0.00571093 0)
(-0.194068 -0.0104249 0)
(-0.185099 -0.0163753 0)
(-0.166107 -0.0240814 0)
(-0.136048 -0.0351689 0)
(-0.10571 -0.0529451 0)
(-0.110635 -0.0772952 0)
(0.0342108 0.0100136 0)
(-0.0299339 -0.00987559 0)
(-0.00915619 -0.0189655 0)
(0.019695 -0.023202 0)
(0.0425777 -0.0189481 0)
(0.0592165 -0.00760667 0)
(0.0601068 -0.00167412 0)
(0.0534441 0.00104662 0)
(0.0459005 0.00238292 0)
(0.0392814 0.00304957 0)
(0.033332 0.00325711 0)
(0.0278177 0.00310533 0)
(0.0228534 0.00269574 0)
(0.0185764 0.00226356 0)
(0.0149201 0.00165057 0)
(0.0115723 -0.00195207 0)
(0.0391373 -0.00986453 0)
(-0.0521628 0.0137098 0)
(0.320611 0.154964 0)
(-0.171404 0.0197033 0)
(-0.116561 0.0255892 0)
(-0.140292 0.0265394 0)
(-0.158277 0.024999 0)
(-0.17405 0.0219223 0)
(-0.186978 0.0175546 0)
(-0.196448 0.011878 0)
(-0.20175 0.0047705 0)
(-0.202016 -0.00395636 0)
(-0.196462 -0.0141771 0)
(-0.184205 -0.0258606 0)
(-0.166216 -0.0400596 0)
(-0.148002 -0.0582266 0)
(-0.132089 -0.0724562 0)
(-0.0955619 -0.0523291 0)
(-0.0364712 -0.0522369 0)
(-0.0447576 0.0795563 0)
(0.125761 0.0195126 0)
(0.0120553 0.00732107 0)
(-0.00758244 -0.0140497 0)
(0.00423159 -0.0321216 0)
(0.0176871 -0.0346601 0)
(0.0398431 -0.00571689 0)
(0.0390312 0.0052485 0)
(0.0347373 0.00850446 0)
(0.0330041 0.00898717 0)
(0.0330456 0.00858293 0)
(0.0335475 0.00792038 0)
(0.0340789 0.00719686 0)
(0.0346179 0.00647979 0)
(0.0347125 0.00600405 0)
(0.0331215 0.0063183 0)
(0.0273923 0.00175172 0)
(0.0535314 -0.00886555 0)
(-0.122938 0.0341757 0)
(0.499646 0.238359 0)
(-0.221364 0.049897 0)
(-0.0969662 0.0482787 0)
(-0.128977 0.0445667 0)
(-0.146733 0.0402791 0)
(-0.16245 0.0341878 0)
(-0.175641 0.0261593 0)
(-0.185904 0.0161456 0)
(-0.192654 0.0041707 0)
(-0.195094 -0.009559 0)
(-0.192662 -0.0249015 0)
(-0.185945 -0.041665 0)
(-0.176662 -0.0596167 0)
(-0.167635 -0.077658 0)
(-0.157272 -0.0902493 0)
(-0.140007 -0.0914519 0)
(-0.130933 -0.0967717 0)
(-0.166065 -0.0890074 0)
(0.0357655 0.0369179 0)
(-0.0482915 0.00804602 0)
(-0.0423268 -0.0174644 0)
(-0.0310413 -0.0454681 0)
(-0.0256079 -0.0649809 0)
(0.0253174 -0.0187159 0)
(0.0136104 -0.000584878 0)
(0.0123282 0.00214965 0)
(0.0181878 0.00227647 0)
(0.025086 0.00191267 0)
(0.0311453 0.00140633 0)
(0.0363078 0.000830059 0)
(0.0408697 0.000267763 0)
(0.0446222 0.00139338 0)
(0.0461622 0.0108356 0)
(0.0354078 0.0122453 0)
(0.0710973 0.00574041 0)
(-0.181409 0.0514429 0)
(0.645212 0.308527 0)
(-0.272599 0.0856867 0)
(-0.0694924 0.0712578 0)
(-0.110329 0.0627429 0)
(-0.125854 0.0565976 0)
(-0.139794 0.0487492 0)
(-0.151878 0.0386467 0)
(-0.161764 0.0260602 0)
(-0.168944 0.010891 0)
(-0.172658 -0.00665303 0)
(-0.172024 -0.0258293 0)
(-0.168757 -0.0454881 0)
(-0.164769 -0.0642268 0)
(-0.162122 -0.080013 0)
(-0.160516 -0.0896995 0)
(-0.159904 -0.0922777 0)
(-0.167875 -0.0876876 0)
(-0.187401 -0.05655 0)
(-0.177482 0.022249 0)
(-0.116507 0.0247748 0)
(-0.102775 -0.00189982 0)
(-0.0794892 -0.0302524 0)
(-0.0699428 -0.0560534 0)
(-0.0681722 -0.0687439 0)
(-0.0529814 -0.0477544 0)
(-0.00358315 -0.0323386 0)
(0.0294161 -0.0247111 0)
(0.0537054 -0.0208706 0)
(0.0758052 -0.0180696 0)
(0.0951127 -0.0151089 0)
(0.110074 -0.0110056 0)
(0.118165 -0.00518241 0)
(0.116205 0.00230985 0)
(0.101172 0.0166388 0)
(0.0765972 0.030418 0)
(0.0928494 0.0409024 0)
(-0.191202 0.0668932 0)
(0.76068 0.366666 0)
(-0.317153 0.122883 0)
(-0.0396323 0.0893009 0)
(-0.0867225 0.0774268 0)
(-0.0990601 0.0698349 0)
(-0.109647 0.0605157 0)
(-0.118978 0.0486695 0)
(-0.126761 0.033909 0)
(-0.132622 0.0160225 0)
(-0.135717 -0.00472002 0)
(-0.134721 -0.0268736 0)
(-0.132161 -0.0480683 0)
(-0.129913 -0.0662631 0)
(-0.129636 -0.079942 0)
(-0.13171 -0.0882072 0)
(-0.136631 -0.0918804 0)
(-0.145482 -0.090824 0)
(-0.153292 -0.0776807 0)
(-0.149463 -0.0455136 0)
(-0.129754 -0.0224803 0)
(-0.104673 -0.0261811 0)
(-0.085506 -0.0455425 0)
(-0.0739143 -0.0655926 0)
(-0.0622915 -0.0759695 0)
(-0.0421749 -0.0669731 0)
(-0.0133913 -0.0528917 0)
(0.0141084 -0.0411208 0)
(0.0354789 -0.0352662 0)
(0.055201 -0.0310569 0)
(0.0731478 -0.025931 0)
(0.0886159 -0.0175345 0)
(0.100089 -0.00409527 0)
(0.10512 0.0132293 0)
(0.101835 0.0327228 0)
(0.0889169 0.051327 0)
(0.105749 0.0705926 0)
(0.0149054 0.0801971 0)
(0.0900016 0.172931 0)
(-0.0711558 0.133472 0)
(-0.318688 0.0356318 0)
(0.835476 0.418603 0)
(-0.352937 0.155948 0)
(-0.0167929 0.095815 0)
(-0.0575505 0.088328 0)
(-0.0674524 0.0797133 0)
(-0.0743587 0.06872 0)
(-0.0797143 0.0554548 0)
(-0.0837254 0.0392762 0)
(-0.0864683 0.0195343 0)
(-0.0866522 -0.00385469 0)
(-0.083386 -0.0286625 0)
(-0.0802334 -0.0504884 0)
(-0.0786192 -0.0671305 0)
(-0.079512 -0.0779561 0)
(-0.08312 -0.0831571 0)
(-0.0895218 -0.083441 0)
(-0.0980766 -0.0783217 0)
(-0.104652 -0.0658819 0)
(-0.10399 -0.0492898 0)
(-0.0951597 -0.0388136 0)
(-0.0831109 -0.0428146 0)
(-0.0738502 -0.057668 0)
(-0.0672468 -0.0759949 0)
(-0.0573082 -0.0900377 0)
(-0.0404023 -0.0911177 0)
(-0.0185315 -0.0749086 0)
(-0.00042735 -0.0612895 0)
(0.0158555 -0.0539806 0)
(0.0310697 -0.0492009 0)
(0.0458656 -0.0435169 0)
(0.0604291 -0.0335881 0)
(0.0743207 -0.0162922 0)
(0.0869789 0.00836216 0)
(0.0925108 0.033764 0)
(0.0919313 0.0564884 0)
(0.106785 0.0783874 0)
(0.090988 0.0786377 0)
(0.119946 0.0977332 0)
(0.125178 0.0705637 0)
(-0.142798 -0.0206504 0)
(0.854441 0.466013 0)
(-0.36814 0.155904 0)
(0.00114958 0.0634791 0)
(-0.00784416 0.0942364 0)
(-0.0218339 0.0931282 0)
(-0.0299018 0.0749778 0)
(-0.0322097 0.0576948 0)
(-0.0317269 0.0400274 0)
(-0.0299881 0.0187927 0)
(-0.0236744 -0.00721525 0)
(-0.0172682 -0.0334997 0)
(-0.0144966 -0.0539035 0)
(-0.0149639 -0.0676878 0)
(-0.0184295 -0.0754429 0)
(-0.0244798 -0.0781047 0)
(-0.0325902 -0.0765864 0)
(-0.0416538 -0.0708818 0)
(-0.0490532 -0.0607965 0)
(-0.0522562 -0.0497136 0)
(-0.0514533 -0.0437049 0)
(-0.0499677 -0.0474211 0)
(-0.0508699 -0.0605599 0)
(-0.0532639 -0.0801265 0)
(-0.0501015 -0.100653 0)
(-0.0390562 -0.110949 0)
(-0.0227081 -0.0919905 0)
(-0.0129132 -0.0749039 0)
(-0.00549387 -0.0664839 0)
(0.00229139 -0.061662 0)
(0.010423 -0.0570479 0)
(0.0199764 -0.048899 0)
(0.0317595 -0.0330436 0)
(0.0490229 -0.00565857 0)
(0.0657585 0.0246561 0)
(0.0750029 0.0486638 0)
(0.0915907 0.068046 0)
(0.101197 0.0686367 0)
(0.129422 0.0676243 0)
(0.178062 0.0631267 0)
(-0.0303404 0.112685 0)
(0.956096 0.48797 0)
(-0.142113 0.140529 0)
(0.0765181 -0.00446915 0)
(0.116412 0.0428998 0)
(0.0836732 0.0719304 0)
(0.0564036 0.0601522 0)
(0.0476053 0.0401578 0)
(0.0477732 0.0220724 0)
(0.0507362 0.000763521 0)
(0.0614762 -0.0215546 0)
(0.0662188 -0.0403007 0)
(0.0646118 -0.0545819 0)
(0.0588315 -0.0640601 0)
(0.0502222 -0.0689432 0)
(0.0397449 -0.0697863 0)
(0.0282287 -0.0673045 0)
(0.016628 -0.0619781 0)
(0.0064662 -0.0541902 0)
(-0.000841676 -0.0458679 0)
(-0.00550308 -0.0410544 0)
(-0.0106462 -0.0430511 0)
(-0.0196178 -0.0538696 0)
(-0.0331125 -0.0751837 0)
(-0.0395884 -0.103951 0)
(-0.0356335 -0.125833 0)
(-0.0252729 -0.103155 0)
(-0.0225305 -0.0797612 0)
(-0.0260348 -0.0690958 0)
(-0.0295244 -0.064109 0)
(-0.0328178 -0.0606441 0)
(-0.0347197 -0.0557748 0)
(-0.0338591 -0.0470574 0)
(-0.0273413 -0.032337 0)
(0.00538584 -0.00833886 0)
(0.0187599 0.0161008 0)
(0.0346297 0.0298204 0)
(0.0450919 0.0256253 0)
(0.0676007 0.015889 0)
(0.155257 0.0746774 0)
(-0.533535 0.253986 0)
(1.09328 0.445934 0)
(0.521944 0.291817 0)
(0.518598 0.222648 0)
(0.484589 0.199272 0)
(0.385829 0.176385 0)
(0.301637 0.137076 0)
(0.25264 0.0946029 0)
(0.224798 0.0573334 0)
(0.208215 0.0256651 0)
(0.191433 -0.00205635 0)
(0.173327 -0.0245135 0)
(0.155397 -0.0407117 0)
(0.137592 -0.0509322 0)
(0.119899 -0.0560757 0)
(0.102582 -0.0571978 0)
(0.0860618 -0.0553037 0)
(0.0708249 -0.0512732 0)
(0.0574941 -0.0459851 0)
(0.0466618 -0.0407151 0)
(0.0380903 -0.0370694 0)
(0.0295123 -0.0363466 0)
(0.0167396 -0.0407847 0)
(-0.00784569 -0.0594214 0)
(-0.0253203 -0.0946752 0)
(-0.0279134 -0.130849 0)
(-0.0257585 -0.104354 0)
(-0.0269391 -0.073806 0)
(-0.0427603 -0.0607188 0)
(-0.0597135 -0.0544331 0)
(-0.0784339 -0.0492321 0)
(-0.0992028 -0.0416208 0)
(-0.122527 -0.0288107 0)
(-0.148896 -0.00843563 0)
(-0.175431 0.0195847 0)
(-0.198888 0.0490954 0)
(-0.239696 0.0772175 0)
(-0.298615 0.0992855 0)
(-0.361505 0.111826 0)
(-0.442392 0.112091 0)
(-0.750259 0.0943531 0)
(-0.469914 0.0756014 0)
(0.172454 0.184442 0)
(0.24312 0.181147 0)
(0.23349 0.149053 0)
(0.234696 0.108369 0)
(0.238203 0.0689827 0)
(0.237701 0.0355749 0)
(0.232529 0.00915824 0)
(0.22124 -0.0110786 0)
(0.205363 -0.0250849 0)
(0.186815 -0.0337956 0)
(0.167149 -0.0382282 0)
(0.14762 -0.0394032 0)
(0.12916 -0.0382598 0)
(0.11237 -0.0356373 0)
(0.0975726 -0.032329 0)
(0.084948 -0.0291394 0)
(0.0745646 -0.0266951 0)
(0.065049 -0.0251407 0)
(0.0510027 -0.0251952 0)
(0.0243966 -0.0309152 0)
(-0.0010787 -0.060396 0)
(-0.0109709 -0.115799 0)
(-0.0286934 -0.0837736 0)
(-0.0280052 -0.0458583 0)
(-0.050029 -0.0360445 0)
(-0.0723835 -0.0333697 0)
(-0.0950876 -0.0308624 0)
(-0.117753 -0.0251733 0)
(-0.137689 -0.0135522 0)
(-0.152338 0.00646301 0)
(-0.16274 0.03345 0)
(-0.17094 0.0660413 0)
(-0.180181 0.0965073 0)
(-0.186883 0.111417 0)
(-0.174642 0.0870406 0)
(-0.139308 -0.0273468 0)
(-0.292845 -0.262261 0)
(-0.23996 0.238415 0)
(0.0989328 0.172695 0)
(0.0908428 0.137821 0)
(0.123524 0.12065 0)
(0.162114 0.0926383 0)
(0.192354 0.0644265 0)
(0.209998 0.0431361 0)
(0.216103 0.030061 0)
(0.213545 0.0237581 0)
(0.205172 0.0199266 0)
(0.193201 0.0178962 0)
(0.179152 0.0177154 0)
(0.164202 0.0193935 0)
(0.149329 0.0228597 0)
(0.135282 0.0278996 0)
(0.122569 0.0339185 0)
(0.111501 0.0394102 0)
(0.102312 0.0428458 0)
(0.0945647 0.0479298 0)
(0.0851535 0.0621984 0)
(0.0682688 0.0657655 0)
(0.051555 0.0110445 0)
(0.0241373 -0.0990278 0)
(-0.0432453 -0.0645437 0)
(-0.0478431 0.0171788 0)
(-0.0646155 0.0467924 0)
(-0.0775892 0.0561646 0)
(-0.0880127 0.0608266 0)
(-0.0972262 0.0616414 0)
(-0.104493 0.0560628 0)
(-0.107153 0.0529881 0)
(-0.1019 0.0596356 0)
(-0.0884488 0.0776052 0)
(-0.0684419 0.101122 0)
(-0.0437981 0.119041 0)
(-0.00657408 0.112722 0)
(0.144481 0.028655 0)
(-0.197645 -0.182295 0)
(-0.151569 -0.356853 0)
(-0.429363 -0.0962085 0)
(-0.33643 0.144309 0)
(-0.146626 0.0451833 0)
(-0.0845364 0.0294102 0)
(0.0211904 0.0289688 0)
(0.0928996 0.00321654 0)
(0.146111 -0.022563 0)
(0.180951 -0.0455128 0)
(0.199135 -0.0660206 0)
(0.205391 -0.0850852 0)
(0.20398 -0.10124 0)
(0.19745 -0.11517 0)
(0.187688 -0.127919 0)
(0.176204 -0.140223 0)
(0.164201 -0.152538 0)
(0.152582 -0.165001 0)
(0.141922 -0.177351 0)
(0.132312 -0.188938 0)
(0.123111 -0.198794 0)
(0.1141 -0.205387 0)
(0.109197 -0.206395 0)
(0.112062 -0.202542 0)
(0.11396 -0.21607 0)
(0.0769624 -0.245831 0)
(-0.0608252 -0.26492 0)
(-0.0819054 -0.246586 0)
(-0.0977096 -0.23921 0)
(-0.106918 -0.233168 0)
(-0.112454 -0.223534 0)
(-0.113936 -0.207122 0)
(-0.110104 -0.180477 0)
(-0.0985043 -0.150271 0)
(-0.0750735 -0.115518 0)
(-0.0392047 -0.077704 0)
(0.0249011 -0.0311259 0)
(0.0879113 -0.0247593 0)
(0.146836 -0.053458 0)
(0.203573 -0.11969 0)
(-0.118816 -0.205328 0)
)
;

boundaryField
{
    floor
    {
        type            noSlip;
    }
    ceiling
    {
        type            noSlip;
    }
    sWall
    {
        type            noSlip;
    }
    nWall
    {
        type            noSlip;
    }
    sideWalls
    {
        type            empty;
    }
    glass1
    {
        type            noSlip;
    }
    glass2
    {
        type            noSlip;
    }
    sun
    {
        type            noSlip;
    }
    Table_master
    {
        type            noSlip;
    }
    Table_slave
    {
        type            noSlip;
    }
    inlet
    {
        type            fixedValue;
        value           uniform (0.212132 -0.212132 0);
    }
    outlet
    {
        type            zeroGradient;
    }
}


// ************************************************************************* //
