/*--------------------------------*- C++ -*----------------------------------*\
  =========                 |
  \\      /  F ield         | OpenFOAM: The Open Source CFD Toolbox
   \\    /   O peration     | Website:  https://openfoam.org
    \\  /    A nd           | Version:  6
     \\/     M anipulation  |
\*---------------------------------------------------------------------------*/
FoamFile
{
    version     2.0;
    format      ascii;
    class       volScalarField;
    location    "1400";
    object      alphat;
}
// * * * * * * * * * * * * * * * * * * * * * * * * * * * * * * * * * * * * * //

dimensions      [1 -1 -1 0 0 0 0];

internalField   nonuniform List<scalar> 
458
(
0.00143497
0.00157967
0.00161594
0.0016993
0.00178017
0.00186097
0.00193976
0.00199601
0.002022
0.00201203
0.00196222
0.0018659
0.00167345
0.00142114
0.00117489
0.000677618
0.000806442
0.000930255
0.00097276
0.000956487
0.000895761
0.000829715
0.000770624
0.000719442
0.00067511
0.00063657
0.000602762
0.000572932
0.000545896
0.000520281
0.000494328
0.000473247
0.000431835
0.00193099
0.00500842
0.00490852
0.00572755
0.00653255
0.00724915
0.00778342
0.00824979
0.00861709
0.00885057
0.00891912
0.0087912
0.00841101
0.00759822
0.00542218
0.00155059
0.00131871
0.00108336
0.000670811
0.00178534
0.00275811
0.00345354
0.00356385
0.00249582
0.0020759
0.00180134
0.00160202
0.00145057
0.00133137
0.00123571
0.00114666
0.0010532
0.000964116
0.000888006
0.0010229
0.000526483
0.00233527
0.00684084
0.0061308
0.00740673
0.00804135
0.00851828
0.00889594
0.0092807
0.00966313
0.0100086
0.0102668
0.0103688
0.0102235
0.00972641
0.00872257
0.00688666
0.00501492
0.00130436
0.00104837
0.0020881
0.00326349
0.0042929
0.00434826
0.00120892
0.0010486
0.000918447
0.00081452
0.00073131
0.000664121
0.000609364
0.000565472
0.00053274
0.000601388
0.000722506
0.00120749
0.000599771
0.00271678
0.00862152
0.00633064
0.00778405
0.00819478
0.00841389
0.00865024
0.00896483
0.00935594
0.00978901
0.0101873
0.0104293
0.0104288
0.0101813
0.00966562
0.00878495
0.00720646
0.00389712
0.00153219
0.00228613
0.00356186
0.00495853
0.00596842
0.00568914
0.00136478
0.0012373
0.00114566
0.00107326
0.00100965
0.000952587
0.000896522
0.000837323
0.000769494
0.000710919
0.000743561
0.00142925
0.000668354
0.00310225
0.0108631
0.00718427
0.00788867
0.00827722
0.00831409
0.00844852
0.0086851
0.00907357
0.00956145
0.0100208
0.010301
0.0103232
0.0101183
0.00977544
0.00932009
0.00852413
0.00711734
0.00675364
0.00716103
0.00780187
0.00835069
0.00858108
0.00824728
0.00666893
0.0058788
0.00540761
0.00504741
0.00467764
0.00418686
0.00360083
0.00294607
0.00226514
0.00165671
0.0012545
0.00135892
0.00109958
0.000870647
0.000920191
0.000996254
0.00350605
0.0133091
0.00984726
0.00874927
0.00887419
0.00868949
0.00859406
0.00868071
0.00902581
0.00955626
0.0100774
0.0103741
0.0103431
0.0100667
0.00975322
0.00957528
0.00953228
0.00951557
0.00993425
0.010396
0.010632
0.0105763
0.0102449
0.00965413
0.00879658
0.00807013
0.00748663
0.0069689
0.00645695
0.00586673
0.00518238
0.00440079
0.00354592
0.00270189
0.00203934
0.00158017
0.00132516
0.00118513
0.00148753
0.00103759
0.00384401
0.01484
0.0131341
0.0110951
0.0101306
0.00927778
0.00880714
0.00879113
0.00918923
0.00982628
0.0104233
0.010709
0.0105811
0.0102155
0.00999494
0.0102291
0.0108151
0.0113888
0.0118971
0.0120793
0.0118887
0.0113861
0.0106693
0.00982772
0.00894214
0.00816937
0.00751527
0.00693013
0.00639864
0.00591042
0.00545468
0.00487929
0.00419619
0.00344036
0.00277421
0.00222614
0.00188642
0.00177401
0.00170012
0.00125871
0.00388118
0.0123076
0.0112015
0.00999242
0.00907835
0.00849955
0.00839777
0.00879943
0.00957798
0.0104604
0.0111131
0.0112784
0.0109529
0.0105381
0.0106757
0.0114785
0.0120529
0.0123908
0.0125066
0.0122719
0.0116772
0.010809
0.00978256
0.00871469
0.00772635
0.00690961
0.00625402
0.00571945
0.00529183
0.00497541
0.00477378
0.0046423
0.00434605
0.00390134
0.00354903
0.00340449
0.00356908
0.00390116
0.00477383
0.00191998
0.00375838
0.00435535
0.00461768
0.00479887
0.0053632
0.00641004
0.00782565
0.00940461
0.0108578
0.0118498
0.0121567
0.0117749
0.0111263
0.011109
0.0115254
0.0119234
0.0120632
0.0119792
0.0116564
0.0110319
0.010108
0.0089711
0.00776685
0.00665162
0.00574206
0.00505485
0.00453544
0.00413191
0.0038144
0.00356341
0.00336128
0.00319996
0.00308434
0.0030018
0.0029587
0.00293751
0.00287001
0.00271313
0.00251886
0.00175708
0.00115267
0.00569156
0.0100104
0.0126948
0.0141155
0.0145759
0.0143506
0.0136525
0.0125519
0.011435
0.0108035
0.0108095
0.0108995
0.0107965
0.0105184
0.0100833
0.00944444
0.00857917
0.00755106
0.00647923
0.00549642
0.004707
0.00414243
0.00374868
0.00346426
0.00325184
0.0030948
0.00298847
0.00293396
0.00292117
0.00293118
0.00295079
0.00295838
0.00291381
0.00276653
0.00250767
0.00216985
0.00140801
0.00353977
0.0116973
0.0130036
0.0131428
0.0127672
0.0120784
0.0112084
0.0103126
0.00947928
0.00886921
0.00852665
0.00828047
0.00798231
0.00764439
0.00726392
0.0067989
0.00622456
0.0055757
0.00493239
0.00436864
0.00391898
0.00358059
0.00334344
0.00317847
0.00306384
0.00298712
0.00293976
0.00291678
0.00293223
0.00298183
0.00305791
0.00314628
0.00322216
0.00326655
0.00322779
0.00317391
0.00274995
0.00142666
0.00232498
0.00268966
0.00286099
0.00284403
0.00271695
0.0026479
0.00253634
0.00236373
0.00213915
0.00189688
0.00168012
0.0015108
0.00138827
0.00130152
0.00123807
0.0011869
0.00113977
0.00109236
0.00104479
0.00100079
0.000964876
0.000939902
0.000926844
0.000924922
0.000930714
0.000943278
0.000962328
0.000988208
0.00102195
0.00106484
0.00111586
0.00117542
0.0012438
0.00132124
0.00140704
0.00151984
0.00155617
0.00152015
0.00141454
0.00130363
)
;

boundaryField
{
    floor
    {
        type            compressible::alphatWallFunction;
        Prt             0.85;
        value           nonuniform List<scalar> 
36
(
0.000166591
9.5835e-05
0.000114627
0.000132357
0.000138381
0.000136082
0.000127454
0.000117991
0.000109448
0.000101986
9.54705e-05
8.97644e-05
8.4724e-05
8.02481e-05
7.61665e-05
7.22764e-05
6.83105e-05
6.50696e-05
5.86499e-05
5.86491e-05
7.32183e-05
8.42734e-05
9.44702e-05
0.000123873
0.000130949
0.000141714
0.000166589
0.000217671
0.000186338
0.000153887
9.58338e-05
0.000153885
9.48265e-05
0.000184375
0.000148986
0.000215201
)
;
    }
    ceiling
    {
        type            compressible::alphatWallFunction;
        Prt             0.85;
        value           nonuniform List<scalar> 
43
(
0.000319167
0.000365426
0.000386956
0.000384886
0.000368922
0.000360213
0.000346085
0.000324087
0.000295205
0.000263678
0.000235101
0.000212498
0.000195967
0.000184164
0.000175474
0.000168428
0.000161906
0.000155313
0.000148663
0.000142482
0.000137412
0.000133874
0.000132019
0.000131746
0.000132569
0.000134353
0.000137051
0.000140707
0.000145456
0.000151467
0.00015858
0.000166838
0.000176259
0.000186857
0.000198518
0.00021373
0.000218603
0.000213774
0.000199538
0.00018446
0.000498093
0.000570304
0.000470956
)
;
    }
    sWall
    {
        type            compressible::alphatWallFunction;
        Prt             0.85;
        value           uniform 0.000318024;
    }
    nWall
    {
        type            compressible::alphatWallFunction;
        Prt             0.85;
        value           nonuniform List<scalar> 6(0.000141476 0.000147277 0.000177913 0.000198298 0.000200819 0.000184101);
    }
    sideWalls
    {
        type            empty;
    }
    glass1
    {
        type            compressible::alphatWallFunction;
        Prt             0.85;
        value           nonuniform List<scalar> 9(0.000196808 0.000261753 0.000313486 0.000361535 0.000409437 0.00045901 0.000500109 0.000504772 0.000490193);
    }
    glass2
    {
        type            compressible::alphatWallFunction;
        Prt             0.85;
        value           nonuniform List<scalar> 2(0.000264388 0.000243199);
    }
    sun
    {
        type            compressible::alphatWallFunction;
        Prt             0.85;
        value           nonuniform List<scalar> 
14
(
0.000202148
0.000221579
0.000226423
0.000237508
0.000248207
0.000258843
0.000269164
0.000276505
0.000279886
0.000278584
0.000272086
0.000259475
0.000234043
0.000200239
)
;
    }
    Table_master
    {
        type            compressible::alphatWallFunction;
        Prt             0.85;
        value           nonuniform List<scalar> 9(0.00017152 0.000149251 0.000130881 0.000115992 0.000103909 9.40302e-05 8.58895e-05 7.92991e-05 7.43434e-05);
    }
    Table_slave
    {
        type            compressible::alphatWallFunction;
        Prt             0.85;
        value           nonuniform List<scalar> 9(0.000192853 0.000175432 0.000162781 0.000152705 0.000143786 0.000135731 0.00012776 0.00011928 0.000109475);
    }
    inlet
    {
        type            fixedValue;
        value           uniform 1.94e-05;
    }
    outlet
    {
        type            zeroGradient;
    }
}


// ************************************************************************* //
