/*--------------------------------*- C++ -*----------------------------------*\
  =========                 |
  \\      /  F ield         | OpenFOAM: The Open Source CFD Toolbox
   \\    /   O peration     | Website:  https://openfoam.org
    \\  /    A nd           | Version:  6
     \\/     M anipulation  |
\*---------------------------------------------------------------------------*/
FoamFile
{
    version     2.0;
    format      ascii;
    class       surfaceScalarField;
    location    "1400";
    object      phi;
}
// * * * * * * * * * * * * * * * * * * * * * * * * * * * * * * * * * * * * * //

dimensions      [1 0 -1 0 0 0 0];

internalField   nonuniform List<scalar> 
850
(
-0.00317236
0.00323551
-0.00433466
0.00116238
-0.00513971
0.000805126
-0.0056812
0.000541566
-0.00591844
0.000237326
-0.00582294
-9.54239e-05
-0.00537848
-0.000444374
-0.00461606
-0.000762333
-0.00361866
-0.00099732
-0.00249656
-0.00112202
-0.00136728
-0.0011292
-0.000362009
-0.0010052
0.00030879
-0.000670736
0.000520119
-0.000211269
0.000523334
-0.000984547
0.000988888
-0.000656787
-0.000327766
0.000114571
-0.000771358
0.000803821
-0.000689252
0.00130492
-0.000501105
0.00158128
-0.000276368
0.00170211
-0.000120834
0.00176571
-6.36237e-05
0.00180633
-4.06313e-05
0.00183157
-2.52645e-05
0.0018454
-1.3852e-05
0.00184758
-2.21055e-06
0.00182923
1.83175e-05
0.00176523
6.39673e-05
0.00161261
0.000152581
0.00134967
0.000262902
0.000970547
0.000379072
0.000976043
-0.00226421
0.00566922
-0.00338298
0.00228123
-0.00421539
0.00163761
-0.00476172
0.00108798
-0.00500779
0.00048348
-0.00492979
-0.000173335
-0.00452468
-0.000849388
-0.00384276
-0.00144416
-0.00297975
-0.00186023
-0.00204355
-0.00205813
-0.00113725
-0.00203542
-0.000350617
-0.00179175
0.00027296
-0.00129424
0.000742697
-0.00068094
0.00139634
-0.000130244
0.00137523
2.62257e-05
0.00101881
0.000362205
0.0010355
0.000157383
0.000844606
0.000630909
-0.000801286
0.00102137
-0.00116181
0.0013642
-0.00103207
0.00163039
-0.000767291
0.00169067
-0.000336648
0.00169966
-0.000129827
0.0017108
-7.47691e-05
0.00172042
-5.02707e-05
0.00172658
-3.14353e-05
0.00173023
-1.75277e-05
0.00173105
-3.05697e-06
0.00172501
2.43227e-05
0.00168125
0.00010769
0.00149425
0.000339544
0.0011732
0.000583911
0.00076553
0.000786687
0.00175623
-0.00158262
0.00751091
-0.00254307
0.00324175
-0.00328594
0.00238056
-0.00375874
0.00156086
-0.00396331
0.000688131
-0.00385983
-0.000276724
-0.00345037
-0.00125875
-0.00281674
-0.00207768
-0.00207055
-0.0026063
-0.00130658
-0.00282199
-0.00059799
-0.00274391
4.81245e-06
-0.00239447
0.000509562
-0.00179892
0.00093147
-0.00110278
0.00125095
-0.000449662
0.00120284
7.43975e-05
0.000862919
0.000702187
0.00191297
0.0015956
-0.000734715
0.00183366
-0.00103933
0.00181098
-0.00113911
0.00186359
-0.00108467
0.00206269
-0.000966376
0.0017262
0.00159653
0.00152191
0.00147178
0.00144048
0.00142309
0.00142016
0.0014446
0.00155241
0.0012698
0.000622108
0.00094243
0.000911236
0.000555844
0.00117322
0.00233448
-0.001098
0.00894445
-0.00185007
0.0039939
-0.00233875
0.00286931
-0.0026313
0.00185349
-0.00269837
0.00075528
-0.00248078
-0.000494234
-0.00202786
-0.00171156
-0.00145414
-0.00265128
-0.000862822
-0.00319749
-0.000311691
-0.003373
0.000165916
-0.00322141
0.000555666
-0.00278414
0.00089173
-0.00213492
0.00117799
-0.00138898
0.00139091
-0.000662518
0.00147959
-1.42165e-05
0.00159529
0.000586547
0.00260299
0.000905325
0.00252768
9.04502e-05
0.00229642
-0.000503403
0.00217376
-0.000916624
0.00203901
-0.00100433
0.00189996
-0.000945606
0.00167841
-0.000744816
0.00200701
-0.000328751
0.0021609
-0.000154052
0.0022505
-8.97618e-05
0.00229673
-4.63983e-05
0.00229129
5.26368e-06
0.00221892
7.22025e-05
0.00205798
0.000160759
0.00177363
0.00028416
0.00130153
0.000471911
0.00109497
0.000828631
0.000762608
0.00124355
0.000320439
0.00161534
0.00268397
-0.000762618
0.0101077
-0.00132283
0.00455419
-0.00140243
0.00294897
-0.00138219
0.00183331
-0.00114215
0.000515306
-0.000697216
-0.000939091
-0.000201337
-0.00220733
0.000243045
-0.00309551
0.00059911
-0.0035534
0.000862288
-0.00363604
0.00104638
-0.00340539
0.00118128
-0.00291896
0.00129419
-0.00224776
0.00139792
-0.00149266
0.00150129
-0.000765838
0.00163445
-0.000147313
0.00190207
0.000318996
0.00233368
0.00047377
0.00235458
6.96126e-05
0.00224733
-0.000396101
0.00201939
-0.000688646
0.0017941
-0.00077901
0.00158614
-0.00073763
0.00143035
-0.000589032
0.00145954
-0.000357952
0.00150766
-0.000202192
0.00154475
-0.00012687
0.001575
-7.66794e-05
0.00159212
-1.18848e-05
0.00158006
8.42245e-05
0.0015215
0.000219284
0.00140369
0.00040193
0.00123299
0.000642563
0.00108171
0.000979871
0.00093182
0.00139339
0.000600233
0.00194687
0.000919856
0.00236429
-0.00132773
0.00227328
-0.00199891
0.000694946
-0.00191647
-0.000644243
0.0112078
-0.000995884
0.0049059
-0.000458517
0.00241167
0.000153818
0.00122103
0.000871243
-0.000202081
0.0015256
-0.00159336
0.00195339
-0.00263497
0.00215926
-0.00330122
0.00219755
-0.00359153
0.00211205
-0.00355039
0.0019485
-0.00324172
0.00175785
-0.00272824
0.0015802
-0.00207006
0.00144172
-0.00135414
0.00136497
-0.000689054
0.00137701
-0.000159305
0.00150982
0.000186239
0.00171589
0.000267747
0.00174761
3.79402e-05
0.00161341
-0.00026186
0.00139201
-0.000467227
0.00116129
-0.000548281
0.000953993
-0.000530337
0.000803686
-0.000438745
0.000751792
-0.000306086
0.000761756
-0.000212191
0.000801126
-0.000166279
0.000859726
-0.000135322
0.000932996
-8.52001e-05
0.00100463
1.25453e-05
0.00105745
0.000166416
0.00109259
0.000366734
0.00111701
0.000618099
0.00117097
0.000925856
0.00131229
0.00125202
0.00157148
0.00168763
0.00202751
0.00190821
0.00240836
0.00189237
0.0018928
0.00121043
4.84142e-05
-0.000601516
0.0123165
-0.000330076
0.00463453
0.00121053
0.000871114
0.00255245
-0.000120859
0.00357528
-0.00122483
0.00414518
-0.00216313
0.00432426
-0.00281388
0.00417863
-0.0031554
0.0037956
-0.00320832
0.00326347
-0.00301812
0.00266814
-0.00264629
0.00208606
-0.0021461
0.00156998
-0.00155397
0.00115704
-0.000941195
0.000877769
-0.000409774
0.000744668
-2.61816e-05
0.000757219
0.00017372
0.000835731
0.000189268
0.000831474
4.22231e-05
0.000714903
-0.000145278
0.000531066
-0.000283392
0.000329576
-0.000346808
0.000146827
-0.000347617
1.48076e-05
-0.000306764
-4.0488e-05
-0.000250836
-3.3173e-05
-0.000219557
1.41125e-05
-0.000213619
9.19485e-05
-0.000213215
0.000201803
-0.000195112
0.000347043
-0.000132752
0.000509409
3.99069e-06
0.000677737
0.000198346
0.000865852
0.000429926
0.00109866
0.000692996
0.00140816
0.000942457
0.00185696
0.00123877
0.00247843
0.00128667
0.00337487
0.000995864
0.00364196
0.000943282
0.00376512
0.00311511
0.00977074
0.0041483
0.0036014
0.00545883
-0.000439357
0.00672
-0.00138192
0.00730012
-0.00180478
0.00729646
-0.00215926
0.00683891
-0.0023561
0.00604525
-0.00236153
0.00503732
-0.00220022
0.00393333
-0.001914
0.00284345
-0.00155634
0.0018571
-0.00115973
0.00102521
-0.000722119
0.000395382
-0.000311399
-4.99869e-07
-1.39199e-05
-0.000171405
0.000144719
-0.000187223
0.000189548
-0.000158364
0.000160417
-0.000179913
6.37684e-05
-0.00027636
-4.88489e-05
-0.000423514
-0.000136271
-0.000583855
-0.000186509
-0.000725881
-0.000205642
-0.000826477
-0.000206225
-0.000873351
-0.000204025
-0.000878477
-0.000214497
-0.000856844
-0.000235319
-0.000814652
-0.000255476
-0.000747199
-0.000262635
-0.000637154
-0.000242867
-0.000455909
-0.000177323
-0.000221008
-3.66209e-05
4.75866e-05
0.000161265
0.000352583
0.000387935
0.000671203
0.000623775
0.00104409
0.000865821
0.00144674
0.000883969
0.00179956
0.00064298
0.00101839
0.00172439
0.00510456
0.0104074
0.0140092
0.013612
-4.19615e-05
0.012798
-0.000567625
0.0117277
-0.000734182
0.0103154
-0.000746616
0.00862033
-0.000660831
0.0067967
-0.00053774
0.0049902
-0.000393629
0.00331273
-0.000236494
0.00183258
-7.62014e-05
0.000595412
7.73839e-05
-0.000317685
0.000190868
-0.000854283
0.000225135
-0.00108882
0.000220579
-0.0011544
0.000210281
-0.00115478
0.000189912
-0.00114608
0.000151691
-0.00117388
9.15271e-05
-0.00124961
2.68377e-05
-0.00135945
-2.64907e-05
-0.00148022
-6.58049e-05
-0.00159071
-9.52174e-05
-0.0016792
-0.000117811
-0.00174539
-0.000137902
-0.00180227
-0.000157698
-0.0018652
-0.000172472
-0.00194788
-0.000172873
-0.00206383
-0.00014676
-0.00222862
-7.81565e-05
-0.00245377
4.77553e-05
-0.00273347
0.00024301
-0.0031024
0.000530126
-0.00364809
0.000933554
-0.00447186
0.00144748
-0.00562971
0.0020236
-0.00723255
0.00248674
-0.00907561
0.00248597
-0.00843807
0.00108678
-0.00297995
0.00388058
0.000524103
0.00342148
-0.000108787
0.00315314
-0.000466169
0.00255399
-0.000147801
0.0016753
0.000217571
0.000705832
0.000431474
-0.000200718
0.000512682
-0.00094246
0.000505119
-0.001479
0.000460241
-0.00181855
0.000416851
-0.00199577
0.000368011
-0.00207313
0.000302428
-0.00209222
0.00023962
-0.00207677
0.000194787
-0.00205008
0.000163177
-0.00203321
0.000134769
-0.00204494
0.000103188
-0.00208935
7.11843e-05
-0.00215897
4.3049e-05
-0.00224306
1.82085e-05
-0.00233101
-7.35353e-06
-0.00241441
-3.44944e-05
-0.00249707
-5.53173e-05
-0.00258722
-6.7641e-05
-0.00269058
-6.91949e-05
-0.00280762
-5.59066e-05
-0.00293176
-2.27054e-05
-0.00304853
3.85334e-05
-0.00315214
0.000151288
-0.0032473
0.000338095
-0.00334357
0.00062632
-0.00345192
0.00104183
-0.00357812
0.00157361
-0.00366735
0.00211276
-0.00361272
0.00243203
-0.003196
0.00206918
-0.00178941
-0.000319897
-0.00467918
-0.00206431
0.00263055
-0.0024556
0.000282174
-0.00295219
3.00959e-05
-0.00327591
0.000175618
-0.00340241
0.000343804
-0.00343274
0.000461574
-0.00342135
0.000501114
-0.00338338
0.000467019
-0.00332193
0.000398691
-0.00323373
0.000328564
-0.00312889
0.000263095
-0.00303016
0.000203625
-0.00294856
0.000157946
-0.00288177
0.000127934
-0.00282647
0.000107803
-0.00278224
9.04646e-05
-0.00275087
7.17353e-05
-0.0027317
5.19248e-05
-0.00272135
3.26176e-05
-0.00271743
1.41942e-05
-0.0027206
-4.27367e-06
-0.00272969
-2.54949e-05
-0.00274565
-3.94499e-05
-0.00276893
-4.44499e-05
-0.00279827
-3.99401e-05
-0.00283011
-2.4161e-05
-0.0028589
6.0046e-06
-0.00287009
4.96412e-05
-0.00284077
0.000121883
-0.00274213
0.000239367
-0.00253676
0.000420871
-0.0021925
0.000697489
-0.00171335
0.00109438
-0.00108603
0.00148537
-5.74598e-05
0.00140338
0.0013182
0.000693432
0.00164453
-0.000646313
-0.00293541
0.00162013
-0.00988914
-0.00722806
-0.00692518
-0.00687728
-0.00668569
-0.0063273
-0.0058521
-0.00533785
-0.00485775
-0.00444578
-0.0041037
-0.00382691
-0.00360948
-0.00343768
-0.00329582
-0.00317397
-0.00306925
-0.00298292
-0.00291599
-0.00286792
-0.00283786
-0.00282593
-0.00283499
-0.00285784
-0.00288561
-0.00290888
-0.00291646
-0.00289405
-0.00282827
-0.0026906
-0.00243586
-0.00200012
-0.00128831
-0.000180219
0.00131796
0.00273367
0.00343938
0.0028058
)
;

boundaryField
{
    floor
    {
        type            calculated;
        value           nonuniform List<scalar> 
36
(
0
0
0
0
0
0
0
0
0
0
0
0
0
0
0
0
0
0
0
-5.54847e-06
-1.47106e-05
-2.24653e-05
-2.91029e-05
-2.57679e-05
-2.38509e-05
-2.2565e-05
-3.15663e-06
-5.05556e-06
-5.73172e-06
-6.62791e-06
-4.35326e-06
-1.00191e-05
-1.3117e-05
-1.44982e-05
-1.62755e-05
-1.50798e-05
)
;
    }
    ceiling
    {
        type            calculated;
        value           nonuniform List<scalar> 
43
(
-1.23295e-05
-2.88146e-05
-3.08453e-05
-2.09726e-05
-1.80356e-05
-1.6171e-05
-1.47645e-05
-1.37802e-05
-1.32659e-05
-1.31931e-05
-1.33779e-05
-1.36119e-05
-1.37883e-05
-1.38905e-05
-1.39489e-05
-1.4013e-05
-1.41346e-05
-1.43543e-05
-1.46851e-05
-1.51011e-05
-1.55465e-05
-1.59611e-05
-1.62989e-05
-1.65375e-05
-1.66935e-05
-1.67685e-05
-1.67629e-05
-1.66743e-05
-1.64972e-05
-1.62257e-05
-1.58757e-05
-1.54518e-05
-1.49603e-05
-1.44062e-05
-1.37941e-05
-1.28921e-05
-1.24164e-05
-1.23591e-05
-1.28217e-05
-1.27065e-05
1.41326e-06
-3.59346e-07
-4.25683e-05
)
;
    }
    sWall
    {
        type            calculated;
        value           uniform -0.000212226;
    }
    nWall
    {
        type            calculated;
        value           nonuniform List<scalar> 6(-5.9948e-05 -7.21567e-05 -7.48132e-05 -9.02673e-05 -9.93272e-05 -0.000116988);
    }
    sideWalls
    {
        type            empty;
        value           nonuniform 0();
    }
    glass1
    {
        type            calculated;
        value           nonuniform List<scalar> 9(-6.30723e-05 -0.000169424 -0.000258994 -0.000335462 -0.000400578 -0.000455736 -0.000507122 -0.000569294 -0.000637974);
    }
    glass2
    {
        type            calculated;
        value           nonuniform List<scalar> 2(-0.00032112 -0.000353627);
    }
    sun
    {
        type            calculated;
        value           uniform 0;
    }
    Table_master
    {
        type            calculated;
        value           nonuniform List<scalar> 9(-1.54389e-07 -1.5457e-07 -1.54629e-07 -1.54665e-07 -1.54688e-07 -1.54702e-07 -1.54709e-07 -1.547e-07 -1.54659e-07);
    }
    Table_slave
    {
        type            calculated;
        value           nonuniform List<scalar> 9(1.54178e-07 1.54185e-07 1.54143e-07 1.54117e-07 1.54109e-07 1.54106e-07 1.54129e-07 1.54185e-07 1.54287e-07);
    }
    inlet
    {
        type            calculated;
        value           uniform -0.00444667;
    }
    outlet
    {
        type            calculated;
        value           nonuniform List<scalar> 2(-0.00139588 0.0115378);
    }
}


// ************************************************************************* //
