// -*- C++ -*-
// File generated by PyFoam - sorry for the ugliness

FoamFile
{
 version 2.0;
 format ascii;
 class volScalarField;
 location "1200";
 object T;
}

dimensions [ 0 0 0 1 0 0 0 ];

internalField nonuniform List<scalar> 458
(
  304.609
  304.407
  304.388
  304.377
  304.359
  304.342
  304.331
  304.33
  304.334
  304.34
  304.348
  304.358
  304.37
  304.384
  304.406
  304.929
  304.868
  304.821
  304.792
  304.794
  304.814
  304.837
  304.861
  304.885
  304.909
  304.933
  304.957
  304.982
  305.006
  305.032
  305.06
  305.096
  305.15
  304.742
  304.452
  304.424
  304.405
  304.362
  304.328
  304.309
  304.305
  304.306
  304.312
  304.319
  304.329
  304.341
  304.358
  304.383
  304.395
  304.414
  304.45
  304.961
  304.902
  304.763
  304.737
  304.742
  304.763
  304.791
  304.821
  304.853
  304.885
  304.919
  304.952
  304.986
  305.018
  305.05
  305.082
  305.117
  305.168
  304.891
  304.52
  304.488
  304.437
  304.356
  304.311
  304.288
  304.281
  304.283
  304.289
  304.298
  304.307
  304.32
  304.336
  304.357
  304.376
  304.397
  304.431
  304.959
  304.784
  304.701
  304.684
  304.706
  304.729
  304.763
  304.801
  304.845
  304.892
  304.944
  304.999
  305.055
  305.098
  305.119
  305.134
  305.152
  305.187
  305.037
  304.609
  304.547
  304.432
  304.338
  304.282
  304.258
  304.254
  304.26
  304.269
  304.28
  304.292
  304.305
  304.321
  304.341
  304.361
  304.384
  304.414
  304.428
  304.522
  304.54
  304.572
  304.628
  304.695
  304.759
  304.805
  304.845
  304.881
  304.916
  304.951
  304.984
  305.017
  305.051
  305.096
  305.137
  305.167
  305.2
  305.243
  304.741
  304.552
  304.379
  304.271
  304.222
  304.214
  304.225
  304.242
  304.259
  304.275
  304.291
  304.306
  304.321
  304.339
  304.358
  304.379
  304.403
  304.423
  304.455
  304.501
  304.574
  304.667
  304.763
  304.848
  304.914
  304.967
  305.016
  305.057
  305.09
  305.117
  305.137
  305.15
  305.16
  305.173
  305.189
  305.21
  305.276
  305.704
  305.637
  305.443
  304.905
  304.461
  304.214
  304.13
  304.136
  304.176
  304.22
  304.256
  304.285
  304.308
  304.323
  304.334
  304.345
  304.359
  304.375
  304.396
  304.421
  304.455
  304.509
  304.59
  304.695
  304.808
  304.912
  304.998
  305.065
  305.12
  305.162
  305.194
  305.218
  305.235
  305.244
  305.244
  305.237
  305.229
  305.226
  305.232
  305.27
  305.369
  305.423
  304.166
  303.676
  303.449
  303.651
  303.916
  304.115
  304.243
  304.318
  304.368
  304.39
  304.389
  304.388
  304.39
  304.397
  304.411
  304.43
  304.459
  304.502
  304.571
  304.668
  304.782
  304.902
  305.014
  305.109
  305.182
  305.239
  305.277
  305.304
  305.323
  305.337
  305.344
  305.344
  305.335
  305.318
  305.297
  305.28
  305.273
  305.292
  305.336
  305.395
  303.395
  302.417
  302.457
  304.175
  304.542
  304.586
  304.567
  304.54
  304.517
  304.502
  304.491
  304.487
  304.49
  304.502
  304.523
  304.557
  304.607
  304.685
  304.791
  304.918
  305.045
  305.154
  305.248
  305.318
  305.367
  305.396
  305.416
  305.429
  305.438
  305.443
  305.442
  305.435
  305.421
  305.402
  305.376
  305.354
  305.342
  305.357
  305.387
  305.467
  302.996
  301.98
  301.902
  304.539
  304.804
  304.792
  304.747
  304.706
  304.674
  304.655
  304.648
  304.65
  304.664
  304.689
  304.728
  304.783
  304.859
  304.957
  305.074
  305.195
  305.304
  305.389
  305.45
  305.49
  305.514
  305.528
  305.536
  305.54
  305.541
  305.538
  305.531
  305.52
  305.506
  305.494
  305.487
  305.491
  305.508
  305.535
  305.557
  305.604
  300.048
  304.67
  304.973
  304.962
  304.926
  304.896
  304.874
  304.865
  304.869
  304.884
  304.911
  304.952
  305.006
  305.075
  305.158
  305.253
  305.351
  305.442
  305.516
  305.569
  305.603
  305.623
  305.633
  305.637
  305.637
  305.633
  305.626
  305.617
  305.605
  305.59
  305.576
  305.563
  305.555
  305.556
  305.568
  305.592
  305.632
  305.762
  304.947
  305.131
  305.159
  305.146
  305.13
  305.119
  305.115
  305.12
  305.136
  305.162
  305.199
  305.246
  305.302
  305.366
  305.435
  305.505
  305.571
  305.625
  305.666
  305.692
  305.707
  305.713
  305.714
  305.711
  305.705
  305.697
  305.687
  305.676
  305.663
  305.649
  305.635
  305.622
  305.611
  305.606
  305.608
  305.628
  305.676
  305.746
  515.833
  440.295
  309.073
  305.468
  305.375
  305.38
  305.39
  305.401
  305.414
  305.43
  305.453
  305.481
  305.515
  305.551
  305.59
  305.63
  305.668
  305.701
  305.729
  305.748
  305.76
  305.765
  305.766
  305.762
  305.757
  305.749
  305.741
  305.732
  305.722
  305.712
  305.702
  305.692
  305.682
  305.672
  305.664
  305.658
  305.659
  305.685
  305.735
  305.811
)
;

boundaryField
{
  floor
  {
    type wallHeatTransfer;
    Tinf uniform 305.2;
    alphaWall uniform 0.24;
    value nonuniform List<scalar> 36
(
  304.502
  304.981
  304.925
  304.879
  304.851
  304.85
  304.869
  304.893
  304.916
  304.939
  304.961
  304.982
  305.003
  305.024
  305.045
  305.066
  305.09
  305.119
  305.162
  305.162
  305.175
  305.19
  305.2
  305.26
  305.616
  305.568
  304.502
  304.482
  304.507
  304.55
  304.981
  304.55
  305.007
  304.524
  305.007
  304.518
)
;
  }
  ceiling
  {
    type wallHeatTransfer;
    Tinf uniform 303.2;
    alphaWall uniform 0.24;
    value nonuniform List<scalar> 43
(
  502.425
  431.358
  308.586
  305.269
  305.181
  305.186
  305.196
  305.208
  305.222
  305.238
  305.261
  305.288
  305.32
  305.354
  305.391
  305.427
  305.462
  305.492
  305.515
  305.531
  305.539
  305.542
  305.539
  305.534
  305.527
  305.519
  305.509
  305.498
  305.486
  305.473
  305.458
  305.444
  305.429
  305.416
  305.404
  305.395
  305.394
  305.416
  305.467
  305.532
  303.007
  302.039
  304.836
)
;
  }
  sWall
  {
    type wallHeatTransfer;
    Tinf uniform 315.2;
    alphaWall uniform 0.36;
    value uniform 497.591;
  }
  nWall
  {
    type wallHeatTransfer;
    Tinf uniform 307.2;
    alphaWall uniform 0.36;
    value nonuniform List<scalar> 6
(
  305.978
  305.803
  305.771
  305.97
  305.938
  306.023
)
;
  }
  sideWalls
  {
    type empty;
  }
  glass1
  {
    type wallHeatTransfer;
    Tinf uniform 315.2;
    alphaWall uniform 4.3;
    value nonuniform List<scalar> 9
(
  311.344
  310.953
  310.679
  310.474
  310.565
  310.672
  309.471
  308.869
  309.098
)
;
  }
  glass2
  {
    type wallHeatTransfer;
    Tinf uniform 307.2;
    alphaWall uniform 4.3;
    value nonuniform List<scalar> 2
(
  306.701
  306.713
)
;
  }
  sun
  {
    type wallHeatTransfer;
    Tinf uniform 305.2;
    alphaWall uniform 0.24;
    value nonuniform List<scalar> 14
(
  304.661
  304.47
  304.45
  304.436
  304.419
  304.403
  304.396
  304.399
  304.406
  304.416
  304.427
  304.442
  304.457
  304.476
)
;
  }
  Table_master
  {
    type zeroGradient;
  }
  Table_slave
  {
    type zeroGradient;
  }
  inlet
  {
    type fixedValue;
    value uniform 296.15;
  }
  outlet
  {
    type zeroGradient;
  }
} 	// ************************************************************************* //

