/*--------------------------------*- C++ -*----------------------------------*\
  =========                 |
  \\      /  F ield         | OpenFOAM: The Open Source CFD Toolbox
   \\    /   O peration     | Website:  https://openfoam.org
    \\  /    A nd           | Version:  6
     \\/     M anipulation  |
\*---------------------------------------------------------------------------*/
FoamFile
{
    version     2.0;
    format      ascii;
    class       volScalarField;
    location    "1200";
    object      alphat;
}
// * * * * * * * * * * * * * * * * * * * * * * * * * * * * * * * * * * * * * //

dimensions      [1 -1 -1 0 0 0 0];

internalField   nonuniform List<scalar> 
458
(
0.000829213
0.000854704
0.000805605
0.000834924
0.000863925
0.000890364
0.000914601
0.000937381
0.000959651
0.000982724
0.00100244
0.00101734
0.00102747
0.0010347
0.00103916
0.0005038
0.00059929
0.000603531
0.000506377
0.000403997
0.000292462
0.000280639
0.000289515
0.000304267
0.000306192
0.000295129
0.000277476
0.000260043
0.000272528
0.000364027
0.000460465
0.000470766
0.000425352
0.0013805
0.00228736
0.00177321
0.00224881
0.00242427
0.00260259
0.00278183
0.0029478
0.00308054
0.00315315
0.0031767
0.00311162
0.00290462
0.00247758
0.00178258
0.00110852
0.00105882
0.000786499
0.000688115
0.00142806
0.00163877
0.00162203
0.00122642
0.000943336
0.000809063
0.00081007
0.000854906
0.000854345
0.000764402
0.00061022
0.000452278
0.00039843
0.000753655
0.00120956
0.00148938
0.000601535
0.00187302
0.00372823
0.00188955
0.00327143
0.00365115
0.00386314
0.00404069
0.00418861
0.00430439
0.00438043
0.00442237
0.0044023
0.00427784
0.00399172
0.00349821
0.00282404
0.00199363
0.00114219
0.000984077
0.00273426
0.00246293
0.00201298
0.00155672
0.000600445
0.000502035
0.00045009
0.00041489
0.000387426
0.000363154
0.000338673
0.000314214
0.00035807
0.00120544
0.00180593
0.00146829
0.000647846
0.00235423
0.00569515
0.00205446
0.00357422
0.00435945
0.00458677
0.00472735
0.00483312
0.00491631
0.00498048
0.00503469
0.00507968
0.00509284
0.00502438
0.00478161
0.00423621
0.00329468
0.00208974
0.0011932
0.00269487
0.0028497
0.00238028
0.00178969
0.00123671
0.000838972
0.000853876
0.000884814
0.000929284
0.000990644
0.00108527
0.0011345
0.00115898
0.00114836
0.00133838
0.00168787
0.00209568
0.00108146
0.00281743
0.00801712
0.00282161
0.00328762
0.00459911
0.00492243
0.00504754
0.00511705
0.00516106
0.00519746
0.00524044
0.00532959
0.00546525
0.0056305
0.00578711
0.00588171
0.00586492
0.00567955
0.0052772
0.00494564
0.004518
0.00408572
0.0037724
0.00356892
0.00345324
0.00346118
0.00355079
0.00370999
0.00393405
0.0041987
0.00439713
0.0044875
0.00444595
0.00425344
0.00370456
0.00319789
0.00236243
0.00120001
0.0010995
0.00111522
0.00326818
0.0103021
0.00480561
0.00310101
0.00411682
0.0047516
0.00504113
0.00517967
0.00522146
0.0052051
0.00518307
0.00525184
0.00539393
0.00559776
0.00584802
0.00611307
0.00632803
0.00637486
0.00616433
0.00577208
0.00533616
0.00496152
0.00467793
0.00445218
0.00426252
0.00412962
0.00407958
0.0041168
0.00424689
0.00449849
0.0047955
0.004964
0.00504205
0.00507128
0.00485201
0.00437477
0.00368981
0.00270173
0.00208182
0.00116362
0.00369131
0.0120947
0.00829483
0.0048314
0.00359127
0.00372451
0.0043073
0.00482235
0.00512655
0.00513571
0.00505442
0.00507709
0.00515949
0.00529357
0.00547983
0.00571215
0.00594568
0.00607447
0.00600913
0.00577375
0.00547483
0.00520434
0.00497582
0.0047514
0.00451213
0.00428554
0.00411232
0.00401895
0.00405522
0.00431261
0.00470035
0.00490923
0.00504662
0.00527171
0.00553531
0.00539529
0.00491288
0.00414843
0.00316964
0.00139784
0.00377876
0.0118729
0.00990469
0.00829192
0.00630651
0.00491464
0.00441688
0.00452268
0.00483854
0.00495097
0.00490927
0.0048758
0.00487943
0.00491702
0.00498486
0.0050868
0.00521893
0.00533543
0.00536455
0.00528366
0.00514194
0.00500949
0.0049006
0.00478046
0.00462297
0.00442891
0.00420708
0.00397372
0.00386192
0.00414017
0.00465902
0.00484494
0.00494173
0.00521584
0.00580093
0.00646537
0.00637302
0.00557621
0.00502982
0.00172752
0.00367037
0.00437871
0.0051104
0.00545836
0.00547974
0.00516451
0.00480184
0.00455533
0.00444596
0.00440574
0.00441314
0.00444013
0.00446519
0.00447641
0.00447203
0.00446052
0.00445565
0.00446156
0.00446471
0.00445287
0.00443918
0.00445058
0.00449134
0.00453594
0.00456035
0.00454132
0.00440622
0.00404643
0.00365132
0.00388482
0.00465279
0.00471135
0.00444428
0.00413492
0.00385749
0.003614
0.00336466
0.0029741
0.00265765
0.0016683
0.00341415
0.00628069
0.00588061
0.00556847
0.00525868
0.00499012
0.00478219
0.00462244
0.00449098
0.00437439
0.00425927
0.00413661
0.00400479
0.0038702
0.00374595
0.00364789
0.00358986
0.00358291
0.00363758
0.00375831
0.00392891
0.00411302
0.00428584
0.00445223
0.00454557
0.00417858
0.00330681
0.00322498
0.00459375
0.00493787
0.00477121
0.00452953
0.0042248
0.00380311
0.00328817
0.00273889
0.0022544
0.00144669
0.00316606
0.00684172
0.00632726
0.00589105
0.00553692
0.00521359
0.00490684
0.00462177
0.00435592
0.00406469
0.00376021
0.00346273
0.00318576
0.00293988
0.0027355
0.00258507
0.00250354
0.00250631
0.00260296
0.0027861
0.00302276
0.00326445
0.00347941
0.00367547
0.0038208
0.00361708
0.00268347
0.00209202
0.00370177
0.00439425
0.00437446
0.00435204
0.00440875
0.00437474
0.00410833
0.00366288
0.00303043
0.00147852
0.00250628
0.00270751
0.00288309
0.00303065
0.00279813
0.00259862
0.00237624
0.00219333
0.00202788
0.00187711
0.00173882
0.00161903
0.0015125
0.00141428
0.00132199
0.00123479
0.00115296
0.0010776
0.00101044
0.000953529
0.000908939
0.000878278
0.000861892
0.000858136
0.000863903
0.000876251
0.000890358
0.000890685
0.000862304
0.000866797
0.0010283
0.00110954
0.00118586
0.00131886
0.00148546
0.00159721
0.00164663
0.00159427
0.00147504
0.0013512
)
;

boundaryField
{
    floor
    {
        type            compressible::alphatWallFunction;
        Prt             0.85;
        value           nonuniform List<scalar> 
36
(
0.000147771
6.97863e-05
8.42338e-05
8.48677e-05
7.01834e-05
5.43113e-05
3.63909e-05
3.4442e-05
3.59037e-05
3.83202e-05
3.86351e-05
3.68271e-05
3.39228e-05
3.10303e-05
3.31033e-05
4.79599e-05
6.30963e-05
6.46869e-05
5.76352e-05
5.76345e-05
8.45405e-05
9.14396e-05
0.000153668
0.000170119
0.000156192
0.000158386
0.000147769
0.000157457
0.000150522
0.000111791
6.97854e-05
0.000111789
9.74174e-05
0.000162131
0.000140013
0.000169188
)
;
    }
    ceiling
    {
        type            compressible::alphatWallFunction;
        Prt             0.85;
        value           nonuniform List<scalar> 
43
(
0.00034218
0.000367661
0.000389734
0.000408282
0.00037921
0.000354054
0.000325759
0.00030227
0.000280841
0.000261146
0.000242931
0.000227023
0.000212765
0.00019952
0.000186981
0.000175043
0.000163751
0.000153271
0.000143859
0.000135827
0.000129496
0.000125121
0.000122776
0.000122238
0.000123065
0.000124833
0.000126849
0.000126895
0.000122834
0.000123477
0.000146368
0.000157718
0.00016829
0.000186556
0.000209132
0.000224112
0.000230699
0.000223718
0.000207725
0.00019096
0.000487421
0.00057319
0.000424909
)
;
    }
    sWall
    {
        type            compressible::alphatWallFunction;
        Prt             0.85;
        value           uniform 0.000340956;
    }
    nWall
    {
        type            compressible::alphatWallFunction;
        Prt             0.85;
        value           nonuniform List<scalar> 6(0.00015815 0.000164854 0.000196914 0.000203541 0.000207831 0.000190601);
    }
    sideWalls
    {
        type            empty;
    }
    glass1
    {
        type            compressible::alphatWallFunction;
        Prt             0.85;
        value           nonuniform List<scalar> 9(0.000114562 0.000190144 0.000254985 0.000316701 0.000374951 0.000430746 0.000482449 0.0004932 0.000480275);
    }
    glass2
    {
        type            compressible::alphatWallFunction;
        Prt             0.85;
        value           nonuniform List<scalar> 2(0.000239336 0.000231589);
    }
    sun
    {
        type            compressible::alphatWallFunction;
        Prt             0.85;
        value           nonuniform List<scalar> 
14
(
0.00011798
0.000121623
0.000114555
0.000118782
0.000122945
0.000126726
0.00013018
0.000133417
0.000136573
0.000139834
0.000142612
0.000144708
0.000146131
0.000147146
)
;
    }
    Table_master
    {
        type            compressible::alphatWallFunction;
        Prt             0.85;
        value           nonuniform List<scalar> 9(8.45523e-05 6.96576e-05 6.16505e-05 5.61583e-05 5.18317e-05 4.79751e-05 4.4051e-05 4.00926e-05 4.71598e-05);
    }
    Table_slave
    {
        type            compressible::alphatWallFunction;
        Prt             0.85;
        value           nonuniform List<scalar> 9(0.000119517 0.000121658 0.000126088 0.000132424 0.000141108 0.000154378 0.000161229 0.000164623 0.000163152);
    }
    inlet
    {
        type            fixedValue;
        value           uniform 1.94e-05;
    }
    outlet
    {
        type            zeroGradient;
    }
}


// ************************************************************************* //
