/*--------------------------------*- C++ -*----------------------------------*\
  =========                 |
  \\      /  F ield         | OpenFOAM: The Open Source CFD Toolbox
   \\    /   O peration     | Website:  https://openfoam.org
    \\  /    A nd           | Version:  6
     \\/     M anipulation  |
\*---------------------------------------------------------------------------*/
FoamFile
{
    version     2.0;
    format      ascii;
    class       volScalarField;
    location    "2600";
    object      T;
}
// * * * * * * * * * * * * * * * * * * * * * * * * * * * * * * * * * * * * * //

dimensions      [0 0 0 1 0 0 0];

internalField   nonuniform List<scalar> 
458
(
304.02
303.76
303.749
303.748
303.746
303.744
303.741
303.738
303.735
303.729
303.721
303.71
303.7
303.69
303.684
303.69
303.676
303.674
303.673
303.673
303.672
303.672
303.671
303.671
303.67
303.669
303.668
303.667
303.666
303.664
303.663
303.661
303.668
304.201
303.8
303.778
303.782
303.786
303.79
303.791
303.79
303.787
303.778
303.762
303.74
303.716
303.694
303.677
303.669
303.668
303.675
303.682
303.673
303.671
303.67
303.669
303.667
303.664
303.661
303.658
303.654
303.651
303.648
303.645
303.643
303.641
303.64
303.64
303.655
304.386
303.847
303.807
303.817
303.831
303.843
303.852
303.857
303.856
303.844
303.819
303.783
303.744
303.708
303.682
303.667
303.661
303.663
303.671
303.671
303.673
303.675
303.676
303.673
303.669
303.665
303.66
303.656
303.652
303.648
303.643
303.64
303.637
303.635
303.633
303.648
304.568
303.906
303.836
303.849
303.872
303.895
303.916
303.932
303.937
303.922
303.885
303.831
303.773
303.722
303.686
303.667
303.659
303.659
303.663
303.667
303.673
303.68
303.685
303.688
303.69
303.691
303.691
303.692
303.691
303.69
303.689
303.687
303.683
303.667
303.65
303.638
303.646
304.74
303.982
303.872
303.875
303.902
303.935
303.969
304
304.014
303.997
303.945
303.872
303.795
303.73
303.686
303.664
303.657
303.659
303.665
303.674
303.683
303.692
303.699
303.703
303.707
303.708
303.709
303.71
303.709
303.707
303.703
303.699
303.693
303.68
303.663
303.646
303.644
303.689
303.742
303.748
304.891
304.081
303.939
303.913
303.931
303.963
304.002
304.048
304.074
304.05
303.982
303.892
303.801
303.728
303.68
303.658
303.654
303.66
303.671
303.684
303.697
303.708
303.715
303.72
303.723
303.725
303.726
303.725
303.724
303.72
303.715
303.708
303.7
303.689
303.673
303.656
303.648
303.667
303.683
303.714
305.025
304.241
304.103
304.044
304.025
304.032
304.058
304.099
304.111
304.07
303.985
303.881
303.781
303.706
303.661
303.645
303.649
303.664
303.682
303.7
303.715
303.725
303.733
303.737
303.739
303.74
303.74
303.739
303.737
303.733
303.726
303.717
303.707
303.696
303.682
303.667
303.656
303.66
303.668
303.691
305.229
304.645
304.496
304.375
304.282
304.229
304.208
304.196
304.147
304.055
303.935
303.815
303.717
303.654
303.627
303.628
303.647
303.674
303.699
303.72
303.733
303.742
303.748
303.751
303.753
303.754
303.753
303.752
303.749
303.745
303.74
303.731
303.72
303.709
303.699
303.689
303.683
303.687
303.7
303.819
305.518
305.252
304.956
304.718
304.54
304.41
304.313
304.223
304.077
303.912
303.765
303.656
303.594
303.574
303.586
303.618
303.657
303.696
303.722
303.738
303.749
303.756
303.761
303.764
303.766
303.767
303.767
303.766
303.765
303.763
303.762
303.763
303.765
303.771
303.784
303.803
303.83
303.859
303.882
303.934
296.202
300.413
302.074
302.716
302.998
303.102
303.182
303.247
303.307
303.369
303.436
303.508
303.576
303.641
303.69
303.721
303.74
303.752
303.76
303.766
303.771
303.774
303.777
303.78
303.782
303.784
303.786
303.788
303.791
303.794
303.799
303.806
303.817
303.833
303.853
303.873
303.888
303.901
297.249
300.42
301.65
302.337
302.684
302.866
302.999
303.131
303.254
303.367
303.471
303.572
303.639
303.686
303.718
303.738
303.75
303.759
303.765
303.771
303.776
303.78
303.785
303.789
303.793
303.796
303.8
303.803
303.806
303.809
303.813
303.819
303.827
303.838
303.851
303.865
303.86
303.885
300.109
300.015
300.01
301.837
302.382
302.694
302.922
303.113
303.284
303.406
303.502
303.574
303.628
303.669
303.695
303.713
303.726
303.734
303.74
303.746
303.751
303.756
303.761
303.766
303.771
303.776
303.781
303.786
303.791
303.795
303.8
303.805
303.809
303.814
303.82
303.828
303.838
303.842
303.841
303.878
)
;

boundaryField
{
    floor
    {
        type            wallHeatTransfer;
        Tinf            uniform 305.2;
        alphaWall       uniform 0.24;
        value           nonuniform List<scalar> 
36
(
303.838
304.007
303.954
303.943
303.947
303.954
303.964
303.975
303.986
303.996
304.006
304.016
304.025
304.034
304.042
304.052
304.062
304.069
304.095
304.095
304.02
303.982
303.957
303.939
303.965
303.956
303.838
303.822
303.844
303.874
304.007
303.874
303.932
303.825
303.86
303.819
)
;
    }
    ceiling
    {
        type            wallHeatTransfer;
        Tinf            uniform 303.2;
        alphaWall       uniform 0.24;
        value           nonuniform List<scalar> 
43
(
300.326
300.226
300.211
301.919
302.433
302.727
302.941
303.119
303.277
303.388
303.474
303.538
303.586
303.62
303.64
303.653
303.661
303.665
303.669
303.673
303.677
303.681
303.684
303.688
303.691
303.695
303.699
303.704
303.709
303.714
303.721
303.727
303.734
303.742
303.75
303.76
303.77
303.773
303.769
303.798
305.41
305.169
297.599
)
;
    }
    sWall
    {
        type            wallHeatTransfer;
        Tinf            uniform 315.2;
        alphaWall       uniform 0.36;
        value           uniform 301.654;
    }
    nWall
    {
        type            wallHeatTransfer;
        Tinf            uniform 307.2;
        alphaWall       uniform 0.36;
        value           nonuniform List<scalar> 6(304.44 304.402 304.324 304.389 304.366 304.431);
    }
    sideWalls
    {
        type            empty;
    }
    glass1
    {
        type            wallHeatTransfer;
        Tinf            uniform 315.2;
        alphaWall       uniform 4.3;
        value           nonuniform List<scalar> 9(311.98 311.308 310.874 310.535 310.253 310.003 309.81 309.871 310.082);
    }
    glass2
    {
        type            wallHeatTransfer;
        Tinf            uniform 307.2;
        alphaWall       uniform 4.3;
        value           nonuniform List<scalar> 2(305.984 306.048);
    }
    sun
    {
        type            wallHeatTransfer;
        Tinf            uniform 305.2;
        alphaWall       uniform 0.24;
        value           nonuniform List<scalar> 
14
(
304.16
303.922
303.913
303.906
303.9
303.895
303.889
303.883
303.877
303.87
303.862
303.853
303.845
303.84
)
;
    }
    Table_master
    {
        type            zeroGradient;
    }
    Table_slave
    {
        type            zeroGradient;
    }
    inlet
    {
        type            fixedValue;
        value           uniform 292.15;
    }
    outlet
    {
        type            zeroGradient;
    }
}


// ************************************************************************* //
