/*--------------------------------*- C++ -*----------------------------------*\
  =========                 |
  \\      /  F ield         | OpenFOAM: The Open Source CFD Toolbox
   \\    /   O peration     | Website:  https://openfoam.org
    \\  /    A nd           | Version:  6
     \\/     M anipulation  |
\*---------------------------------------------------------------------------*/
FoamFile
{
    version     2.0;
    format      ascii;
    class       volScalarField;
    location    "1500";
    object      k;
}
// * * * * * * * * * * * * * * * * * * * * * * * * * * * * * * * * * * * * * //

dimensions      [0 2 -2 0 0 0 0];

internalField   nonuniform List<scalar> 
458
(
0.0012549
0.00140948
0.0013933
0.00150071
0.00159887
0.00168744
0.00176906
0.00184704
0.00192558
0.00199816
0.00204828
0.00206835
0.00205814
0.00203261
0.00200645
0.000464833
0.000519444
0.00051637
0.00050241
0.000482768
0.000452867
0.000421273
0.000392208
0.000366163
0.000343106
0.000322444
0.000303635
0.000286115
0.000269188
0.000251952
0.000232825
0.000212998
0.000176153
0.00272992
0.0051247
0.0020763
0.00212372
0.00222673
0.00234617
0.00247704
0.0026236
0.00278621
0.00295526
0.00309583
0.00316017
0.00310199
0.00290433
0.00257602
0.00214298
0.00171725
0.00140459
0.000878865
0.000844927
0.000820127
0.000786639
0.000738485
0.00065719
0.000581609
0.000520298
0.00046952
0.00042557
0.000386763
0.000351717
0.000319047
0.000289319
0.000271944
0.000268885
0.000377461
0.000248857
0.00451126
0.0106283
0.0027202
0.00250236
0.00259349
0.00273233
0.00288843
0.00307114
0.00328449
0.00351796
0.00373305
0.00387156
0.00389908
0.00384546
0.00378838
0.00362039
0.00296296
0.00216465
0.0012318
0.00110749
0.00100772
0.000932023
0.000863392
0.000715909
0.00059231
0.000497241
0.000425056
0.000370179
0.000328121
0.000295654
0.00027093
0.000253625
0.00024207
0.000252604
0.000476404
0.000306975
0.00678274
0.0192109
0.00379792
0.00271163
0.00274549
0.00288989
0.00304807
0.00323742
0.00348113
0.00377524
0.00404292
0.00419925
0.00421615
0.00413068
0.00400034
0.00378684
0.00335662
0.00305069
0.0017807
0.00158457
0.00132629
0.00113624
0.00101456
0.00092795
0.000766959
0.000695965
0.00066569
0.000650395
0.000635008
0.00060976
0.000576271
0.000539674
0.000494144
0.000389189
0.000324684
0.000567636
0.000371117
0.00962175
0.0310622
0.0064291
0.00298635
0.00281758
0.00293449
0.0030904
0.003308
0.00364469
0.00408129
0.00443304
0.00459165
0.00455327
0.00437426
0.00412153
0.00380619
0.00337022
0.0029027
0.00232866
0.00181418
0.00145122
0.00121022
0.0010795
0.00101737
0.00100658
0.00104238
0.00108853
0.00111995
0.00112192
0.00108434
0.00100159
0.000895181
0.000773747
0.000618326
0.000477989
0.000532058
0.000508942
0.000497463
0.000560355
0.000611987
0.0131292
0.0436536
0.013444
0.00440883
0.00328332
0.00316533
0.0032474
0.00347355
0.00398819
0.00463608
0.00503688
0.00514384
0.00500476
0.00470798
0.00433975
0.00394402
0.00349949
0.00297444
0.00235598
0.0018322
0.00146754
0.00124408
0.00114936
0.0011356
0.00118634
0.00127792
0.00137023
0.00143923
0.00147004
0.00144621
0.00134776
0.00118998
0.00100984
0.000819323
0.000653267
0.000577113
0.000537772
0.000671065
0.00185577
0.00109188
0.0170672
0.0521657
0.0271018
0.0116435
0.00695847
0.00510804
0.00452272
0.00455868
0.0052187
0.00576419
0.00596031
0.00587006
0.0055623
0.00512229
0.00464809
0.00419828
0.00373429
0.00316064
0.0024728
0.00187062
0.00149569
0.00131081
0.0012645
0.00128471
0.00135262
0.00145626
0.00157191
0.00167531
0.00175465
0.00179197
0.00176326
0.00160876
0.00139944
0.00117649
0.000995292
0.000886348
0.000841914
0.000992071
0.00239077
0.00158333
0.0180526
0.0551917
0.0380301
0.029186
0.0204384
0.0140883
0.0105916
0.00899602
0.00830154
0.00779445
0.00732031
0.00679691
0.00618241
0.00553124
0.00494426
0.0044646
0.00399456
0.00336699
0.00258362
0.00190675
0.00157942
0.00145694
0.0014305
0.0014512
0.00150706
0.00159266
0.00169906
0.00181784
0.00194492
0.00207699
0.00220883
0.00230983
0.00227798
0.00218922
0.00219177
0.00241333
0.00300725
0.00385715
0.00876207
0.00310294
0.0172664
0.0248248
0.0257691
0.023339
0.0204736
0.0172367
0.0144067
0.0123317
0.0107369
0.00953613
0.00853719
0.00759133
0.00662271
0.00574874
0.00510082
0.00466823
0.0042238
0.00350144
0.00258699
0.00201402
0.00177295
0.00167881
0.0016385
0.00162431
0.00163385
0.00166862
0.00172841
0.00181218
0.00191869
0.00204606
0.00219157
0.00235041
0.00251769
0.00274068
0.00308877
0.00357952
0.00414096
0.00462018
0.00494936
0.00304706
0.0138769
0.0285884
0.0221646
0.01852
0.0158294
0.0137557
0.0120728
0.0105395
0.0091188
0.00776668
0.00645434
0.00551303
0.00504004
0.00485242
0.0044646
0.00350691
0.00273848
0.00237262
0.00221307
0.00211401
0.00202119
0.00192661
0.00183748
0.00176305
0.00171096
0.00168726
0.00169745
0.00174736
0.00184399
0.00199648
0.00220902
0.00247659
0.00280865
0.00317782
0.00348325
0.00357491
0.00341602
0.00225611
0.0115765
0.0258013
0.0207092
0.0174395
0.0150045
0.0129876
0.0111677
0.00951618
0.00793351
0.00647821
0.00512374
0.00480705
0.00519687
0.00572299
0.00557097
0.00481463
0.00422355
0.0038888
0.00369463
0.00353051
0.00334509
0.00312946
0.00289574
0.00266332
0.00245128
0.00227521
0.00214669
0.00207411
0.00206352
0.00211798
0.00226014
0.00248812
0.00278837
0.00311473
0.00341054
0.00364592
0.00374386
0.00234875
0.00724016
0.00860197
0.00980695
0.0112714
0.0102166
0.00927987
0.00781747
0.00637886
0.00509666
0.00398243
0.0032083
0.00254616
0.00189694
0.00150252
0.00166686
0.00177482
0.00172292
0.00156524
0.00143236
0.00134307
0.00127812
0.00122185
0.00117041
0.00112707
0.0010969
0.0010839
0.00109005
0.00111579
0.00116097
0.00122607
0.00131346
0.00142939
0.00156402
0.0017209
0.00190456
0.00211091
0.0023446
0.00230156
0.00198912
0.00173938
)
;

boundaryField
{
    floor
    {
        type            kqRWallFunction;
        value           nonuniform List<scalar> 
36
(
0.00200645
0.000464833
0.000519444
0.00051637
0.00050241
0.000482768
0.000452867
0.000421273
0.000392208
0.000366163
0.000343106
0.000322444
0.000303635
0.000286115
0.000269188
0.000251952
0.000232825
0.000212998
0.000176153
0.000176153
0.000248857
0.000306975
0.000371117
0.000497463
0.000560355
0.000611987
0.00200645
0.00214298
0.00171725
0.00140459
0.000464833
0.00140459
0.000878865
0.00216465
0.0012318
0.0017807
)
;
    }
    ceiling
    {
        type            kqRWallFunction;
        value           nonuniform List<scalar> 
43
(
0.00724016
0.00860197
0.00980695
0.0112714
0.0102166
0.00927987
0.00781747
0.00637886
0.00509666
0.00398243
0.0032083
0.00254616
0.00189694
0.00150252
0.00166686
0.00177482
0.00172292
0.00156524
0.00143236
0.00134307
0.00127812
0.00122185
0.00117041
0.00112707
0.0010969
0.0010839
0.00109005
0.00111579
0.00116097
0.00122607
0.00131346
0.00142939
0.00156402
0.0017209
0.00190456
0.00211091
0.0023446
0.00230156
0.00198912
0.00173938
0.0172664
0.0248248
0.0115765
)
;
    }
    sWall
    {
        type            kqRWallFunction;
        value           uniform 0.00724016;
    }
    nWall
    {
        type            kqRWallFunction;
        value           nonuniform List<scalar> 6(0.000611987 0.00109188 0.00158333 0.00225611 0.00234875 0.00173938);
    }
    sideWalls
    {
        type            empty;
    }
    glass1
    {
        type            kqRWallFunction;
        value           nonuniform List<scalar> 9(0.0012549 0.00272992 0.00451126 0.00678274 0.00962175 0.0131292 0.0170672 0.0180526 0.0172664);
    }
    glass2
    {
        type            kqRWallFunction;
        value           nonuniform List<scalar> 2(0.00310294 0.00304706);
    }
    sun
    {
        type            kqRWallFunction;
        value           nonuniform List<scalar> 
14
(
0.0012549
0.00140948
0.0013933
0.00150071
0.00159887
0.00168744
0.00176906
0.00184704
0.00192558
0.00199816
0.00204828
0.00206835
0.00205814
0.00203261
)
;
    }
    Table_master
    {
        type            kqRWallFunction;
        value           nonuniform List<scalar> 9(0.000715909 0.00059231 0.000497241 0.000425056 0.000370179 0.000328121 0.000295654 0.00027093 0.000253625);
    }
    Table_slave
    {
        type            kqRWallFunction;
        value           nonuniform List<scalar> 9(0.000766959 0.000695965 0.00066569 0.000650395 0.000635008 0.00060976 0.000576271 0.000539674 0.000494144);
    }
    inlet
    {
        type            turbulentIntensityKineticEnergyInlet;
        intensity       0.05;
        value           uniform 0.0003375;
    }
    outlet
    {
        type            zeroGradient;
    }
}


// ************************************************************************* //
