// -*- C++ -*-
// File generated by PyFoam - sorry for the ugliness

FoamFile
{
 version 2.0;
 format ascii;
 class volScalarField;
 location "1500";
 object T;
}

dimensions [ 0 0 0 1 0 0 0 ];

internalField nonuniform List<scalar> 458
(
  304.137
  303.87
  303.861
  303.859
  303.858
  303.856
  303.854
  303.852
  303.849
  303.846
  303.84
  303.833
  303.824
  303.814
  303.804
  303.793
  303.781
  303.779
  303.778
  303.778
  303.778
  303.777
  303.777
  303.776
  303.776
  303.775
  303.774
  303.774
  303.773
  303.772
  303.771
  303.769
  303.773
  304.328
  303.906
  303.886
  303.89
  303.894
  303.898
  303.9
  303.901
  303.899
  303.895
  303.885
  303.869
  303.847
  303.822
  303.798
  303.784
  303.776
  303.776
  303.777
  303.774
  303.774
  303.775
  303.775
  303.773
  303.771
  303.768
  303.766
  303.763
  303.761
  303.758
  303.756
  303.754
  303.753
  303.753
  303.753
  303.763
  304.521
  303.951
  303.914
  303.924
  303.938
  303.95
  303.96
  303.968
  303.971
  303.968
  303.954
  303.929
  303.893
  303.852
  303.815
  303.789
  303.772
  303.767
  303.773
  303.775
  303.779
  303.782
  303.783
  303.78
  303.776
  303.773
  303.769
  303.765
  303.761
  303.757
  303.753
  303.75
  303.748
  303.746
  303.746
  303.757
  304.708
  304.008
  303.941
  303.955
  303.977
  304
  304.021
  304.039
  304.05
  304.05
  304.034
  303.997
  303.945
  303.887
  303.834
  303.795
  303.772
  303.763
  303.766
  303.77
  303.778
  303.785
  303.791
  303.793
  303.794
  303.794
  303.793
  303.792
  303.79
  303.788
  303.786
  303.784
  303.78
  303.767
  303.755
  303.747
  303.754
  304.882
  304.082
  303.972
  303.978
  304.005
  304.036
  304.068
  304.098
  304.119
  304.126
  304.108
  304.062
  303.993
  303.916
  303.848
  303.798
  303.769
  303.76
  303.765
  303.774
  303.785
  303.795
  303.801
  303.805
  303.805
  303.805
  303.804
  303.802
  303.799
  303.796
  303.792
  303.788
  303.783
  303.774
  303.762
  303.751
  303.75
  303.749
  303.749
  303.791
  305.033
  304.178
  304.031
  304.005
  304.025
  304.055
  304.091
  304.128
  304.163
  304.181
  304.163
  304.107
  304.022
  303.932
  303.852
  303.795
  303.764
  303.757
  303.766
  303.781
  303.795
  303.806
  303.812
  303.815
  303.815
  303.814
  303.812
  303.809
  303.805
  303.801
  303.796
  303.79
  303.784
  303.776
  303.766
  303.755
  303.75
  303.748
  303.747
  303.791
  305.157
  304.336
  304.19
  304.115
  304.091
  304.095
  304.116
  304.148
  304.191
  304.21
  304.184
  304.117
  304.025
  303.927
  303.842
  303.783
  303.755
  303.753
  303.768
  303.789
  303.806
  303.817
  303.822
  303.823
  303.823
  303.822
  303.819
  303.815
  303.811
  303.805
  303.799
  303.791
  303.784
  303.777
  303.769
  303.759
  303.753
  303.749
  303.749
  303.785
  305.359
  304.749
  304.59
  304.447
  304.334
  304.268
  304.241
  304.24
  304.254
  304.239
  304.182
  304.093
  303.987
  303.886
  303.806
  303.756
  303.738
  303.749
  303.774
  303.801
  303.817
  303.825
  303.829
  303.83
  303.83
  303.829
  303.827
  303.823
  303.819
  303.813
  303.807
  303.799
  303.791
  303.784
  303.778
  303.772
  303.768
  303.77
  303.777
  303.89
  305.642
  305.373
  305.075
  304.841
  304.661
  304.53
  304.441
  304.382
  304.327
  304.232
  304.116
  303.995
  303.883
  303.796
  303.738
  303.714
  303.721
  303.75
  303.787
  303.811
  303.824
  303.831
  303.835
  303.838
  303.838
  303.838
  303.837
  303.835
  303.832
  303.829
  303.827
  303.826
  303.829
  303.834
  303.846
  303.863
  303.888
  303.915
  303.938
  303.992
  296.868
  301.334
  302.869
  303.429
  303.672
  303.769
  303.787
  303.786
  303.762
  303.722
  303.68
  303.656
  303.655
  303.675
  303.715
  303.766
  303.799
  303.819
  303.829
  303.836
  303.841
  303.845
  303.848
  303.85
  303.851
  303.852
  303.853
  303.855
  303.857
  303.859
  303.863
  303.87
  303.88
  303.894
  303.913
  303.933
  303.95
  303.968
  297.805
  301.197
  302.327
  302.943
  303.26
  303.411
  303.473
  303.503
  303.519
  303.525
  303.529
  303.569
  303.621
  303.679
  303.743
  303.782
  303.806
  303.821
  303.83
  303.838
  303.844
  303.849
  303.854
  303.858
  303.861
  303.865
  303.868
  303.871
  303.873
  303.876
  303.88
  303.885
  303.892
  303.902
  303.914
  303.927
  303.929
  303.951
  300.3
  300.218
  300.212
  302.113
  302.66
  302.989
  303.239
  303.333
  303.374
  303.395
  303.414
  303.433
  303.464
  303.62
  303.702
  303.743
  303.77
  303.788
  303.799
  303.808
  303.816
  303.823
  303.829
  303.835
  303.84
  303.846
  303.851
  303.856
  303.86
  303.865
  303.869
  303.873
  303.877
  303.882
  303.887
  303.893
  303.904
  303.909
  303.907
  303.941
)
;

boundaryField
{
  floor
  {
    type wallHeatTransfer;
    Tinf uniform 305.2;
    alphaWall uniform 0.24;
    value nonuniform List<scalar> 36
(
  303.96
  304.056
  304.037
  304.036
  304.037
  304.041
  304.046
  304.052
  304.058
  304.064
  304.07
  304.075
  304.08
  304.085
  304.091
  304.097
  304.103
  304.111
  304.135
  304.135
  304.091
  304.066
  304.045
  304.015
  304.004
  304.032
  303.96
  303.938
  303.944
  303.957
  304.056
  303.957
  303.991
  303.922
  303.964
  303.934
)
;
  }
  ceiling
  {
    type wallHeatTransfer;
    Tinf uniform 303.2;
    alphaWall uniform 0.24;
    value nonuniform List<scalar> 43
(
  300.495
  300.404
  300.389
  302.175
  302.692
  303.002
  303.236
  303.324
  303.36
  303.378
  303.394
  303.41
  303.434
  303.568
  303.642
  303.68
  303.703
  303.716
  303.724
  303.73
  303.735
  303.739
  303.743
  303.747
  303.751
  303.756
  303.76
  303.765
  303.77
  303.776
  303.782
  303.788
  303.795
  303.802
  303.809
  303.818
  303.83
  303.834
  303.828
  303.854
  305.526
  305.284
  298.102
)
;
  }
  sWall
  {
    type wallHeatTransfer;
    Tinf uniform 315.2;
    alphaWall uniform 0.36;
    value uniform 301.755;
  }
  nWall
  {
    type wallHeatTransfer;
    Tinf uniform 307.2;
    alphaWall uniform 0.36;
    value nonuniform List<scalar> 6
(
  304.596
  304.458
  304.373
  304.46
  304.439
  304.484
)
;
  }
  sideWalls
  {
    type empty;
  }
  glass1
  {
    type wallHeatTransfer;
    Tinf uniform 315.2;
    alphaWall uniform 4.3;
    value nonuniform List<scalar> 9
(
  312.289
  311.595
  311.133
  310.76
  310.448
  310.173
  309.947
  309.993
  310.19
)
;
  }
  glass2
  {
    type wallHeatTransfer;
    Tinf uniform 307.2;
    alphaWall uniform 4.3;
    value nonuniform List<scalar> 2
(
  306.051
  306.092
)
;
  }
  sun
  {
    type wallHeatTransfer;
    Tinf uniform 305.2;
    alphaWall uniform 0.24;
    value nonuniform List<scalar> 14
(
  304.278
  304.039
  304.032
  304.026
  304.021
  304.016
  304.011
  304.007
  304.002
  303.997
  303.991
  303.984
  303.976
  303.967
)
;
  }
  Table_master
  {
    type zeroGradient;
  }
  Table_slave
  {
    type zeroGradient;
  }
  inlet
  {
    type fixedValue;
    value uniform 297.15;
  }
  outlet
  {
    type zeroGradient;
  }
} 	// ************************************************************************* //

