/*--------------------------------*- C++ -*----------------------------------*\
  =========                 |
  \\      /  F ield         | OpenFOAM: The Open Source CFD Toolbox
   \\    /   O peration     | Website:  https://openfoam.org
    \\  /    A nd           | Version:  6
     \\/     M anipulation  |
\*---------------------------------------------------------------------------*/
FoamFile
{
    version     2.0;
    format      ascii;
    class       volScalarField;
    location    "900";
    object      alphat;
}
// * * * * * * * * * * * * * * * * * * * * * * * * * * * * * * * * * * * * * //

dimensions      [1 -1 -1 0 0 0 0];

internalField   nonuniform List<scalar> 
458
(
0.00130488
0.00142504
0.001467
0.00153839
0.00160492
0.00167028
0.00174011
0.0018038
0.00185448
0.0018817
0.00187494
0.00177785
0.00158242
0.00137238
0.00118111
0.000567098
0.000660529
0.000750928
0.000790133
0.000780435
0.000734878
0.000684045
0.000638183
0.00059809
0.000562979
0.000532097
0.000504883
0.000480539
0.000458134
0.000436622
0.000414636
0.000398887
0.00036537
0.00171992
0.00378849
0.00346528
0.00392262
0.00438771
0.00483831
0.00515596
0.00549317
0.00582848
0.00611247
0.00632826
0.00647126
0.00618855
0.00502759
0.00319203
0.00135255
0.00118709
0.00100655
0.000556046
0.00137075
0.00204306
0.00254976
0.00268476
0.00192977
0.00162918
0.00143019
0.00128514
0.00117462
0.0010871
0.0010106
0.00093657
0.000859277
0.000788183
0.000728637
0.000870204
0.000462954
0.00205893
0.00499547
0.00408877
0.00470115
0.00490008
0.00503757
0.00516455
0.00536698
0.00563283
0.00594997
0.00633085
0.00678492
0.00708943
0.00663349
0.00536742
0.00378518
0.00280303
0.00108194
0.00075678
0.00145847
0.0022326
0.00298437
0.00314987
0.000957217
0.000842064
0.000745201
0.0006663
0.000602425
0.000550571
0.000508499
0.000474809
0.000449422
0.000504673
0.000594875
0.00102112
0.00053894
0.00237736
0.00619608
0.00395513
0.00472586
0.00465789
0.00455766
0.0045833
0.00474148
0.00499462
0.00534752
0.0058131
0.00636826
0.0067994
0.00667883
0.00609443
0.00503134
0.00385506
0.00208047
0.00113792
0.00162499
0.00236605
0.00327536
0.00402953
0.00403419
0.00107107
0.000987601
0.000929771
0.000885501
0.000846025
0.000807984
0.000770486
0.000729876
0.000681622
0.000634411
0.000637315
0.0012161
0.00061161
0.00269575
0.00783253
0.00392919
0.00452035
0.00437135
0.00415559
0.0041761
0.00436498
0.00464176
0.00502136
0.0055088
0.00603611
0.00634589
0.00628231
0.00601557
0.00547743
0.00465653
0.00353198
0.00342128
0.0039057
0.00459488
0.00525441
0.00565616
0.00565432
0.00485477
0.00444446
0.00422165
0.00405481
0.00386834
0.00357479
0.00315452
0.00264055
0.00207693
0.00155097
0.00116173
0.00117518
0.00101235
0.000821861
0.000876294
0.000949752
0.00303386
0.00976133
0.00494038
0.00421698
0.00423189
0.00397756
0.00399635
0.00423861
0.0045386
0.00492424
0.00539309
0.00583955
0.00599443
0.00585966
0.00573769
0.00565238
0.00542207
0.00511698
0.00545694
0.0061569
0.00668716
0.00692831
0.00688049
0.00660583
0.00618503
0.00585324
0.00560019
0.00536722
0.00511974
0.0048253
0.00441088
0.00386717
0.00320871
0.00250405
0.00189988
0.00141019
0.00120005
0.0010838
0.00138759
0.000985224
0.00338657
0.0112733
0.00732442
0.00453187
0.00394672
0.0040883
0.00410942
0.00433326
0.00461384
0.0049509
0.00536712
0.00574388
0.00578215
0.00560154
0.00577873
0.00622976
0.00646885
0.00672168
0.0072882
0.00775092
0.00785375
0.0076408
0.0072073
0.00666488
0.00613618
0.00573533
0.00544653
0.00520707
0.0049844
0.0047742
0.00457174
0.00423235
0.00373396
0.0031216
0.00253807
0.00201902
0.00170919
0.00161276
0.00156547
0.00117359
0.0034866
0.0106672
0.00867093
0.0066045
0.00519214
0.00483968
0.00461275
0.00461532
0.0047982
0.00505537
0.0054039
0.00571255
0.00564546
0.00560515
0.00634175
0.00703318
0.00739132
0.00772402
0.00805954
0.00810728
0.00778689
0.00719673
0.00647406
0.00576695
0.00520965
0.00484486
0.00460842
0.00443628
0.00430568
0.0042189
0.00418471
0.00417271
0.00395738
0.00358583
0.00326706
0.00312626
0.00327608
0.0035777
0.00436547
0.00182572
0.00343744
0.00420522
0.00482345
0.00500001
0.00483237
0.00470691
0.00465762
0.00478006
0.00497451
0.00514917
0.00542735
0.00566064
0.00550057
0.00592036
0.0068316
0.00730094
0.00750909
0.00761949
0.00755745
0.00720201
0.0065578
0.00576122
0.00499086
0.00439082
0.00399896
0.00375813
0.00359446
0.00346402
0.00334767
0.00323602
0.00312245
0.00300316
0.00290332
0.00282484
0.00278537
0.00277231
0.00272001
0.00258354
0.00240846
0.00168913
0.00168434
0.00288234
0.003671
0.00419541
0.00467821
0.00507859
0.00518546
0.00512415
0.00529155
0.00538045
0.00555983
0.006158
0.00656635
0.00662553
0.0065593
0.00637006
0.00599258
0.00541862
0.00473293
0.00407056
0.00356681
0.00324387
0.00305145
0.00293225
0.00284962
0.00278649
0.00273722
0.00270255
0.00268765
0.00270051
0.00272218
0.00274674
0.00276105
0.00273132
0.00260958
0.00238518
0.00209331
0.00135936
0.00245376
0.00483901
0.00535548
0.00594335
0.00638814
0.00566855
0.00482675
0.00421818
0.00437653
0.00437745
0.00474619
0.00493501
0.00490251
0.00478405
0.00459585
0.00430557
0.00390927
0.00346216
0.00304871
0.00272158
0.00250347
0.00237741
0.00231511
0.00229637
0.00230959
0.00234745
0.00240319
0.00246782
0.00254978
0.002647
0.00275468
0.00286369
0.00295537
0.00301053
0.00297897
0.00295292
0.00267864
0.00137653
0.00291974
0.00294378
0.00298147
0.00348636
0.00316692
0.00271796
0.0019067
0.00153203
0.00125958
0.00109151
0.00100293
0.000953677
0.000912084
0.000881079
0.000858226
0.000837973
0.000816259
0.000792132
0.000768337
0.000750077
0.000741577
0.000744256
0.000755059
0.000771977
0.000793885
0.000820237
0.000850939
0.000886289
0.00092707
0.000974847
0.00102929
0.00109041
0.0011585
0.00123395
0.00131681
0.00142283
0.00145917
0.00142685
0.0013293
0.00122789
)
;

boundaryField
{
    floor
    {
        type            compressible::alphatWallFunction;
        Prt             0.85;
        value           nonuniform List<scalar> 
36
(
0.000167492
7.93936e-05
9.33409e-05
0.000106609
0.000112304
0.0001109
0.000104271
9.68153e-05
9.00312e-05
8.40516e-05
7.87746e-05
7.40995e-05
6.99517e-05
6.62176e-05
6.27598e-05
5.94197e-05
5.59844e-05
5.35093e-05
4.81996e-05
4.8199e-05
6.35064e-05
7.514e-05
8.60761e-05
0.0001169
0.00012472
0.000135175
0.00016749
0.000190991
0.000168319
0.000143164
7.93926e-05
0.000143162
7.77252e-05
0.000153726
0.000107458
0.000161518
)
;
    }
    ceiling
    {
        type            compressible::alphatWallFunction;
        Prt             0.85;
        value           nonuniform List<scalar> 
43
(
0.000394272
0.000397278
0.000401988
0.000464568
0.000425154
0.000369034
0.000264968
0.000215367
0.000178442
0.000155214
0.000142805
0.000135851
0.000129945
0.000125523
0.000122251
0.000119343
0.000116216
0.00011273
0.000109279
0.000106622
0.000105382
0.000105773
0.000107348
0.000109808
0.000112984
0.000116791
0.000121207
0.000126269
0.000132079
0.000138848
0.000146514
0.000155065
0.000164525
0.000174935
0.000186283
0.000200687
0.000205596
0.000201232
0.000187989
0.000174106
0.00045881
0.000552265
0.000335379
)
;
    }
    sWall
    {
        type            compressible::alphatWallFunction;
        Prt             0.85;
        value           uniform 0.000393002;
    }
    nWall
    {
        type            compressible::alphatWallFunction;
        Prt             0.85;
        value           nonuniform List<scalar> 6(0.000134952 0.000139961 0.000166247 0.000191736 0.000194066 0.000173761);
    }
    sideWalls
    {
        type            empty;
    }
    glass1
    {
        type            compressible::alphatWallFunction;
        Prt             0.85;
        value           nonuniform List<scalar> 9(0.000179628 0.000234596 0.000278529 0.000319169 0.000359293 0.000401403 0.000444844 0.000457217 0.000451453);
    }
    glass2
    {
        type            compressible::alphatWallFunction;
        Prt             0.85;
        value           nonuniform List<scalar> 2(0.000252322 0.000234449);
    }
    sun
    {
        type            compressible::alphatWallFunction;
        Prt             0.85;
        value           nonuniform List<scalar> 
14
(
0.000184499
0.000200813
0.000206477
0.000216075
0.000224974
0.000233677
0.000242935
0.000251343
0.00025801
0.000261583
0.000260697
0.000247927
0.000221976
0.000193684
)
;
    }
    Table_master
    {
        type            compressible::alphatWallFunction;
        Prt             0.85;
        value           nonuniform List<scalar> 9(0.000136377 0.000119954 0.000105933 9.4349e-05 8.48487e-05 7.7045e-05 7.06463e-05 6.54743e-05 6.15465e-05);
    }
    Table_slave
    {
        type            compressible::alphatWallFunction;
        Prt             0.85;
        value           nonuniform List<scalar> 9(0.000152391 0.000140674 0.000132488 0.000126182 0.000120526 0.000115047 0.000109615 0.000103697 9.66131e-05);
    }
    inlet
    {
        type            fixedValue;
        value           uniform 1.94e-05;
    }
    outlet
    {
        type            zeroGradient;
    }
}


// ************************************************************************* //
