// -*- C++ -*-
// File generated by PyFoam - sorry for the ugliness

FoamFile
{
 version 2.0;
 format ascii;
 class volScalarField;
 location "900";
 object T;
}

dimensions [ 0 0 0 1 0 0 0 ];

internalField nonuniform List<scalar> 458
(
  302.203
  301.918
  301.906
  301.903
  301.901
  301.899
  301.897
  301.896
  301.896
  301.902
  301.921
  301.98
  302.013
  302.028
  302.048
  302.348
  302.32
  302.312
  302.328
  302.34
  302.349
  302.357
  302.365
  302.373
  302.381
  302.388
  302.396
  302.403
  302.411
  302.419
  302.428
  302.44
  302.469
  302.381
  301.929
  301.899
  301.894
  301.892
  301.889
  301.886
  301.88
  301.872
  301.873
  301.903
  301.972
  302.042
  302.058
  302.059
  302.068
  302.079
  302.101
  302.356
  302.29
  302.29
  302.308
  302.328
  302.336
  302.341
  302.346
  302.351
  302.355
  302.359
  302.364
  302.369
  302.375
  302.383
  302.393
  302.409
  302.454
  302.573
  301.957
  301.909
  301.908
  301.911
  301.912
  301.91
  301.894
  301.864
  301.845
  301.878
  301.969
  302.077
  302.109
  302.103
  302.1
  302.098
  302.107
  302.305
  302.272
  302.28
  302.312
  302.347
  302.349
  302.351
  302.353
  302.356
  302.359
  302.363
  302.366
  302.37
  302.374
  302.382
  302.39
  302.405
  302.451
  302.774
  302.002
  301.929
  301.937
  301.954
  301.968
  301.971
  301.942
  301.874
  301.82
  301.848
  301.962
  302.102
  302.16
  302.16
  302.146
  302.13
  302.119
  302.132
  302.161
  302.215
  302.279
  302.342
  302.395
  302.437
  302.464
  302.485
  302.503
  302.517
  302.527
  302.537
  302.544
  302.549
  302.503
  302.458
  302.433
  302.458
  302.977
  302.065
  301.954
  301.967
  302.005
  302.044
  302.063
  302.02
  301.899
  301.801
  301.818
  301.953
  302.121
  302.212
  302.228
  302.205
  302.179
  302.162
  302.175
  302.216
  302.28
  302.353
  302.423
  302.482
  302.529
  302.561
  302.585
  302.602
  302.613
  302.618
  302.617
  302.612
  302.6
  302.566
  302.515
  302.469
  302.465
  302.592
  302.674
  302.673
  303.169
  302.154
  301.994
  301.991
  302.038
  302.106
  302.162
  302.098
  301.922
  301.786
  301.796
  301.944
  302.141
  302.27
  302.303
  302.281
  302.252
  302.239
  302.264
  302.321
  302.392
  302.466
  302.531
  302.585
  302.624
  302.651
  302.669
  302.68
  302.685
  302.684
  302.675
  302.662
  302.642
  302.611
  302.564
  302.512
  302.488
  302.543
  302.576
  302.623
  303.334
  302.308
  302.108
  302.057
  302.076
  302.139
  302.227
  302.128
  301.919
  301.771
  301.78
  301.945
  302.177
  302.342
  302.392
  302.376
  302.353
  302.355
  302.396
  302.458
  302.525
  302.589
  302.642
  302.682
  302.709
  302.726
  302.734
  302.738
  302.737
  302.73
  302.717
  302.698
  302.676
  302.646
  302.607
  302.561
  302.53
  302.541
  302.557
  302.589
  303.577
  302.808
  302.551
  302.368
  302.289
  302.305
  302.306
  302.109
  301.853
  301.717
  301.764
  301.974
  302.249
  302.441
  302.491
  302.488
  302.481
  302.498
  302.544
  302.6
  302.653
  302.699
  302.733
  302.755
  302.768
  302.773
  302.774
  302.771
  302.765
  302.756
  302.744
  302.726
  302.706
  302.68
  302.651
  302.618
  302.6
  302.607
  302.631
  302.786
  303.925
  303.568
  303.285
  302.992
  302.781
  302.662
  302.352
  301.934
  301.652
  301.609
  301.768
  302.065
  302.391
  302.56
  302.598
  302.607
  302.617
  302.641
  302.678
  302.717
  302.751
  302.776
  302.792
  302.8
  302.802
  302.8
  302.796
  302.79
  302.783
  302.775
  302.768
  302.764
  302.762
  302.765
  302.777
  302.801
  302.837
  302.875
  302.904
  302.971
  298.201
  299.654
  300.448
  300.715
  300.798
  300.931
  301.172
  301.518
  301.896
  302.311
  302.594
  302.678
  302.704
  302.717
  302.732
  302.753
  302.777
  302.798
  302.813
  302.822
  302.826
  302.826
  302.824
  302.82
  302.817
  302.813
  302.81
  302.807
  302.806
  302.805
  302.808
  302.815
  302.828
  302.85
  302.878
  302.909
  302.937
  302.966
  298.276
  299.638
  300.201
  300.465
  300.698
  301.131
  301.599
  302.086
  302.501
  302.674
  302.749
  302.777
  302.791
  302.802
  302.814
  302.826
  302.837
  302.844
  302.848
  302.849
  302.848
  302.846
  302.843
  302.841
  302.838
  302.836
  302.834
  302.832
  302.831
  302.831
  302.833
  302.838
  302.847
  302.862
  302.881
  302.906
  302.909
  302.946
  299.246
  299.222
  299.22
  300.054
  300.473
  300.904
  301.776
  302.341
  302.629
  302.757
  302.813
  302.838
  302.853
  302.863
  302.87
  302.876
  302.88
  302.883
  302.885
  302.885
  302.884
  302.881
  302.878
  302.875
  302.871
  302.868
  302.865
  302.862
  302.859
  302.857
  302.854
  302.853
  302.852
  302.853
  302.856
  302.866
  302.877
  302.887
  302.892
  302.935
)
;

boundaryField
{
  floor
  {
    type wallHeatTransfer;
    Tinf uniform 305.2;
    alphaWall uniform 0.24;
    value nonuniform List<scalar> 36
(
  302.396
  302.878
  302.804
  302.755
  302.753
  302.767
  302.793
  302.823
  302.852
  302.88
  302.907
  302.933
  302.958
  302.982
  303.006
  303.031
  303.058
  303.081
  303.138
  303.138
  303.036
  302.98
  302.942
  302.967
  303.021
  303.001
  302.396
  302.38
  302.422
  302.487
  302.878
  302.487
  302.891
  302.472
  302.747
  302.48
)
;
  }
  ceiling
  {
    type wallHeatTransfer;
    Tinf uniform 303.2;
    alphaWall uniform 0.24;
    value nonuniform List<scalar> 43
(
  299.46
  299.435
  299.431
  300.201
  300.611
  301.035
  301.885
  302.419
  302.689
  302.809
  302.862
  302.884
  302.9
  302.91
  302.916
  302.922
  302.926
  302.93
  302.933
  302.933
  302.933
  302.93
  302.927
  302.924
  302.92
  302.916
  302.912
  302.908
  302.904
  302.9
  302.897
  302.893
  302.891
  302.89
  302.891
  302.898
  302.907
  302.917
  302.923
  302.963
  303.891
  303.553
  298.583
)
;
  }
  sWall
  {
    type wallHeatTransfer;
    Tinf uniform 315.2;
    alphaWall uniform 0.36;
    value uniform 300.509;
  }
  nWall
  {
    type wallHeatTransfer;
    Tinf uniform 307.2;
    alphaWall uniform 0.36;
    value nonuniform List<scalar> 6
(
  303.501
  303.44
  303.317
  303.567
  303.545
  303.587
)
;
  }
  sideWalls
  {
    type empty;
  }
  glass1
  {
    type wallHeatTransfer;
    Tinf uniform 315.2;
    alphaWall uniform 4.3;
    value nonuniform List<scalar> 9
(
  310.999
  310.366
  309.968
  309.669
  309.426
  309.205
  309
  309.052
  309.269
)
;
  }
  glass2
  {
    type wallHeatTransfer;
    Tinf uniform 307.2;
    alphaWall uniform 4.3;
    value nonuniform List<scalar> 2
(
  305.467
  305.606
)
;
  }
  sun
  {
    type wallHeatTransfer;
    Tinf uniform 305.2;
    alphaWall uniform 0.24;
    value nonuniform List<scalar> 14
(
  302.51
  302.233
  302.215
  302.201
  302.189
  302.179
  302.168
  302.159
  302.154
  302.156
  302.175
  302.239
  302.295
  302.341
)
;
  }
  Table_master
  {
    type zeroGradient;
  }
  Table_slave
  {
    type zeroGradient;
  }
  inlet
  {
    type fixedValue;
    value uniform 299.15;
  }
  outlet
  {
    type zeroGradient;
  }
} 	// ************************************************************************* //

