/*--------------------------------*- C++ -*----------------------------------*\
  =========                 |
  \\      /  F ield         | OpenFOAM: The Open Source CFD Toolbox
   \\    /   O peration     | Website:  https://openfoam.org
    \\  /    A nd           | Version:  6
     \\/     M anipulation  |
\*---------------------------------------------------------------------------*/
FoamFile
{
    version     2.0;
    format      ascii;
    class       volScalarField;
    location    "200";
    object      k;
}
// * * * * * * * * * * * * * * * * * * * * * * * * * * * * * * * * * * * * * //

dimensions      [0 2 -2 0 0 0 0];

internalField   nonuniform List<scalar> 
458
(
0.000881234
0.000906057
0.000615758
0.000634357
0.000676606
0.000721983
0.000769084
0.000818359
0.000871589
0.000929589
0.000984837
0.00103521
0.00108026
0.00112186
0.00115419
0.000131097
0.000173662
0.000168291
0.000138438
0.000119132
0.000117732
0.000130542
0.000146906
0.000161657
0.000170583
0.000168524
0.000159652
0.000153374
0.000150514
0.000151205
0.000136825
0.0001151
9.56656e-05
0.00296235
0.00617986
0.00145246
0.00111292
0.00115427
0.00123352
0.00132171
0.00141358
0.0015072
0.00160368
0.0016961
0.00177482
0.00181998
0.00178714
0.00161395
0.00140641
0.00124173
0.000587947
0.000286005
0.000493348
0.000403005
0.000304915
0.000270957
0.000273963
0.000335542
0.000404781
0.000459963
0.000491968
0.000499039
0.000495041
0.000488569
0.000492065
0.000492308
0.000401572
0.000306638
0.000237659
0.00583004
0.0155266
0.00304127
0.00157339
0.00153176
0.0016206
0.00173564
0.00185925
0.00198554
0.00211106
0.00223396
0.00234376
0.00242317
0.00243757
0.00234679
0.00215263
0.00182325
0.00139647
0.000649039
0.000859623
0.00059027
0.000432579
0.000320466
0.000207277
0.00023229
0.000263081
0.00029663
0.000335651
0.000385586
0.000453622
0.000556513
0.000727694
0.00101927
0.00103681
0.00100781
0.000638202
0.00931585
0.0282446
0.0063239
0.0022371
0.00190764
0.00197078
0.00210492
0.00226059
0.0024236
0.00258753
0.00274968
0.00290397
0.00303756
0.0031173
0.00308845
0.00290031
0.00251242
0.00192566
0.00143869
0.00122681
0.00112399
0.000982934
0.000914567
0.000885119
0.00088862
0.000887489
0.000888246
0.000893469
0.000908291
0.000938587
0.000992617
0.00108453
0.00124323
0.00152711
0.00161347
0.00161874
0.00135985
0.013144
0.042153
0.012165
0.00383418
0.00256107
0.00243767
0.00253949
0.00270322
0.00288816
0.00308177
0.00327951
0.00348842
0.00370696
0.00391152
0.00405176
0.00407279
0.00393255
0.00359651
0.00306203
0.00247639
0.00212481
0.00197848
0.00193503
0.00191348
0.00188436
0.00184931
0.001816
0.00178889
0.00177355
0.00177657
0.00180538
0.00186675
0.00196111
0.0020707
0.00217986
0.00228303
0.00232432
0.00186584
0.00156205
0.00110603
0.017198
0.0535284
0.0213717
0.00830763
0.00460121
0.00357115
0.00338021
0.00342364
0.00354081
0.00366809
0.00381892
0.0040173
0.00427246
0.00456668
0.00484977
0.00505451
0.00510724
0.00492782
0.00449764
0.00396479
0.00352269
0.00322869
0.00305091
0.00293813
0.00285146
0.00277247
0.00269873
0.00263064
0.00257048
0.0025225
0.00249345
0.00249284
0.0025297
0.00260413
0.00270486
0.00280693
0.00285614
0.00278303
0.00257425
0.00109724
0.020978
0.0584534
0.0339507
0.0185327
0.0110475
0.00724987
0.00576777
0.00514672
0.00484156
0.00462197
0.00451831
0.00454928
0.00471952
0.00500842
0.00536313
0.00570644
0.00594137
0.00596015
0.00571817
0.00530913
0.00488345
0.00453405
0.00427826
0.00409556
0.00395641
0.00383951
0.00373548
0.00364088
0.00355537
0.00348062
0.00342043
0.00338186
0.0033749
0.00340617
0.00346888
0.00353538
0.00356809
0.00355057
0.00337031
0.00218987
0.0211593
0.0578563
0.0435067
0.0354838
0.0249534
0.0168996
0.0120837
0.00928374
0.0075121
0.00640699
0.00572053
0.00535593
0.00525939
0.0053852
0.0056763
0.00605642
0.00642406
0.00665297
0.00664644
0.00643807
0.0061369
0.00583431
0.00557526
0.00536839
0.00520284
0.00506404
0.00494221
0.00483309
0.00473665
0.00465592
0.00459643
0.00456636
0.00457583
0.0046342
0.00474308
0.00487487
0.00500223
0.00527506
0.0058458
0.00420412
0.0192011
0.0254641
0.0642358
0.0574028
0.0407792
0.0280237
0.0196191
0.014302
0.0109234
0.00874366
0.00737977
0.00659614
0.00622119
0.00614384
0.00628446
0.00657108
0.00692016
0.00723057
0.0074114
0.00743508
0.00733914
0.00718129
0.00700768
0.00684382
0.00669746
0.00656561
0.00644307
0.00632737
0.00621921
0.00612181
0.00604092
0.00598533
0.00596728
0.00600305
0.00611503
0.00631866
0.00654836
0.006712
0.00846512
0.00482882
0.161805
0.148174
0.0529303
0.0309329
0.0212129
0.0157318
0.0124205
0.0104003
0.00919775
0.00852281
0.00820326
0.00811396
0.00817101
0.0083249
0.00854078
0.00878053
0.00899786
0.00915363
0.00923288
0.0092441
0.00920746
0.00914345
0.00906582
0.00897676
0.00887575
0.00876605
0.00865204
0.00853774
0.0084263
0.00831996
0.00822012
0.00812748
0.0080431
0.00796564
0.00787373
0.00777416
0.0080097
0.00516583
0.0757634
0.0941332
0.049039
0.0299664
0.020937
0.0162718
0.0138301
0.0126456
0.0122057
0.0121942
0.0123899
0.012649
0.0128967
0.0131063
0.0132758
0.013407
0.0134967
0.013542
0.0135462
0.0135193
0.0134743
0.0134225
0.0133689
0.0133001
0.0132056
0.0130888
0.0129543
0.0128038
0.0126351
0.012443
0.0122214
0.011967
0.0116809
0.0113586
0.0109739
0.0104684
0.0112734
0.0058179
0.00373063
0.00507928
0.0354931
0.0298846
0.0219498
0.0160164
0.0120723
0.00950562
0.00783112
0.00674426
0.00605843
0.00565156
0.00543518
0.00533951
0.00531232
0.00531891
0.00533868
0.00536013
0.00537629
0.0053823
0.00537527
0.00535471
0.00532226
0.00528072
0.00523309
0.00518523
0.00513789
0.00508759
0.00503291
0.00497322
0.0049077
0.00483474
0.00475178
0.00465537
0.00454121
0.00440267
0.00422746
0.00399869
0.00385481
0.00299077
)
;

boundaryField
{
    floor
    {
        type            kqRWallFunction;
        value           nonuniform List<scalar> 
36
(
0.00115419
0.000131097
0.000173662
0.000168291
0.000138438
0.000119132
0.000117732
0.000130542
0.000146906
0.000161657
0.000170583
0.000168524
0.000159652
0.000153374
0.000150514
0.000151205
0.000136825
0.0001151
9.56656e-05
9.56656e-05
0.000237659
0.000638202
0.00135985
0.00186584
0.00156205
0.00110603
0.00115419
0.00140641
0.00124173
0.000587947
0.000131097
0.000587947
0.000286005
0.00139647
0.000649039
0.00143869
)
;
    }
    ceiling
    {
        type            kqRWallFunction;
        value           nonuniform List<scalar> 
43
(
0.00373063
0.00507928
0.0354931
0.0298846
0.0219498
0.0160164
0.0120723
0.00950562
0.00783112
0.00674426
0.00605843
0.00565156
0.00543518
0.00533951
0.00531232
0.00531891
0.00533868
0.00536013
0.00537629
0.0053823
0.00537527
0.00535471
0.00532226
0.00528072
0.00523309
0.00518523
0.00513789
0.00508759
0.00503291
0.00497322
0.0049077
0.00483474
0.00475178
0.00465537
0.00454121
0.00440267
0.00422746
0.00399869
0.00385481
0.00299077
0.0192011
0.0254641
0.0757634
)
;
    }
    sWall
    {
        type            kqRWallFunction;
        value           uniform 0.00373063;
    }
    nWall
    {
        type            kqRWallFunction;
        value           nonuniform List<scalar> 6(0.00110603 0.00109724 0.00218987 0.00516583 0.0058179 0.00299077);
    }
    sideWalls
    {
        type            empty;
    }
    glass1
    {
        type            kqRWallFunction;
        value           nonuniform List<scalar> 9(0.000881234 0.00296235 0.00583004 0.00931585 0.013144 0.017198 0.020978 0.0211593 0.0192011);
    }
    glass2
    {
        type            kqRWallFunction;
        value           nonuniform List<scalar> 2(0.00420412 0.00482882);
    }
    sun
    {
        type            kqRWallFunction;
        value           nonuniform List<scalar> 
14
(
0.000881234
0.000906057
0.000615758
0.000634357
0.000676606
0.000721983
0.000769084
0.000818359
0.000871589
0.000929589
0.000984837
0.00103521
0.00108026
0.00112186
)
;
    }
    Table_master
    {
        type            kqRWallFunction;
        value           nonuniform List<scalar> 9(0.000207277 0.00023229 0.000263081 0.00029663 0.000335651 0.000385586 0.000453622 0.000556513 0.000727694);
    }
    Table_slave
    {
        type            kqRWallFunction;
        value           nonuniform List<scalar> 9(0.00088862 0.000887489 0.000888246 0.000893469 0.000908291 0.000938587 0.000992617 0.00108453 0.00124323);
    }
    inlet
    {
        type            turbulentIntensityKineticEnergyInlet;
        intensity       0.05;
        value           uniform 0.161805;
    }
    outlet
    {
        type            zeroGradient;
    }
}


// ************************************************************************* //
