/*--------------------------------*- C++ -*----------------------------------*\
  =========                 |
  \\      /  F ield         | OpenFOAM: The Open Source CFD Toolbox
   \\    /   O peration     | Website:  https://openfoam.org
    \\  /    A nd           | Version:  6
     \\/     M anipulation  |
\*---------------------------------------------------------------------------*/
FoamFile
{
    version     2.0;
    format      ascii;
    class       surfaceScalarField;
    location    "2600";
    object      phi;
}
// * * * * * * * * * * * * * * * * * * * * * * * * * * * * * * * * * * * * * //

dimensions      [1 0 -1 0 0 0 0];

internalField   nonuniform List<scalar> 
850
(
-0.0027946
0.00284894
-0.00369151
0.000896907
-0.00440268
0.000711162
-0.00499259
0.000589901
-0.00543707
0.000444467
-0.00572191
0.000284829
-0.00582951
0.000107594
-0.00573731
-9.22084e-05
-0.00542331
-0.000314009
-0.00488571
-0.000537611
-0.00415299
-0.000732728
-0.00327816
-0.000874844
-0.00231492
-0.000963254
-0.00126286
-0.00105206
-0.00126193
-0.000494975
0.000496839
-3.87387e-05
-0.000456237
0.000600952
-0.000639693
0.00107218
-0.000471229
0.00138479
-0.000312615
0.00155199
-0.000167196
0.00162415
-7.21591e-05
0.0016594
-3.52541e-05
0.00167816
-1.87632e-05
0.001685
-6.83475e-06
0.00168156
3.43552e-06
0.00166601
1.55572e-05
0.00162827
3.77334e-05
0.00154232
8.59564e-05
0.00136442
0.000177902
0.00106931
0.000295114
0.000681054
0.000388257
0.000683456
-0.00198786
0.00498285
-0.00288719
0.00179623
-0.00362297
0.00144693
-0.00419639
0.00116332
-0.00462421
0.000872281
-0.00490553
0.000566137
-0.00502427
0.000226325
-0.00495581
-0.000160678
-0.00468271
-0.000587122
-0.00421311
-0.00100722
-0.00358769
-0.00135816
-0.00286923
-0.00159332
-0.00213335
-0.00169914
-0.00150188
-0.00168355
-0.0013105
-0.00145332
-0.000491706
-0.000817019
-0.000204777
-0.000284804
-0.000198124
0.000490501
1.1506e-05
0.0009413
-0.000907038
0.00121596
-0.000914359
0.00146065
-0.000715916
0.00164095
-0.00049292
0.00167413
-0.000200383
0.00167832
-7.63443e-05
0.00168447
-4.14019e-05
0.00169
-2.42947e-05
0.0016933
-1.01398e-05
0.00169431
2.4264e-06
0.00169216
1.77094e-05
0.00168287
4.70246e-05
0.00163491
0.00013392
0.00144411
0.000368703
0.00110572
0.0006335
0.000654351
0.000839631
0.00134423
-0.00139631
0.00660188
-0.00218731
0.00258722
-0.00282833
0.00208795
-0.00330316
0.00163814
-0.00366341
0.00123252
-0.00391139
0.000814105
-0.00402395
0.00033888
-0.003963
-0.000221641
-0.00370494
-0.000845188
-0.00326937
-0.00144281
-0.00270936
-0.00191819
-0.00209179
-0.00221091
-0.0014905
-0.00230044
-0.000984785
-0.00218927
-0.000594951
-0.00184317
-0.000173505
-0.00123848
0.000132194
-0.000590511
-6.08454e-05
0.00139763
-0.00138073
0.0015995
-0.00110891
0.00163051
-0.000945377
0.00169796
-0.000783366
0.00184794
-0.000642908
0.00164771
0.00157151
0.00153026
0.00150612
0.00149613
0.00149871
0.00151657
0.00156375
0.00169783
0.0014514
0.000615128
0.00112675
0.000958158
0.000645277
0.00132111
0.00199953
-0.000988187
0.00787738
-0.00163409
0.00323312
-0.00203399
0.00248784
-0.00232781
0.00193195
-0.00255817
0.00146287
-0.00272363
0.00097956
-0.00279434
0.000409581
-0.00271058
-0.000305415
-0.00244562
-0.00111015
-0.00204169
-0.00184676
-0.0015648
-0.00239509
-0.00107563
-0.0027001
-0.000625668
-0.00275041
-0.00024233
-0.00257263
0.000102563
-0.00218807
0.000491414
-0.00162734
0.000958546
-0.00105765
0.00158063
-0.000682935
0.00224867
-0.000662944
0.001816
-0.00094806
0.00170644
-0.000999356
0.00162923
-0.000868168
0.00156576
-0.000719907
0.00145814
-0.000535289
0.00170987
-0.000251878
0.00186314
-0.000153424
0.00198467
-0.00012168
0.00208353
-9.90116e-05
0.00214929
-6.59135e-05
0.00216115
-1.20052e-05
0.00209228
6.87165e-05
0.00190768
0.00018446
0.00154681
0.000360721
0.00141862
0.000743319
0.00116367
0.00121311
0.000763557
0.00172122
0.00277625
-0.000709752
0.00892875
-0.00122204
0.0037454
-0.00126689
0.00253268
-0.00129977
0.00196482
-0.00134072
0.00150381
-0.00136486
0.00100369
-0.00133145
0.000376167
-0.00116877
-0.000468107
-0.000879778
-0.00139915
-0.000531478
-0.00219507
-0.000185099
-0.00274149
0.000120018
-0.00300524
0.000365915
-0.00299633
0.000557237
-0.00276396
0.000729109
-0.00235996
0.000945963
-0.0018442
0.00122237
-0.00133407
0.00150521
-0.000965783
0.00166468
-0.000822422
0.00156173
-0.000845119
0.00140704
-0.000844663
0.00129354
-0.000754677
0.00121129
-0.000637659
0.0011781
-0.000502094
0.00127735
-0.000351126
0.00138677
-0.000262842
0.00148878
-0.000223685
0.00158313
-0.000193356
0.00166288
-0.000145663
0.00171262
-6.17349e-05
0.0017116
6.9743e-05
0.00164614
0.000249919
0.00152225
0.000484619
0.00143449
0.000831082
0.00138549
0.00126213
0.0013704
0.00173631
0.00220157
0.00194507
0.00140019
0.00081482
0.00120736
0.000205777
0.00127018
-0.000636454
0.00995234
-0.00101612
0.00412507
-0.000580119
0.00209667
-0.000222947
0.00160764
-8.04273e-06
0.00128891
0.000152135
0.000843505
0.000365479
0.00016282
0.000665255
-0.000767891
0.000961692
-0.00169561
0.00119513
-0.00242853
0.00133972
-0.00288611
0.00139448
-0.00306002
0.00138016
-0.00298203
0.0013236
-0.00270741
0.00125953
-0.0022959
0.00122925
-0.00181393
0.00124177
-0.0013466
0.00126126
-0.000985276
0.00122278
-0.000783949
0.00109325
-0.000715592
0.000927332
-0.000678748
0.000794531
-0.000621877
0.000709756
-0.000552883
0.000684458
-0.000476792
0.000731936
-0.000398599
0.00081634
-0.000347241
0.000911898
-0.000319238
0.00101057
-0.00029202
0.00110932
-0.000244411
0.00120332
-0.00015572
0.00127514
-2.06967e-06
0.00131396
0.000211097
0.00133672
0.000461868
0.0013989
0.000768918
0.0015547
0.00110633
0.00182251
0.00146851
0.00212218
0.0016454
0.00174492
0.00119208
0.000961959
0.000988744
0.00228319
-0.00071098
0.0110917
-0.000639023
0.00405311
0.000471678
0.000985966
0.00119316
0.000886161
0.00161764
0.000864436
0.0020007
0.000460448
0.00241356
-0.000250034
0.00277324
-0.00112758
0.00297975
-0.00190214
0.00301003
-0.00245885
0.0028803
-0.0027564
0.00262671
-0.00280646
0.0022966
-0.00265194
0.00193739
-0.00234822
0.0015906
-0.00194913
0.00129052
-0.00151385
0.00104836
-0.00110445
0.000851162
-0.000788082
0.0006709
-0.000603691
0.000486128
-0.000530821
0.000314203
-0.000506822
0.000182172
-0.000489843
0.000100414
-0.00047112
7.22117e-05
-0.000448585
9.66823e-05
-0.000423063
0.000154206
-0.000404757
0.000226172
-0.000391196
0.000306624
-0.000372464
0.000398265
-0.000336043
0.000507309
-0.000264755
0.00063983
-0.000134582
0.000780705
7.02306e-05
0.000924985
0.000317596
0.00110923
0.000584677
0.00136302
0.000852552
0.00169264
0.0011389
0.0020666
0.00127145
0.00223554
0.00102315
0.00182233
0.00140196
0.00415813
0.00241682
0.00915411
0.00306894
0.00340098
0.00359147
0.000463433
0.00400409
0.000473546
0.00432988
0.000538655
0.00473184
5.84925e-05
0.00511697
-0.000635175
0.00526881
-0.00127945
0.00514713
-0.0017805
0.00477864
-0.0020904
0.00422509
-0.0022029
0.00356051
-0.00214192
0.00285653
-0.00194798
0.0021724
-0.00166411
0.0015472
-0.00132395
0.00101191
-0.000978568
0.000577548
-0.000670096
0.000242333
-0.000452869
-1.38278e-05
-0.00034753
-0.000216641
-0.000328005
-0.000376158
-0.000347301
-0.000494568
-0.000371427
-0.000573459
-0.000392222
-0.000615921
-0.000406115
-0.000626662
-0.000412314
-0.000617686
-0.000413724
-0.000599057
-0.000409817
-0.000573966
-0.000397546
-0.000538128
-0.000371872
-0.000477834
-0.000325039
-0.00036636
-0.000246046
-0.000184919
-0.000111202
4.10823e-05
9.16043e-05
0.000307014
0.000318754
0.000621931
0.000537643
0.000995421
0.000765414
0.00138945
0.000877426
0.0016037
0.000808902
0.00097479
0.00203088
0.00535473
0.00967591
0.0130657
0.0125222
0.00100693
0.0115257
0.00147002
0.0108078
0.00125654
0.0101272
0.000739003
0.00928396
0.000208013
0.00827293
-0.000268511
0.00714193
-0.000649586
0.00595383
-0.000902378
0.00476689
-0.00101602
0.00363349
-0.00100856
0.00259543
-0.000909943
0.00168173
-0.000750426
0.000896547
-0.000538769
0.000257718
-0.000339741
-0.000218811
-0.000193564
-0.000544233
-0.000127444
-0.000767536
-0.000124221
-0.000935987
-0.000159548
-0.00107478
-0.000208501
-0.00119063
-0.000255568
-0.00128642
-0.000296426
-0.00136512
-0.000327402
-0.00143066
-0.000346762
-0.00149025
-0.000354125
-0.00155199
-0.000348069
-0.00162375
-0.000325776
-0.00171346
-0.000282159
-0.00183052
-0.000207969
-0.00198502
-9.15345e-05
-0.00217409
7.7873e-05
-0.0023984
0.000315924
-0.00271385
0.000634209
-0.00322467
0.00104847
-0.00402234
0.00156309
-0.0052529
0.002108
-0.00689543
0.00245143
-0.00681348
0.00194895
-0.00121533
0.00332308
0.00231733
0.00380173
0.000990866
0.00488703
0.000170748
0.00503724
0.000588365
0.0047383
0.000506607
0.00428298
0.000186559
0.00370754
-7.42996e-05
0.00302095
-0.000215865
0.00226781
-0.000262916
0.00149987
-0.000240646
0.000760145
-0.000170219
7.62369e-05
-6.65141e-05
-0.000497244
3.47251e-05
-0.000908221
7.12446e-05
-0.00117341
7.16305e-05
-0.00134565
4.48065e-05
-0.00147379
3.92451e-06
-0.0015879
-4.5427e-05
-0.00170344
-9.29484e-05
-0.00182548
-0.000133521
-0.00195246
-0.00016944
-0.0020822
-0.000197652
-0.00221288
-0.000216068
-0.00234416
-0.000222838
-0.00247685
-0.000215371
-0.00261237
-0.000190244
-0.00275136
-0.000143159
-0.00289184
-6.74884e-05
-0.00302892
4.55541e-05
-0.00314652
0.00019549
-0.00324089
0.000410297
-0.00332296
0.000716288
-0.00339812
0.00112364
-0.00345199
0.00161697
-0.00347154
0.00212756
-0.00335409
0.00233398
-0.00192565
0.000520522
-0.00307706
-0.000282103
0.00267077
0.000176671
0.000531868
7.11943e-06
0.000340179
0.000158292
0.000437076
0.000266172
0.000398632
0.000194855
0.000257831
-4.00351e-06
0.000124568
-0.000289685
6.98683e-05
-0.000631232
7.86604e-05
-0.000977825
0.000105968
-0.00128353
0.000135502
-0.00151011
0.000160084
-0.00164576
0.000170381
-0.00173012
0.000155616
-0.00178272
0.000124244
-0.00182315
8.52486e-05
-0.00186578
4.6564e-05
-0.00192797
1.67751e-05
-0.00201432
-6.59117e-06
-0.00212461
-2.32211e-05
-0.00225918
-3.48623e-05
-0.00241446
-4.2359e-05
-0.00258417
-4.63509e-05
-0.00275959
-4.74066e-05
-0.0029295
-4.54491e-05
-0.00308055
-3.91856e-05
-0.00319799
-2.57175e-05
-0.00326432
-1.14464e-06
-0.00326809
4.93313e-05
-0.00321057
0.000137979
-0.00306853
0.00026826
-0.00280944
0.000457201
-0.00241107
0.000725277
-0.00183786
0.00104377
-0.000940569
0.00123027
0.000529827
0.000863594
0.00141984
-0.000369481
-0.00158761
-0.00515317
-0.00805884
-0.00534998
-0.0048036
-0.0044553
-0.00401372
-0.00361359
-0.00335704
-0.00323622
-0.00317216
-0.00310106
-0.00300424
-0.00287945
-0.00273161
-0.00257492
-0.00243421
-0.00232577
-0.00225695
-0.00222722
-0.0022276
-0.00225162
-0.00229251
-0.00234533
-0.00240597
-0.00247097
-0.00253739
-0.00260216
-0.00266087
-0.00270618
-0.00272682
-0.00269671
-0.00257758
-0.00232772
-0.00188843
-0.00118053
-0.000153628
0.00106019
0.00190712
0.00152008
)
;

boundaryField
{
    floor
    {
        type            calculated;
        value           nonuniform List<scalar> 
36
(
0
0
0
0
0
0
0
0
0
0
0
0
0
0
0
0
0
0
0
-2.39763e-06
-6.4241e-06
-1.00097e-05
-1.31608e-05
-1.3428e-05
-1.29435e-05
-1.21274e-05
-9.39127e-07
-1.7855e-06
-2.13149e-06
-2.63188e-06
-1.86469e-06
-4.02412e-06
-5.16587e-06
-5.09046e-06
-5.40376e-06
-5.1107e-06
)
;
    }
    ceiling
    {
        type            calculated;
        value           nonuniform List<scalar> 
43
(
-4.08613e-05
-3.95957e-05
-3.80604e-05
-1.44882e-05
-8.0792e-06
-4.47038e-06
-1.46632e-06
1.29919e-06
3.76839e-06
5.83431e-06
7.57042e-06
9.16828e-06
1.07242e-05
1.22545e-05
1.37011e-05
1.49195e-05
1.58212e-05
1.64323e-05
1.68524e-05
1.7168e-05
1.74315e-05
1.76795e-05
1.79667e-05
1.82979e-05
1.86594e-05
1.90183e-05
1.93272e-05
1.95351e-05
1.96014e-05
1.95034e-05
1.92305e-05
1.88566e-05
1.84132e-05
1.79151e-05
1.73854e-05
1.68809e-05
1.6455e-05
1.66713e-05
1.75735e-05
1.91878e-05
1.46565e-05
1.12226e-05
-7.14789e-05
)
;
    }
    sWall
    {
        type            calculated;
        value           uniform -0.000279405;
    }
    nWall
    {
        type            calculated;
        value           nonuniform List<scalar> 6(-5.06897e-05 -5.10439e-05 -5.26058e-05 -6.39097e-05 -6.95986e-05 -8.6716e-05);
    }
    sideWalls
    {
        type            empty;
        value           nonuniform 0();
    }
    glass1
    {
        type            calculated;
        value           nonuniform List<scalar> 9(-5.43557e-05 -0.000146064 -0.000222729 -0.000287323 -0.000341627 -0.000387153 -0.000428358 -0.000479278 -0.000536461);
    }
    glass2
    {
        type            calculated;
        value           nonuniform List<scalar> 2(-0.000221807 -0.000243418);
    }
    sun
    {
        type            calculated;
        value           uniform 0;
    }
    Table_master
    {
        type            calculated;
        value           nonuniform List<scalar> 9(-1.52289e-07 -1.5239e-07 -1.52424e-07 -1.52445e-07 -1.5246e-07 -1.52467e-07 -1.52466e-07 -1.52454e-07 -1.52413e-07);
    }
    Table_slave
    {
        type            calculated;
        value           nonuniform List<scalar> 9(1.52248e-07 1.5224e-07 1.52203e-07 1.52172e-07 1.52152e-07 1.52151e-07 1.52157e-07 1.52188e-07 1.5226e-07);
    }
    inlet
    {
        type            calculated;
        value           uniform -0.00463371;
    }
    outlet
    {
        type            calculated;
        value           nonuniform List<scalar> 2(0.00547346 0.00294529);
    }
}


// ************************************************************************* //
