/*--------------------------------*- C++ -*----------------------------------*\
  =========                 |
  \\      /  F ield         | OpenFOAM: The Open Source CFD Toolbox
   \\    /   O peration     | Website:  https://openfoam.org
    \\  /    A nd           | Version:  6
     \\/     M anipulation  |
\*---------------------------------------------------------------------------*/
FoamFile
{
    version     2.0;
    format      ascii;
    class       volScalarField;
    location    "1200";
    object      epsilon;
}
// * * * * * * * * * * * * * * * * * * * * * * * * * * * * * * * * * * * * * //

dimensions      [0 2 -3 0 0 0 0];

internalField   nonuniform List<scalar> 
458
(
0.000128403
0.000140144
0.000117341
0.000130628
0.000144722
0.000158422
0.000171717
0.000184872
0.000198365
0.000213021
0.000226099
0.000236325
0.000243446
0.000248613
0.000251829
2.86312e-05
4.8189e-05
4.92171e-05
2.90702e-05
1.47487e-05
5.57601e-06
4.92352e-06
5.40566e-06
6.27541e-06
6.39559e-06
5.72733e-06
4.76018e-06
3.91859e-06
4.51037e-06
1.07527e-05
2.17635e-05
2.32542e-05
1.7152e-05
0.000593922
0.00137337
0.000138255
0.000101535
0.000103355
0.00010755
0.000112655
0.000119405
0.000128717
0.000141537
0.000156468
0.000172436
0.000188323
0.00020409
0.000229919
0.000305646
0.000266308
0.000109155
7.29728e-05
9.22453e-05
6.47279e-05
4.946e-05
3.27705e-05
2.13374e-05
1.50278e-05
1.27921e-05
1.22411e-05
1.16917e-05
9.88738e-06
7.21512e-06
5.03245e-06
6.24509e-06
3.08802e-05
6.10494e-05
8.3731e-05
4.85185e-05
0.00148673
0.00459291
0.00030673
0.000113478
0.000106002
0.000110589
0.000117519
0.000126707
0.00013847
0.000152845
0.000168652
0.000183112
0.000194244
0.000202085
0.000210948
0.000229306
0.000260964
0.000334254
0.000213506
0.000185102
0.000109004
9.47841e-05
9.55175e-05
4.8414e-05
2.82778e-05
2.03687e-05
1.59492e-05
1.29836e-05
1.06907e-05
8.66927e-06
6.92175e-06
1.02386e-05
9.60893e-05
0.000161868
0.000161375
6.06262e-05
0.00295844
0.0103987
0.00074618
0.000145989
0.000117456
0.000123904
0.000134767
0.000148275
0.000164519
0.000183484
0.000204077
0.000220809
0.000230648
0.000234037
0.000234171
0.000236909
0.00025363
0.000301115
0.000380947
0.000165279
9.01585e-05
7.44812e-05
7.7444e-05
9.45758e-05
0.000132426
0.000139613
0.000155351
0.00017998
0.000218049
0.000286706
0.000327527
0.000349194
0.00033967
0.000256012
0.000231498
0.000296234
0.000282985
0.00508055
0.0184178
0.0017618
0.000223214
0.00013562
0.000140191
0.000155999
0.000177087
0.000203216
0.000234277
0.000267634
0.000291638
0.000302035
0.000300891
0.000291593
0.000277201
0.000260347
0.000237462
0.000191152
0.000116993
8.08988e-05
6.71022e-05
6.56831e-05
7.0649e-05
7.84168e-05
8.74284e-05
0.000102448
0.00012527
0.000159183
0.000212301
0.000255216
0.000285196
0.00029044
0.000262216
0.000229481
0.000228748
0.000264256
0.000387008
0.000297775
0.000311094
0.00794299
0.0260822
0.00405149
0.000530081
0.00021297
0.00018247
0.000193776
0.00022023
0.000258677
0.000311122
0.000366192
0.000396313
0.000401194
0.000389719
0.000369506
0.000344932
0.000315162
0.000271541
0.000210286
0.000147621
0.00010451
8.21556e-05
7.35951e-05
7.23056e-05
7.54749e-05
8.37662e-05
9.97729e-05
0.000125859
0.000165109
0.000222584
0.000293336
0.000353685
0.000396348
0.000401944
0.000337745
0.000281683
0.00025685
0.000270838
0.000298078
0.000353086
0.0114603
0.0299884
0.00916886
0.00241094
0.000883323
0.00048463
0.000383683
0.00037173
0.000399629
0.000474835
0.000539157
0.000551358
0.000528972
0.000490433
0.000446976
0.000404455
0.00036197
0.000310614
0.000247015
0.000183003
0.000133946
0.000104045
8.86112e-05
8.19374e-05
8.15174e-05
8.82745e-05
0.000104392
0.000132502
0.00017778
0.000248984
0.000346316
0.000441614
0.000535607
0.000618375
0.000645882
0.000574524
0.000536373
0.000508553
0.000600592
0.000612226
0.0123223
0.035915
0.0182034
0.011305
0.00609524
0.00308763
0.00175261
0.00120905
0.000994968
0.000926572
0.000859128
0.000774667
0.000684369
0.000597374
0.000518229
0.000448737
0.000387846
0.000329657
0.000268799
0.000208518
0.000159617
0.000126797
0.000107556
9.8007e-05
9.61297e-05
0.000102731
0.000119148
0.000146136
0.000193156
0.000284671
0.00042618
0.000561546
0.00070543
0.000896167
0.00119099
0.00155693
0.00186938
0.00204414
0.00417058
0.00115769
0.0113276
0.0191756
0.0167171
0.0125374
0.00901766
0.00616558
0.00416399
0.00288578
0.00211278
0.00161
0.00126045
0.00100966
0.000822607
0.00067769
0.000561829
0.00046731
0.000389237
0.000323318
0.000265926
0.00021613
0.000175807
0.000146671
0.000128561
0.000119977
0.000119697
0.000128933
0.000147525
0.000166789
0.000199031
0.000301933
0.00050122
0.000655397
0.000777775
0.00089584
0.00102666
0.00118833
0.00137993
0.00156615
0.00177262
0.00104423
0.00857594
0.0145142
0.00900877
0.00620537
0.00437768
0.00314442
0.00231774
0.00175472
0.00135732
0.0010684
0.000852879
0.000687566
0.00055758
0.000453655
0.000370113
0.000303283
0.000250595
0.000210385
0.000181772
0.000164085
0.000156133
0.000156048
0.000162516
0.000176779
0.000199114
0.000203547
0.000183771
0.000246701
0.000494419
0.00068386
0.000827542
0.000974967
0.0011051
0.00117711
0.00117008
0.00110071
0.00099308
0.000680414
0.00682839
0.0118373
0.00745869
0.00528134
0.00388197
0.0028902
0.00217003
0.00164844
0.00126799
0.000986171
0.000773469
0.000610353
0.000483771
0.000385127
0.000308893
0.000251574
0.00021089
0.000185186
0.000172981
0.00017242
0.000180628
0.000193831
0.000208906
0.000224402
0.000235054
0.000222157
0.000178295
0.000181724
0.000366085
0.000455755
0.000544556
0.000713277
0.000961429
0.00120474
0.00132136
0.00131546
0.000898744
0.000726239
0.00344729
0.00434347
0.00524426
0.00619011
0.00489685
0.00393391
0.00301232
0.00237025
0.00187388
0.00148646
0.00118164
0.000953926
0.000777777
0.000635909
0.000519384
0.000423254
0.000344567
0.00028133
0.000231942
0.000194921
0.000168838
0.000152325
0.000143958
0.000142083
0.000144962
0.000151258
0.000158668
0.000158825
0.000144104
0.000146319
0.000244132
0.000306658
0.000374363
0.000515187
0.000736236
0.00091523
0.00100289
0.000910247
0.000720911
0.000554314
)
;

boundaryField
{
    floor
    {
        Cmu             0.09;
        kappa           0.41;
        E               9.8;
        type            epsilonWallFunction;
        value           nonuniform List<scalar> 
36
(
0.000251829
2.86312e-05
4.8189e-05
4.92171e-05
2.90702e-05
1.47487e-05
5.57601e-06
4.92352e-06
5.40566e-06
6.27541e-06
6.39559e-06
5.72733e-06
4.76018e-06
3.91859e-06
4.51037e-06
1.07527e-05
2.17635e-05
2.32542e-05
1.7152e-05
1.7152e-05
4.85185e-05
6.06262e-05
0.000282985
0.000387008
0.000297775
0.000311094
0.000251829
0.000305646
0.000266308
0.000109155
2.86312e-05
0.000109155
7.29728e-05
0.000334254
0.000213506
0.000380947
)
;
    }
    ceiling
    {
        Cmu             0.09;
        kappa           0.41;
        E               9.8;
        type            epsilonWallFunction;
        value           nonuniform List<scalar> 
43
(
0.00344729
0.00434347
0.00524426
0.00619011
0.00489685
0.00393391
0.00301232
0.00237025
0.00187388
0.00148646
0.00118164
0.000953926
0.000777777
0.000635909
0.000519384
0.000423254
0.000344567
0.00028133
0.000231942
0.000194921
0.000168838
0.000152325
0.000143958
0.000142083
0.000144962
0.000151258
0.000158668
0.000158825
0.000144104
0.000146319
0.000244132
0.000306658
0.000374363
0.000515187
0.000736236
0.00091523
0.00100289
0.000910247
0.000720911
0.000554314
0.0113276
0.0191756
0.00682839
)
;
    }
    sWall
    {
        Cmu             0.09;
        kappa           0.41;
        E               9.8;
        type            epsilonWallFunction;
        value           uniform 0.00344729;
    }
    nWall
    {
        Cmu             0.09;
        kappa           0.41;
        E               9.8;
        type            epsilonWallFunction;
        value           nonuniform List<scalar> 6(0.000311094 0.000353086 0.000612226 0.000680414 0.000726239 0.000554314);
    }
    sideWalls
    {
        type            empty;
    }
    glass1
    {
        Cmu             0.09;
        kappa           0.41;
        E               9.8;
        type            epsilonWallFunction;
        value           nonuniform List<scalar> 9(0.000128403 0.000593922 0.00148673 0.00295844 0.00508055 0.00794299 0.0114603 0.0123223 0.0113276);
    }
    glass2
    {
        Cmu             0.09;
        kappa           0.41;
        E               9.8;
        type            epsilonWallFunction;
        value           nonuniform List<scalar> 2(0.00115769 0.00104423);
    }
    sun
    {
        Cmu             0.09;
        kappa           0.41;
        E               9.8;
        type            epsilonWallFunction;
        value           nonuniform List<scalar> 
14
(
0.000128403
0.000140144
0.000117341
0.000130628
0.000144722
0.000158422
0.000171717
0.000184872
0.000198365
0.000213021
0.000226099
0.000236325
0.000243446
0.000248613
)
;
    }
    Table_master
    {
        Cmu             0.09;
        kappa           0.41;
        E               9.8;
        type            epsilonWallFunction;
        value           nonuniform List<scalar> 9(4.8414e-05 2.82778e-05 2.03687e-05 1.59492e-05 1.29836e-05 1.06907e-05 8.66927e-06 6.92175e-06 1.02386e-05);
    }
    Table_slave
    {
        Cmu             0.09;
        kappa           0.41;
        E               9.8;
        type            epsilonWallFunction;
        value           nonuniform List<scalar> 9(0.000132426 0.000139613 0.000155351 0.00017998 0.000218049 0.000286706 0.000327527 0.000349194 0.00033967);
    }
    inlet
    {
        type            turbulentMixingLengthDissipationRateInlet;
        mixingLength    0.01;
        phi             phi;
        k               k;
        value           uniform 0.000101881;
    }
    outlet
    {
        type            zeroGradient;
    }
}


// ************************************************************************* //
