/*--------------------------------*- C++ -*----------------------------------*\
  =========                 |
  \\      /  F ield         | OpenFOAM: The Open Source CFD Toolbox
   \\    /   O peration     | Website:  https://openfoam.org
    \\  /    A nd           | Version:  6
     \\/     M anipulation  |
\*---------------------------------------------------------------------------*/
FoamFile
{
    version     2.0;
    format      ascii;
    class       volScalarField;
    location    "900";
    object      nut;
}
// * * * * * * * * * * * * * * * * * * * * * * * * * * * * * * * * * * * * * //

dimensions      [0 2 -1 0 0 0 0];

internalField   nonuniform List<scalar> 
458
(
0.00113996
0.00124494
0.00128594
0.00134787
0.00140459
0.0014595
0.00151716
0.0015725
0.00161968
0.0016506
0.00165595
0.00159896
0.00144122
0.00125616
0.00108618
0.000509155
0.000598326
0.000686152
0.000720863
0.000716662
0.000680801
0.000638942
0.000600363
0.000566075
0.000535603
0.000508504
0.000484357
0.000462414
0.000441874
0.000421784
0.00040068
0.000382253
0.000346956
0.0014845
0.00318716
0.0028764
0.00321436
0.00356489
0.00391231
0.00417264
0.00442675
0.00469084
0.00492747
0.00513706
0.00536091
0.0053209
0.00434194
0.00275571
0.00122425
0.00107458
0.00090935
0.000496723
0.00123692
0.00186993
0.00234143
0.00246565
0.00179415
0.00152991
0.00135614
0.00122918
0.00113189
0.00105309
0.000979846
0.000907489
0.000831115
0.000761385
0.000703839
0.000807281
0.000426039
0.00176528
0.00419847
0.00341226
0.00381918
0.00394032
0.00401955
0.00409847
0.00422979
0.00441143
0.00463313
0.0049433
0.00541623
0.00591554
0.0056754
0.00455926
0.00319451
0.00236444
0.000966799
0.00071221
0.00138615
0.0021161
0.00278005
0.00290143
0.000878102
0.000777893
0.000693002
0.000623512
0.000567054
0.000521123
0.000484034
0.000454451
0.000432476
0.000488302
0.000577944
0.000923611
0.000484471
0.00202642
0.00516175
0.00334998
0.00386376
0.0037607
0.00364372
0.003627
0.00372031
0.00387651
0.0040927
0.00443759
0.00498239
0.00559011
0.00571268
0.00520499
0.00423676
0.00322673
0.00177636
0.00100669
0.00149065
0.00221548
0.00304307
0.00368839
0.00365505
0.000964458
0.000891128
0.000843003
0.000808381
0.000778719
0.00074758
0.000717337
0.000684345
0.000644443
0.00060435
0.000604979
0.00102642
0.000544836
0.00228536
0.00648015
0.00330515
0.0037563
0.00356582
0.00335045
0.00330938
0.00342938
0.00359951
0.00381156
0.00414418
0.00466727
0.00519733
0.00537079
0.00518075
0.00467639
0.00395037
0.0030455
0.00308032
0.00356066
0.00417329
0.00472212
0.00502481
0.00497588
0.00425329
0.00391775
0.00376434
0.00366338
0.0035472
0.00337328
0.0030315
0.00257486
0.00204668
0.00153344
0.00115147
0.00107589
0.000862651
0.000665957
0.000713603
0.000711333
0.00256038
0.00809106
0.00406217
0.00357883
0.00349655
0.00322384
0.00314306
0.00331946
0.00351787
0.00372125
0.00401665
0.00448447
0.00488765
0.00496512
0.00492998
0.00485933
0.00465323
0.00444494
0.00484008
0.00546335
0.00589531
0.00604901
0.00594474
0.00565652
0.0052796
0.00502894
0.0048697
0.00473391
0.00458479
0.00440122
0.00412214
0.00369753
0.00313672
0.00249279
0.0019129
0.00145028
0.00113648
0.00121299
0.00176825
0.00091146
0.00285621
0.00938542
0.00603343
0.00380636
0.00324409
0.0031802
0.00315799
0.00336923
0.0035696
0.00374399
0.00397904
0.00436035
0.00467022
0.00466922
0.00488316
0.00532859
0.00554493
0.00580993
0.00634865
0.00671069
0.00674075
0.0064875
0.00605086
0.00554602
0.00510577
0.00484122
0.00469028
0.00457656
0.00446401
0.0043456
0.00421841
0.00401111
0.00363189
0.00310707
0.00256588
0.00207656
0.00170991
0.00163553
0.00204791
0.0011393
0.00294615
0.00889482
0.00731893
0.00562689
0.00427541
0.00369509
0.00361482
0.00362971
0.00371982
0.00381092
0.00396673
0.00428795
0.00453808
0.00454926
0.00518631
0.00590766
0.0062638
0.00657633
0.00685885
0.00682743
0.00647774
0.00590942
0.00526729
0.00470223
0.00432468
0.00413097
0.0040331
0.00396975
0.00392222
0.0038932
0.00389261
0.0039143
0.00384241
0.00352664
0.00323004
0.00305907
0.00311473
0.00326551
0.00401293
0.00152655
0.00291764
0.00357528
0.00426962
0.00447715
0.00428195
0.00406342
0.00394409
0.00387053
0.0038671
0.00384205
0.00390958
0.00420395
0.00443716
0.00471366
0.00553759
0.00605628
0.00625321
0.00633095
0.00622959
0.00585162
0.00525487
0.00458578
0.00401076
0.00362399
0.00341189
0.00330426
0.00323924
0.00318534
0.00313011
0.00306728
0.00299069
0.00289317
0.00278587
0.00268685
0.00261635
0.00257507
0.00251207
0.00238478
0.00223447
0.00146361
0.00118771
0.0021378
0.00279806
0.00317447
0.00346243
0.0037796
0.0038411
0.00368293
0.00368064
0.00399602
0.00451414
0.00488439
0.00537165
0.00544073
0.00534477
0.00513066
0.00475872
0.00424947
0.00369173
0.00322658
0.00291765
0.00274355
0.00265221
0.00260104
0.00256529
0.0025336
0.00250225
0.00247217
0.00244808
0.00243997
0.00244363
0.00244328
0.00243029
0.00237877
0.00224568
0.00200857
0.00170709
0.00115852
0.00219562
0.00381445
0.00402075
0.00436437
0.00481745
0.00438218
0.00358625
0.00296349
0.00294151
0.00335527
0.00376685
0.00404982
0.00404241
0.00390408
0.00369692
0.0034102
0.00305391
0.00268617
0.00236827
0.00214828
0.00201971
0.00195718
0.00193877
0.00195072
0.00198521
0.00203714
0.00210171
0.00217268
0.00224063
0.00231969
0.00240334
0.00248433
0.0025478
0.00256596
0.00251821
0.00243256
0.00207367
0.0011693
0.00283105
0.00282865
0.00284721
0.00332191
0.00301036
0.00275092
0.00230189
0.00180503
0.00114684
0.000928334
0.000850973
0.000816592
0.000788776
0.000756863
0.000732257
0.000712286
0.000693371
0.000674907
0.000659634
0.00065188
0.000653999
0.000663488
0.00067879
0.000698556
0.000721938
0.000748505
0.000778129
0.00081094
0.000847397
0.000888461
0.000935989
0.000988428
0.0010459
0.00110847
0.00117609
0.00124939
0.00130782
0.00128333
0.00117887
0.00108215
)
;

boundaryField
{
    floor
    {
        type            nutkWallFunction;
        Cmu             0.09;
        kappa           0.41;
        E               9.8;
        value           nonuniform List<scalar> 
36
(
0.000130803
6.08886e-05
7.21427e-05
8.30283e-05
8.72834e-05
8.67697e-05
8.23701e-05
7.71991e-05
7.2397e-05
6.80974e-05
6.42496e-05
6.08049e-05
5.77164e-05
5.4893e-05
5.2235e-05
4.96199e-05
4.6856e-05
4.44272e-05
3.97321e-05
3.97321e-05
5.01741e-05
5.77297e-05
6.54167e-05
8.05391e-05
8.63938e-05
8.61158e-05
0.000130803
0.000146782
0.000129453
0.000109996
6.08886e-05
0.000109996
5.93009e-05
0.000116804
8.62238e-05
0.000121504
)
;
    }
    ceiling
    {
        type            nutkWallFunction;
        Cmu             0.09;
        kappa           0.41;
        E               9.8;
        value           nonuniform List<scalar> 
43
(
0.000321973
0.00032172
0.000323667
0.000373113
0.00034081
0.000313636
0.000265938
0.000211975
0.000137852
0.000112254
0.000103027
9.88938e-05
9.55359e-05
9.16666e-05
8.86704e-05
8.62297e-05
8.39108e-05
8.16397e-05
7.97556e-05
7.8797e-05
7.90594e-05
8.0232e-05
8.21187e-05
8.45482e-05
8.74115e-05
9.06516e-05
9.42483e-05
9.82133e-05
0.000102597
0.000107508
0.000113159
0.000119356
0.000126105
0.000133405
0.00014124
0.000149678
0.000156363
0.000153566
0.000141562
0.000130341
0.0003314
0.000399527
0.000254391
)
;
    }
    sWall
    {
        type            nutkWallFunction;
        Cmu             0.09;
        kappa           0.41;
        E               9.8;
        value           uniform 0.000322051;
    }
    nWall
    {
        type            nutkWallFunction;
        Cmu             0.09;
        kappa           0.41;
        E               9.8;
        value           nonuniform List<scalar> 6(8.6114e-05 0.00011025 0.000136989 0.000139221 0.000140468 0.000130349);
    }
    sideWalls
    {
        type            empty;
    }
    glass1
    {
        type            nutkWallFunction;
        Cmu             0.09;
        kappa           0.41;
        E               9.8;
        value           nonuniform List<scalar> 9(0.000137186 0.000176607 0.000207966 0.000236644 0.000264688 0.000294107 0.000325382 0.000334832 0.000331859);
    }
    glass2
    {
        type            nutkWallFunction;
        Cmu             0.09;
        kappa           0.41;
        E               9.8;
        value           nonuniform List<scalar> 2(0.000181194 0.000174112);
    }
    sun
    {
        type            nutkWallFunction;
        Cmu             0.09;
        kappa           0.41;
        E               9.8;
        value           nonuniform List<scalar> 
14
(
0.000137052
0.000149151
0.000153845
0.000160906
0.000167341
0.000173543
0.000180028
0.000186226
0.000191492
0.000194934
0.00019553
0.000189187
0.000171486
0.000150442
)
;
    }
    Table_master
    {
        type            nutkWallFunction;
        Cmu             0.09;
        kappa           0.41;
        E               9.8;
        value           nonuniform List<scalar> 9(0.000106271 9.42222e-05 8.38715e-05 7.52859e-05 6.82255e-05 6.2418e-05 5.76826e-05 5.38732e-05 5.10236e-05);
    }
    Table_slave
    {
        type            nutkWallFunction;
        Cmu             0.09;
        kappa           0.41;
        E               9.8;
        value           nonuniform List<scalar> 9(0.000116527 0.000107826 0.000102071 9.79066e-05 9.43222e-05 9.05419e-05 8.68525e-05 8.28066e-05 7.78819e-05);
    }
    inlet
    {
        type            calculated;
        value           uniform 0.00033541;
    }
    outlet
    {
        type            calculated;
        value           nonuniform List<scalar> 2(0.00283105 0.00282865);
    }
}


// ************************************************************************* //
