/*--------------------------------*- C++ -*----------------------------------*\
  =========                 |
  \\      /  F ield         | OpenFOAM: The Open Source CFD Toolbox
   \\    /   O peration     | Website:  https://openfoam.org
    \\  /    A nd           | Version:  6
     \\/     M anipulation  |
\*---------------------------------------------------------------------------*/
FoamFile
{
    version     2.0;
    format      ascii;
    class       volScalarField;
    location    "1400";
    object      k;
}
// * * * * * * * * * * * * * * * * * * * * * * * * * * * * * * * * * * * * * //

dimensions      [0 2 -2 0 0 0 0];

internalField   nonuniform List<scalar> 
458
(
0.00106448
0.00117044
0.00113518
0.00121586
0.00128845
0.00135239
0.00140951
0.00146215
0.00151304
0.00156477
0.00160322
0.00162458
0.00162982
0.00162817
0.00162387
0.000642332
0.000568939
0.000532355
0.000515025
0.000500688
0.000475377
0.000447292
0.000420967
0.000397112
0.000375237
0.000354952
0.000335868
0.000317519
0.000299259
0.00028025
0.000258882
0.000236309
0.000195209
0.00247075
0.00464196
0.00166731
0.00168481
0.00174471
0.00181701
0.00189607
0.0019852
0.00208617
0.00219673
0.0022926
0.00234213
0.00231333
0.00218418
0.00195298
0.0017114
0.00146383
0.00128896
0.000910882
0.000801328
0.000784971
0.000781819
0.000754891
0.000679823
0.000614566
0.000564833
0.000521402
0.00048073
0.000442135
0.000404867
0.000367687
0.000331144
0.000307293
0.000299383
0.000409629
0.000269822
0.00423718
0.010052
0.00226237
0.00204728
0.00210767
0.00221115
0.00232632
0.00245789
0.00260788
0.00276731
0.00291673
0.00301293
0.00302275
0.00295312
0.00284298
0.00263919
0.00218026
0.00179938
0.0011804
0.000991318
0.000923759
0.000886368
0.00083666
0.00068805
0.000564282
0.00047159
0.000403904
0.000354417
0.000317602
0.000289882
0.000269565
0.000257111
0.00025234
0.000269911
0.000517509
0.000330361
0.00654655
0.0187353
0.00330513
0.0022905
0.00231836
0.00244726
0.0025834
0.00273332
0.00290931
0.00311454
0.00331803
0.00345028
0.00346937
0.00338022
0.00320326
0.00292578
0.0025479
0.00222096
0.00164203
0.00151677
0.00113421
0.000954154
0.000864776
0.000803413
0.000655902
0.00061674
0.000613125
0.000618194
0.000618008
0.000603427
0.00057241
0.000538661
0.000496145
0.000397998
0.000339856
0.00062099
0.000400115
0.00945256
0.0307759
0.00584169
0.00257548
0.00244139
0.00256449
0.00271422
0.00289288
0.00312787
0.00344054
0.00374271
0.00391916
0.00393137
0.00379565
0.00353876
0.00319023
0.00282717
0.00255348
0.00224611
0.00159635
0.00119709
0.000972823
0.000881839
0.000859573
0.000890777
0.00095925
0.00102975
0.00108156
0.00110079
0.00107562
0.000998647
0.000892984
0.000774048
0.000623507
0.000488725
0.000567273
0.000549628
0.000536215
0.000601927
0.000649597
0.0130304
0.043512
0.0126726
0.00384376
0.00284804
0.002783
0.00288499
0.00306947
0.00336807
0.00388376
0.0042972
0.00448148
0.00444736
0.00423671
0.0038879
0.00345427
0.00302944
0.00265924
0.00223284
0.00170903
0.00126519
0.00102473
0.000949775
0.000960932
0.00103631
0.00114908
0.00126336
0.00135901
0.00141754
0.00141939
0.00134499
0.00118608
0.0010059
0.000817468
0.000655401
0.000594397
0.000565554
0.000715831
0.00195974
0.00114419
0.0170934
0.0522319
0.0265272
0.0105683
0.00601329
0.00432789
0.00386164
0.00387217
0.00417286
0.00482481
0.00515235
0.00519472
0.00502564
0.00469553
0.00424154
0.00372208
0.00323615
0.00282348
0.00239547
0.0018647
0.00136206
0.00112628
0.00106676
0.00109145
0.00116941
0.00128552
0.00141948
0.00155607
0.00166873
0.00174144
0.00174691
0.00160975
0.00139636
0.00116965
0.000990532
0.000892508
0.000861529
0.00103161
0.00252644
0.00166063
0.0181418
0.0561848
0.0382124
0.0287384
0.0193996
0.012808
0.00929
0.00764593
0.00711217
0.00680462
0.00648849
0.00611493
0.00566919
0.00514458
0.00454783
0.00392817
0.00339752
0.00299336
0.00259412
0.00201771
0.0014958
0.00127587
0.00121882
0.00123761
0.0013037
0.00140617
0.00153451
0.00168068
0.0018374
0.00200117
0.00216709
0.00231698
0.00229807
0.00219585
0.00220964
0.002457
0.00310233
0.00403873
0.00923169
0.00324315
0.0173679
0.0250885
0.0260802
0.0235923
0.0204842
0.0169235
0.0138157
0.0115142
0.00992178
0.0087007
0.00774871
0.00694003
0.00618897
0.00544279
0.00468389
0.00396503
0.00344036
0.00311555
0.00277222
0.00214845
0.00167373
0.00147273
0.00139939
0.00138629
0.00141391
0.0014756
0.00156658
0.0016836
0.00182444
0.00198724
0.00216949
0.00236695
0.00257033
0.00281395
0.00319176
0.00371852
0.00431457
0.00481536
0.00515104
0.00316286
0.014679
0.0292887
0.0221843
0.018162
0.0151729
0.0128678
0.0110824
0.00961787
0.00835459
0.00725228
0.00626379
0.00534445
0.00446971
0.00371927
0.00335463
0.0032499
0.00298692
0.00237811
0.00200915
0.00181812
0.00169822
0.00161423
0.0015604
0.0015359
0.00153969
0.00157149
0.00163281
0.00172717
0.00186025
0.00204067
0.00227936
0.00256907
0.00291925
0.00330081
0.00360589
0.00367706
0.00347842
0.00226375
0.012294
0.0267871
0.0208374
0.0172592
0.0145653
0.0124446
0.0106211
0.00907282
0.00770813
0.00651478
0.00548047
0.00456483
0.00373207
0.00314533
0.00343235
0.00390708
0.00393494
0.0035173
0.00319914
0.00294433
0.00270896
0.00248849
0.00229509
0.00213858
0.00202235
0.00194705
0.00191402
0.00192668
0.00199021
0.00210916
0.00229815
0.00256545
0.00289872
0.00324968
0.00356344
0.00380607
0.00369079
0.00233754
0.00763732
0.00907242
0.0103726
0.0119149
0.0106667
0.00964396
0.00797617
0.00670997
0.00558709
0.00458561
0.0038077
0.00318556
0.00264227
0.00213745
0.00164377
0.00117257
0.00112049
0.0012325
0.00123087
0.00114017
0.00105761
0.000993371
0.00094792
0.000923638
0.00092189
0.000941623
0.000980457
0.00103613
0.00110739
0.00119457
0.00130038
0.00143155
0.00158588
0.00176102
0.00196203
0.00218547
0.00244371
0.00239346
0.00205494
0.00178198
)
;

boundaryField
{
    floor
    {
        type            kqRWallFunction;
        value           nonuniform List<scalar> 
36
(
0.00162387
0.000642332
0.000568939
0.000532355
0.000515025
0.000500688
0.000475377
0.000447292
0.000420967
0.000397112
0.000375237
0.000354952
0.000335868
0.000317519
0.000299259
0.00028025
0.000258882
0.000236309
0.000195209
0.000195209
0.000269822
0.000330361
0.000400115
0.000536215
0.000601927
0.000649597
0.00162387
0.0017114
0.00146383
0.00128896
0.000642332
0.00128896
0.000910882
0.00179938
0.0011804
0.00164203
)
;
    }
    ceiling
    {
        type            kqRWallFunction;
        value           nonuniform List<scalar> 
43
(
0.00763732
0.00907242
0.0103726
0.0119149
0.0106667
0.00964396
0.00797617
0.00670997
0.00558709
0.00458561
0.0038077
0.00318556
0.00264227
0.00213745
0.00164377
0.00117257
0.00112049
0.0012325
0.00123087
0.00114017
0.00105761
0.000993371
0.00094792
0.000923638
0.00092189
0.000941623
0.000980457
0.00103613
0.00110739
0.00119457
0.00130038
0.00143155
0.00158588
0.00176102
0.00196203
0.00218547
0.00244371
0.00239346
0.00205494
0.00178198
0.0173679
0.0250885
0.012294
)
;
    }
    sWall
    {
        type            kqRWallFunction;
        value           uniform 0.00763732;
    }
    nWall
    {
        type            kqRWallFunction;
        value           nonuniform List<scalar> 6(0.000649597 0.00114419 0.00166063 0.00226375 0.00233754 0.00178198);
    }
    sideWalls
    {
        type            empty;
    }
    glass1
    {
        type            kqRWallFunction;
        value           nonuniform List<scalar> 9(0.00106448 0.00247075 0.00423718 0.00654655 0.00945256 0.0130304 0.0170934 0.0181418 0.0173679);
    }
    glass2
    {
        type            kqRWallFunction;
        value           nonuniform List<scalar> 2(0.00324315 0.00316286);
    }
    sun
    {
        type            kqRWallFunction;
        value           nonuniform List<scalar> 
14
(
0.00106448
0.00117044
0.00113518
0.00121586
0.00128845
0.00135239
0.00140951
0.00146215
0.00151304
0.00156477
0.00160322
0.00162458
0.00162982
0.00162817
)
;
    }
    Table_master
    {
        type            kqRWallFunction;
        value           nonuniform List<scalar> 9(0.00068805 0.000564282 0.00047159 0.000403904 0.000354417 0.000317602 0.000289882 0.000269565 0.000257111);
    }
    Table_slave
    {
        type            kqRWallFunction;
        value           nonuniform List<scalar> 9(0.000655902 0.00061674 0.000613125 0.000618194 0.000618008 0.000603427 0.00057241 0.000538661 0.000496145);
    }
    inlet
    {
        type            turbulentIntensityKineticEnergyInlet;
        intensity       0.05;
        value           uniform 0.0003375;
    }
    outlet
    {
        type            zeroGradient;
    }
}


// ************************************************************************* //
