/*--------------------------------*- C++ -*----------------------------------*\
  =========                 |
  \\      /  F ield         | OpenFOAM: The Open Source CFD Toolbox
   \\    /   O peration     | Website:  https://openfoam.org
    \\  /    A nd           | Version:  6
     \\/     M anipulation  |
\*---------------------------------------------------------------------------*/
FoamFile
{
    version     2.0;
    format      ascii;
    class       surfaceScalarField;
    location    "1800";
    object      phi;
}
// * * * * * * * * * * * * * * * * * * * * * * * * * * * * * * * * * * * * * //

dimensions      [1 0 -1 0 0 0 0];

internalField   nonuniform List<scalar> 
850
(
-0.00326514
0.00332791
-0.00459988
0.00133472
-0.00565628
0.00105638
-0.00645228
0.000795982
-0.00693276
0.000480468
-0.00703557
0.000102788
-0.00668476
-0.000350824
-0.00580565
-0.000879125
-0.00438456
-0.00142111
-0.00251751
-0.00186707
-0.000442005
-0.00207552
0.00127195
-0.00171397
0.00193669
-0.000664756
0.00165098
0.000285703
0.00165351
-0.00096615
0.000970032
-0.000621421
-0.000344747
0.000169658
-0.000791096
0.000901646
-0.000732005
0.0014512
-0.000549576
0.00174897
-0.00029778
0.00187007
-0.000121119
0.0019268
-5.67513e-05
0.00195737
-3.05898e-05
0.00196945
-1.20944e-05
0.00196696
2.4676e-06
0.00195012
1.68225e-05
0.00190939
4.07124e-05
0.00181793
9.1443e-05
0.00163054
0.00018737
0.00132497
0.00030555
0.000913713
0.000411234
0.000918447
-0.00243615
0.00593534
-0.00376905
0.0026676
-0.0048988
0.00218612
-0.00574379
0.00164096
-0.00627592
0.00101258
-0.00644294
0.000269791
-0.00617987
-0.000613912
-0.00542988
-0.00162913
-0.00420972
-0.00264128
-0.00268476
-0.00339205
-0.00114109
-0.0036192
0.000242315
-0.00309738
0.00121098
-0.00163344
0.00178122
-0.000284552
0.00273454
0.000700182
0.00208478
0.000654259
0.00132392
0.000765836
0.00133807
7.35143e-05
0.000908366
0.00054251
-0.00081376
0.000985377
-0.00123398
0.00139357
-0.00114021
0.00172245
-0.000878471
0.00179713
-0.000372479
0.00180726
-0.000131268
0.00181906
-6.85706e-05
0.00182905
-4.05954e-05
0.00183473
-1.77992e-05
0.0018367
4.8124e-07
0.00183451
1.90002e-05
0.00182436
5.08359e-05
0.00177288
0.000142909
0.00156816
0.000392069
0.00121394
0.000659745
0.000757807
0.00086735
0.00168883
-0.00177287
0.00797284
-0.00294867
0.00384339
-0.00403337
0.00327081
-0.00485472
0.00246229
-0.0054134
0.00157125
-0.00565327
0.00050964
-0.00549449
-0.000772709
-0.00487464
-0.002249
-0.00383577
-0.00368017
-0.00257146
-0.00465638
-0.00132876
-0.00486192
-0.000259132
-0.00416701
0.000644598
-0.00253718
0.00130066
-0.000940623
0.00178197
0.000218851
0.00164318
0.000793037
0.00112131
0.00128768
0.00247284
0.00145346
-0.000529269
0.00168224
-0.00104256
0.00169366
-0.00124542
0.00180319
-0.00124976
0.00211116
-0.00118645
0.00173881
0.00160768
0.00153925
0.00149879
0.00148112
0.00148174
0.00150088
0.00155185
0.00169489
0.00142518
0.000661764
0.00108598
0.000998918
0.000618915
0.0013344
0.00232705
-0.00125364
0.00957239
-0.00218521
0.00477494
-0.00304636
0.00413194
-0.00373637
0.00315228
-0.00426743
0.00210229
-0.00456047
0.000802664
-0.00450119
-0.000832004
-0.00400015
-0.00275006
-0.0031409
-0.00453943
-0.00213546
-0.00566184
-0.00118054
-0.00581685
-0.000381118
-0.00496644
0.000322402
-0.0032407
0.000844475
-0.00146271
0.00123885
-0.000175541
0.00140519
0.00062668
0.00151212
0.00118073
0.00254372
0.00144122
0.00217246
0.000386589
0.00205268
-0.000409503
0.00198811
-0.000978016
0.00189547
-0.00115279
0.00177469
-0.001129
0.00151422
-0.000926001
0.00194577
-0.000431722
0.00217606
-0.000230459
0.00234124
-0.000165358
0.00246564
-0.00012457
0.00253882
-7.33608e-05
0.00253605
2.6008e-06
0.00242673
0.000109137
0.00217028
0.000256271
0.00169542
0.000474693
0.00147453
0.000882624
0.00112733
0.0013461
0.000644017
0.00181768
0.00299594
-0.000830622
0.0108195
-0.00149217
0.00543647
-0.00192285
0.00456261
-0.00236217
0.00359159
-0.00278421
0.00252432
-0.00308352
0.00110196
-0.00308922
-0.000826316
-0.00267828
-0.00316103
-0.00202553
-0.00519219
-0.00132927
-0.00635811
-0.000711386
-0.00643476
-0.000210334
-0.0054675
0.000233421
-0.00368446
0.000583468
-0.00181276
0.000885038
-0.000477127
0.00117493
0.000336768
0.00155091
0.000804737
0.00207962
0.00091249
0.00215872
0.000307472
0.00212605
-0.000376849
0.00193398
-0.000785972
0.00171818
-0.000937007
0.00151095
-0.000921796
0.00136048
-0.000775545
0.00144883
-0.000520095
0.00156759
-0.00034924
0.00167661
-0.000274408
0.00177877
-0.000226755
0.00186519
-0.0001598
0.00191377
-4.60057e-05
0.00189863
0.000124253
0.00180588
0.000348998
0.00164857
0.000631972
0.00151928
0.00101189
0.00141878
0.00144658
0.00129649
0.00193995
0.00222822
0.00206418
0.00157282
0.000679761
0.00166389
-6.80168e-05
0.00174934
-0.000621566
0.011918
-0.000961283
0.00577617
-0.000689476
0.00429078
-0.000767968
0.00367007
-0.00102728
0.00278361
-0.00127309
0.00134776
-0.00124757
-0.000851854
-0.000905061
-0.00350355
-0.000508239
-0.00558903
-0.000181965
-0.00668441
3.62167e-05
-0.00665295
0.000177893
-0.00560918
0.000299862
-0.00380644
0.000387539
-0.00190045
0.000506157
-0.000595762
0.000723258
0.000119647
0.00104474
0.000483236
0.00144364
0.000513564
0.00161999
0.000131111
0.00154136
-0.000298245
0.00133897
-0.000583595
0.00111238
-0.000710444
0.000908358
-0.000717794
0.000772765
-0.000639976
0.000763344
-0.000510698
0.000832877
-0.000418799
0.000933892
-0.000375448
0.00104897
-0.000341858
0.00116978
-0.000280638
0.001286
-0.000162258
0.00137394
3.6284e-05
0.00142353
0.000299388
0.0014574
0.000598068
0.00153082
0.000938452
0.00170351
0.00127387
0.00200671
0.00163672
0.00234385
0.00172702
0.00191818
0.00110541
0.00107412
0.000776012
0.00288799
-0.000770603
0.0132173
-0.000414517
0.00542007
0.000855899
0.00302035
0.000992452
0.0035335
0.000829763
0.00294628
0.000807541
0.00136997
0.00101743
-0.00106176
0.00125545
-0.00374159
0.00134377
-0.00567737
0.00124462
-0.00658527
0.000993978
-0.00640233
0.000687533
-0.00530275
0.000393612
-0.00351252
0.00013139
-0.00163824
4.43873e-05
-0.000508779
0.00015192
1.20915e-05
0.000390636
0.000244497
0.000658472
0.000245706
0.00075881
3.07507e-05
0.000681201
-0.000220658
0.000508302
-0.000410719
0.000308246
-0.000510413
0.000128712
-0.000538286
9.57524e-06
-0.000520865
-1.77881e-05
-0.000483362
2.60753e-05
-0.00046269
0.000107084
-0.000456486
0.000209349
-0.000444152
0.000332407
-0.000403726
0.000482349
-0.000312229
0.000659753
-0.00014115
0.000845183
0.000113929
0.00103773
0.000405489
0.00127458
0.000701576
0.00158152
0.000966902
0.00197647
0.00124175
0.00242084
0.00128263
0.00262362
0.000902606
0.00200044
0.00139917
0.004953
0.00315628
0.0106492
0.00395607
0.00462026
0.00387228
0.00310413
0.00342244
0.00398332
0.00316916
0.00319954
0.00334489
0.00119423
0.00370273
-0.00141961
0.00373727
-0.00377614
0.00342339
-0.00536352
0.00281083
-0.00597273
0.00199536
-0.00558688
0.00113011
-0.0044375
0.000310962
-0.00269338
-0.000283387
-0.00104391
-0.000499556
-0.000292634
-0.000485416
-2.07319e-06
-0.000354906
0.000113963
-0.00021658
0.000107355
-0.000182484
-3.36961e-06
-0.000257965
-0.000145201
-0.000402144
-0.000266567
-0.00056521
-0.000347373
-0.00070868
-0.000394845
-0.0008079
-0.000421674
-0.000852219
-0.000439073
-0.00085739
-0.000457549
-0.000840558
-0.000473348
-0.000808225
-0.000476515
-0.000755846
-0.000456136
-0.000666568
-0.000401537
-0.000506767
-0.000300981
-0.000260402
-0.000132466
3.81879e-05
0.000106871
0.000372544
0.000367191
0.000729141
0.000610278
0.00110963
0.000861228
0.0014465
0.000945733
0.00154873
0.000800346
0.00077049
0.00217739
0.00602272
0.0112988
0.0159184
0.0130127
0.00600982
0.010809
0.006187
0.00943782
0.00457072
0.00845164
0.0021804
0.00753197
-0.00049995
0.00657686
-0.00282104
0.0054375
-0.00422417
0.00410723
-0.00464248
0.00259864
-0.00407831
0.0011099
-0.00294877
-0.000217417
-0.00136608
-0.000906841
-0.000354506
-0.00113644
-6.30608e-05
-0.0011752
3.66599e-05
-0.00113289
7.16193e-05
-0.001087
6.14413e-05
-0.0010957
5.30192e-06
-0.00116666
-7.42695e-05
-0.0012813
-0.000151959
-0.00141073
-0.000217972
-0.001534
-0.000271602
-0.00164135
-0.000314359
-0.0017328
-0.000347651
-0.00181811
-0.000372265
-0.00190703
-0.000384461
-0.00200693
-0.00037665
-0.00212528
-0.000337816
-0.00227283
-0.000254015
-0.00246448
-0.000109358
-0.00270441
0.000107441
-0.00300027
0.000402695
-0.00342879
0.000795685
-0.0041177
0.00129916
-0.0051516
0.00189511
-0.00666185
0.00245595
-0.00855168
0.00269016
-0.00823597
0.00186165
-0.00188414
0.0170532
0.0120205
0.0137845
0.00945575
0.0117692
0.00658602
0.010373
0.00357655
0.00902123
0.000851878
0.00758044
-0.00138026
0.00582571
-0.00246945
0.00397052
-0.00278731
0.00193532
-0.00204312
-3.62578e-05
-0.000977205
-0.00129067
-0.000111684
-0.0017076
6.23888e-05
-0.00183959
6.88992e-05
-0.00186703
6.40777e-05
-0.00185898
6.35349e-05
-0.00185293
5.53604e-05
-0.00187604
2.83845e-05
-0.00193777
-1.2567e-05
-0.00202647
-6.32902e-05
-0.00213065
-0.000113823
-0.00224463
-0.000157658
-0.00236774
-0.000191282
-0.00250186
-0.000213566
-0.00264999
-0.00022416
-0.00281337
-0.000221107
-0.00298997
-0.000200085
-0.00317358
-0.000154239
-0.00335237
-7.5246e-05
-0.00350691
4.51475e-05
-0.00363149
0.000231998
-0.00373823
0.000509407
-0.00384514
0.000902567
-0.0039678
0.0014218
-0.00409609
0.00202337
-0.00418817
0.002548
-0.00408052
0.00258249
-0.00250192
0.000283023
-0.00430004
-0.000148106
0.0122128
0.00219784
0.00710981
0.00350242
0.00528146
0.00372027
0.0033587
0.00350157
0.00107057
0.00323664
-0.0011154
0.00211732
-0.00135017
0.000471846
-0.00114187
-0.00117274
-0.000398563
-0.00219654
4.65688e-05
-0.00245334
0.000145078
-0.00249302
0.000102036
-0.00248713
6.29784e-05
-0.00246993
4.68469e-05
-0.00244767
4.12392e-05
-0.00242761
3.52687e-05
-0.00242185
2.25976e-05
-0.00243724
2.78734e-06
-0.00247401
-2.65561e-05
-0.00253285
-5.50094e-05
-0.00261175
-7.87905e-05
-0.00270731
-9.57521e-05
-0.0028155
-0.000105409
-0.00293197
-0.000107725
-0.00305134
-0.000101758
-0.00316622
-8.52351e-05
-0.00326607
-5.44254e-05
-0.00333823
-3.1123e-06
-0.0033644
7.12878e-05
-0.00331622
0.000183795
-0.00316154
0.000354695
-0.00286412
0.000605115
-0.00240738
0.000965029
-0.00179583
0.0014118
-0.00083258
0.00158472
0.000795048
0.00095483
0.00157678
-0.000498734
-0.00262836
-0.0229252
-0.0283742
-0.0161287
-0.00899427
-0.00368837
-0.000304696
0.000793123
-0.000295724
-0.00163171
-0.00276318
-0.00315247
-0.00309701
-0.00294315
-0.0028323
-0.00276045
-0.00270463
-0.0026543
-0.00260978
-0.00257776
-0.0025654
-0.0025823
-0.00262764
-0.0026968
-0.00278299
-0.00287894
-0.00297735
-0.00306994
-0.00314618
-0.00319181
-0.00318634
-0.00310671
-0.00291484
-0.00255234
-0.00193972
-0.000967503
0.000451121
0.00204227
0.00300345
0.00251134
)
;

boundaryField
{
    floor
    {
        type            calculated;
        value           nonuniform List<scalar> 
36
(
0
0
0
0
0
0
0
0
0
0
0
0
0
0
0
0
0
0
0
-4.7553e-06
-1.26006e-05
-1.93189e-05
-2.49033e-05
-2.43747e-05
-2.30791e-05
-2.26124e-05
-2.54978e-06
-4.5217e-06
-4.99209e-06
-5.63494e-06
-3.89987e-06
-8.52932e-06
-1.18655e-05
-1.34718e-05
-1.5841e-05
-1.53429e-05
)
;
    }
    ceiling
    {
        type            calculated;
        value           nonuniform List<scalar> 
43
(
-3.31409e-05
-3.29357e-05
-3.27488e-05
-2.46277e-05
-2.44429e-05
-2.49742e-05
-2.7284e-05
-2.68369e-05
-1.42598e-05
-1.0438e-05
-9.29768e-06
-8.92799e-06
-8.81865e-06
-8.84084e-06
-8.90893e-06
-9.00056e-06
-9.12456e-06
-9.28408e-06
-9.45852e-06
-9.6047e-06
-9.6838e-06
-9.70133e-06
-9.66744e-06
-9.59278e-06
-9.48581e-06
-9.35245e-06
-9.1968e-06
-9.02133e-06
-8.82678e-06
-8.61154e-06
-8.36894e-06
-8.10796e-06
-7.82929e-06
-7.53267e-06
-7.21568e-06
-6.85501e-06
-6.45518e-06
-6.37429e-06
-6.65295e-06
-6.25344e-06
3.16388e-06
6.24987e-07
-4.41952e-05
)
;
    }
    sWall
    {
        type            calculated;
        value           uniform -0.000188547;
    }
    nWall
    {
        type            calculated;
        value           nonuniform List<scalar> 6(-6.28637e-05 -6.4547e-05 -6.46044e-05 -8.60527e-05 -9.49234e-05 -0.000110798);
    }
    sideWalls
    {
        type            empty;
        value           nonuniform 0();
    }
    glass1
    {
        type            calculated;
        value           nonuniform List<scalar> 9(-6.27828e-05 -0.000171292 -0.000264648 -0.000345927 -0.00041651 -0.000476964 -0.00052868 -0.000588155 -0.000652799);
    }
    glass2
    {
        type            calculated;
        value           nonuniform List<scalar> 2(-0.000299248 -0.000329138);
    }
    sun
    {
        type            calculated;
        value           uniform 0;
    }
    Table_master
    {
        type            calculated;
        value           nonuniform List<scalar> 9(-1.53771e-07 -1.53943e-07 -1.53996e-07 -1.54026e-07 -1.54044e-07 -1.54052e-07 -1.54048e-07 -1.54033e-07 -1.53985e-07);
    }
    Table_slave
    {
        type            calculated;
        value           nonuniform List<scalar> 9(1.53643e-07 1.53599e-07 1.53528e-07 1.53472e-07 1.53437e-07 1.53432e-07 1.53432e-07 1.53472e-07 1.53565e-07);
    }
    inlet
    {
        type            calculated;
        value           uniform -0.0230639;
    }
    outlet
    {
        type            calculated;
        value           nonuniform List<scalar> 2(0.0231469 0.00548198);
    }
}


// ************************************************************************* //
