/*--------------------------------*- C++ -*----------------------------------*\
  =========                 |
  \\      /  F ield         | OpenFOAM: The Open Source CFD Toolbox
   \\    /   O peration     | Website:  https://openfoam.org
    \\  /    A nd           | Version:  6
     \\/     M anipulation  |
\*---------------------------------------------------------------------------*/
FoamFile
{
    version     2.0;
    format      ascii;
    class       volScalarField;
    location    "1200";
    object      epsilon;
}
// * * * * * * * * * * * * * * * * * * * * * * * * * * * * * * * * * * * * * //

dimensions      [0 2 -3 0 0 0 0];

internalField   nonuniform List<scalar> 
458
(
0.000117067
0.000130073
0.000117461
0.000130274
0.000142763
0.000154334
0.000165088
0.000175302
0.000185384
0.000195957
0.000205143
0.000211827
0.000215957
0.000218744
0.000220413
4.12831e-05
8.88322e-05
7.64585e-05
6.82706e-05
6.01934e-05
5.05693e-05
4.30819e-05
3.73104e-05
3.26494e-05
2.87146e-05
2.53062e-05
2.23071e-05
1.96349e-05
1.72114e-05
1.49627e-05
1.28074e-05
1.13168e-05
8.68002e-06
0.000480331
0.00109075
0.000123878
0.000100369
0.000100526
0.000102432
0.000105272
0.000109799
0.000116896
0.000127454
0.000139906
0.000152718
0.000164735
0.000176302
0.000196353
0.000254607
0.000226377
7.0118e-05
5.59565e-05
0.00012489
6.49929e-05
4.78034e-05
4.31387e-05
3.67401e-05
2.96004e-05
2.72194e-05
2.50835e-05
2.25708e-05
1.98991e-05
1.72224e-05
1.46453e-05
1.22818e-05
1.06321e-05
9.85832e-06
2.39755e-05
1.61812e-05
0.00116602
0.00363313
0.000241243
0.000108209
0.000103106
0.000106898
0.000112838
0.000121078
0.00013191
0.00014526
0.000159673
0.000171586
0.00017833
0.000179855
0.000180826
0.000189051
0.000212293
0.000285942
0.000111584
0.000165756
6.51858e-05
4.13427e-05
3.57573e-05
4.30881e-05
2.16726e-05
1.39803e-05
1.25592e-05
1.20133e-05
1.12446e-05
1.0354e-05
9.57086e-06
9.37488e-06
1.10387e-05
1.24789e-05
6.32857e-05
2.80029e-05
0.00233137
0.00848888
0.000575337
0.00013204
0.000113641
0.00012113
0.000132097
0.000145634
0.000162062
0.000181494
0.000202578
0.000218617
0.000225017
0.000221519
0.000211549
0.000201701
0.000205718
0.000243877
0.000316279
0.000180368
6.98074e-05
3.96142e-05
2.84643e-05
3.38435e-05
5.86241e-05
6.00032e-05
6.60684e-05
7.31144e-05
8.01357e-05
8.51349e-05
8.55665e-05
7.93411e-05
7.19276e-05
5.55585e-05
4.31558e-05
0.000103636
5.47739e-05
0.00409376
0.015605
0.00143963
0.000193959
0.000128215
0.000135028
0.000150952
0.000172018
0.000198817
0.000232107
0.000268695
0.00029431
0.000302083
0.0002932
0.000271664
0.000243036
0.000215371
0.000189749
0.000150598
8.71535e-05
4.74168e-05
2.95369e-05
2.41193e-05
2.62711e-05
3.44774e-05
4.1867e-05
5.0646e-05
5.91308e-05
6.76481e-05
7.38324e-05
7.48391e-05
6.89081e-05
6.07122e-05
5.36248e-05
4.70755e-05
6.83837e-05
8.44996e-05
0.000100403
0.000103281
0.000102237
0.00659062
0.0228293
0.0036684
0.000485449
0.000201872
0.000172021
0.000181417
0.000205569
0.00024308
0.000300896
0.000364473
0.000399561
0.000403472
0.000384293
0.000349818
0.000306418
0.000260963
0.000210175
0.00015039
9.15787e-05
5.13518e-05
3.25611e-05
2.63478e-05
2.62514e-05
3.18541e-05
4.06486e-05
5.34501e-05
6.79611e-05
8.40287e-05
9.89231e-05
0.000108231
0.000106959
8.92661e-05
7.15055e-05
5.82088e-05
5.77216e-05
6.38404e-05
8.29142e-05
0.00031854
0.000210856
0.00979665
0.0268324
0.008863
0.00236137
0.000921453
0.000483356
0.000367726
0.000347055
0.00036726
0.000455707
0.000532421
0.000551692
0.000530708
0.000486769
0.000430678
0.000367375
0.000304907
0.000239862
0.000171916
0.0001098
6.50734e-05
4.10291e-05
3.13021e-05
2.899e-05
3.44803e-05
4.56254e-05
6.0717e-05
8.01076e-05
0.00010423
0.000130712
0.000154946
0.000171523
0.00016767
0.000134447
0.000109578
0.000103168
0.00011387
0.000154426
0.000564127
0.000386866
0.0106582
0.0321833
0.0167914
0.0108306
0.00603875
0.00316093
0.00182146
0.00123808
0.000995716
0.000919282
0.000855638
0.000776079
0.000686334
0.000594274
0.000504527
0.000419395
0.000339484
0.000263606
0.000192028
0.000129749
8.2821e-05
5.2847e-05
3.84706e-05
3.33773e-05
3.94423e-05
5.3983e-05
7.32043e-05
9.78976e-05
0.000128755
0.000165969
0.000209321
0.000258119
0.000310408
0.000336919
0.000353851
0.000473516
0.000742569
0.00108299
0.00357324
0.000964955
0.00990542
0.0170332
0.0152924
0.0116015
0.00847724
0.00590259
0.00405882
0.00285621
0.00211662
0.00162453
0.00127944
0.00102758
0.000835165
0.000681571
0.000554334
0.000446063
0.000352333
0.000270451
0.000199551
0.000140733
9.54828e-05
6.43881e-05
4.68689e-05
3.81803e-05
4.40218e-05
6.17775e-05
8.41972e-05
0.000112189
0.000147319
0.000191545
0.000247691
0.000319607
0.000411822
0.000528456
0.000672376
0.000884875
0.00115336
0.0014217
0.00167182
0.000906294
0.00777524
0.0145513
0.00886267
0.00611614
0.00435805
0.00316898
0.00236264
0.00180415
0.00139874
0.00109788
0.000869883
0.000692514
0.000550657
0.000434398
0.000337552
0.000256569
0.000189759
0.000136499
9.62723e-05
6.83395e-05
5.33272e-05
4.20802e-05
4.52456e-05
6.47207e-05
8.7264e-05
0.000113252
0.000144042
0.000181087
0.000226439
0.000283296
0.000356439
0.000452218
0.000572294
0.000710792
0.000837239
0.000894313
0.000855299
0.000477498
0.00596758
0.0114406
0.00725027
0.00519024
0.0038482
0.00289676
0.00219423
0.0016786
0.00130021
0.00101667
0.000800714
0.000632603
0.000498713
0.000389988
0.000300697
0.000227509
0.000168743
0.000123695
9.19331e-05
7.2351e-05
6.28735e-05
4.69812e-05
4.12733e-05
6.16993e-05
8.35211e-05
0.000107119
0.000134443
0.000167451
0.000208717
0.000262035
0.000332212
0.000424185
0.000537902
0.000661856
0.000781059
0.000870242
0.000668325
0.000492209
0.00294958
0.00378392
0.00461022
0.00560264
0.00461167
0.0038503
0.00293223
0.00230067
0.00180426
0.00141048
0.00109784
0.00087253
0.000696938
0.000553749
0.000434211
0.000333668
0.000249595
0.000180615
0.000125956
8.50798e-05
5.716e-05
4.01749e-05
3.02434e-05
2.03591e-05
2.6111e-05
4.48467e-05
6.52634e-05
8.80195e-05
0.00011397
0.000143993
0.000179424
0.000222829
0.000279849
0.000352567
0.000437528
0.00053191
0.000643509
0.000611415
0.000471252
0.000366784
)
;

boundaryField
{
    floor
    {
        Cmu             0.09;
        kappa           0.41;
        E               9.8;
        type            epsilonWallFunction;
        value           nonuniform List<scalar> 
36
(
0.000220413
4.12831e-05
8.88322e-05
7.64585e-05
6.82706e-05
6.01934e-05
5.05693e-05
4.30819e-05
3.73104e-05
3.26494e-05
2.87146e-05
2.53062e-05
2.23071e-05
1.96349e-05
1.72114e-05
1.49627e-05
1.28074e-05
1.13168e-05
8.68002e-06
8.68002e-06
1.61812e-05
2.80029e-05
5.47739e-05
0.000100403
0.000103281
0.000102237
0.000220413
0.000254607
0.000226377
7.0118e-05
4.12831e-05
7.0118e-05
5.59565e-05
0.000285942
0.000111584
0.000316279
)
;
    }
    ceiling
    {
        Cmu             0.09;
        kappa           0.41;
        E               9.8;
        type            epsilonWallFunction;
        value           nonuniform List<scalar> 
43
(
0.00294958
0.00378392
0.00461022
0.00560264
0.00461167
0.0038503
0.00293223
0.00230067
0.00180426
0.00141048
0.00109784
0.00087253
0.000696938
0.000553749
0.000434211
0.000333668
0.000249595
0.000180615
0.000125956
8.50798e-05
5.716e-05
4.01749e-05
3.02434e-05
2.03591e-05
2.6111e-05
4.48467e-05
6.52634e-05
8.80195e-05
0.00011397
0.000143993
0.000179424
0.000222829
0.000279849
0.000352567
0.000437528
0.00053191
0.000643509
0.000611415
0.000471252
0.000366784
0.00990542
0.0170332
0.00596758
)
;
    }
    sWall
    {
        Cmu             0.09;
        kappa           0.41;
        E               9.8;
        type            epsilonWallFunction;
        value           uniform 0.00294958;
    }
    nWall
    {
        Cmu             0.09;
        kappa           0.41;
        E               9.8;
        type            epsilonWallFunction;
        value           nonuniform List<scalar> 6(0.000102237 0.000210856 0.000386866 0.000477498 0.000492209 0.000366784);
    }
    sideWalls
    {
        type            empty;
    }
    glass1
    {
        Cmu             0.09;
        kappa           0.41;
        E               9.8;
        type            epsilonWallFunction;
        value           nonuniform List<scalar> 9(0.000117067 0.000480331 0.00116602 0.00233137 0.00409376 0.00659062 0.00979665 0.0106582 0.00990542);
    }
    glass2
    {
        Cmu             0.09;
        kappa           0.41;
        E               9.8;
        type            epsilonWallFunction;
        value           nonuniform List<scalar> 2(0.000964955 0.000906294);
    }
    sun
    {
        Cmu             0.09;
        kappa           0.41;
        E               9.8;
        type            epsilonWallFunction;
        value           nonuniform List<scalar> 
14
(
0.000117067
0.000130073
0.000117461
0.000130274
0.000142763
0.000154334
0.000165088
0.000175302
0.000185384
0.000195957
0.000205143
0.000211827
0.000215957
0.000218744
)
;
    }
    Table_master
    {
        Cmu             0.09;
        kappa           0.41;
        E               9.8;
        type            epsilonWallFunction;
        value           nonuniform List<scalar> 9(4.30881e-05 2.16726e-05 1.39803e-05 1.25592e-05 1.20133e-05 1.12446e-05 1.0354e-05 9.57086e-06 9.37488e-06);
    }
    Table_slave
    {
        Cmu             0.09;
        kappa           0.41;
        E               9.8;
        type            epsilonWallFunction;
        value           nonuniform List<scalar> 9(5.86241e-05 6.00032e-05 6.60684e-05 7.31144e-05 8.01357e-05 8.51349e-05 8.55665e-05 7.93411e-05 7.19276e-05);
    }
    inlet
    {
        type            turbulentMixingLengthDissipationRateInlet;
        mixingLength    0.01;
        phi             phi;
        k               k;
        value           uniform 0.000101881;
    }
    outlet
    {
        type            zeroGradient;
    }
}


// ************************************************************************* //
