/*--------------------------------*- C++ -*----------------------------------*\
  =========                 |
  \\      /  F ield         | OpenFOAM: The Open Source CFD Toolbox
   \\    /   O peration     | Website:  https://openfoam.org
    \\  /    A nd           | Version:  6
     \\/     M anipulation  |
\*---------------------------------------------------------------------------*/
FoamFile
{
    version     2.0;
    format      ascii;
    class       volScalarField;
    location    "1200";
    object      k;
}
// * * * * * * * * * * * * * * * * * * * * * * * * * * * * * * * * * * * * * //

dimensions      [0 2 -2 0 0 0 0];

internalField   nonuniform List<scalar> 
458
(
0.000948477
0.00101748
0.000950606
0.00101853
0.00108263
0.00114037
0.00119275
0.00124145
0.0012886
0.00133714
0.00137861
0.00140839
0.00142664
0.00143889
0.0014462
0.000473442
0.000789094
0.000713988
0.000662049
0.000608741
0.000541989
0.000487074
0.000442538
0.000404868
0.000371647
0.000341622
0.000314068
0.000288456
0.000264203
0.000240657
0.000216953
0.000199775
0.000167393
0.00243087
0.00463114
0.00140995
0.00139742
0.00144834
0.00151216
0.00158174
0.00165959
0.00174739
0.00184339
0.00193556
0.00199871
0.00200434
0.00191831
0.00173091
0.00159215
0.00147217
0.000673932
0.000579874
0.0017279
0.00122184
0.00097789
0.000816921
0.000660384
0.000567692
0.000539408
0.000509049
0.000470653
0.000428614
0.000385161
0.000341072
0.000297171
0.00026292
0.000242873
0.000418122
0.000253552
0.00439073
0.0106407
0.00204641
0.0017504
0.00178953
0.00187308
0.0019658
0.0020698
0.00218646
0.00231136
0.0024312
0.0025108
0.00252069
0.00244715
0.00230578
0.00212972
0.00190771
0.00172025
0.000918595
0.00213184
0.00126422
0.000901442
0.000653953
0.000487126
0.000308091
0.000230009
0.000214142
0.00020789
0.000198924
0.000188276
0.000178659
0.000176211
0.000227256
0.000266326
0.000779067
0.000365479
0.00696853
0.0202051
0.00322018
0.0020454
0.00205385
0.00217186
0.00230006
0.00243721
0.00258715
0.00274949
0.00291315
0.00302889
0.00306283
0.00300513
0.00285952
0.00263683
0.00237532
0.00210582
0.00183988
0.00202156
0.00131832
0.000937263
0.000682627
0.000591389
0.000598113
0.000607453
0.000647727
0.000692999
0.000736685
0.000767015
0.000769606
0.00073181
0.000685483
0.000609491
0.000546973
0.00106337
0.000571625
0.0101426
0.0329491
0.00592665
0.00239409
0.00225209
0.00238491
0.00255233
0.00273947
0.0029515
0.00319288
0.00343949
0.00361196
0.00367407
0.00362764
0.00348257
0.0032591
0.0030052
0.00272456
0.00228655
0.00162588
0.00110872
0.00079594
0.000663061
0.000669862
0.00078915
0.00091129
0.00104774
0.0011694
0.00128208
0.00135868
0.00136927
0.0012927
0.00113673
0.000969624
0.000816771
0.000923261
0.000928077
0.000856177
0.000872462
0.000866576
0.0139321
0.0458376
0.0126875
0.00367132
0.00268229
0.0026582
0.00281486
0.00303797
0.0033129
0.00367135
0.00402418
0.00422936
0.0042765
0.00419628
0.00401234
0.00374363
0.00341588
0.00298384
0.0023908
0.00171449
0.00115754
0.000837406
0.000700378
0.000670341
0.000755265
0.00090158
0.00109869
0.00129821
0.00149697
0.00166585
0.00176678
0.00175992
0.00157344
0.00133218
0.00110624
0.000988368
0.000931536
0.00103474
0.00235519
0.00140408
0.0181462
0.0544125
0.0263955
0.0103782
0.00552854
0.00396574
0.00368999
0.00379909
0.00405187
0.00450591
0.00484317
0.00494735
0.00487624
0.00468811
0.00441386
0.00406065
0.00365596
0.00315982
0.00254807
0.00188804
0.00132227
0.000959846
0.000775442
0.000698104
0.000768797
0.000938756
0.00115089
0.00139244
0.00165872
0.00192015
0.00214112
0.00229361
0.00229457
0.00200834
0.00171668
0.00154565
0.00149458
0.00166495
0.00342821
0.0021043
0.0191951
0.0591066
0.039362
0.0291702
0.0191005
0.0121715
0.00864226
0.00708529
0.00651426
0.00633561
0.00611131
0.00581544
0.00546882
0.00508505
0.00466806
0.00421928
0.0037367
0.00320621
0.00262208
0.00202683
0.00150186
0.00111102
0.000877383
0.000746835
0.000811504
0.00101309
0.00125369
0.00152336
0.00181882
0.00213435
0.00246699
0.00282062
0.0032029
0.00346357
0.00348421
0.00394265
0.00492415
0.00592254
0.0116868
0.00387025
0.0182803
0.026238
0.0269602
0.0243039
0.0208988
0.0169903
0.0136056
0.0111046
0.00942341
0.00819652
0.0072661
0.00651988
0.00587888
0.00529251
0.00473087
0.00417886
0.00363013
0.00308204
0.00253966
0.00202491
0.0015727
0.0012201
0.000979481
0.000790996
0.000837106
0.00106472
0.00132078
0.00159479
0.00188989
0.00220884
0.00255664
0.00293942
0.00335902
0.0038056
0.0042667
0.00485528
0.00546761
0.00591519
0.00622584
0.00371176
0.0153699
0.0295065
0.0222188
0.0179862
0.0147859
0.0123055
0.0104169
0.00895878
0.00777144
0.00678244
0.00593726
0.00519322
0.00452003
0.00389856
0.00331898
0.00277904
0.00228377
0.001845
0.00147805
0.00119892
0.00102495
0.000804335
0.000800143
0.00103708
0.00128354
0.00152852
0.00177973
0.00204128
0.00231782
0.00261817
0.00295655
0.00334964
0.00377117
0.00416266
0.00439913
0.00432151
0.00393307
0.0024213
0.0130396
0.0272217
0.0208487
0.0170602
0.0142656
0.0120403
0.0101888
0.00866686
0.00741628
0.00632855
0.0053947
0.0045915
0.00389481
0.00328441
0.00274589
0.00227172
0.00186208
0.00152542
0.00127723
0.00112854
0.00105383
0.000797333
0.000667969
0.000899687
0.00112641
0.00134512
0.00157541
0.0018299
0.00211886
0.00245215
0.00283204
0.00326263
0.00372549
0.00414471
0.0044638
0.00462393
0.00386104
0.00247078
0.00815153
0.00962412
0.0109786
0.0125024
0.0109809
0.00973638
0.00811956
0.00690723
0.005874
0.00498478
0.00421787
0.00361899
0.00311551
0.00267265
0.00227265
0.00190666
0.00157116
0.00126638
0.000995875
0.00076667
0.000588103
0.00046491
0.000384739
0.000295521
0.000348843
0.000500292
0.000642461
0.000784244
0.000931663
0.00108883
0.00126082
0.00145673
0.00169569
0.001978
0.00228421
0.00260191
0.00295417
0.00285512
0.00240013
0.00203083
)
;

boundaryField
{
    floor
    {
        type            kqRWallFunction;
        value           nonuniform List<scalar> 
36
(
0.0014462
0.000473442
0.000789094
0.000713988
0.000662049
0.000608741
0.000541989
0.000487074
0.000442538
0.000404868
0.000371647
0.000341622
0.000314068
0.000288456
0.000264203
0.000240657
0.000216953
0.000199775
0.000167393
0.000167393
0.000253552
0.000365479
0.000571625
0.000856177
0.000872462
0.000866576
0.0014462
0.00159215
0.00147217
0.000673932
0.000473442
0.000673932
0.000579874
0.00172025
0.000918595
0.00183988
)
;
    }
    ceiling
    {
        type            kqRWallFunction;
        value           nonuniform List<scalar> 
43
(
0.00815153
0.00962412
0.0109786
0.0125024
0.0109809
0.00973638
0.00811956
0.00690723
0.005874
0.00498478
0.00421787
0.00361899
0.00311551
0.00267265
0.00227265
0.00190666
0.00157116
0.00126638
0.000995875
0.00076667
0.000588103
0.00046491
0.000384739
0.000295521
0.000348843
0.000500292
0.000642461
0.000784244
0.000931663
0.00108883
0.00126082
0.00145673
0.00169569
0.001978
0.00228421
0.00260191
0.00295417
0.00285512
0.00240013
0.00203083
0.0182803
0.026238
0.0130396
)
;
    }
    sWall
    {
        type            kqRWallFunction;
        value           uniform 0.00815153;
    }
    nWall
    {
        type            kqRWallFunction;
        value           nonuniform List<scalar> 6(0.000866576 0.00140408 0.0021043 0.0024213 0.00247078 0.00203083);
    }
    sideWalls
    {
        type            empty;
    }
    glass1
    {
        type            kqRWallFunction;
        value           nonuniform List<scalar> 9(0.000948477 0.00243087 0.00439073 0.00696853 0.0101426 0.0139321 0.0181462 0.0191951 0.0182803);
    }
    glass2
    {
        type            kqRWallFunction;
        value           nonuniform List<scalar> 2(0.00387025 0.00371176);
    }
    sun
    {
        type            kqRWallFunction;
        value           nonuniform List<scalar> 
14
(
0.000948477
0.00101748
0.000950606
0.00101853
0.00108263
0.00114037
0.00119275
0.00124145
0.0012886
0.00133714
0.00137861
0.00140839
0.00142664
0.00143889
)
;
    }
    Table_master
    {
        type            kqRWallFunction;
        value           nonuniform List<scalar> 9(0.000487126 0.000308091 0.000230009 0.000214142 0.00020789 0.000198924 0.000188276 0.000178659 0.000176211);
    }
    Table_slave
    {
        type            kqRWallFunction;
        value           nonuniform List<scalar> 9(0.000598113 0.000607453 0.000647727 0.000692999 0.000736685 0.000767015 0.000769606 0.00073181 0.000685483);
    }
    inlet
    {
        type            turbulentIntensityKineticEnergyInlet;
        intensity       0.05;
        value           uniform 0.0003375;
    }
    outlet
    {
        type            zeroGradient;
    }
}


// ************************************************************************* //
