/*--------------------------------*- C++ -*----------------------------------*=========                 |
  \      /  F ield         | OpenFOAM: The Open Source CFD Toolbox
   \    /   O peration     | Website:  https://openfoam.org
    \  /    A nd           | Version:  6
     \/     M anipulation  |
\*---------------------------------------------------------------------------*/
FoamFile
{
    version     2.0;
    format      ascii;
    class       volScalarField;
    location    "1900";
    object      PMV;
}
// * * * * * * * * * * * * * * * * * * * * * * * * * * * * * * * * * * * * * //

dimensions      [0 0 0 0 0 0 0];

internalField   nonuniform List<scalar> 
458
(
3.0
2.9173244925857147
2.906293181047574
2.888240917396138
2.8660518235170636
2.846225061071264
2.83180999943494
2.8223381949085296
2.816583818437709
2.8128622686302074
2.810449282056036
2.8092657693481
2.809432725114238
2.8107182669101105
2.8072619616946035
2.5386149863305767
2.544032481590091
2.5368978508361386
2.529760846231413
2.5278572492757863
2.5302367195744764
2.534994880028638
2.5402276431016615
2.5449835841148603
2.5497384491595727
2.553541558034288
2.5587696831282924
2.5658967705687217
2.577769561274779
2.594379157239544
2.6133432316099725
2.647899046853864
2.665213901142987
3.0
3.0
3.0
2.9908381186601845
2.9611279374241697
2.9278855769769465
2.897481229887587
2.874940679638626
2.85778568878746
2.8458521277495574
2.8372297435007368
2.8311865862481995
2.825639428435549
2.8177624285322174
2.8055418259245077
2.793357183458928
2.7822408522297204
2.7354969994696097
2.5645486483322864
2.597225035315126
2.5976993054489697
2.6000704714388476
2.606234051097608
2.614290905748002
2.62329122919172
2.632286801845593
2.6431696531050464
2.654517827094977
2.665857731388133
2.6771890906051343
2.6885116144130787
2.7007673553786
2.7111289118806816
2.7130119536736355
2.717202358886401
2.7226277702186357
3.0
3.0
3.0
3.0
3.0
3.0
2.966788687159798
2.933530466715202
2.9078401533446674
2.886071775385834
2.870195115042236
2.8582706209447544
2.8489673986274098
2.8386705165464257
2.8258074399599433
2.8110162817769755
2.7961005278129063
2.79136079779698
2.646565789530083
2.683323240253113
2.6853482120940875
2.6897406922905285
2.694329835689554
2.6977065200333294
2.706912802393826
2.717011327217177
2.727384697372519
2.738365501459379
2.750356435460758
2.7628704348969046
2.776015153073255
2.790936815562587
2.8063120298015574
2.8152310664277644
2.8193963925482137
2.7945473785239296
3.0
3.0
3.0
3.0
3.0
3.0
3.0
2.9862743638998643
2.9546156896294558
2.928627192770034
2.90646008337851
2.8920422823587275
2.8760030766478692
2.8623450836172077
2.8468723533864617
2.8272715897800387
2.8025686354272903
2.7736905866047925
2.747075423862601
2.739548970615874
2.773167915001824
2.7913513704925137
2.807232171358642
2.8196125626770927
2.8277559735549054
2.8284605153326505
2.8298269440407666
2.8308641469939624
2.8324800067045803
2.834194380370453
2.8360658502824085
2.8382303340917905
2.840831374185107
2.842689664715306
2.8481107864987996
2.8555101687683537
2.861121800978538
3.0
3.0
3.0
3.0
3.0
3.0
3.0
3.0
2.9924822171296896
2.962973966950131
2.9388449640010026
2.9234549213695833
2.908300096647005
2.8955641124301366
2.8814837583111754
2.8670319356905214
2.8516523889935295
2.8363414485710092
2.824697814687634
2.8187704301765875
2.82551866543358
2.831740553778664
2.8373369798337014
2.8417268719125977
2.8435866021350864
2.843990093628303
2.8439124420714417
2.8443197907579596
2.845219322532293
2.846130793035994
2.8475436206383202
2.849502362583591
2.8519935835251613
2.8546467669245223
2.857257381480213
2.8588727765027846
2.859097377609135
2.854874935783361
2.856522460066
2.8502511454830777
3.0
3.0
3.0
3.0
3.0
3.0
3.0
3.0
3.0
2.988680901934906
2.9646776336988907
2.94616650432318
2.9346133722373935
2.925288672195686
2.914275656551788
2.9041092029201527
2.891227757438026
2.8795397646452767
2.8700539551918975
2.86425379394156
2.8620246260947764
2.8620621356018314
2.863004122040378
2.863793388255973
2.863944701961372
2.8630577346044124
2.862577579920112
2.862072369722669
2.861568591104944
2.8615273703182207
2.861944474059569
2.8623454973678983
2.8635996985319765
2.8650251095711052
2.866285822128125
2.8673149635801094
2.8692405831655012
2.875041086179941
2.8839576105396576
2.865969014636092
3.0
3.0
3.0
3.0
3.0
3.0
3.0
3.0
3.0
3.0
2.981770421683997
2.9651133924256676
2.9529207264602197
2.94615417268322
2.9417577713342156
2.933530466715202
2.925288672195686
2.9174903561304633
2.909679684832236
2.90323853472496
2.898633021933864
2.8949458813965436
2.8921789684306387
2.8903336301792097
2.8889492479082413
2.887102905030061
2.8852559964196014
2.8838704472635204
2.882484585666849
2.8810984140474423
2.8801741285778335
2.8792497070778618
2.878787445532657
2.878325150238487
2.877459543837907
2.875162199263001
2.873856558184237
2.876193366136762
2.8775482037974456
2.8682407109638324
3.0
3.0
3.0
2.9268205837395964
2.9268339837217585
2.952760272200183
2.9807456854265446
2.99994070477176
3.0
3.0
2.990388028737878
2.978451460122925
2.9684913392827403
2.9618293277463033
2.9573696627456774
2.9541334724617414
2.950817313698108
2.9454090915552493
2.9390171260533187
2.9330729292327624
2.928037941472755
2.922996371939857
2.9193263900998776
2.9156536384282963
2.9128972983384878
2.9101394665863287
2.9073801699538566
2.9046194343183043
2.9018572846980546
2.899554430705352
2.8972506251933203
2.8949458813965436
2.8926402122052908
2.8903336301792097
2.8884877155540685
2.8866412306817173
2.885717776284062
2.887102905030061
2.8817372999107302
2.8662520339432302
3.0
3.0
2.491287936436663
2.686488797599106
2.862587616425437
2.93512550625976
2.970208203565563
2.991210645733437
3.0
3.0
2.9947267828799395
2.986892734427761
2.9801967857815526
2.97548768042096
2.971749046497988
2.9689843745182865
2.9667371413544945
2.9635987542291047
2.960451017723598
2.956282411331668
2.9519741204978196
2.947098150335202
2.94305378000563
2.938508175847445
2.9348704440740687
2.931246654506821
2.9276457235095092
2.9240728342421933
2.9205278383309885
2.9174331111233234
2.9138452821579315
2.910215074452782
2.9070081055223977
2.9033140035491396
2.8991537469384836
2.8955244657519015
2.891792777381205
2.8883351445728365
2.884511705558425
2.868742542007716
1.7040003448594074
2.6111053593880427
2.8438467427625653
2.9371927574903482
2.9724087977012736
2.989804507430196
2.9986393519979164
3.0
2.997776067448909
2.9935674012623155
2.989239996113835
2.9857920459804363
2.983301976968463
2.9813418352098493
2.9799299966554145
2.9780979465024786
2.9753447709819225
2.9721257516731514
2.9689011784609054
2.964709205022892
2.9605043145911547
2.9562921636343744
2.9520765779107476
2.9473897908969082
2.9431875377260943
2.9389975685997283
2.9348246463361103
2.930194216338349
2.9260398204255793
2.9214107915368577
2.9167726822325086
2.912089116561322
2.9068342602257173
2.9014171918366554
2.8952956246341133
2.889144766111656
2.883103259173981
2.8726261906939023
2.007855705312567
2.598033397520371
2.8696279121205714
2.9487709146662233
2.9770507010136424
2.991282491726204
3.0
3.0
3.0
2.99837459398076
2.994835531838446
2.9917815327641955
2.9895373342440563
2.9875319983873103
2.985704484277397
2.9840112711352798
2.9819104218788772
2.979366785494211
2.975849091528305
2.972347189611996
2.9683456040608336
2.964342885474877
2.959834526685632
2.954823554566605
2.95031270451509
2.9452958863916923
2.940271476874887
2.9352435711764038
2.929723936804058
2.9247808803725857
2.918867854732488
2.912961611225156
2.9065418276638364
2.899580169060952
2.8920232486934676
2.883336096549022
2.8723134115468727
2.862565910257868
3.0
3.0
2.2309346809018082
2.6694823219572372
2.9112396867877255
2.961928504606891
2.9763177138583945
2.983112778117887
2.9874994075479124
2.989550875302289
2.9888471297782244
2.987133764858438
2.985407729370154
2.9836504620289097
2.981892923618742
2.980155674891835
2.9784475121291045
2.9767689050485595
2.97456258609212
2.9718206096943693
2.9690869561915925
2.9658035795083233
2.9619670432715686
2.9575761933816196
2.9531825749286793
2.948235959842379
2.943288200862996
2.938339239342483
2.9322858773053357
2.926780505264309
2.920721899489417
2.914164194411443
2.9076309148350354
2.900010248179028
2.891838545194618
2.8831094429329194
2.8721658911518704
2.859014583014773
2.838299199385855
2.7971150146236012
)
;

boundaryField
{
    ".*"
    {
        type            zeroGradient;
    }
}


// ************************************************************************* //
