/*--------------------------------*- C++ -*----------------------------------*\
  =========                 |
  \\      /  F ield         | OpenFOAM: The Open Source CFD Toolbox
   \\    /   O peration     | Website:  https://openfoam.org
    \\  /    A nd           | Version:  6
     \\/     M anipulation  |
\*---------------------------------------------------------------------------*/
FoamFile
{
    version     2.0;
    format      ascii;
    class       volVectorField;
    location    "100";
    object      U;
}
// * * * * * * * * * * * * * * * * * * * * * * * * * * * * * * * * * * * * * //

dimensions      [0 1 -1 0 0 0 0];

internalField   nonuniform List<vector> 
458
(
(-0.0166428 -0.0183743 0)
(-0.0400215 -0.164185 0)
(0.126391 -0.157272 0)
(0.230385 -0.104731 0)
(0.313824 -0.0676793 0)
(0.366115 -0.0448059 0)
(0.392762 -0.0297707 0)
(0.402739 -0.0189785 0)
(0.401236 -0.0104607 0)
(0.39026 -0.00288013 0)
(0.37014 0.00468295 0)
(0.33989 0.0134539 0)
(0.296533 0.0260898 0)
(0.229851 0.051898 0)
(0.175498 0.127776 0)
(-0.0492606 0.0200361 0)
(-0.0628251 -0.00476156 0)
(-0.0582644 -0.0224761 0)
(-0.029799 -0.0389359 0)
(0.0178498 -0.0438486 0)
(0.0463522 -0.0233873 0)
(0.0676414 -0.0130949 0)
(0.0803512 -0.00941279 0)
(0.0871303 -0.00815135 0)
(0.0919982 -0.00751945 0)
(0.0965313 -0.0068612 0)
(0.100263 -0.0055952 0)
(0.10167 -0.00369082 0)
(0.099123 -0.00122042 0)
(0.0921636 0.0019908 0)
(0.0798796 0.00654689 0)
(0.0594726 0.0143076 0)
(0.0414516 0.0287184 0)
(0.222064 0.210823 0)
(0.155943 -0.209761 0)
(0.225126 -0.207251 0)
(0.296352 -0.136289 0)
(0.341949 -0.0797418 0)
(0.36818 -0.0435424 0)
(0.381266 -0.0188456 0)
(0.385195 -2.31694e-05 0)
(0.380554 0.015121 0)
(0.368363 0.0282635 0)
(0.349042 0.0410307 0)
(0.322833 0.0552708 0)
(0.291165 0.0737902 0)
(0.259 0.101921 0)
(0.242504 0.156539 0)
(0.244418 0.132858 0)
(0.154195 0.106883 0)
(0.0554052 0.0927361 0)
(-0.0276735 0.052484 0)
(-0.0271494 0.0192868 0)
(0.00149854 -0.0282252 0)
(0.0256962 -0.0582604 0)
(0.0494055 -0.0637138 0)
(0.0614302 -0.032893 0)
(0.0654932 -0.0117178 0)
(0.0671154 -0.0041671 0)
(0.0682042 -0.00236937 0)
(0.0693859 -0.00236462 0)
(0.0706595 -0.00258629 0)
(0.0723695 -0.000725086 0)
(0.0727276 0.00335848 0)
(0.0694572 0.00822951 0)
(0.0627845 0.0144924 0)
(0.0524932 0.0230274 0)
(0.0359374 0.0362038 0)
(0.0287665 0.0547553 0)
(0.660348 -0.0965555 0)
(0.275856 -0.269622 0)
(0.293583 -0.237646 0)
(0.325418 -0.162232 0)
(0.32632 -0.102587 0)
(0.323159 -0.0617205 0)
(0.321671 -0.0321552 0)
(0.319798 -0.00817835 0)
(0.312525 0.0137812 0)
(0.301696 0.0344483 0)
(0.287541 0.0546174 0)
(0.27054 0.0754703 0)
(0.252154 0.098461 0)
(0.234839 0.124601 0)
(0.22382 0.152595 0)
(0.209126 0.127962 0)
(0.156251 0.118701 0)
(0.0889572 0.1486 0)
(-0.00799198 0.0395928 0)
(0.0255007 -0.0194772 0)
(0.0571816 -0.0549966 0)
(0.0711035 -0.0773241 0)
(0.0837 -0.0884717 0)
(0.0851306 -0.0665345 0)
(0.059933 -0.0408045 0)
(0.0401837 -0.0263994 0)
(0.0318748 -0.0191797 0)
(0.0272237 -0.0154788 0)
(0.0214637 -0.0132422 0)
(0.0140131 -0.008487 0)
(0.0137881 -0.000187186 0)
(0.0220473 0.00920289 0)
(0.0307781 0.0202073 0)
(0.0313429 0.0328937 0)
(0.0226914 0.0531753 0)
(0.0239763 0.078807 0)
(0.806092 -0.402641 0)
(0.10862 -0.354677 0)
(0.206845 -0.233681 0)
(0.234671 -0.145103 0)
(0.21061 -0.0880167 0)
(0.194443 -0.0487222 0)
(0.189179 -0.0202506 0)
(0.188661 0.00378715 0)
(0.19052 0.0258493 0)
(0.191526 0.0469202 0)
(0.190681 0.0678087 0)
(0.187855 0.0891244 0)
(0.183635 0.111214 0)
(0.178788 0.133659 0)
(0.176948 0.154398 0)
(0.174441 0.15151 0)
(0.16612 0.153671 0)
(0.15796 0.177752 0)
(0.185442 0.138448 0)
(0.109697 0.0608068 0)
(0.11362 0.00178346 0)
(0.117889 -0.0464384 0)
(0.110116 -0.07308 0)
(0.0917261 -0.080461 0)
(0.0851916 -0.0473511 0)
(0.108365 -0.0283923 0)
(0.125677 -0.018175 0)
(0.131935 -0.0120072 0)
(0.131487 -0.00746182 0)
(0.127169 -0.00362883 0)
(0.119747 -0.000138672 0)
(0.108682 0.00360605 0)
(0.0939456 0.00824123 0)
(0.0720762 0.0194133 0)
(0.0543274 0.037358 0)
(0.0353963 0.0644387 0)
(0.0313644 0.103435 0)
(0.853467 -0.508243 0)
(-0.189849 -0.343364 0)
(0.109508 -0.199156 0)
(0.11227 -0.114685 0)
(0.0696284 -0.0691705 0)
(0.0569334 -0.0395598 0)
(0.0584142 -0.019288 0)
(0.0641632 -0.000638003 0)
(0.0769121 0.0198834 0)
(0.0869389 0.041755 0)
(0.0952342 0.0644303 0)
(0.102043 0.0872801 0)
(0.107989 0.109893 0)
(0.113806 0.131713 0)
(0.122696 0.151469 0)
(0.132189 0.157269 0)
(0.141719 0.158272 0)
(0.152778 0.155081 0)
(0.168993 0.0959158 0)
(0.160645 0.0435228 0)
(0.163719 -0.00519156 0)
(0.155878 -0.0413536 0)
(0.138985 -0.0589468 0)
(0.118418 -0.0572615 0)
(0.106919 -0.0332494 0)
(0.106721 -0.0151303 0)
(0.107129 -0.00489607 0)
(0.103626 0.00160932 0)
(0.0973978 0.00668671 0)
(0.0904215 0.0109614 0)
(0.0829973 0.0150146 0)
(0.0750409 0.019708 0)
(0.0668465 0.0263558 0)
(0.0588704 0.0371593 0)
(0.0537279 0.0516369 0)
(0.0507033 0.0731211 0)
(0.0562729 0.107058 0)
(0.0662108 0.0741833 0)
(0.00649066 -0.174442 0)
(-0.126991 -0.209506 0)
(0.858485 -0.525761 0)
(-0.353232 -0.334098 0)
(0.067987 -0.209395 0)
(0.0136936 -0.0871244 0)
(-0.0332929 -0.0567256 0)
(-0.0337017 -0.0403591 0)
(-0.0291751 -0.0273909 0)
(-0.0227382 -0.0128969 0)
(-0.0114117 0.00631987 0)
(-0.000705612 0.0297071 0)
(0.0104826 0.0542066 0)
(0.0217518 0.0778457 0)
(0.0336761 0.100456 0)
(0.0466789 0.121388 0)
(0.0628975 0.139077 0)
(0.0793867 0.144815 0)
(0.0962626 0.141811 0)
(0.11611 0.128089 0)
(0.136225 0.0823883 0)
(0.145775 0.0371419 0)
(0.14821 -0.00225566 0)
(0.138528 -0.0288409 0)
(0.121319 -0.040533 0)
(0.101552 -0.0383504 0)
(0.0854941 -0.0243978 0)
(0.0757696 -0.0105705 0)
(0.0685196 -0.000755932 0)
(0.0615438 0.00619018 0)
(0.0554419 0.0113909 0)
(0.0501245 0.0156364 0)
(0.0455756 0.0196807 0)
(0.0418498 0.0243934 0)
(0.0393586 0.0308584 0)
(0.0389641 0.0404432 0)
(0.0422195 0.0530169 0)
(0.0489522 0.0688489 0)
(0.0627882 0.0882341 0)
(0.0804193 0.0681356 0)
(0.0920094 0.0675134 0)
(-0.0377042 0.090045 0)
(0.78302 -0.475986 0)
(-0.319591 -0.303671 0)
(-0.0443976 -0.199809 0)
(-0.062332 -0.0597344 0)
(-0.105367 -0.0522083 0)
(-0.100872 -0.0443547 0)
(-0.0962774 -0.0339464 0)
(-0.0914877 -0.0203628 0)
(-0.0854524 -0.00256759 0)
(-0.0760882 0.0189968 0)
(-0.0656821 0.0417618 0)
(-0.0531495 0.0641965 0)
(-0.0385268 0.0853309 0)
(-0.021656 0.104257 0)
(-0.00060924 0.119657 0)
(0.0213231 0.124 0)
(0.0431433 0.119048 0)
(0.067977 0.103161 0)
(0.0889203 0.0673676 0)
(0.0995062 0.0301897 0)
(0.0988035 0.00124187 0)
(0.0897963 -0.0162508 0)
(0.0741379 -0.0230252 0)
(0.0562761 -0.0204637 0)
(0.0404964 -0.0109734 0)
(0.028672 -0.000493287 0)
(0.0206579 0.00733144 0)
(0.0157541 0.012431 0)
(0.0124038 0.0160622 0)
(0.0102415 0.0190747 0)
(0.00916045 0.0220096 0)
(0.00927173 0.0254021 0)
(0.0109899 0.0299241 0)
(0.0151552 0.0364865 0)
(0.022893 0.045404 0)
(0.0341864 0.0559929 0)
(0.0521729 0.0661622 0)
(0.0699298 0.0509731 0)
(0.0922582 0.0380907 0)
(-0.0512312 0.0912571 0)
(0.62343 -0.373403 0)
(-0.33994 -0.241736 0)
(-0.223793 -0.201465 0)
(-0.133877 -0.0584704 0)
(-0.176719 -0.0600925 0)
(-0.161334 -0.0518057 0)
(-0.154667 -0.0397825 0)
(-0.150947 -0.0254973 0)
(-0.147409 -0.00868996 0)
(-0.141074 0.0105343 0)
(-0.132353 0.0306735 0)
(-0.120359 0.0502874 0)
(-0.105129 0.0683938 0)
(-0.0865725 0.0839112 0)
(-0.0641069 0.095294 0)
(-0.0398525 0.0986742 0)
(-0.0150818 0.0937963 0)
(0.0118958 0.0778089 0)
(0.0294837 0.0509039 0)
(0.0368138 0.025524 0)
(0.0342933 0.00696366 0)
(0.0260644 -0.00393663 0)
(0.0131044 -0.00748313 0)
(-0.00177639 -0.00467841 0)
(-0.0143571 0.00176232 0)
(-0.0219531 0.00773159 0)
(-0.0255697 0.0119123 0)
(-0.0270693 0.0147717 0)
(-0.0272582 0.0169788 0)
(-0.0264442 0.0188713 0)
(-0.0247253 0.0206523 0)
(-0.0220449 0.0225359 0)
(-0.0181678 0.0248069 0)
(-0.0125321 0.0278344 0)
(-0.00420152 0.0317188 0)
(0.00874027 0.0356686 0)
(0.0269478 0.036683 0)
(0.0390194 0.0237818 0)
(0.0808988 0.049349 0)
(-0.308974 0.147471 0)
(0.399792 -0.289423 0)
(-0.4992 -0.270264 0)
(-0.554806 -0.286162 0)
(-0.166077 -0.133599 0)
(-0.230978 -0.0833367 0)
(-0.207193 -0.0602265 0)
(-0.201565 -0.0429661 0)
(-0.200618 -0.0275619 0)
(-0.199852 -0.0123032 0)
(-0.196515 0.00378337 0)
(-0.189751 0.0204591 0)
(-0.179013 0.0364455 0)
(-0.164307 0.0508712 0)
(-0.145751 0.062735 0)
(-0.123635 0.0706926 0)
(-0.0996236 0.0726635 0)
(-0.0755922 0.0680646 0)
(-0.0535731 0.0569438 0)
(-0.0394863 0.0409198 0)
(-0.0341696 0.0257693 0)
(-0.0363466 0.0144148 0)
(-0.0431145 0.00778377 0)
(-0.0515648 0.00565499 0)
(-0.0593455 0.00661175 0)
(-0.0644667 0.00880851 0)
(-0.0667665 0.0109288 0)
(-0.0669286 0.0125683 0)
(-0.0657108 0.0138114 0)
(-0.0635557 0.0148132 0)
(-0.0607581 0.0156895 0)
(-0.0576114 0.0165954 0)
(-0.0545351 0.0178163 0)
(-0.0522378 0.0198543 0)
(-0.0519159 0.0234881 0)
(-0.0554924 0.029895 0)
(-0.0655123 0.0411127 0)
(-0.0864365 0.0586459 0)
(-0.127686 0.0793159 0)
(-0.195259 0.0946352 0)
(-0.384359 0.090632 0)
(-1.02379 -0.269696 0)
(-0.0951919 -0.168244 0)
(-0.221219 -0.0939319 0)
(-0.230739 -0.058087 0)
(-0.237534 -0.0351692 0)
(-0.242802 -0.0174352 0)
(-0.245373 -0.00233788 0)
(-0.244287 0.0110491 0)
(-0.239129 0.022469 0)
(-0.229895 0.0329864 0)
(-0.216531 0.0422865 0)
(-0.199385 0.049708 0)
(-0.179261 0.054377 0)
(-0.157791 0.0553097 0)
(-0.137071 0.0523692 0)
(-0.119495 0.0461965 0)
(-0.107776 0.0381366 0)
(-0.102168 0.0305824 0)
(-0.10136 0.0249193 0)
(-0.103335 0.0216913 0)
(-0.106089 0.0208832 0)
(-0.108116 0.0218432 0)
(-0.10866 0.0236791 0)
(-0.107771 0.0257908 0)
(-0.105795 0.0280029 0)
(-0.103035 0.0303216 0)
(-0.0996834 0.0327569 0)
(-0.0959132 0.0353015 0)
(-0.0919545 0.0379511 0)
(-0.0881616 0.0407526 0)
(-0.0850201 0.0439358 0)
(-0.0828956 0.0481845 0)
(-0.0812621 0.0549633 0)
(-0.0781796 0.0664057 0)
(-0.0729283 0.0831308 0)
(-0.0714251 0.0974743 0)
(-0.0801631 0.0812083 0)
(-0.0417415 -0.126064 0)
(-0.155034 0.0119548 0)
(-0.112566 -0.127835 0)
(-0.208068 -0.102731 0)
(-0.245961 -0.0874627 0)
(-0.268071 -0.077447 0)
(-0.281743 -0.068981 0)
(-0.289219 -0.060534 0)
(-0.29114 -0.0511584 0)
(-0.287776 -0.0400111 0)
(-0.280003 -0.0299351 0)
(-0.267941 -0.0217396 0)
(-0.25219 -0.0156314 0)
(-0.233743 -0.011999 0)
(-0.214073 -0.0112889 0)
(-0.194932 -0.0136042 0)
(-0.178076 -0.0187467 0)
(-0.164909 -0.0262156 0)
(-0.155701 -0.0350046 0)
(-0.149847 -0.044235 0)
(-0.14631 -0.0530871 0)
(-0.143968 -0.0608682 0)
(-0.141915 -0.067375 0)
(-0.139646 -0.0729055 0)
(-0.137039 -0.0779386 0)
(-0.134165 -0.0828488 0)
(-0.131141 -0.0878018 0)
(-0.128066 -0.092698 0)
(-0.124975 -0.0970714 0)
(-0.121781 -0.0999914 0)
(-0.118187 -0.100053 0)
(-0.113563 -0.0955556 0)
(-0.106696 -0.0848785 0)
(-0.0953353 -0.0670196 0)
(-0.0761137 -0.0426449 0)
(-0.0468797 -0.0166109 0)
(-0.0106867 -0.00344412 0)
(0.0422213 -0.0733729 0)
(-0.00448239 -0.187014 0)
(0.154235 -0.189355 0)
(-0.252095 -0.0485902 0)
(-0.206507 0.176063 0)
(-0.211084 0.143773 0)
(-0.250671 0.136742 0)
(-0.281286 0.13831 0)
(-0.305333 0.139741 0)
(-0.322763 0.140705 0)
(-0.334189 0.140965 0)
(-0.339925 0.140248 0)
(-0.339737 0.138345 0)
(-0.334108 0.13772 0)
(-0.323714 0.13891 0)
(-0.309349 0.141725 0)
(-0.292049 0.146041 0)
(-0.273092 0.151802 0)
(-0.253868 0.159022 0)
(-0.235693 0.167754 0)
(-0.2196 0.177976 0)
(-0.206103 0.189415 0)
(-0.195251 0.201488 0)
(-0.186754 0.213397 0)
(-0.180091 0.224469 0)
(-0.174656 0.23451 0)
(-0.169914 0.243823 0)
(-0.165474 0.252928 0)
(-0.161072 0.262293 0)
(-0.156521 0.272184 0)
(-0.151678 0.282585 0)
(-0.146385 0.293125 0)
(-0.140416 0.303032 0)
(-0.13338 0.311196 0)
(-0.124569 0.316424 0)
(-0.112736 0.317929 0)
(-0.0961244 0.316004 0)
(-0.0733662 0.312838 0)
(-0.0451948 0.313151 0)
(-0.0144096 0.322089 0)
(0.0400461 0.381607 0)
(-0.11584 0.495981 0)
)
;

boundaryField
{
    floor
    {
        type            noSlip;
    }
    ceiling
    {
        type            noSlip;
    }
    sWall
    {
        type            noSlip;
    }
    nWall
    {
        type            noSlip;
    }
    sideWalls
    {
        type            empty;
    }
    glass1
    {
        type            noSlip;
    }
    glass2
    {
        type            noSlip;
    }
    sun
    {
        type            noSlip;
    }
    Table_master
    {
        type            noSlip;
    }
    Table_slave
    {
        type            noSlip;
    }
    inlet
    {
        type            fixedValue;
        value           uniform (0.212132 -0.212132 0);
    }
    outlet
    {
        type            zeroGradient;
    }
}


// ************************************************************************* //
