/*--------------------------------*- C++ -*----------------------------------*\
  =========                 |
  \\      /  F ield         | OpenFOAM: The Open Source CFD Toolbox
   \\    /   O peration     | Website:  https://openfoam.org
    \\  /    A nd           | Version:  6
     \\/     M anipulation  |
\*---------------------------------------------------------------------------*/
FoamFile
{
    version     2.0;
    format      ascii;
    class       volScalarField;
    location    "900";
    object      alphat;
}
// * * * * * * * * * * * * * * * * * * * * * * * * * * * * * * * * * * * * * //

dimensions      [1 -1 -1 0 0 0 0];

internalField   nonuniform List<scalar> 
458
(
0.00141691
0.00155127
0.00157267
0.0016504
0.00172439
0.00179461
0.00186407
0.00193495
0.00199085
0.0020259
0.00203324
0.00200601
0.00193933
0.00183301
0.00169272
0.000703189
0.000850518
0.000956283
0.00095931
0.000929803
0.000871943
0.00081093
0.000755647
0.000707047
0.000664419
0.00062695
0.000593945
0.000564597
0.000537865
0.000512543
0.000487247
0.000474632
0.000438392
0.00195095
0.00494654
0.004752
0.00553462
0.00629224
0.00704595
0.00772028
0.00823811
0.00871791
0.00913839
0.00945666
0.00961367
0.00952537
0.00901816
0.00741482
0.0017863
0.00146742
0.00115351
0.000745514
0.00168048
0.00244601
0.0030184
0.00315359
0.00239811
0.00204785
0.00180515
0.00162127
0.00147667
0.00135952
0.00125922
0.00116624
0.0010743
0.000990926
0.000919609
0.00112836
0.000578088
0.00239103
0.00682651
0.00597206
0.00760146
0.00844075
0.00905953
0.00953157
0.00988419
0.0102468
0.0106316
0.011014
0.0113329
0.0114961
0.0113951
0.0107959
0.0088526
0.00689896
0.00144957
0.00138335
0.00226053
0.00313183
0.00389381
0.00395183
0.0012062
0.001052
0.000928933
0.000831027
0.000752441
0.000688604
0.000636289
0.000593575
0.000560185
0.000621622
0.00073747
0.00133248
0.000681861
0.00280891
0.00878421
0.00616035
0.00820018
0.00909899
0.00946495
0.00965846
0.00979835
0.0100304
0.0103713
0.0108117
0.011279
0.0116507
0.0118273
0.0117178
0.0111231
0.009765
0.00615422
0.00188704
0.00271765
0.00387653
0.00495523
0.00566545
0.00532714
0.00134689
0.00122045
0.00113479
0.00107057
0.0010148
0.00096101
0.000908973
0.000853868
0.000789725
0.000741731
0.000784143
0.0016262
0.000766512
0.00323029
0.0112333
0.00711225
0.0080637
0.0091957
0.00951535
0.00951941
0.00950332
0.00965314
0.00995984
0.0104496
0.0110284
0.0115106
0.0117587
0.0117359
0.011464
0.0108863
0.00976033
0.00827302
0.00797482
0.00806135
0.00816201
0.0081091
0.00767681
0.00622592
0.00558144
0.00522263
0.00494773
0.00466124
0.0042652
0.00372207
0.00308286
0.00240463
0.00178792
0.00135387
0.00146618
0.00131351
0.00100597
0.00102997
0.00110973
0.00366912
0.0138336
0.00998112
0.00861523
0.00917239
0.00958857
0.00954612
0.00949564
0.00955632
0.00981372
0.0103151
0.0109603
0.0115217
0.011784
0.0116862
0.0113599
0.0110262
0.010798
0.0106016
0.0104758
0.0102399
0.00985607
0.00936075
0.0087551
0.00800135
0.00741759
0.00695892
0.00654617
0.0061415
0.00571765
0.00517837
0.00450458
0.00371597
0.00289064
0.00219586
0.00164168
0.00146406
0.00135722
0.00166924
0.00116058
0.00403597
0.0154446
0.0134323
0.011302
0.010791
0.0105236
0.0101282
0.00977766
0.00965297
0.00987491
0.010449
0.0112053
0.0118418
0.0120854
0.0118696
0.0114242
0.0111705
0.0112948
0.011431
0.0112614
0.0107659
0.0100659
0.00928334
0.00850856
0.00780751
0.0072413
0.00676105
0.00631731
0.00591469
0.00556065
0.00526004
0.00487006
0.00429697
0.00358445
0.00291313
0.00232942
0.00202149
0.00195875
0.00189563
0.00143403
0.00407155
0.0129015
0.0116806
0.0111682
0.0108886
0.0104008
0.00983868
0.00947984
0.00952445
0.0100389
0.0109128
0.0118612
0.012521
0.0126354
0.0122234
0.011669
0.0114794
0.0115789
0.0113464
0.0107414
0.00989414
0.00895192
0.00804542
0.00726616
0.00664909
0.00616542
0.00575559
0.00539178
0.00508733
0.00487178
0.00476722
0.00474063
0.0045669
0.00414911
0.00380658
0.00371253
0.0040148
0.0044895
0.00561577
0.00211516
0.00393339
0.00455663
0.00467761
0.00476234
0.00496846
0.00544141
0.00630103
0.00755559
0.00909973
0.0107493
0.0122281
0.0132349
0.0135482
0.0131821
0.012446
0.0119225
0.0114307
0.0107989
0.00995526
0.00898119
0.00798899
0.00709942
0.00638802
0.00585813
0.00545819
0.00511957
0.00479132
0.00445747
0.00413448
0.00385492
0.00364122
0.00348838
0.00338473
0.00331585
0.00328859
0.0032796
0.00320578
0.0030157
0.00278245
0.0019256
0.000678313
0.00253593
0.00589181
0.00978432
0.0129636
0.0149601
0.0158149
0.0158735
0.0155653
0.0150922
0.0142503
0.0131881
0.0121075
0.0110359
0.00991069
0.00885756
0.0079386
0.00711158
0.00643686
0.00594524
0.00560574
0.0053634
0.00516304
0.0049588
0.00471901
0.00443245
0.00411547
0.0038143
0.00359028
0.00346205
0.00340601
0.00338964
0.00337467
0.00330422
0.00311289
0.00278023
0.00235541
0.00158351
0.00464363
0.0120677
0.012969
0.0136816
0.0141926
0.0142962
0.0139545
0.0133311
0.0126149
0.0118913
0.0110847
0.0102059
0.0092745
0.00836672
0.00761807
0.0070561
0.00660277
0.00618379
0.00584429
0.00560085
0.00542864
0.00529784
0.00518337
0.00506502
0.00492781
0.00476248
0.00456543
0.00433627
0.00412061
0.00397143
0.00389448
0.00387078
0.00386594
0.00386025
0.00381332
0.00371474
0.00303694
0.00161373
0.00329591
0.00351385
0.00370212
0.00356773
0.00346395
0.00339725
0.00329481
0.0031324
0.00291432
0.00266564
0.00241223
0.00217459
0.00197077
0.00180907
0.00168855
0.00160179
0.00153837
0.00148819
0.00144701
0.00141858
0.00139789
0.00138239
0.00137044
0.00136051
0.0013518
0.00134446
0.00133973
0.00134
0.00134888
0.00137143
0.00140734
0.00145671
0.00151878
0.00159328
0.00167914
0.00179289
0.00182718
0.00178858
0.00166695
0.00154011
)
;

boundaryField
{
    floor
    {
        type            compressible::alphatWallFunction;
        Prt             0.85;
        value           nonuniform List<scalar> 
36
(
0.000236532
9.95324e-05
0.000120907
0.000135984
0.000136417
0.000132236
0.000123987
0.000115218
0.000107205
0.000100103
9.38252e-05
8.82669e-05
8.33372e-05
7.89255e-05
7.48824e-05
7.10296e-05
6.71571e-05
6.52156e-05
5.96047e-05
5.96039e-05
8.09495e-05
9.63878e-05
0.000108771
0.000142995
0.000146376
0.000157519
0.000236529
0.000248919
0.000206425
0.000163573
9.95312e-05
0.000163571
0.000105716
0.000204028
0.000195051
0.00026217
)
;
    }
    ceiling
    {
        type            compressible::alphatWallFunction;
        Prt             0.85;
        value           nonuniform List<scalar> 
43
(
0.000440969
0.000467811
0.000490864
0.00047447
0.000461749
0.000453558
0.000440938
0.000420836
0.000393661
0.000362403
0.000330228
0.000299725
0.00027328
0.00025209
0.000236165
0.000224624
0.000216144
0.000209406
0.000203856
0.000200012
0.000197209
0.000195105
0.000193482
0.000192132
0.000190947
0.000189946
0.000189302
0.000189339
0.000190548
0.000193614
0.000198483
0.000205156
0.00021351
0.000223487
0.000234921
0.000249972
0.00025449
0.000249407
0.000233306
0.000216378
0.000519315
0.000594357
0.000604377
)
;
    }
    sWall
    {
        type            compressible::alphatWallFunction;
        Prt             0.85;
        value           uniform 0.000439641;
    }
    nWall
    {
        type            compressible::alphatWallFunction;
        Prt             0.85;
        value           nonuniform List<scalar> 6(0.00015724 0.000164287 0.000201651 0.000221785 0.000225818 0.000215974);
    }
    sideWalls
    {
        type            empty;
    }
    glass1
    {
        type            compressible::alphatWallFunction;
        Prt             0.85;
        value           nonuniform List<scalar> 9(0.00019393 0.000263757 0.000319915 0.000372347 0.000424482 0.000478097 0.000522482 0.000526953 0.000510634);
    }
    glass2
    {
        type            compressible::alphatWallFunction;
        Prt             0.85;
        value           nonuniform List<scalar> 2(0.000288998 0.000264627);
    }
    sun
    {
        type            compressible::alphatWallFunction;
        Prt             0.85;
        value           nonuniform List<scalar> 
14
(
0.000199639
0.000217707
0.000220573
0.000230944
0.000240764
0.000250042
0.000259181
0.000268467
0.000275763
0.000280326
0.000281278
0.000277729
0.000269023
0.000255075
)
;
    }
    Table_master
    {
        type            compressible::alphatWallFunction;
        Prt             0.85;
        value           nonuniform List<scalar> 9(0.000171158 0.000149736 0.000132378 0.000118376 0.000106996 9.76459e-05 8.99053e-05 8.35273e-05 7.85025e-05);
    }
    Table_slave
    {
        type            compressible::alphatWallFunction;
        Prt             0.85;
        value           nonuniform List<scalar> 9(0.000190432 0.000173124 0.000161281 0.000152335 0.000144514 0.000136926 0.000129537 0.000121658 0.00011241);
    }
    inlet
    {
        type            fixedValue;
        value           uniform 1.94e-05;
    }
    outlet
    {
        type            zeroGradient;
    }
}


// ************************************************************************* //
