// -*- C++ -*-
// File generated by PyFoam - sorry for the ugliness

FoamFile
{
 version 2.0;
 format ascii;
 class volScalarField;
 location "900";
 object T;
}

dimensions [ 0 0 0 1 0 0 0 ];

internalField nonuniform List<scalar> 458
(
  300.586
  300.257
  300.249
  300.254
  300.257
  300.261
  300.263
  300.265
  300.265
  300.264
  300.261
  300.26
  300.26
  300.263
  300.275
  300.446
  300.424
  300.428
  300.439
  300.446
  300.449
  300.45
  300.451
  300.452
  300.453
  300.455
  300.458
  300.461
  300.464
  300.469
  300.475
  300.484
  300.521
  300.802
  300.291
  300.263
  300.271
  300.281
  300.29
  300.296
  300.301
  300.3
  300.294
  300.285
  300.277
  300.273
  300.274
  300.278
  300.281
  300.27
  300.28
  300.449
  300.422
  300.431
  300.448
  300.46
  300.456
  300.45
  300.442
  300.436
  300.43
  300.425
  300.42
  300.417
  300.416
  300.419
  300.425
  300.439
  300.5
  301.029
  300.343
  300.286
  300.297
  300.316
  300.334
  300.348
  300.356
  300.353
  300.339
  300.318
  300.3
  300.292
  300.293
  300.3
  300.303
  300.291
  300.285
  300.415
  300.429
  300.457
  300.489
  300.513
  300.498
  300.483
  300.469
  300.457
  300.446
  300.436
  300.428
  300.421
  300.416
  300.419
  300.422
  300.433
  300.496
  301.256
  300.415
  300.315
  300.326
  300.355
  300.385
  300.413
  300.428
  300.422
  300.394
  300.356
  300.323
  300.308
  300.312
  300.327
  300.339
  300.339
  300.329
  300.363
  300.407
  300.466
  300.52
  300.565
  300.6
  300.628
  300.65
  300.668
  300.682
  300.693
  300.7
  300.706
  300.709
  300.706
  300.608
  300.523
  300.475
  300.508
  301.476
  300.514
  300.365
  300.361
  300.395
  300.439
  300.485
  300.509
  300.496
  300.45
  300.39
  300.342
  300.32
  300.327
  300.353
  300.382
  300.404
  300.424
  300.46
  300.509
  300.565
  300.62
  300.667
  300.706
  300.74
  300.766
  300.785
  300.799
  300.807
  300.807
  300.8
  300.787
  300.765
  300.702
  300.609
  300.528
  300.519
  300.713
  300.817
  300.813
  301.674
  300.65
  300.472
  300.443
  300.471
  300.517
  300.572
  300.587
  300.554
  300.487
  300.411
  300.352
  300.327
  300.34
  300.381
  300.432
  300.478
  300.519
  300.566
  300.62
  300.677
  300.73
  300.776
  300.813
  300.842
  300.863
  300.878
  300.887
  300.889
  300.884
  300.868
  300.846
  300.815
  300.762
  300.682
  300.595
  300.556
  300.639
  300.684
  300.745
  301.864
  300.871
  300.711
  300.673
  300.671
  300.693
  300.699
  300.661
  300.584
  300.487
  300.398
  300.338
  300.323
  300.353
  300.417
  300.497
  300.57
  300.631
  300.688
  300.744
  300.797
  300.845
  300.884
  300.912
  300.932
  300.946
  300.953
  300.954
  300.95
  300.939
  300.919
  300.891
  300.857
  300.81
  300.746
  300.67
  300.622
  300.637
  300.661
  300.703
  302.14
  301.418
  301.262
  301.147
  301.047
  300.942
  300.815
  300.67
  300.525
  300.401
  300.319
  300.288
  300.31
  300.378
  300.48
  300.594
  300.689
  300.763
  300.821
  300.871
  300.915
  300.95
  300.976
  300.993
  301.002
  301.005
  301.003
  300.997
  300.987
  300.974
  300.955
  300.93
  300.898
  300.858
  300.811
  300.76
  300.733
  300.75
  300.792
  301.024
  302.545
  302.199
  301.641
  301.263
  300.97
  300.682
  300.435
  300.255
  300.15
  300.116
  300.144
  300.222
  300.33
  300.461
  300.606
  300.747
  300.837
  300.898
  300.946
  300.984
  301.014
  301.034
  301.046
  301.05
  301.049
  301.044
  301.036
  301.026
  301.015
  301.004
  300.995
  300.99
  300.988
  300.994
  301.014
  301.051
  301.108
  301.167
  301.21
  301.309
  291.702
  292.613
  293.89
  295.49
  296.977
  298.179
  299.083
  299.717
  300.134
  300.411
  300.586
  300.72
  300.832
  300.919
  300.979
  301.022
  301.053
  301.075
  301.088
  301.094
  301.095
  301.091
  301.085
  301.078
  301.07
  301.063
  301.057
  301.053
  301.051
  301.051
  301.055
  301.066
  301.087
  301.121
  301.164
  301.208
  301.244
  301.276
  296.09
  296.142
  296.769
  297.605
  298.457
  299.204
  299.789
  300.208
  300.493
  300.687
  300.819
  300.919
  300.994
  301.05
  301.088
  301.113
  301.129
  301.137
  301.14
  301.138
  301.133
  301.126
  301.119
  301.112
  301.105
  301.099
  301.094
  301.091
  301.088
  301.087
  301.09
  301.097
  301.112
  301.135
  301.166
  301.201
  301.208
  301.252
  298.013
  297.962
  297.951
  298.783
  299.176
  299.557
  299.931
  300.263
  300.529
  300.728
  300.871
  300.974
  301.05
  301.107
  301.149
  301.178
  301.197
  301.207
  301.211
  301.21
  301.205
  301.199
  301.192
  301.185
  301.177
  301.171
  301.164
  301.157
  301.151
  301.144
  301.138
  301.133
  301.13
  301.129
  301.131
  301.147
  301.164
  301.179
  301.188
  301.236
)
;

boundaryField
{
  floor
  {
    type wallHeatTransfer;
    Tinf uniform 305.2;
    alphaWall uniform 0.24;
    value nonuniform List<scalar> 36
(
  300.688
  301.211
  301.096
  301.045
  301.053
  301.073
  301.105
  301.141
  301.177
  301.212
  301.247
  301.28
  301.313
  301.345
  301.376
  301.409
  301.445
  301.469
  301.548
  301.548
  301.363
  301.269
  301.219
  301.271
  301.354
  301.321
  300.688
  300.676
  300.732
  300.833
  301.211
  300.833
  301.182
  300.75
  300.884
  300.735
)
;
  }
  ceiling
  {
    type wallHeatTransfer;
    Tinf uniform 303.2;
    alphaWall uniform 0.24;
    value nonuniform List<scalar> 43
(
  298.266
  298.205
  298.184
  298.985
  299.365
  299.731
  300.091
  300.413
  300.674
  300.872
  301.018
  301.127
  301.21
  301.274
  301.321
  301.355
  301.378
  301.392
  301.399
  301.401
  301.399
  301.395
  301.39
  301.385
  301.379
  301.374
  301.368
  301.362
  301.356
  301.347
  301.338
  301.328
  301.318
  301.311
  301.306
  301.312
  301.324
  301.341
  301.359
  301.413
  302.572
  302.237
  296.351
)
;
  }
  sWall
  {
    type wallHeatTransfer;
    Tinf uniform 315.2;
    alphaWall uniform 0.36;
    value uniform 299.247;
  }
  nWall
  {
    type wallHeatTransfer;
    Tinf uniform 307.2;
    alphaWall uniform 0.36;
    value nonuniform List<scalar> 6
(
  301.863
  301.774
  301.591
  302.028
  301.997
  302.009
)
;
  }
  sideWalls
  {
    type empty;
  }
  glass1
  {
    type wallHeatTransfer;
    Tinf uniform 315.2;
    alphaWall uniform 4.3;
    value nonuniform List<scalar> 9
(
  310.259
  309.407
  308.885
  308.497
  308.181
  307.902
  307.726
  307.855
  308.176
)
;
  }
  glass2
  {
    type wallHeatTransfer;
    Tinf uniform 307.2;
    alphaWall uniform 4.3;
    value nonuniform List<scalar> 2
(
  304.59
  304.825
)
;
  }
  sun
  {
    type wallHeatTransfer;
    Tinf uniform 305.2;
    alphaWall uniform 0.24;
    value nonuniform List<scalar> 14
(
  301.03
  300.701
  300.689
  300.677
  300.666
  300.656
  300.647
  300.637
  300.629
  300.623
  300.619
  300.622
  300.632
  300.652
)
;
  }
  Table_master
  {
    type zeroGradient;
  }
  Table_slave
  {
    type zeroGradient;
  }
  inlet
  {
    type fixedValue;
    value uniform 292.15;
  }
  outlet
  {
    type zeroGradient;
  }
} 	// ************************************************************************* //

