/*--------------------------------*- C++ -*----------------------------------*\
  =========                 |
  \\      /  F ield         | OpenFOAM: The Open Source CFD Toolbox
   \\    /   O peration     | Website:  https://openfoam.org
    \\  /    A nd           | Version:  6
     \\/     M anipulation  |
\*---------------------------------------------------------------------------*/
FoamFile
{
    version     2.0;
    format      ascii;
    class       volScalarField;
    location    "500";
    object      k;
}
// * * * * * * * * * * * * * * * * * * * * * * * * * * * * * * * * * * * * * //

dimensions      [0 2 -2 0 0 0 0];

internalField   nonuniform List<scalar> 
458
(
0.000949208
0.0010185
0.000964796
0.00103826
0.00110621
0.00116638
0.00121982
0.00126821
0.00131361
0.00135866
0.0014014
0.00143552
0.00146088
0.00148146
0.00149685
0.000359081
0.00055401
0.000596396
0.000579767
0.000539081
0.000479475
0.000426308
0.000381951
0.000343613
0.000309521
0.000278744
0.000250667
0.000224734
0.00020021
0.000175961
0.000150117
0.000138595
0.000124971
0.00238518
0.00447957
0.00135128
0.00135004
0.00139167
0.00144483
0.00150388
0.00157227
0.00165264
0.0017446
0.00184206
0.00192128
0.0019531
0.0018965
0.00173922
0.00164172
0.00154867
0.000738493
0.000517426
0.00109225
0.000997236
0.000891235
0.000761729
0.000624662
0.000531084
0.000474875
0.000424403
0.000374512
0.000327171
0.000283263
0.000242722
0.000206422
0.000181256
0.000165384
0.000424072
0.000255939
0.00423774
0.010016
0.0018864
0.00166106
0.0016822
0.00174376
0.00181496
0.00189915
0.00199837
0.0021101
0.00222794
0.00232018
0.00235736
0.00231897
0.00221802
0.0020917
0.00191774
0.00176706
0.00110751
0.00176961
0.00123358
0.00087413
0.000654069
0.000490764
0.000339985
0.000260111
0.000220717
0.000196942
0.000178803
0.000163739
0.000151723
0.000144672
0.000163803
0.000180253
0.000776072
0.000387968
0.00665213
0.018816
0.00283734
0.00193342
0.00193361
0.00202588
0.00212467
0.00223181
0.00235089
0.00248286
0.00262577
0.00274829
0.00281123
0.00279402
0.00269372
0.00251925
0.00230245
0.00208171
0.00186938
0.00200217
0.00132604
0.00091403
0.000640026
0.000564377
0.000557733
0.000566968
0.000594909
0.00062998
0.000662312
0.000679585
0.000668802
0.000629808
0.000585347
0.000487014
0.000400573
0.001065
0.000559912
0.00961615
0.0307756
0.0049321
0.00220185
0.00211201
0.00223007
0.00236666
0.00251723
0.00268525
0.00287308
0.00307407
0.00325252
0.00335295
0.00335923
0.00327019
0.0030985
0.0028812
0.00263036
0.00222004
0.00157992
0.00106832
0.000735837
0.000588081
0.000631757
0.000768413
0.000885275
0.000985324
0.00108953
0.00117838
0.00122555
0.00120627
0.00110132
0.000965255
0.000810442
0.00065461
0.00084368
0.00114757
0.000977177
0.00100077
0.0011939
0.0131535
0.043143
0.0102879
0.00295747
0.00236119
0.00240996
0.00255437
0.00274234
0.00296394
0.00322504
0.00353544
0.00377213
0.00388182
0.00387489
0.00376396
0.00355753
0.00325569
0.00282144
0.00223593
0.00159729
0.00107136
0.000729038
0.000572126
0.000622419
0.000759819
0.000908493
0.00108267
0.00125975
0.00142937
0.00155543
0.001605
0.00153937
0.0013383
0.0011153
0.000914342
0.000849812
0.000993288
0.00100445
0.00152032
0.00127488
0.0172623
0.0515683
0.0225627
0.00766641
0.00391566
0.00309187
0.00301365
0.00316988
0.00341936
0.00374305
0.00416396
0.00437095
0.00440298
0.00431951
0.0041489
0.00389742
0.00355066
0.00306579
0.0024459
0.00179178
0.00122181
0.000807207
0.00057595
0.000621039
0.000781848
0.000954382
0.00115745
0.00138545
0.00163155
0.00184766
0.00201559
0.00209732
0.00194242
0.00167299
0.00144023
0.00132504
0.00138796
0.00155543
0.0020572
0.00177003
0.0184569
0.058798
0.0372506
0.0252214
0.015357
0.00919967
0.00633287
0.00532268
0.00510414
0.00523365
0.00525515
0.00511589
0.00490816
0.00466677
0.00439434
0.00407823
0.00369537
0.00321218
0.00262609
0.00200233
0.00141553
0.000931038
0.000596211
0.000631586
0.000833888
0.00104204
0.00127247
0.00152984
0.0018074
0.00209627
0.00239633
0.00271025
0.00303166
0.00307883
0.00317209
0.00373122
0.00485004
0.00607983
0.0111352
0.00418913
0.0177531
0.0261388
0.0239182
0.0214331
0.0181626
0.0144779
0.011325
0.00909968
0.0077076
0.00686112
0.00619553
0.00566135
0.00521698
0.00482397
0.0044487
0.00406292
0.00364299
0.0031705
0.00264456
0.00209416
0.00156129
0.00106522
0.000616222
0.00062916
0.000871462
0.00110613
0.00134459
0.0016029
0.00188073
0.00217864
0.00250076
0.00285161
0.00323233
0.00364627
0.00412343
0.00473243
0.00529414
0.00564342
0.0058392
0.00378241
0.00711606
0.0106877
0.0123836
0.0120659
0.0107459
0.00928854
0.00805171
0.00707734
0.00630404
0.00568407
0.00516178
0.00469652
0.0042582
0.00382496
0.00338228
0.00292298
0.0024492
0.00197381
0.00151252
0.00105902
0.000608584
0.000577181
0.000830727
0.00106726
0.00128644
0.00151464
0.00175523
0.00200943
0.00228223
0.00258457
0.00293229
0.0033389
0.0037621
0.00415026
0.00435257
0.004236
0.00386749
0.0025215
0.00768849
0.0160507
0.015259
0.0137093
0.0118098
0.0101215
0.00868598
0.00751722
0.00656433
0.00573359
0.00501472
0.00438922
0.00383463
0.00333022
0.0028599
0.00241365
0.00198791
0.00158486
0.00120811
0.000850213
0.000513289
0.000458254
0.000631455
0.000817029
0.00100658
0.00121547
0.00145165
0.00172164
0.00203233
0.00238816
0.00279395
0.00325356
0.00373353
0.00417006
0.0044413
0.00469542
0.00408431
0.00259456
0.00877424
0.00909954
0.00945298
0.0113293
0.0105603
0.00940625
0.00778409
0.00676461
0.00592936
0.00521858
0.00459558
0.00407953
0.00362874
0.00321706
0.00283028
0.00246093
0.00210597
0.00176561
0.00144266
0.00114228
0.000871642
0.000638929
0.000447345
0.00038825
0.000471024
0.000567552
0.000674034
0.000791486
0.00092113
0.00106567
0.00123106
0.00143015
0.00167478
0.00195048
0.00225655
0.00261371
0.00281292
0.0027115
0.00234149
0.00201215
)
;

boundaryField
{
    floor
    {
        type            kqRWallFunction;
        value           nonuniform List<scalar> 
36
(
0.00149685
0.000359081
0.00055401
0.000596396
0.000579767
0.000539081
0.000479475
0.000426308
0.000381951
0.000343613
0.000309521
0.000278744
0.000250667
0.000224734
0.00020021
0.000175961
0.000150117
0.000138595
0.000124971
0.000124971
0.000255939
0.000387968
0.000559912
0.000977177
0.00100077
0.0011939
0.00149685
0.00164172
0.00154867
0.000738493
0.000359081
0.000738493
0.000517426
0.00176706
0.00110751
0.00186938
)
;
    }
    ceiling
    {
        type            kqRWallFunction;
        value           nonuniform List<scalar> 
43
(
0.00877424
0.00909954
0.00945298
0.0113293
0.0105603
0.00940625
0.00778409
0.00676461
0.00592936
0.00521858
0.00459558
0.00407953
0.00362874
0.00321706
0.00283028
0.00246093
0.00210597
0.00176561
0.00144266
0.00114228
0.000871642
0.000638929
0.000447345
0.00038825
0.000471024
0.000567552
0.000674034
0.000791486
0.00092113
0.00106567
0.00123106
0.00143015
0.00167478
0.00195048
0.00225655
0.00261371
0.00281292
0.0027115
0.00234149
0.00201215
0.0177531
0.0261388
0.00768849
)
;
    }
    sWall
    {
        type            kqRWallFunction;
        value           uniform 0.00877424;
    }
    nWall
    {
        type            kqRWallFunction;
        value           nonuniform List<scalar> 6(0.0011939 0.00127488 0.00177003 0.0025215 0.00259456 0.00201215);
    }
    sideWalls
    {
        type            empty;
    }
    glass1
    {
        type            kqRWallFunction;
        value           nonuniform List<scalar> 9(0.000949208 0.00238518 0.00423774 0.00665213 0.00961615 0.0131535 0.0172623 0.0184569 0.0177531);
    }
    glass2
    {
        type            kqRWallFunction;
        value           nonuniform List<scalar> 2(0.00418913 0.00378241);
    }
    sun
    {
        type            kqRWallFunction;
        value           nonuniform List<scalar> 
14
(
0.000949208
0.0010185
0.000964796
0.00103826
0.00110621
0.00116638
0.00121982
0.00126821
0.00131361
0.00135866
0.0014014
0.00143552
0.00146088
0.00148146
)
;
    }
    Table_master
    {
        type            kqRWallFunction;
        value           nonuniform List<scalar> 9(0.000490764 0.000339985 0.000260111 0.000220717 0.000196942 0.000178803 0.000163739 0.000151723 0.000144672);
    }
    Table_slave
    {
        type            kqRWallFunction;
        value           nonuniform List<scalar> 9(0.000557733 0.000566968 0.000594909 0.00062998 0.000662312 0.000679585 0.000668802 0.000629808 0.000585347);
    }
    inlet
    {
        type            turbulentIntensityKineticEnergyInlet;
        intensity       0.05;
        value           uniform 0.0018375;
    }
    outlet
    {
        type            zeroGradient;
    }
}


// ************************************************************************* //
