/*--------------------------------*- C++ -*----------------------------------*=========                 |
  \      /  F ield         | OpenFOAM: The Open Source CFD Toolbox
   \    /   O peration     | Website:  https://openfoam.org
    \  /    A nd           | Version:  6
     \/     M anipulation  |
\*---------------------------------------------------------------------------*/
FoamFile
{
    version     2.0;
    format      ascii;
    class       volScalarField;
    location    "500";
    object      PMV;
}
// * * * * * * * * * * * * * * * * * * * * * * * * * * * * * * * * * * * * * //

dimensions      [0 0 0 0 0 0 0];

internalField   nonuniform List<scalar> 
458
(
1.9105885130644307
1.7342441508125594
1.7346700578228802
1.7169332486210782
1.7025592801472536
1.690432225109392
1.6810653640557567
1.6744744072851436
1.6702492847835715
1.6698307969308255
1.6733054863148926
1.683051318829437
1.701719363852855
1.7191261343605746
1.702840903062214
1.7538484909882126
1.7476295070991064
1.7485863005617404
1.7495430843392343
1.7490646936622634
1.7320939278102785
1.7217520253256133
1.7210798618527885
1.7232043093759788
1.725155092945696
1.727088473622241
1.7292709511025732
1.7316042434705838
1.729927103723251
1.7265776377090027
1.721792489529894
1.7103072019812788
1.6992992560711657
1.9174138384132673
1.7273393503496548
1.742874180118121
1.721591493123743
1.7076622323155415
1.6968364965358798
1.6887814391211715
1.6828412038093905
1.679029872058068
1.6781066069158501
1.6795215414390965
1.6832086567100633
1.6879296561620922
1.688311543413397
1.6822477380831342
1.7034370967863037
1.7323631932568466
1.7763392145170849
1.6900178523320843
1.7500214725902714
1.7500214725902714
1.751935001289212
1.7509782418054602
1.7466727039698962
1.7418885439694423
1.7366256921167451
1.7318410330395742
1.7265776377090027
1.721792489529894
1.7174856599316577
1.7131786460979854
1.7103072019812788
1.7079142702202417
1.7045640721263873
1.695948780317557
1.645170553885798
1.9886979508814915
1.7157656241373451
1.7581918400046745
1.7369923313169346
1.728103720546551
1.72147899558036
1.7166144579099563
1.7133814766647433
1.7112412696039567
1.7097857694819147
1.7099934138123931
1.709590418590457
1.7057075391768988
1.6967860579479326
1.685943704111358
1.6835806704359355
1.6762738124967378
1.6589545061903905
1.7438073819758426
1.7567186520860403
1.7581536994455582
1.75767535279046
1.7548995042518283
1.7490646936622634
1.7380610438448127
1.7270561398218887
1.7184427491539216
1.7117429341562642
1.7055212826918136
1.7007351414173266
1.6969060700203704
1.6945128294427065
1.6954701321998866
1.6949914819075653
1.6817061509091353
1.5873115023541748
2.0776084032223396
1.7152005365650245
1.7725234131801384
1.7549896533863765
1.7538719963480693
1.753714623423887
1.7548026098613856
1.7561987589486834
1.7573947108780643
1.7579335412118908
1.7578175920310335
1.7542598016063904
1.7450397087567993
1.7293550420139583
1.7114932510783496
1.6948447663967068
1.6753790751436473
1.6592640537529466
1.6728759109548912
1.7207729191266186
1.749088558393717
1.7653286018151944
1.7531657320899607
1.7479106967695848
1.7567186520860403
1.7543268573017903
1.7533701222278395
1.74887673811337
1.7251228980868973
1.7072927636256463
1.6951742931734277
1.6903877723037797
1.6949359944056084
1.699492540992269
1.7017560413439072
1.6586855934870928
1.5751692580999932
2.1712969734566054
1.7308216491358668
1.7840964038593883
1.7721356283798972
1.7798568669908499
1.7880008053685954
1.7970487173839578
1.8065024747564797
1.8144785278498272
1.8191155788637328
1.8202023285804332
1.814854254304759
1.8006709622581052
1.7790842386368133
1.7556769888773351
1.7322717945365285
1.7103554323839667
1.698680900208565
1.7073446761227007
1.7266853195793912
1.7455278226075777
1.747962000039202
1.7413313034910536
1.7489804519350103
1.7615020568005446
1.7610237274696234
1.7610237274696234
1.7610237274696234
1.7562087979382563
1.7388787861714423
1.7247914206647366
1.7134929543070927
1.7060584492750936
1.6978341805263018
1.6871742980831956
1.6424858568084648
1.6552878105444722
1.5969865894997235
1.6792660579637626
1.56519011000862
2.256661771876223
1.7650960756739609
1.8091490929682026
1.789569060577581
1.8013460417705351
1.8178542081920919
1.8375645203416962
1.8584101765408358
1.8782069086643494
1.8931489212599661
1.8974988276406988
1.8869149911404506
1.8640476330596754
1.8346513733909415
1.8045218752620167
1.7769785224946544
1.7549188696131113
1.7425289074582622
1.7429536725481
1.7487439339889552
1.7501832847985508
1.7423547940913466
1.7331884075868165
1.7414381785003603
1.7640637378589539
1.7662852130841005
1.7667635149578116
1.7672418143211752
1.7667635149578116
1.7658069087024295
1.7626354000705167
1.7489290413933507
1.729457052933104
1.7085981179077943
1.6862757359647362
1.645975477896414
1.6371138915434544
1.6104625697328088
1.6283091488738404
1.642498815468726
2.32606205424152
1.8478037014135829
1.9201548874804037
1.8348084698183709
1.8178189511862335
1.837617082706416
1.866905193853721
1.9031668089929428
1.9301785973927947
1.9444957431823338
1.9588097081051938
1.9504150627971306
1.9107737440876733
1.8748933297207917
1.8417171134904473
1.8129022810864153
1.789971947247057
1.776258451183027
1.770506020764371
1.7670741577070808
1.7599281904940718
1.7456540687552442
1.73106533902419
1.7375665437747583
1.7565051691814373
1.7701115576512856
1.7715463952338948
1.7725029409553994
1.7725029409553994
1.7715463952338948
1.7691549866238327
1.7653286018151944
1.7591103853499823
1.741392283249724
1.7076020994785444
1.6679526517288727
1.6461157582458945
1.6205078967199191
1.5925440444381103
1.6628091931698414
2.449916250571808
2.1524658697623003
2.1197511159826656
1.9887128778502747
1.922136680449445
1.89775549567904
1.899368677951843
1.9120418860078199
1.9268747721480304
1.9317855274960951
1.9231296757462377
1.910028980999405
1.8901671275776983
1.8667217131934803
1.8422437112741334
1.8209011796822117
1.8035301347642931
1.7919853965793924
1.7846259768957469
1.7796861844480403
1.771460074668101
1.756318062157404
1.736157969344988
1.740553934083083
1.7580901858763056
1.7683108673178989
1.7731657101782974
1.775444676217601
1.776860973458469
1.7763290220903414
1.7748942607851121
1.7715463952338948
1.7662852130841005
1.7567186520860403
1.7500214725902714
1.7428453951554892
1.7335809284882708
1.7013778602383411
1.6253143007981774
1.556741279678498
2.626650955480227
2.4720911866712774
2.358030571566267
2.2190420474562083
2.093472583755927
2.004451526561314
1.948854929337981
1.917269355363772
1.8999890726560684
1.8908661050868933
1.8772268910016736
1.8576066384999192
1.837349814963883
1.8183937761398021
1.8032780304866631
1.7916486619366978
1.7844337368362067
1.7812380179860534
1.7816233264257537
1.7830695811796156
1.7827589254882554
1.7746118213770916
1.7510353688935612
1.7526792975145575
1.7687451321405476
1.7710853866306102
1.766482222290127
1.758804657626218
1.7496644780410386
1.7400090630833525
1.7295252001656576
1.717036539107339
1.7030358516137765
1.690464896366951
1.6774963947167314
1.6613559925340984
1.6470657935908601
1.637989058088767
1.6248018272158662
1.5885746728379713
0.1237178755861242
0.8126900235616898
1.28502559758476
1.5411985733882212
1.6635798531698218
1.7185954197127382
1.7415631648839016
1.7473617332500908
1.7497533284366984
1.7480523407297641
1.7449182345528158
1.7420820774926176
1.740689902449277
1.7417753179876616
1.7462856082272218
1.7540469292285688
1.764297650256604
1.7776175698385235
1.7916625031336357
1.786371702897037
1.7729812100088833
1.7701115576512856
1.7739377404893448
1.778242001337797
1.7642136811504725
1.7497210348903427
1.736786054033774
1.7249071999410934
1.7141314307543094
1.7056344165691184
1.699474844560414
1.695414687491877
1.6926212946578931
1.6906843742213498
1.6954177490502773
1.7193801879284853
1.755685437641087
1.6385177211849917
0.2952507237725259
0.9064201946118944
1.2872597987955745
1.482269568828543
1.5820839754797276
1.626337839704939
1.643833579822607
1.649734717090017
1.6530042898875454
1.6575973100177832
1.6635713725464816
1.671677182811496
1.681726477707977
1.6940791559675323
1.7086282824763028
1.7258236833242866
1.745756638898875
1.768436683073607
1.7878062781776125
1.7811113931242943
1.7725029409553994
1.7710681185707002
1.7748942607851121
1.7796767088191685
1.7693208502994455
1.7546644479843887
1.7427327971929263
1.733607806694839
1.7274525511451557
1.7244537428767754
1.7261447501012448
1.7321795226085785
1.741576097992192
1.7497978713014288
1.757210797234566
1.7808808954238455
1.7220451441829545
1.6740492185708955
0.6635198469275374
0.6638801837211704
0.7078389397940054
1.0763564567279513
1.3497114280992686
1.5490356610790577
1.6476056666458119
1.6316841649363636
1.615161016239526
1.6067946807333684
1.6055303199322086
1.609830213340241
1.6189269390010075
1.6318711474213161
1.6476140416096121
1.666308296086589
1.6871002497250447
1.7095609484854024
1.7329145676459308
1.755818936765205
1.7728468183350847
1.7739322060518399
1.7510917476458028
1.7455248998604638
1.7609262610161853
1.763143680914827
1.7593426070499734
1.7531580485396245
1.7465395675919042
1.741323443167699
1.7389183137952957
1.7413213219109096
1.7515678988536192
1.7742518093744855
1.8045412322077263
1.8088439750672456
1.7799728939505475
1.7481653542806288
1.696803377704288
1.6832498953547292
)
;

boundaryField
{
    ".*"
    {
        type            zeroGradient;
    }
}


// ************************************************************************* //
