/*--------------------------------*- C++ -*----------------------------------*=========                 |
  \      /  F ield         | OpenFOAM: The Open Source CFD Toolbox
   \    /   O peration     | Website:  https://openfoam.org
    \  /    A nd           | Version:  6
     \/     M anipulation  |
\*---------------------------------------------------------------------------*/
FoamFile
{
    version     2.0;
    format      ascii;
    class       volScalarField;
    location    "2500";
    object      PPD;
}
// * * * * * * * * * * * * * * * * * * * * * * * * * * * * * * * * * * * * * //

dimensions      [0 0 0 0 0 0 0];

internalField   nonuniform List<scalar> 
458
(
86.01006038474418
79.80423150481973
78.43338156910195
77.41018735831028
76.69649828446694
76.20573577596045
76.0010192223719
76.05033049760198
76.47894408693587
77.47434109931365
79.24199248570893
81.6798328469929
83.87252127928974
84.47689031242727
84.55110330412599
97.5068182676226
97.07506957523987
96.5926830764991
96.21645429567252
96.06724697763464
96.47645402379442
96.92882336843546
97.36442452494843
97.65153307310669
97.6483718963858
97.42464956677574
97.24034635307991
97.28614571593376
97.44887557240656
97.64897609953336
97.84031782260907
98.0069238819288
98.06023998198803
85.98622314025278
80.67613403997038
79.76186197674019
78.84893965280763
78.15356018266687
77.60375438378637
77.24368941451068
76.87926582590468
76.57621781058687
76.64920002897304
77.5838079279438
79.63829859817932
82.39509301525776
83.4870216149499
83.32828735698654
83.30176472540984
84.44118188202745
85.98710512932983
97.60952809873163
97.31132477367328
96.55029574901732
95.45429014159119
95.00241281321668
95.477107658477
96.34623403359674
97.11569294282414
97.59221914501886
97.78180994694422
97.85339174544066
97.92745676422624
98.01921443229097
98.08826534581863
98.1411688981526
98.20272360858159
98.27720353264635
98.29267659177461
87.30882493381415
81.21370318426158
81.1538674892197
80.83900655200198
80.58051510506003
80.28024704651202
79.85500204968439
78.9266592190033
77.25218879650726
75.622404661232
75.49556793798361
77.57054179614804
80.5676452644777
82.67418831329974
83.30090153193589
83.54981775650397
84.15463032611686
84.49542737158444
97.34056379766072
96.61789092852753
94.88549296764678
93.88387092029075
93.58135865047078
94.40386645303433
95.88872316018701
97.26077758865074
97.88197336863747
98.10104130510125
98.2164079860646
98.31753260030715
98.40052855401954
98.4456820684879
98.4040725302184
98.37316567451079
98.4177689886773
98.40143845570424
89.31443137593861
81.88784277882293
82.35326354867333
82.91747328375756
83.56003791165858
83.92044076842662
83.67142858032994
81.84927530919303
78.09337268391043
74.47269687893923
73.4988587504881
75.7853166308547
79.28172127797633
82.15882779733455
83.59838787243095
83.95481234364895
83.96510590240236
83.75691500733636
84.12568359968263
88.63726855523888
89.4517646787525
90.16320808734217
91.05803397093953
92.05924132951266
92.86989272334672
93.36158094027896
93.8269843794357
94.29508128107102
94.77109280197844
95.22925751670124
95.66615653074192
96.08302465517214
96.50648482113984
97.23323765107205
97.73547570249468
98.1014650019543
98.2382136782762
91.45081078405873
82.92590717299018
83.43508395102599
84.56828483598596
86.21381212787522
87.78090922699012
87.54974042427222
84.08472680893524
78.266587638734
73.17089658049838
71.81640143623859
74.43222733115114
78.78273593026722
82.54318327804457
84.70667943158391
85.35613243768464
85.37298637166037
85.20586552270528
85.67517098615106
86.98029526960322
88.13011331483092
89.55898624413484
91.11107806713385
92.5425339045701
93.69838847166531
94.53027805122503
95.20337569731751
95.78388724099283
96.25741050218787
96.64487859025263
96.95937346405118
97.21190811886356
97.41429101413388
97.6228186902423
97.84230633009994
98.07859040091336
98.22988300485781
98.48092793237392
99.09476821679087
100.0
93.32443385477208
84.46431395286764
84.96151276784619
85.96242186582008
87.76495815874999
89.48072383995721
88.17560719894246
83.84830507813865
77.29865989647152
71.49150753817847
70.12755279564317
73.69240809659159
79.34152212785563
84.14861448151214
86.98629686639903
88.04631487287885
88.18481361291873
88.09249542993639
88.53868699854257
89.54536132893212
90.83718514186693
92.20864939933602
93.55810465716958
94.72013666416242
95.62157039845681
96.29780846094721
96.80638026920141
97.18392019076867
97.47368536983518
97.70023516563576
97.87760090631772
98.0040050436109
98.08750275754952
98.14242402461923
98.20380236538698
98.29484732069123
98.36128164843085
98.52428140875124
98.75385600100772
99.00490709160854
94.9093217568228
87.09865972135371
88.10035840535686
87.98576646691753
88.59259179531597
88.97086892870836
87.00527443882373
81.68414371150527
73.97741517484069
68.1371513307365
68.17437809371063
73.95192775086412
81.45092589497878
87.19399348444328
90.3927936268054
91.729892504605
91.83688775694934
91.79390003148617
92.24496388174019
93.15475452560338
94.25359425025843
95.29560588706067
96.18385989583311
96.89697551392318
97.43131696135751
97.79155449518785
98.03156406993519
98.20639526318502
98.33891169406651
98.43965282851089
98.51030928502473
98.55595297566786
98.57567145676114
98.57866589490557
98.58137084528889
98.6088157671614
98.62620650734902
98.74829257728352
98.89887579039586
99.04245236120981
96.58278100662658
93.29941280228726
92.21653781219081
90.87434062881427
90.3998748197785
89.10936039573419
84.52200108251644
75.85104636004297
66.61171926850659
62.64129864492431
66.65349645853635
76.36752453314568
85.72173726376572
91.55726227714892
94.04781925099785
94.76346542139751
94.88862269501699
95.06005948256447
95.51854947266591
96.17446311578847
96.87396896307934
97.4775981690822
97.9432158019084
98.27371962519727
98.49131585445866
98.63452032694266
98.73000120040423
98.7997544671928
98.85138449687555
98.89045578482731
98.91747381696429
98.92816852628032
98.92986806796173
98.92266042574323
98.91878692319368
98.9305542438447
98.95757164884397
99.07845094483811
100.0
100.0
98.23692254137123
97.05507922221055
95.6557326506252
93.97734586554427
92.10269485400309
85.90593579210498
72.73820847486344
58.67774402034776
52.25841768022707
56.234782916791886
68.62506558825979
83.18894277814405
92.11695259359382
95.65907813469842
96.46841006134785
96.68780598790212
96.81510079174812
97.05162904087632
97.43606271319808
97.88247565827095
98.28130261895977
98.59896075564356
98.82319021668881
98.97549042774382
99.07491327898303
100.0
100.0
100.0
100.0
100.0
100.0
100.0
100.0
100.0
100.0
100.0
100.0
100.0
100.0
100.0
16.01616706803452
6.9556288301692035
5.141094555766642
5.24951906765844
7.988091620457084
16.90293784123385
35.0887446971649
60.09560343268777
82.32340491327614
94.01572197426601
96.6821737062344
97.64210920245097
97.97494249969985
98.1326867900396
98.28115878419177
98.47313675090591
98.70386669237182
98.93149846985226
100.0
100.0
100.0
100.0
100.0
100.0
100.0
100.0
100.0
100.0
100.0
100.0
100.0
100.0
100.0
100.0
100.0
100.0
100.0
100.0
8.456346774920249
6.591601981506329
19.627178997531587
39.17010895338378
59.83707885288349
74.94118692490892
85.08653426183777
92.14630272684751
96.12626664054007
97.92645173460541
98.58357399346127
98.85960310698583
99.00615440793794
99.10973785117872
100.0
100.0
100.0
100.0
100.0
100.0
100.0
100.0
100.0
100.0
100.0
100.0
100.0
100.0
100.0
100.0
100.0
100.0
100.0
100.0
100.0
100.0
100.0
100.0
13.100488317367592
13.243046386734846
14.486316666466323
38.56865590480713
65.625473977918
84.66568387324493
93.18784146705161
96.52011621930018
98.00368256730398
98.7628009874058
100.0
100.0
100.0
100.0
100.0
100.0
100.0
100.0
100.0
100.0
100.0
100.0
100.0
100.0
100.0
100.0
100.0
100.0
100.0
100.0
100.0
100.0
100.0
100.0
100.0
100.0
100.0
100.0
100.0
100.0
)
;

boundaryField
{
    ".*"
    {
        type            zeroGradient;
    }
}


// ************************************************************************* //
