/*--------------------------------*- C++ -*----------------------------------*\
  =========                 |
  \\      /  F ield         | OpenFOAM: The Open Source CFD Toolbox
   \\    /   O peration     | Website:  https://openfoam.org
    \\  /    A nd           | Version:  6
     \\/     M anipulation  |
\*---------------------------------------------------------------------------*/
FoamFile
{
    version     2.0;
    format      ascii;
    class       volScalarField;
    location    "1800";
    object      epsilon;
}
// * * * * * * * * * * * * * * * * * * * * * * * * * * * * * * * * * * * * * //

dimensions      [0 2 -3 0 0 0 0];

internalField   nonuniform List<scalar> 
458
(
0.000527935
0.00068812
0.00075885
0.000874067
0.00098929
0.00110999
0.00124672
0.00138849
0.00151789
0.00160746
0.00162376
0.00147193
0.00107876
0.000710991
0.000458699
4.71673e-05
7.64757e-05
0.000115544
0.000134435
0.000132136
0.000113148
9.34113e-05
7.74023e-05
6.48227e-05
5.48685e-05
4.69252e-05
4.05365e-05
3.52654e-05
3.077e-05
2.67629e-05
2.29476e-05
1.99144e-05
1.48879e-05
0.00116321
0.00168433
0.000643666
0.00063156
0.000650217
0.000703094
0.000802008
0.000937106
0.00107778
0.00116965
0.00117032
0.00109522
0.000861429
0.000628797
0.00046124
0.000667115
0.00045022
0.000272071
4.36642e-05
7.86874e-05
0.000100124
0.000105473
0.000105011
0.000110337
9.0207e-05
7.15758e-05
5.70466e-05
4.58895e-05
3.73368e-05
3.07777e-05
2.56372e-05
2.16591e-05
1.93121e-05
1.84931e-05
3.73832e-05
2.73824e-05
0.00195391
0.0036464
0.000669211
0.000563948
0.000572649
0.000631213
0.00073709
0.000880411
0.00102375
0.00110964
0.00111614
0.00107132
0.000908386
0.000661065
0.000480113
0.000403124
0.000336159
0.00032919
0.000127453
0.000132343
0.000125605
0.000117604
0.000114748
0.000243552
0.000169068
0.000119373
8.68365e-05
6.52446e-05
5.05775e-05
4.04804e-05
3.34656e-05
2.88161e-05
2.2716e-05
1.9952e-05
6.43574e-05
4.01451e-05
0.00295374
0.00708852
0.000833532
0.00052587
0.00052347
0.000586472
0.000705657
0.000878545
0.00104313
0.00113251
0.00114408
0.00110005
0.000922563
0.000633345
0.000440522
0.000333609
0.000276041
0.000280869
0.000371985
0.000292802
0.000212821
0.000169922
0.000143979
0.000132515
0.000324119
0.000255337
0.000215761
0.000189859
0.000169367
0.000149658
0.00013203
0.000114455
9.54052e-05
5.85669e-05
3.72411e-05
9.64605e-05
5.70229e-05
0.00423545
0.0125702
0.00133516
0.00050789
0.000472996
0.000546004
0.000704906
0.000961966
0.00117322
0.00126848
0.00126925
0.00119942
0.000958648
0.000605632
0.000385862
0.000285522
0.000238874
0.000241849
0.000288831
0.000251446
0.00021523
0.000187447
0.000160931
0.000135848
0.000127199
0.000120334
0.000117642
0.00011511
0.000110303
0.000102349
9.28235e-05
8.2865e-05
7.30569e-05
5.90719e-05
4.51762e-05
6.84528e-05
9.08576e-05
0.000104126
0.000128011
0.000126806
0.00595559
0.0192863
0.00286112
0.000633295
0.000445564
0.000491814
0.000729528
0.00115837
0.00141996
0.00150763
0.00147352
0.00135055
0.00102261
0.000581942
0.000316603
0.000222409
0.000202949
0.000220904
0.000244599
0.000244652
0.00023065
0.000204367
0.00017164
0.000140576
0.000122591
0.000119867
0.00012386
0.00012722
0.000126643
0.000120328
0.000107273
9.2149e-05
7.77685e-05
6.44381e-05
5.41134e-05
5.74856e-05
7.00201e-05
0.000112074
0.00043484
0.000267602
0.0082629
0.0235596
0.00679565
0.00205929
0.000914388
0.000643224
0.00102501
0.00156905
0.00182002
0.00185299
0.00174273
0.00154042
0.00110885
0.000555236
0.000246874
0.000164001
0.000172731
0.000206514
0.000236856
0.000244075
0.000227718
0.000196507
0.000162601
0.00013635
0.000126147
0.000131512
0.000143115
0.000154557
0.000163273
0.00016683
0.000161353
0.000143771
0.00012587
0.000110831
0.000103047
0.000108568
0.000132962
0.000208574
0.000827612
0.000523397
0.00906594
0.028226
0.0151791
0.00826968
0.00422661
0.00248847
0.00230194
0.00243515
0.00246504
0.00232142
0.00206154
0.00174686
0.00117394
0.000483352
0.000193089
0.000144577
0.000161092
0.000193089
0.000216061
0.000213767
0.000191515
0.000162985
0.000140505
0.000130182
0.000133067
0.00014603
0.000164589
0.000186498
0.000211337
0.000239029
0.000268806
0.000294632
0.000309802
0.000342786
0.000411976
0.000586717
0.000984233
0.00157833
0.0053158
0.00125732
0.00880175
0.0161864
0.0143155
0.0110089
0.00791381
0.0058258
0.00455477
0.00384691
0.00336756
0.00285638
0.0023485
0.00189944
0.00111842
0.000345522
0.000163289
0.000139094
0.000149605
0.000163789
0.000167707
0.000158282
0.000141341
0.000126269
0.000119335
0.000121884
0.000132627
0.000149806
0.000172468
0.000201021
0.00023707
0.000283258
0.000343215
0.000421272
0.000523847
0.000668091
0.000880876
0.00117057
0.00151033
0.00183407
0.00212584
0.00110774
0.00602143
0.00689271
0.00665542
0.00596488
0.0053969
0.00492758
0.00411437
0.00314349
0.00235708
0.00182533
0.000723573
0.00024621
0.000149189
0.000131197
0.000129984
0.000129788
0.000125359
0.000117451
0.000109207
0.000104872
0.000106124
0.000112553
0.000123305
0.000137884
0.00015632
0.000179245
0.000207996
0.000244872
0.000293609
0.000360374
0.000452307
0.000575843
0.000735354
0.000915826
0.00106586
0.0011088
0.00101376
0.000549164
0.00374477
0.0238272
0.0151443
0.0114953
0.00955518
0.00642792
0.00386775
0.00223572
0.0010214
0.00044121
0.000220383
0.000157432
0.000138438
0.000131932
0.000127552
0.000121769
0.0001142
0.000106585
0.000100931
9.87502e-05
0.000100328
0.000105378
0.00011377
0.000125725
0.00014185
0.000163172
0.000191224
0.000228241
0.00027747
0.000343234
0.000430846
0.00054636
0.00069172
0.000853348
0.000997283
0.00111721
0.000727395
0.000564778
0.00803923
0.00802103
0.00818146
0.012996
0.00967473
0.00735307
0.004303
0.00190723
0.000537036
0.000290553
0.000218531
0.000188577
0.000168034
0.000147765
0.000133614
0.000122919
0.000113408
0.000104649
9.77785e-05
9.44405e-05
9.55633e-05
0.000100133
0.000107579
0.000117607
0.000130164
0.000145414
0.000163719
0.000185673
0.000212232
0.000245009
0.00028692
0.000338367
0.000401398
0.000478419
0.000572077
0.000686767
0.000787137
0.000743434
0.000576234
0.00044558
)
;

boundaryField
{
    floor
    {
        Cmu             0.09;
        kappa           0.41;
        E               9.8;
        type            epsilonWallFunction;
        value           nonuniform List<scalar> 
36
(
0.000458699
4.71673e-05
7.64757e-05
0.000115544
0.000134435
0.000132136
0.000113148
9.34113e-05
7.74023e-05
6.48227e-05
5.48685e-05
4.69252e-05
4.05365e-05
3.52654e-05
3.077e-05
2.67629e-05
2.29476e-05
1.99144e-05
1.48879e-05
1.48879e-05
2.73824e-05
4.01451e-05
5.70229e-05
0.000104126
0.000128011
0.000126806
0.000458699
0.000667115
0.00045022
0.000272071
4.71673e-05
0.000272071
4.36642e-05
0.00032919
0.000127453
0.000371985
)
;
    }
    ceiling
    {
        Cmu             0.09;
        kappa           0.41;
        E               9.8;
        type            epsilonWallFunction;
        value           nonuniform List<scalar> 
43
(
0.00803923
0.00802103
0.00818146
0.012996
0.00967473
0.00735307
0.004303
0.00190723
0.000537036
0.000290553
0.000218531
0.000188577
0.000168034
0.000147765
0.000133614
0.000122919
0.000113408
0.000104649
9.77785e-05
9.44405e-05
9.55633e-05
0.000100133
0.000107579
0.000117607
0.000130164
0.000145414
0.000163719
0.000185673
0.000212232
0.000245009
0.00028692
0.000338367
0.000401398
0.000478419
0.000572077
0.000686767
0.000787137
0.000743434
0.000576234
0.00044558
0.00880175
0.0161864
0.00374477
)
;
    }
    sWall
    {
        Cmu             0.09;
        kappa           0.41;
        E               9.8;
        type            epsilonWallFunction;
        value           uniform 0.00803923;
    }
    nWall
    {
        Cmu             0.09;
        kappa           0.41;
        E               9.8;
        type            epsilonWallFunction;
        value           nonuniform List<scalar> 6(0.000126806 0.000267602 0.000523397 0.000549164 0.000564778 0.00044558);
    }
    sideWalls
    {
        type            empty;
    }
    glass1
    {
        Cmu             0.09;
        kappa           0.41;
        E               9.8;
        type            epsilonWallFunction;
        value           nonuniform List<scalar> 9(0.000527935 0.00116321 0.00195391 0.00295374 0.00423545 0.00595559 0.0082629 0.00906594 0.00880175);
    }
    glass2
    {
        Cmu             0.09;
        kappa           0.41;
        E               9.8;
        type            epsilonWallFunction;
        value           nonuniform List<scalar> 2(0.00125732 0.00110774);
    }
    sun
    {
        Cmu             0.09;
        kappa           0.41;
        E               9.8;
        type            epsilonWallFunction;
        value           nonuniform List<scalar> 
14
(
0.000527935
0.00068812
0.00075885
0.000874067
0.00098929
0.00110999
0.00124672
0.00138849
0.00151789
0.00160746
0.00162376
0.00147193
0.00107876
0.000710991
)
;
    }
    Table_master
    {
        Cmu             0.09;
        kappa           0.41;
        E               9.8;
        type            epsilonWallFunction;
        value           nonuniform List<scalar> 9(0.000243552 0.000169068 0.000119373 8.68365e-05 6.52446e-05 5.05775e-05 4.04804e-05 3.34656e-05 2.88161e-05);
    }
    Table_slave
    {
        Cmu             0.09;
        kappa           0.41;
        E               9.8;
        type            epsilonWallFunction;
        value           nonuniform List<scalar> 9(0.000324119 0.000255337 0.000215761 0.000189859 0.000169367 0.000149658 0.00013203 0.000114455 9.54052e-05);
    }
    inlet
    {
        type            turbulentMixingLengthDissipationRateInlet;
        mixingLength    0.01;
        phi             phi;
        k               k;
        value           uniform 0.00377336;
    }
    outlet
    {
        type            zeroGradient;
    }
}


// ************************************************************************* //
