/*--------------------------------*- C++ -*----------------------------------*\
  =========                 |
  \\      /  F ield         | OpenFOAM: The Open Source CFD Toolbox
   \\    /   O peration     | Website:  https://openfoam.org
    \\  /    A nd           | Version:  6
     \\/     M anipulation  |
\*---------------------------------------------------------------------------*/
FoamFile
{
    version     2.0;
    format      ascii;
    class       volScalarField;
    location    "700";
    object      nut;
}
// * * * * * * * * * * * * * * * * * * * * * * * * * * * * * * * * * * * * * //

dimensions      [0 2 -1 0 0 0 0];

internalField   nonuniform List<scalar> 
458
(
0.000687708
0.000707142
0.000675873
0.000702575
0.000728001
0.000750815
0.000771388
0.000790351
0.000808458
0.000826667
0.00084421
0.000858913
0.000870811
0.000881147
0.000889659
0.000537909
0.000716328
0.000773104
0.000779614
0.000753973
0.000702111
0.000652805
0.000608906
0.000567531
0.000527874
0.000489821
0.00045351
0.000419112
0.000386643
0.000355818
0.000326162
0.000314881
0.000292748
0.00113602
0.00172998
0.00129184
0.0015615
0.00165556
0.00175851
0.00186491
0.00196756
0.0020563
0.002117
0.00214603
0.00212258
0.00201336
0.00176828
0.00135566
0.000948168
0.000922823
0.000684678
0.000659736
0.00238807
0.00284928
0.00267962
0.00216125
0.00169045
0.00155319
0.00142133
0.00127751
0.00113156
0.000995123
0.000872451
0.000763544
0.00066825
0.000597436
0.00054577
0.000734789
0.000419368
0.00153999
0.00280709
0.0013842
0.00225273
0.00243467
0.002562
0.00267618
0.00277622
0.00285962
0.00292097
0.00295866
0.00294904
0.00286375
0.0026707
0.0023583
0.00196426
0.00149382
0.00100025
0.000965628
0.00322742
0.00313252
0.00254887
0.00166613
0.000695074
0.000564864
0.000505372
0.000468309
0.000438002
0.000411251
0.000387937
0.000368476
0.000354466
0.000433607
0.000492508
0.000893322
0.000508867
0.00194293
0.004364
0.00147788
0.00259063
0.00298502
0.00313286
0.00324343
0.00333353
0.00340675
0.00346248
0.00349768
0.00351125
0.00348137
0.00337828
0.00315582
0.00276274
0.00218741
0.00154372
0.00109618
0.00231102
0.00291281
0.00253945
0.00197138
0.00134875
0.000786761
0.000760761
0.000751928
0.000753508
0.000756727
0.000755013
0.000742156
0.000713305
0.00068295
0.000670644
0.000651782
0.00102234
0.000610367
0.00233868
0.00629666
0.00201755
0.00250367
0.00328752
0.00349116
0.00360296
0.00368443
0.00374699
0.00379577
0.00382936
0.00386272
0.00389946
0.00392754
0.00392126
0.00385423
0.00371361
0.00349015
0.00316717
0.00286454
0.0025479
0.00225485
0.00211852
0.00220578
0.0024785
0.00271829
0.00282107
0.00287409
0.0029054
0.00289736
0.00283131
0.00268063
0.00229393
0.00184122
0.00143303
0.00118887
0.00102526
0.000741429
0.000744989
0.000735582
0.00273108
0.00828681
0.00362092
0.00231307
0.00311361
0.00355103
0.00376094
0.0038819
0.00394661
0.00396712
0.00395994
0.00396568
0.00400781
0.00406791
0.00411963
0.00413154
0.00405784
0.00382592
0.00340126
0.00288167
0.00242159
0.00212079
0.00197586
0.00204775
0.00237281
0.00271631
0.00291419
0.00304328
0.00313608
0.00319434
0.00321011
0.00317279
0.00299252
0.00263454
0.00217924
0.00167968
0.00133507
0.00131444
0.00179674
0.000924621
0.00311194
0.00993747
0.00671485
0.00368071
0.00262499
0.00275317
0.00325728
0.00369525
0.0039776
0.00409532
0.00399082
0.00394066
0.00395249
0.00399421
0.00404318
0.00407542
0.00404837
0.00388673
0.00354135
0.00306806
0.00260053
0.00221738
0.00190384
0.00181406
0.00209456
0.00250902
0.00273198
0.00287686
0.00299898
0.00310266
0.00318976
0.00326551
0.0033104
0.00312804
0.00276222
0.00231793
0.00193217
0.00177409
0.00211326
0.00114944
0.00320237
0.00995577
0.00829366
0.00683805
0.00507329
0.00375553
0.00320984
0.00329853
0.00364886
0.0039754
0.00391437
0.00383336
0.00379726
0.00379529
0.00380678
0.00381231
0.00378828
0.00369234
0.00348448
0.00317751
0.00284314
0.00248642
0.00198645
0.00165236
0.0018614
0.00237339
0.00265205
0.00278399
0.0028776
0.00297048
0.0030823
0.00323533
0.00345577
0.00370322
0.00346842
0.00328811
0.00329399
0.00332278
0.00399992
0.0015304
0.0031263
0.00375931
0.00403951
0.00433666
0.00437954
0.00410197
0.00373531
0.00347355
0.00336877
0.00337042
0.00339598
0.00342582
0.00345177
0.00346645
0.00346284
0.00343513
0.00337786
0.00328236
0.00314408
0.00298855
0.0028766
0.00276389
0.0022108
0.00154747
0.00162896
0.00223746
0.00262114
0.00274261
0.00276938
0.00277419
0.00277697
0.00278174
0.00278073
0.00275745
0.00271352
0.00266673
0.00258489
0.00243447
0.00227155
0.00148201
0.00121554
0.00226512
0.00310486
0.00350245
0.0035672
0.00349493
0.00340301
0.00332826
0.00327198
0.00323339
0.00319657
0.00314856
0.00308171
0.00299388
0.00288745
0.00276796
0.00264709
0.00255888
0.00258066
0.00272149
0.00249463
0.00146281
0.00136099
0.00198386
0.0025086
0.00268134
0.00268607
0.00264775
0.00259959
0.00255655
0.00253318
0.0025333
0.00251154
0.00244002
0.00228152
0.00202043
0.00170323
0.00118535
0.00213104
0.00339301
0.00387738
0.0040168
0.00392992
0.00378788
0.00361574
0.00344679
0.00328849
0.00311212
0.00291378
0.00270969
0.00250978
0.00232036
0.0021462
0.00199266
0.00186904
0.00179886
0.001839
0.00200954
0.00194688
0.00128781
0.00106705
0.00153132
0.0019571
0.00213381
0.00222644
0.00231235
0.00240626
0.00249453
0.00256657
0.0026419
0.00269236
0.00268368
0.00260838
0.00249359
0.00201273
0.00119529
0.00216103
0.00221004
0.00225976
0.00242546
0.00236845
0.0022768
0.00204974
0.00190917
0.00178487
0.00167286
0.00156987
0.00147761
0.00139423
0.00131557
0.00123936
0.00116449
0.00109075
0.00101873
0.000949762
0.000886107
0.000831374
0.000789256
0.000754616
0.000720523
0.000714517
0.00078851
0.000824716
0.000857973
0.000893498
0.000933246
0.000978643
0.00103224
0.00109626
0.00116578
0.00123886
0.00131136
0.00138118
0.00135717
0.00124525
0.00114521
)
;

boundaryField
{
    floor
    {
        type            nutkWallFunction;
        Cmu             0.09;
        kappa           0.41;
        E               9.8;
        value           nonuniform List<scalar> 
36
(
0.000107647
6.45225e-05
8.67202e-05
9.36344e-05
9.44281e-05
9.13192e-05
8.4987e-05
7.89129e-05
7.34584e-05
6.82737e-05
6.32612e-05
5.84081e-05
5.37339e-05
4.9263e-05
4.50005e-05
4.09122e-05
3.6936e-05
3.54136e-05
3.24023e-05
3.24022e-05
4.9311e-05
6.08542e-05
7.36382e-05
8.97831e-05
9.02208e-05
8.90772e-05
0.000107647
0.0001146
0.0001116
8.28389e-05
6.45224e-05
8.28389e-05
7.97932e-05
0.000120755
0.000116658
0.000131982
)
;
    }
    ceiling
    {
        type            nutkWallFunction;
        Cmu             0.09;
        kappa           0.41;
        E               9.8;
        value           nonuniform List<scalar> 
43
(
0.000250832
0.000256118
0.000261469
0.000279247
0.000273172
0.000263353
0.000238827
0.000223495
0.000209835
0.000197438
0.000185959
0.000175606
0.000166189
0.000157246
0.000148524
0.000139898
0.000131341
0.000122918
0.000114789
0.000107226
0.000100674
9.55974e-05
9.13953e-05
8.7239e-05
8.65352e-05
9.55221e-05
9.98837e-05
0.000103873
0.000108116
0.00011284
0.000118208
0.000124508
0.000131984
0.000140047
0.000148465
0.000156761
0.000164702
0.000161976
0.000149197
0.000137665
0.000353245
0.000418448
0.000247543
)
;
    }
    sWall
    {
        type            nutkWallFunction;
        Cmu             0.09;
        kappa           0.41;
        E               9.8;
        value           uniform 0.000250895;
    }
    nWall
    {
        type            nutkWallFunction;
        Cmu             0.09;
        kappa           0.41;
        E               9.8;
        value           nonuniform List<scalar> 6(8.9076e-05 0.000111812 0.00013816 0.000142317 0.000143464 0.000137675);
    }
    sideWalls
    {
        type            empty;
    }
    glass1
    {
        type            nutkWallFunction;
        Cmu             0.09;
        kappa           0.41;
        E               9.8;
        value           nonuniform List<scalar> 9(8.31709e-05 0.000136728 0.00018286 0.000227535 0.000270439 0.00031222 0.000352175 0.000361596 0.0003537);
    }
    glass2
    {
        type            nutkWallFunction;
        Cmu             0.09;
        kappa           0.41;
        E               9.8;
        value           nonuniform List<scalar> 2(0.000181624 0.000176184);
    }
    sun
    {
        type            nutkWallFunction;
        Cmu             0.09;
        kappa           0.41;
        E               9.8;
        value           nonuniform List<scalar> 
14
(
8.32149e-05
8.56005e-05
8.17596e-05
8.50402e-05
8.81502e-05
9.09297e-05
9.34274e-05
9.57229e-05
9.79087e-05
0.000100101
0.000102208
0.000103971
0.000105394
0.00010663
)
;
    }
    Table_master
    {
        type            nutkWallFunction;
        Cmu             0.09;
        kappa           0.41;
        E               9.8;
        value           nonuniform List<scalar> 9(8.41506e-05 6.79801e-05 6.04328e-05 5.56749e-05 5.17517e-05 4.82623e-05 4.51987e-05 4.26238e-05 4.07594e-05);
    }
    Table_slave
    {
        type            nutkWallFunction;
        Cmu             0.09;
        kappa           0.41;
        E               9.8;
        value           nonuniform List<scalar> 9(9.52955e-05 9.21337e-05 9.10629e-05 9.1256e-05 9.16473e-05 9.14383e-05 8.9873e-05 8.63514e-05 8.26279e-05);
    }
    inlet
    {
        type            calculated;
        value           uniform 0.000268328;
    }
    outlet
    {
        type            calculated;
        value           nonuniform List<scalar> 2(0.00216103 0.00221004);
    }
}


// ************************************************************************* //
