/*--------------------------------*- C++ -*----------------------------------*\
  =========                 |
  \\      /  F ield         | OpenFOAM: The Open Source CFD Toolbox
   \\    /   O peration     | Website:  https://openfoam.org
    \\  /    A nd           | Version:  6
     \\/     M anipulation  |
\*---------------------------------------------------------------------------*/
FoamFile
{
    version     2.0;
    format      ascii;
    class       volScalarField;
    location    "3000";
    object      nut;
}
// * * * * * * * * * * * * * * * * * * * * * * * * * * * * * * * * * * * * * //

dimensions      [0 2 -1 0 0 0 0];

internalField   nonuniform List<scalar> 
458
(
0.00106868
0.00116589
0.00118002
0.00123539
0.00128689
0.00133461
0.00138053
0.00142753
0.00146203
0.00147957
0.00147605
0.00144884
0.00139847
0.00133058
0.00125452
0.000462756
0.000579708
0.000651566
0.000649165
0.000632236
0.000598775
0.000562164
0.000528249
0.000497858
0.000470693
0.000446609
0.000425002
0.000405297
0.000386847
0.00036879
0.000349729
0.000333765
0.000301643
0.00147863
0.00367962
0.00354096
0.00413649
0.00470235
0.00526543
0.00577079
0.00613614
0.00645719
0.00671174
0.00686271
0.00686119
0.0066277
0.00596485
0.0042675
0.00133095
0.00104268
0.00074223
0.000515194
0.00108943
0.00152945
0.00185246
0.00195797
0.00154832
0.00135252
0.00121407
0.00110728
0.00102193
0.000946906
0.000878654
0.000813791
0.000749611
0.000693393
0.000646909
0.000743815
0.000383169
0.00181996
0.0050701
0.00442695
0.0056869
0.00631806
0.00678065
0.00713444
0.00738998
0.00763916
0.00788281
0.00809334
0.00822553
0.00822787
0.00804061
0.00754149
0.00644918
0.00512852
0.00106796
0.0010365
0.0015274
0.00200459
0.00241676
0.00248574
0.00082468
0.000728179
0.000649757
0.000586695
0.000535768
0.000494362
0.000460461
0.000432777
0.000411026
0.000453201
0.000529127
0.000828695
0.000437942
0.00214706
0.00653441
0.00450958
0.00611017
0.00678201
0.00704735
0.00719676
0.0073077
0.00748455
0.00771909
0.00798539
0.00822925
0.00839593
0.00844756
0.00835104
0.00800071
0.00722859
0.00530558
0.00139513
0.00183878
0.00248272
0.00306856
0.00346961
0.0033317
0.000895064
0.000816396
0.000767285
0.000734609
0.000709288
0.000684262
0.000656801
0.000628161
0.000594141
0.00056493
0.000565607
0.000898187
0.000490569
0.00247875
0.00837972
0.00510769
0.00592283
0.00679726
0.00699629
0.00699074
0.00700064
0.00714733
0.00737923
0.0076871
0.00800115
0.00824523
0.00836093
0.00831752
0.0081031
0.00768147
0.0069249
0.00561129
0.00522109
0.00510905
0.00506194
0.00498552
0.00474472
0.00393917
0.00360554
0.00345383
0.00335828
0.00325944
0.0031215
0.00287541
0.00249744
0.00202923
0.00154405
0.00115978
0.00102679
0.000784775
0.0005868
0.000613662
0.000623194
0.00282651
0.0103591
0.00712065
0.00608398
0.00659706
0.00692002
0.00686589
0.00688714
0.00699698
0.00720446
0.00751167
0.00786118
0.0081507
0.00828295
0.00820675
0.00793878
0.00755946
0.00716887
0.00678163
0.0065321
0.00630374
0.00603761
0.00572965
0.00537217
0.00495919
0.00467177
0.0044774
0.00432141
0.00417163
0.00400977
0.00381545
0.0035036
0.00305725
0.0024983
0.00194731
0.00148076
0.00112954
0.00111484
0.00155759
0.000825792
0.00313215
0.0117029
0.00983536
0.00794479
0.00752051
0.00741224
0.00720351
0.007041
0.00702686
0.00720027
0.00753342
0.00792869
0.00824778
0.00836626
0.00822726
0.00787173
0.0074473
0.00714405
0.00699861
0.00686505
0.00659347
0.00617979
0.0056881
0.0051898
0.00476862
0.0044902
0.00431042
0.00417424
0.00405477
0.00394251
0.0038376
0.00373295
0.00347446
0.00305252
0.00256767
0.0020968
0.00171129
0.00157408
0.0018676
0.00102719
0.00318203
0.0102586
0.00932601
0.00887135
0.00837498
0.00776336
0.00723389
0.00696524
0.00700696
0.00732004
0.00779358
0.00826882
0.00857902
0.00860448
0.0083268
0.00783978
0.00735351
0.0070804
0.00695771
0.00669665
0.006193
0.00555991
0.00492817
0.00440944
0.00406014
0.00385698
0.0037357
0.00365349
0.00359533
0.00356141
0.00356022
0.00360345
0.0036598
0.00341539
0.00314469
0.00295333
0.00292725
0.00294303
0.00350864
0.00139731
0.00308716
0.00362986
0.0040349
0.00415312
0.00435943
0.00470841
0.0052711
0.00604106
0.00694237
0.0078405
0.00858634
0.00904791
0.00913217
0.00882098
0.00823164
0.0075679
0.00712525
0.00679184
0.00639082
0.00580514
0.00508964
0.00439451
0.00384414
0.00347816
0.00326195
0.00313611
0.00305406
0.00299143
0.00293708
0.00288402
0.00282445
0.00274803
0.00264505
0.00254675
0.00246023
0.00239881
0.00232676
0.00221017
0.00208169
0.00136118
0.00152538
0.00447021
0.00669292
0.00831363
0.00945853
0.0102164
0.0105937
0.0106291
0.0103867
0.00991606
0.00923964
0.00838889
0.00747974
0.00672447
0.00617213
0.00560967
0.00495147
0.00425494
0.00363113
0.00316606
0.0028603
0.00267123
0.00255256
0.00247195
0.00241147
0.00236257
0.00232159
0.0022876
0.00226178
0.00224733
0.00225351
0.00225417
0.00224259
0.00220193
0.00209811
0.00190874
0.00166468
0.00110971
0.0020773
0.00686331
0.00899519
0.00965461
0.0099952
0.0100541
0.00980972
0.00931521
0.00864984
0.00788226
0.00707739
0.00630313
0.00560215
0.00499046
0.0044138
0.00386009
0.0033891
0.00303128
0.00276689
0.00256023
0.00239851
0.00227759
0.0021866
0.00211973
0.00207453
0.00204983
0.00204448
0.00205641
0.00208142
0.00211583
0.00216774
0.00222818
0.00228139
0.00230004
0.00227103
0.00220168
0.00210889
0.00112645
0.00177899
0.0019225
0.00202504
0.00219905
0.00218178
0.00215308
0.00211012
0.00203032
0.0019128
0.00176564
0.00159802
0.00141947
0.0012419
0.00108056
0.000950118
0.000853549
0.000784778
0.00073579
0.000700603
0.000675949
0.000660349
0.000653613
0.000654435
0.000660526
0.000671616
0.000687553
0.000708212
0.00073352
0.000763554
0.000798717
0.000840038
0.000888684
0.000941594
0.000999
0.00106082
0.00112473
0.00118607
0.00116479
0.00107232
0.000989055
)
;

boundaryField
{
    floor
    {
        type            nutkWallFunction;
        Cmu             0.09;
        kappa           0.41;
        E               9.8;
        value           nonuniform List<scalar> 
36
(
0.000150277
5.49252e-05
6.98027e-05
7.87585e-05
7.8462e-05
7.6363e-05
7.2193e-05
6.75978e-05
6.33082e-05
5.94356e-05
5.5949e-05
5.28369e-05
5.00269e-05
4.74484e-05
4.50198e-05
4.26284e-05
4.00877e-05
3.79461e-05
3.35953e-05
3.35952e-05
4.4533e-05
5.17106e-05
5.85008e-05
7.06919e-05
7.40495e-05
7.52361e-05
0.000150277
0.000159017
0.000125734
8.98915e-05
5.49251e-05
8.98915e-05
6.16457e-05
0.000128689
0.00012501
0.000166308
)
;
    }
    ceiling
    {
        type            nutkWallFunction;
        Cmu             0.09;
        kappa           0.41;
        E               9.8;
        value           nonuniform List<scalar> 
43
(
0.00020908
0.000224829
0.000236007
0.000254943
0.000253112
0.00025003
0.000245392
0.000236736
0.000223916
0.000207736
0.000189125
0.000169062
0.000148827
0.000130161
0.000114838
0.000103338
9.50566e-05
8.9105e-05
8.4801e-05
8.17696e-05
7.98445e-05
7.90111e-05
7.91125e-05
7.98652e-05
8.12338e-05
8.3196e-05
8.57317e-05
8.88259e-05
9.24817e-05
9.67404e-05
0.000101717
0.000107539
0.00011383
0.000120609
0.000127861
0.000135306
0.000142407
0.000139949
0.000129204
0.000119439
0.000349232
0.000405282
0.000241497
)
;
    }
    sWall
    {
        type            nutkWallFunction;
        Cmu             0.09;
        kappa           0.41;
        E               9.8;
        value           uniform 0.000209138;
    }
    nWall
    {
        type            nutkWallFunction;
        Cmu             0.09;
        kappa           0.41;
        E               9.8;
        value           nonuniform List<scalar> 6(7.52319e-05 0.000100007 0.000123928 0.00013357 0.000135515 0.000119445);
    }
    sideWalls
    {
        type            empty;
    }
    glass1
    {
        type            nutkWallFunction;
        Cmu             0.09;
        kappa           0.41;
        E               9.8;
        value           nonuniform List<scalar> 9(0.000128879 0.000175964 0.000214037 0.000249794 0.00028546 0.000322316 0.000354319 0.00035952 0.000349656);
    }
    glass2
    {
        type            nutkWallFunction;
        Cmu             0.09;
        kappa           0.41;
        E               9.8;
        value           nonuniform List<scalar> 2(0.000166622 0.000162519);
    }
    sun
    {
        type            nutkWallFunction;
        Cmu             0.09;
        kappa           0.41;
        E               9.8;
        value           nonuniform List<scalar> 
14
(
0.000128783
0.000140076
0.000141709
0.000148087
0.000153991
0.000159437
0.000164657
0.000169981
0.000173876
0.000175851
0.000175454
0.000172385
0.000166688
0.000158973
)
;
    }
    Table_master
    {
        type            nutkWallFunction;
        Cmu             0.09;
        kappa           0.41;
        E               9.8;
        value           nonuniform List<scalar> 9(9.98739e-05 8.81775e-05 7.85367e-05 7.06827e-05 6.42652e-05 5.89922e-05 5.46342e-05 5.10458e-05 4.82062e-05);
    }
    Table_slave
    {
        type            nutkWallFunction;
        Cmu             0.09;
        kappa           0.41;
        E               9.8;
        value           nonuniform List<scalar> 9(0.000108304 9.88772e-05 9.29385e-05 8.89624e-05 8.58667e-05 8.27943e-05 7.94073e-05 7.58569e-05 7.1614e-05);
    }
    inlet
    {
        type            calculated;
        value           uniform 0.000100623;
    }
    outlet
    {
        type            calculated;
        value           nonuniform List<scalar> 2(0.00177899 0.0019225);
    }
}


// ************************************************************************* //
