/*--------------------------------*- C++ -*----------------------------------*\
  =========                 |
  \\      /  F ield         | OpenFOAM: The Open Source CFD Toolbox
   \\    /   O peration     | Website:  https://openfoam.org
    \\  /    A nd           | Version:  6
     \\/     M anipulation  |
\*---------------------------------------------------------------------------*/
FoamFile
{
    version     2.0;
    format      ascii;
    class       surfaceScalarField;
    location    "2200";
    object      phi;
}
// * * * * * * * * * * * * * * * * * * * * * * * * * * * * * * * * * * * * * //

dimensions      [1 0 -1 0 0 0 0];

internalField   nonuniform List<scalar> 
850
(
-0.00263912
0.00268185
-0.00345304
0.000814105
-0.00374522
0.000292352
-0.00388639
0.000141354
-0.00389966
1.34559e-05
-0.00379955
-9.99176e-05
-0.003619
-0.000180368
-0.00339694
-0.000221864
-0.00315828
-0.000238465
-0.00290465
-0.000253435
-0.002619
-0.000285454
-0.00227592
-0.000342878
-0.00183363
-0.000442088
-0.00117626
-0.000657158
-0.00117734
0.000195496
-0.000195703
0.000314087
-0.000118414
0.000406409
-9.2137e-05
0.000482918
-7.63199e-05
0.000549594
-6.6488e-05
0.000612144
-6.23646e-05
0.000661117
-4.8798e-05
0.000693181
-3.19018e-05
0.000707278
-1.39573e-05
0.000701501
5.87959e-06
0.000676177
2.5399e-05
0.000633983
4.22557e-05
0.000577493
5.65472e-05
0.000508072
6.94748e-05
0.000406051
0.000102068
0.000240673
0.000165419
-3.22425e-05
0.000272965
-3.31465e-05
-0.0019481
0.00474187
-0.00260834
0.00147453
-0.0028232
0.000507402
-0.00309045
0.000408783
-0.00331286
0.000236053
-0.00337909
-3.3494e-05
-0.00330049
-0.000258777
-0.00315611
-0.000366058
-0.0029973
-0.000397083
-0.00283805
-0.000412493
-0.00266688
-0.000456423
-0.00246565
-0.000543905
-0.00221479
-0.000692738
-0.00195208
-0.000919666
-0.0019968
-0.0011324
-0.000966593
-0.00103246
0.000112346
-0.00108123
0.000105849
-5.79389e-05
-0.000139536
-0.000148784
-2.73743e-05
-0.000228182
-1.25461e-05
-0.000276714
-2.76119e-05
-0.00031042
-3.26323e-05
-0.000337336
-3.5322e-05
-0.000363223
-2.28088e-05
-0.00039209
-2.95814e-06
-0.000417151
1.11627e-05
-0.000431886
2.06668e-05
-0.000438501
3.20481e-05
-0.000441186
4.49611e-05
-0.000440291
5.56668e-05
-0.000430479
5.968e-05
-0.000365465
3.70787e-05
-0.000236927
3.69152e-05
-1.96079e-05
5.56945e-05
-5.65075e-05
-0.000430901
0.00534519
-0.000502398
0.00154622
-0.000455551
0.000460762
-0.000954597
0.000908031
-0.00168598
0.000967632
-0.00228736
0.000568073
-0.00255977
1.38196e-05
-0.00258973
-0.000335913
-0.00256368
-0.000422937
-0.00251813
-0.000457861
-0.00245585
-0.000518509
-0.00237572
-0.000623838
-0.00228361
-0.000784646
-0.00221056
-0.000992513
-0.00215861
-0.00118414
-0.00188615
-0.00130471
-0.00157619
-0.00139098
-0.00147603
-0.000985069
0.000841042
-0.00125412
0.000241848
-0.0013419
7.53792e-05
-0.00136821
-1.17265e-06
-0.00133908
-6.16494e-05
-0.00137417
-0.00139676
-0.0013995
-0.00138812
-0.00136723
-0.00133497
-0.0012898
-0.00123392
-0.00117401
-0.00100721
-0.000129624
-0.000708729
-0.000261472
-8.12239e-05
-0.000571699
-0.000145929
0.0060165
-0.000455027
0.0071342
0.000428823
0.00600505
0.00159019
0.0043701
0.00254324
0.00259938
0.00273859
0.000869922
0.00229774
-0.000605922
0.00148986
-0.00153486
0.000593207
-0.0018798
-7.78202e-05
-0.00201074
-0.000326739
-0.00207705
-0.000452009
-0.00212383
-0.000576877
-0.00218373
-0.000724553
-0.00228931
-0.000886737
-0.00244659
-0.00102666
-0.002635
-0.00111609
-0.00288798
-0.00113779
-0.00341637
-0.000947422
-0.00311041
-0.000312726
-0.00238394
0.000114771
-0.00226365
0.000121744
-0.00226156
7.34931e-05
-0.00226798
5.43892e-06
-0.00228004
-4.93849e-05
-0.00222452
-5.54792e-05
-0.00216313
-6.13413e-05
-0.00209311
-6.99701e-05
-0.00201867
-7.44075e-05
-0.00194095
-7.76806e-05
-0.00185896
-8.19622e-05
-0.00176903
-8.9894e-05
-0.00166167
-0.000107337
-0.00151353
-0.000148127
-0.0013689
-0.000274087
-0.00117508
-0.000455122
-0.00107564
-0.000670967
-0.00123395
0.0056072
-0.00591034
0.00763178
-0.00159556
0.00717809
0.00204408
0.00587435
0.00384719
0.00430047
0.00431266
0.0027097
0.0038887
0.00121844
0.00298131
-7.59136e-05
0.00188774
-0.000928279
0.000774715
-0.00131646
6.1614e-05
-0.00150277
-0.000265529
-0.00162438
-0.000455084
-0.0017435
-0.000605255
-0.00189056
-0.000739484
-0.00206848
-0.000848556
-0.0022688
-0.000915574
-0.00249977
-0.000906623
-0.00271347
-0.000733521
-0.00262559
-0.000400405
-0.00237886
-0.000131753
-0.0022099
-4.70081e-05
-0.00209737
-3.8832e-05
-0.00202717
-6.45566e-05
-0.00198355
-9.28037e-05
-0.0019312
-0.000107631
-0.00187525
-0.000117085
-0.00181994
-0.000125092
-0.00176369
-0.000130459
-0.00170686
-0.00013432
-0.00165015
-0.000138492
-0.00159416
-0.000145697
-0.00153961
-0.000161708
-0.00148828
-0.000199285
-0.00148446
-0.000277725
-0.00153738
-0.000402033
-0.00162311
-0.000585068
-0.00202017
-0.000836718
-0.00143551
-0.000598916
-0.000833629
-0.00061689
-0.000848081
0.00305651
-0.00879558
0.00466672
-0.00320563
0.0048482
0.00186275
0.00426034
0.00443521
0.00341492
0.00515825
0.00249335
0.00481044
0.00158666
0.00388816
0.000760721
0.00271384
1.22934e-05
0.0015233
-0.000503695
0.000577764
-0.000793428
2.43682e-05
-0.000957637
-0.000290706
-0.00109686
-0.000465859
-0.00124808
-0.000588084
-0.00142037
-0.000676093
-0.00161004
-0.00072572
-0.00180316
-0.000713311
-0.00193578
-0.000600707
-0.00192678
-0.000409208
-0.0018182
-0.000240133
-0.00170963
-0.000155375
-0.00162269
-0.00012557
-0.00156055
-0.000126492
-0.00151524
-0.000137911
-0.00147382
-0.000148857
-0.00143192
-0.000158781
-0.00138879
-0.000168024
-0.00134267
-0.000176395
-0.00129221
-0.000184583
-0.00123642
-0.000194093
-0.00117434
-0.000207597
-0.00110561
-0.000230256
-0.00103377
-0.000270953
-0.000971943
-0.000339375
-0.000931853
-0.000441954
-0.000939605
-0.00057715
-0.00108301
-0.000693146
-0.000951961
-0.000729808
-0.000648723
-0.000919973
-0.00149607
0.000672893
-0.00927549
0.00183274
-0.00436533
0.00251161
0.00118403
0.00204367
0.0049033
0.00176393
0.00543813
0.00154035
0.00503417
0.00131372
0.00411494
0.00104632
0.00298138
0.000711786
0.00185799
0.000353139
0.000936564
6.07051e-05
0.000316959
-0.000147558
-8.22807e-05
-0.000300176
-0.000313075
-0.000444968
-0.000443122
-0.000600501
-0.000520387
-0.000766996
-0.000559048
-0.000927231
-0.000552896
-0.00104004
-0.00048771
-0.00107221
-0.000376852
-0.0010407
-0.000271448
-0.000991266
-0.000204619
-0.000945019
-0.00017162
-0.000909443
-0.000161869
-0.000882881
-0.000164274
-0.000860122
-0.000171418
-0.000837784
-0.000180921
-0.000813845
-0.000191766
-0.000786498
-0.000203548
-0.000754237
-0.000216652
-0.000715917
-0.000232224
-0.00067095
-0.000252379
-0.000620259
-0.000280766
-0.000568251
-0.000322783
-0.000523317
-0.000384134
-0.000496932
-0.000468169
-0.000503974
-0.000569942
-0.000531379
-0.000665579
-0.000488648
-0.000772381
-0.000343806
-0.00106466
-0.0018396
-0.00170591
-0.00735848
-0.00111123
-0.00495986
-0.000200988
0.000273921
-0.000487202
0.00518965
-3.68637e-06
0.00495476
0.000522136
0.00450849
0.000934573
0.00370264
0.00117364
0.00274245
0.00122029
0.00181148
0.00112161
0.00103538
0.000964318
0.000474408
0.000789935
9.22576e-05
0.000630893
-0.00015387
0.000487983
-0.000300043
0.000348937
-0.000381169
0.00020703
-0.000416965
7.01942e-05
-0.000415882
-3.77649e-05
-0.000379571
-9.69192e-05
-0.000317515
-0.000114233
-0.000253948
-0.000111973
-0.000206692
-0.000104852
-0.00017855
-0.000100032
-0.000166496
-9.87603e-05
-0.000165352
-9.93328e-05
-0.00017065
-0.000100051
-0.000180008
-9.94751e-05
-0.000192147
-9.62808e-05
-0.000206549
-8.93087e-05
-0.000223432
-7.76483e-05
-0.000243694
-6.08998e-05
-0.00026894
-3.98869e-05
-0.000301595
-1.77421e-05
-0.000344747
-4.94608e-07
-0.000401205
2.99371e-06
-0.000471485
-1.58368e-05
-0.000550944
-5.08494e-05
-0.000630402
-8.72125e-05
-0.000735858
-0.000108814
-0.00104291
-0.00194939
-0.00715974
-0.012138
-0.00754679
-0.00431716
-0.00356612
0.00120911
-0.00155488
0.00294364
-0.000222269
0.00317601
0.000750395
0.00273011
0.00137883
0.00211415
0.00171476
0.00147569
0.00184026
0.000910028
0.00183871
0.000476117
0.00175926
0.000171862
0.00163865
-3.30877e-05
0.0015158
-0.000177019
0.00139596
-0.000261151
0.00127545
-0.00029628
0.00115699
-0.000297238
0.00105199
-0.000274387
0.000972146
-0.000237486
0.00091745
-0.000199068
0.000879602
-0.000168657
0.000850616
-0.000149377
0.000824996
-0.000140686
0.000800131
-0.000140295
0.000775399
-0.000145726
0.000750832
-0.000155248
0.00072673
-0.000167852
0.000703544
-0.00018317
0.000681751
-0.000201448
0.000661738
-0.000223491
0.000643608
-0.000250624
0.000626821
-0.000284622
0.000609675
-0.000327419
0.000588863
-0.000380215
0.000559216
-0.000441664
0.000513596
-0.000505154
0.000442081
-0.000558723
0.000318902
-0.000612519
9.6935e-05
-0.000820786
-0.00185528
-0.00660286
0.00164386
-0.00533726
-5.63446e-05
-0.00243445
4.09824e-05
-0.000296208
0.0010379
0.00101232
0.00142173
0.00182771
0.0012989
0.00232244
0.000981121
0.00259008
0.000642553
0.00270685
0.000359518
0.00272722
0.000151672
0.00268567
8.65297e-06
0.00260963
-0.000100792
0.00250731
-0.000158643
0.00238891
-0.000177681
0.00226566
-0.000173802
0.00214871
-0.000157242
0.00204692
-0.000135508
0.0019631
-0.000115055
0.00189471
-0.000100078
0.00183731
-9.17889e-05
0.00178648
-8.96604e-05
0.00173881
-9.24364e-05
0.00169211
-9.88333e-05
0.00164502
-0.000107967
0.00159677
-0.000119413
0.00154696
-0.000133176
0.00149539
-0.00014968
0.00144181
-0.000169731
0.00138586
-0.000194484
0.00132678
-0.00022536
0.00126335
-0.000263801
0.0011939
-0.000310592
0.00111682
-0.0003644
0.00103074
-0.000418907
0.000930777
-0.000458595
0.000783951
-0.000465532
0.000480324
-0.000517004
-0.00137575
-0.000402501
0.00202189
0.000373929
-0.000832528
0.000599146
-0.000183981
0.00123917
0.000398149
0.00207631
0.000584832
0.00279066
0.000584783
0.00328661
0.00048539
0.0035834
0.00034598
0.00372582
0.000217312
0.00375831
0.000119405
0.00371662
5.05549e-05
0.00360346
1.25904e-05
0.00345577
-1.07447e-05
0.00330186
-2.35551e-05
0.00315805
-2.97834e-05
0.00303263
-3.1613e-05
0.00292824
-3.09224e-05
0.0028428
-2.94155e-05
0.00277131
-2.83852e-05
0.00270818
-2.84656e-05
0.00264855
-2.98345e-05
0.00258877
-3.2472e-05
0.00252646
-3.63314e-05
0.00246012
-4.14395e-05
0.00238883
-4.79294e-05
0.00231189
-5.60543e-05
0.00222861
-6.62068e-05
0.002138
-7.89428e-05
0.00203871
-9.50095e-05
0.00192891
-0.000115379
0.00180657
-0.00014128
0.00167034
-0.000174184
0.0015218
-0.000215685
0.00137032
-0.000267257
0.00124311
-0.000331213
0.00119142
-0.00041368
0.00116488
-0.000490314
-0.000211868
0.00441154
0.00159812
0.00357265
0.00268668
0.00244112
0.00277205
0.00328691
0.00380047
0.00421408
0.00448809
0.0046336
0.00468174
0.00466196
0.00460551
0.00452728
0.00443787
0.00434371
0.00424895
0.00415588
0.00406508
0.00397591
0.00388713
0.00379738
0.00370534
0.00360978
0.00350943
0.00340292
0.00328861
0.00316448
0.00302793
0.00287562
0.00270324
0.00250524
0.0022746
0.00200266
0.00167927
0.00129191
0.000821778
0.000274333
)
;

boundaryField
{
    floor
    {
        type            calculated;
        value           nonuniform List<scalar> 
36
(
0
0
0
0
0
0
0
0
0
0
0
0
0
0
0
0
0
0
0
9.84359e-07
3.84411e-06
8.35147e-06
1.25535e-05
1.44302e-05
1.51732e-05
1.58109e-05
1.28252e-06
2.46811e-06
2.50668e-06
2.69939e-06
3.79364e-07
3.97366e-06
1.9432e-06
5.8965e-06
4.67885e-06
6.96745e-06
)
;
    }
    ceiling
    {
        type            calculated;
        value           nonuniform List<scalar> 
43
(
0.000152899
0.000126904
4.7695e-05
5.37593e-05
6.18988e-05
6.75671e-05
7.03331e-05
7.15701e-05
7.21162e-05
7.22844e-05
7.21062e-05
7.1549e-05
7.06118e-05
6.93099e-05
6.7741e-05
6.61049e-05
6.46158e-05
6.33676e-05
6.23725e-05
6.15988e-05
6.09977e-05
6.05185e-05
6.01174e-05
5.97606e-05
5.94249e-05
5.90964e-05
5.87687e-05
5.84405e-05
5.81137e-05
5.77917e-05
5.74785e-05
5.71781e-05
5.68955e-05
5.66393e-05
5.64272e-05
5.62976e-05
5.63204e-05
5.66087e-05
5.72826e-05
6.24138e-05
2.31279e-05
1.8574e-05
2.47014e-05
)
;
    }
    sWall
    {
        type            calculated;
        value           uniform -6.67812e-05;
    }
    nWall
    {
        type            calculated;
        value           nonuniform List<scalar> 6(-1.19505e-06 -5.86975e-07 -1.31831e-07 9.50315e-07 1.15327e-06 1.94179e-07);
    }
    sideWalls
    {
        type            empty;
        value           nonuniform 0();
    }
    glass1
    {
        type            calculated;
        value           nonuniform List<scalar> 9(-4.25697e-05 -0.000111746 -0.000172239 -0.000215948 -0.000151741 -0.000171141 -0.000192835 -0.000210949 -0.000221718);
    }
    glass2
    {
        type            calculated;
        value           nonuniform List<scalar> 2(1.12138e-06 2.97455e-06);
    }
    sun
    {
        type            calculated;
        value           uniform 0;
    }
    Table_master
    {
        type            calculated;
        value           nonuniform List<scalar> 9(-1.50406e-07 -1.50355e-07 -1.50306e-07 -1.50257e-07 -1.5021e-07 -1.50161e-07 -1.50109e-07 -1.50051e-07 -1.49966e-07);
    }
    Table_slave
    {
        type            calculated;
        value           nonuniform List<scalar> 9(1.49299e-07 1.49313e-07 1.49323e-07 1.49336e-07 1.49349e-07 1.49362e-07 1.49376e-07 1.49391e-07 1.49392e-07);
    }
    inlet
    {
        type            calculated;
        value           uniform 0.000642062;
    }
    outlet
    {
        type            calculated;
        value           nonuniform List<scalar> 2(-0.00449727 0.0026869);
    }
}


// ************************************************************************* //
