/*--------------------------------*- C++ -*----------------------------------*\
  =========                 |
  \\      /  F ield         | OpenFOAM: The Open Source CFD Toolbox
   \\    /   O peration     | Website:  https://openfoam.org
    \\  /    A nd           | Version:  6
     \\/     M anipulation  |
\*---------------------------------------------------------------------------*/
FoamFile
{
    version     2.0;
    format      ascii;
    class       volScalarField;
    location    "600";
    object      alphat;
}
// * * * * * * * * * * * * * * * * * * * * * * * * * * * * * * * * * * * * * //

dimensions      [1 -1 -1 0 0 0 0];

internalField   nonuniform List<scalar> 
458
(
0.000803298
0.00083235
0.000782462
0.000812175
0.000842462
0.000870509
0.000896616
0.000921538
0.000946284
0.000972295
0.000995066
0.00101365
0.00102847
0.00104159
0.00105232
0.00033933
0.00038095
0.000387696
0.000332084
0.000275968
0.00023001
0.000236885
0.000256758
0.000280391
0.000300737
0.000308935
0.000307466
0.00031008
0.000320057
0.000341946
0.000381655
0.000371341
0.000328525
0.00132743
0.00235147
0.00184847
0.00235696
0.00257047
0.00278483
0.00299991
0.00319895
0.00335847
0.00344717
0.00348061
0.00341455
0.0031902
0.00271639
0.00192022
0.00113668
0.00108465
0.000726852
0.000487563
0.00100588
0.00109669
0.000967349
0.000623433
0.000425161
0.000517219
0.000691151
0.000863587
0.000993841
0.00104769
0.00105999
0.00108316
0.00119509
0.00147426
0.00126023
0.000969489
0.000405732
0.00179532
0.0037964
0.00198513
0.00342146
0.00391075
0.00419161
0.00443377
0.00464239
0.00481208
0.0049324
0.00501592
0.0050403
0.00495933
0.00469941
0.00417456
0.00336788
0.00228807
0.00115837
0.000779918
0.00196434
0.00161783
0.00115983
0.000720468
0.000327594
0.000344479
0.000374475
0.000405252
0.000437935
0.000475966
0.000524597
0.00059598
0.000716131
0.00233971
0.00244172
0.00202031
0.000687505
0.00224842
0.00568346
0.00216182
0.00364483
0.00460169
0.00490424
0.00510319
0.00526409
0.0054005
0.00551766
0.00563689
0.00577373
0.00590232
0.00595593
0.00580189
0.00525056
0.00411935
0.00246017
0.00115379
0.00267172
0.00280817
0.0022446
0.00166874
0.00115376
0.000763364
0.000755415
0.000753554
0.000757187
0.000767867
0.000787746
0.000819682
0.000868611
0.000950839
0.00303954
0.00327651
0.0028445
0.000941056
0.00267857
0.00781307
0.00286156
0.00329114
0.00474145
0.00511795
0.00526846
0.00535947
0.00542631
0.00549629
0.00561496
0.00583532
0.00615702
0.00655606
0.00695833
0.00725424
0.00734725
0.00715285
0.0066637
0.00634688
0.00583281
0.00535723
0.00495406
0.00461932
0.00433572
0.00415331
0.0039846
0.00382636
0.00369029
0.00359625
0.0035635
0.00359955
0.00369856
0.00388015
0.0038585
0.00370303
0.00308343
0.00133972
0.00118407
0.00103742
0.00308891
0.00980006
0.00444926
0.00300416
0.00422215
0.00483467
0.00508063
0.00518431
0.00519585
0.00516216
0.00522836
0.00543156
0.00577367
0.00627294
0.00690047
0.00755871
0.00811291
0.00839706
0.00830817
0.0079566
0.0075113
0.00710856
0.00678159
0.00651126
0.00626461
0.006021
0.00576342
0.00548079
0.00517374
0.00486708
0.00460459
0.00441564
0.00428555
0.00416843
0.0040276
0.00385453
0.00356863
0.00293786
0.00219368
0.00107986
0.00347378
0.0112817
0.00720965
0.00402083
0.00335402
0.0038168
0.00440975
0.00482451
0.00500776
0.00486304
0.0048759
0.00499096
0.00520699
0.00558105
0.00615218
0.00687135
0.00760979
0.0081707
0.00841082
0.0083523
0.00813079
0.00787328
0.00763676
0.00742679
0.00723292
0.0070463
0.00685748
0.00664173
0.00636081
0.00599209
0.0055687
0.00516231
0.00480575
0.00447674
0.00413722
0.0037494
0.00325911
0.00265332
0.00202468
0.00107055
0.00356243
0.0113509
0.00895949
0.00696405
0.00515858
0.0042665
0.00424026
0.0045509
0.00473166
0.00469974
0.00466952
0.00469271
0.0047868
0.00497725
0.00530423
0.00580113
0.00644337
0.00709731
0.00758811
0.00783835
0.00789494
0.00784561
0.00775275
0.00764376
0.00753498
0.00744139
0.00737838
0.00734526
0.00730526
0.0071814
0.00691123
0.00652035
0.0060566
0.0055427
0.00497153
0.00435912
0.00373079
0.00314538
0.00270505
0.00153909
0.00345614
0.00413079
0.00513782
0.00537819
0.00514226
0.00474103
0.00444106
0.00429003
0.0042275
0.00422244
0.00425897
0.00432346
0.00441414
0.00453997
0.00472118
0.00498819
0.00536668
0.00583758
0.00631728
0.00671203
0.00698286
0.00714186
0.00721901
0.00724243
0.00723563
0.00722442
0.00723964
0.00731181
0.00745714
0.00764875
0.00780367
0.00787595
0.00785245
0.00780263
0.00779964
0.00766716
0.00704478
0.00579116
0.00535578
0.00177543
0.0058041
0.00794464
0.00635208
0.00561719
0.00515019
0.00483366
0.00461778
0.00446544
0.00436791
0.00432051
0.00431889
0.00436119
0.00445005
0.00459357
0.00480302
0.00508298
0.00541575
0.00575751
0.00606055
0.0062993
0.00647033
0.00658417
0.00665768
0.00671062
0.00676512
0.00684538
0.00697406
0.0071469
0.00737874
0.00765069
0.00790924
0.00810312
0.00819403
0.00804495
0.00749439
0.0065296
0.00531907
0.0017831
0.00369559
0.00813533
0.00663698
0.00583936
0.00532582
0.00497064
0.00473537
0.00460122
0.00450571
0.00446546
0.0044906
0.00458595
0.0047501
0.00497338
0.00523733
0.00551788
0.00578955
0.00602207
0.00618511
0.0062953
0.00637323
0.00643419
0.00648589
0.00653031
0.00656647
0.00659291
0.00661025
0.00662304
0.00663981
0.006675
0.00674114
0.00683337
0.00689124
0.0066831
0.00618827
0.00533494
0.00450686
0.00178476
0.0022421
0.00261478
0.00307689
0.00310655
0.00271038
0.00245591
0.00224702
0.00206683
0.00190929
0.00177056
0.00166023
0.00157096
0.00149976
0.00144596
0.00140994
0.00139174
0.00138975
0.00140025
0.001418
0.00143864
0.00145946
0.0014745
0.00148293
0.00148627
0.00148651
0.00148526
0.00148356
0.00148191
0.0014805
0.00147983
0.00147921
0.00147753
0.00147261
0.00146073
0.00143778
0.00141693
0.00138692
0.0013344
0.00131834
0.00132682
)
;

boundaryField
{
    floor
    {
        type            compressible::alphatWallFunction;
        Prt             0.85;
        value           nonuniform List<scalar> 
36
(
0.000149738
4.40809e-05
5.07301e-05
5.18004e-05
4.29155e-05
3.37459e-05
2.60496e-05
2.7212e-05
3.05494e-05
3.44741e-05
3.78184e-05
3.91587e-05
3.892e-05
3.93471e-05
4.09703e-05
4.45071e-05
5.08475e-05
4.92095e-05
4.23438e-05
4.23432e-05
5.46385e-05
9.74358e-05
0.000134056
0.000189414
0.000168067
0.00014766
0.000149736
0.000161495
0.000154252
0.000103219
4.40803e-05
0.000103218
6.73651e-05
0.000164495
0.000110922
0.000163858
)
;
    }
    ceiling
    {
        type            compressible::alphatWallFunction;
        Prt             0.85;
        value           nonuniform List<scalar> 
43
(
0.000308672
0.000356225
0.000414217
0.000417949
0.000368353
0.000336096
0.00030935
0.000286064
0.000265524
0.000247284
0.000232664
0.000220757
0.000211205
0.000203954
0.000199083
0.000196614
0.000196343
0.000197765
0.000200168
0.000202959
0.00020577
0.000207796
0.000208932
0.000209382
0.000209413
0.000209244
0.000209014
0.00020879
0.000208599
0.000208507
0.000208424
0.000208195
0.000207531
0.00020593
0.00020283
0.000200011
0.000195946
0.000188811
0.000186641
0.000187721
0.000461271
0.000543456
0.000490478
)
;
    }
    sWall
    {
        type            compressible::alphatWallFunction;
        Prt             0.85;
        value           uniform 0.000307608;
    }
    nWall
    {
        type            compressible::alphatWallFunction;
        Prt             0.85;
        value           nonuniform List<scalar> 6(0.000147483 0.000153421 0.00015212 0.000248636 0.000248842 0.000187422);
    }
    sideWalls
    {
        type            empty;
    }
    glass1
    {
        type            compressible::alphatWallFunction;
        Prt             0.85;
        value           nonuniform List<scalar> 9(0.000111478 0.000183831 0.00024583 0.000304307 0.000358741 0.000409869 0.000457218 0.000468157 0.000455348);
    }
    glass2
    {
        type            compressible::alphatWallFunction;
        Prt             0.85;
        value           nonuniform List<scalar> 2(0.000215378 0.00024675);
    }
    sun
    {
        type            compressible::alphatWallFunction;
        Prt             0.85;
        value           nonuniform List<scalar> 
14
(
0.000114355
0.000118531
0.000111324
0.000115623
0.000119985
0.000124008
0.000127739
0.000131289
0.000134803
0.000138484
0.000141698
0.000144313
0.000146396
0.000148236
)
;
    }
    Table_master
    {
        type            compressible::alphatWallFunction;
        Prt             0.85;
        value           nonuniform List<scalar> 9(4.22608e-05 4.49836e-05 4.9778e-05 5.46456e-05 5.97628e-05 6.56561e-05 7.31056e-05 8.3886e-05 0.000101683);
    }
    Table_slave
    {
        type            compressible::alphatWallFunction;
        Prt             0.85;
        value           nonuniform List<scalar> 9(0.000108582 0.000107425 0.000107154 0.000107683 0.000109236 0.00011212 0.000116736 0.000123767 0.000135479);
    }
    inlet
    {
        type            fixedValue;
        value           uniform 1.94e-05;
    }
    outlet
    {
        type            zeroGradient;
    }
}


// ************************************************************************* //
