/*--------------------------------*- C++ -*----------------------------------*\
  =========                 |
  \\      /  F ield         | OpenFOAM: The Open Source CFD Toolbox
   \\    /   O peration     | Website:  https://openfoam.org
    \\  /    A nd           | Version:  6
     \\/     M anipulation  |
\*---------------------------------------------------------------------------*/
FoamFile
{
    version     2.0;
    format      ascii;
    class       surfaceScalarField;
    location    "600";
    object      phi;
}
// * * * * * * * * * * * * * * * * * * * * * * * * * * * * * * * * * * * * * //

dimensions      [1 0 -1 0 0 0 0];

internalField   nonuniform List<scalar> 
850
(
-0.00230318
0.00235788
-0.00253594
0.000232861
-0.00283395
0.000298107
-0.00316407
0.000330216
-0.00346956
0.00030558
-0.00372536
0.00025589
-0.0039144
0.000189139
-0.00402041
0.000106103
-0.00402614
5.82301e-06
-0.0039114
-0.00011465
-0.00365611
-0.000255193
-0.00324349
-0.00041253
-0.00263611
-0.000607282
-0.00168233
-0.000953693
-0.00168177
-0.000438381
0.000441597
-0.000399698
-3.85951e-05
-0.000253474
-0.000146137
-0.000133944
-0.000119442
1.43818e-05
-0.000148237
0.000153741
-0.000139274
0.000264592
-0.000110768
0.000350472
-8.57993e-05
0.000422116
-7.15643e-05
0.000480837
-5.86444e-05
0.000509656
-2.87447e-05
0.000499679
1.00489e-05
0.000452609
4.71415e-05
0.000392645
6.00344e-05
0.000386979
5.73602e-06
0.000503289
-0.000116239
0.000547611
-4.42521e-05
0.000550653
-0.00167658
0.00417708
-0.00221586
0.000772237
-0.00265109
0.000733435
-0.00301627
0.000695488
-0.00333608
0.000625485
-0.00360492
0.000524826
-0.00381228
0.00039659
-0.00394561
0.000239522
-0.00399141
5.17186e-05
-0.00393996
-0.000166011
-0.00378559
-0.000409466
-0.00352144
-0.000676593
-0.00314287
-0.000985761
-0.00274095
-0.00135552
-0.00281416
-0.00160847
-0.00138238
-0.00143082
0.00014753
-0.00152883
0.000151536
0.00060097
-0.000152327
0.000410324
0.000152138
0.000114165
0.000150114
-3.46461e-05
2.94624e-05
-0.000162094
-2.06946e-05
-0.000144916
-0.000156362
-0.000141457
-0.000114143
-0.000153828
-7.33478e-05
-0.000182915
-4.23996e-05
-0.000232337
-9.14784e-06
-0.000291689
3.06763e-05
-0.000351359
6.9781e-05
-0.000411445
0.000107286
-0.000468768
0.000117417
-0.000500794
3.78243e-05
-0.000634117
1.71568e-05
-0.000640879
-3.7387e-05
-8.26279e-05
-0.00124452
0.00563415
-0.00189375
0.00142156
-0.00235239
0.00119217
-0.00270344
0.00104663
-0.00300523
0.000927377
-0.00326067
0.000780353
-0.00346317
0.000599183
-0.00360312
0.000379561
-0.00366963
0.000118319
-0.0036543
-0.000181248
-0.00355717
-0.000506506
-0.00338974
-0.00084393
-0.00318582
-0.00118959
-0.00302281
-0.00151844
-0.00289875
-0.00173244
-0.00250919
-0.00182029
-0.00212132
-0.00191661
-0.00196703
-0.000829233
0.000683537
-0.000914398
0.000237387
-0.000856821
9.26226e-05
-0.000781614
-4.56583e-05
-0.00058678
-0.000215439
-0.000742908
-0.000856825
-0.000929954
-0.000972138
-0.000981074
-0.000950186
-0.000880193
-0.000772692
-0.000655049
-0.000250386
-0.000366746
-8.55541e-05
-0.000147577
-0.000109283
-1.35589e-05
-0.000186458
-0.000937627
0.00684146
-0.00161025
0.00209428
-0.00199901
0.00158102
-0.00230126
0.00134896
-0.00255956
0.00118577
-0.00277782
0.000998705
-0.00295387
0.000775328
-0.00308103
0.000506806
-0.00314847
0.000185854
-0.00314527
-0.000184361
-0.00307845
-0.000573237
-0.00297941
-0.000942884
-0.00289535
-0.00127357
-0.00287265
-0.00154105
-0.00289761
-0.00170738
-0.00293818
-0.00177963
-0.0030942
-0.0017605
-0.0036591
-0.00140203
-0.00301122
-0.000644232
-0.00224247
-8.51191e-05
-0.0020405
3.54992e-05
-0.00193246
-1.53319e-05
-0.00187266
-0.00010536
-0.00191333
-0.000174676
-0.00176247
-0.000150922
-0.00161416
-0.000148371
-0.00146068
-0.000153534
-0.00130266
-0.000158083
-0.00113895
-0.000163769
-0.000964955
-0.000174058
-0.000769893
-0.000195123
-0.000533371
-0.000236583
-0.00021693
-0.000316501
-0.000124777
-0.000458808
0.000172587
-0.000444851
0.000447984
-0.000288869
0.000265966
-0.000704923
0.00786438
-0.00136891
0.00275836
-0.00161824
0.00183044
-0.0018452
0.00157601
-0.00203808
0.00137874
-0.00219171
0.00115243
-0.00230937
0.000893079
-0.00238967
0.000587193
-0.00242304
0.000219313
-0.00239309
-0.000214222
-0.00231511
-0.000651129
-0.00223462
-0.00102328
-0.0021953
-0.0013128
-0.00222029
-0.00151597
-0.00229959
-0.001628
-0.00242515
-0.00165398
-0.00262149
-0.00156408
-0.00277518
-0.00124825
-0.00263983
-0.00077949
-0.00232589
-0.000398975
-0.00206395
-0.000226352
-0.0018882
-0.000190993
-0.0017823
-0.000211172
-0.00172195
-0.000234925
-0.00163519
-0.000237594
-0.00154274
-0.000240734
-0.00144983
-0.000246346
-0.00135517
-0.000252663
-0.00125774
-0.000261101
-0.00115478
-0.000276928
-0.00103952
-0.000310296
-0.000899853
-0.000376165
-0.000727835
-0.000488432
-0.000551534
-0.000635024
-0.000228837
-0.000767464
0.00034692
-0.000864544
0.00142771
-0.000814749
0.00207807
-0.000647797
0.00179125
0.000289695
0.00182255
-0.00064756
0.00887198
-0.00126175
0.00337264
-0.0012255
0.00179429
-0.00132196
0.00167256
-0.00144351
0.00150038
-0.00151241
0.00122142
-0.00153702
0.000917768
-0.00152952
0.000579785
-0.00148532
0.000175202
-0.00139006
-0.000309395
-0.00128058
-0.000760524
-0.00120538
-0.0010984
-0.00119394
-0.00132415
-0.00125307
-0.00145675
-0.00137317
-0.00150782
-0.00154201
-0.00148505
-0.00173596
-0.00137004
-0.0018566
-0.00112752
-0.0018305
-0.000805509
-0.00169845
-0.000530936
-0.00155741
-0.000367308
-0.00145264
-0.000295665
-0.00138817
-0.00027556
-0.00134942
-0.000273579
-0.00131478
-0.000272149
-0.0012827
-0.000272728
-0.00125537
-0.000273578
-0.00123499
-0.000272959
-0.00122411
-0.00027189
-0.00122458
-0.00027637
-0.00123558
-0.000299208
-0.00125219
-0.000359475
-0.00126595
-0.000474586
-0.00125332
-0.000647565
-0.00114869
-0.000872016
-0.000859278
-0.00115387
-0.000197125
-0.00147682
0.000749731
-0.00159458
0.00115003
-0.000110523
0.00300578
-0.000878958
0.0101489
-0.00106025
0.00355402
-0.000553096
0.00128723
-0.000506466
0.00162602
-0.000623637
0.00161764
-0.000632139
0.00123001
-0.000545408
0.000831126
-0.000419855
0.000454319
-0.000249793
5.22744e-06
-7.21693e-05
-0.000486932
4.25372e-05
-0.000875143
7.98808e-05
-0.00113566
4.06571e-05
-0.00128484
-6.81366e-05
-0.00134787
-0.000233593
-0.00134228
-0.000437965
-0.00128059
-0.000647202
-0.00116072
-0.000800688
-0.000973953
-0.000860603
-0.000745508
-0.00085108
-0.000540373
-0.000820064
-0.000398238
-0.000797823
-0.000317818
-0.000793193
-0.000280104
-0.000802068
-0.000264617
-0.000816955
-0.000257174
-0.000837121
-0.000252474
-0.000865505
-0.000245105
-0.000908195
-0.000230182
-0.000974821
-0.000205177
-0.00107801
-0.000173091
-0.00123096
-0.000146173
-0.00144099
-0.000149361
-0.00170294
-0.000212552
-0.00199272
-0.000357706
-0.00226785
-0.0005968
-0.00247961
-0.000942039
-0.00255785
-0.0013985
-0.00235181
-0.00180054
-0.00108805
-0.00137421
0.00195705
0.00158375
0.00900926
0.00200674
0.00313112
0.00184573
0.00144832
0.00149811
0.00197374
0.00118124
0.0019346
0.0010905
0.00132084
0.00116829
0.000753428
0.00134913
0.000273569
0.00155509
-0.000200651
0.00166341
-0.000595165
0.00166399
-0.000875635
0.00157922
-0.0010508
0.00143375
-0.0011393
0.00124394
-0.00115797
0.00102173
-0.00111999
0.000778501
-0.00103728
0.000536229
-0.000918365
0.000331275
-0.000768916
0.000190296
-0.000604447
0.000104787
-0.000454781
4.80402e-05
-0.000341409
-1.32882e-06
-0.000268366
-5.29954e-05
-0.000228354
-0.000107978
-0.00020955
-0.000164224
-0.000200843
-0.000221933
-0.000194681
-0.000283168
-0.000183784
-0.000352601
-0.000160663
-0.000439177
-0.000118515
-0.000558173
-5.40099e-05
-0.000738248
3.39873e-05
-0.00102475
0.000137226
-0.00146379
0.000226574
-0.00206798
0.000246563
-0.00280428
0.000139589
-0.00364587
-0.000100375
-0.00467356
-0.000370728
-0.00584503
-0.000628994
-0.00556405
-0.00165511
-0.00344627
0.00948817
0.0126047
0.0101295
0.00392353
0.00783655
0.0042668
0.00644116
0.00333008
0.0055776
0.00218448
0.00501875
0.00131237
0.00462231
0.000670092
0.00425456
0.000167189
0.00388403
-0.000224548
0.00352413
-0.000515652
0.00317943
-0.000706009
0.00284943
-0.000809209
0.00253226
-0.000840722
0.00222703
-0.000814677
0.00193475
-0.000744907
0.00166161
-0.000645144
0.00142143
-0.000528664
0.00122721
-0.000410142
0.00107735
-0.000304844
0.000957899
-0.000221875
0.000855776
-0.000166163
0.000762602
-0.000135099
0.000674635
-0.000121502
0.000590994
-0.000117121
0.000511162
-0.000114766
0.000435156
-0.000107696
0.000363768
-8.91918e-05
0.00029834
-5.30044e-05
0.000242591
1.82218e-06
0.000193812
8.285e-05
0.000146957
0.000184164
0.000100876
0.000272738
5.19007e-05
0.000295621
-2.11125e-05
0.000212685
-0.000142872
2.14663e-05
-0.000303867
-0.000209652
-0.000489426
-0.000443357
-0.000657175
-0.00148728
-0.00392887
0.00185776
0.00368433
0.0031089
0.00301575
0.00436033
0.00207872
0.00485746
0.00168743
0.00498135
0.00118856
0.00496447
0.000687061
0.00485313
0.000278608
0.00466334
-3.46745e-05
0.00440528
-0.000257508
0.00410078
-0.000401427
0.00377107
-0.000479415
0.00343275
-0.000502315
0.00310013
-0.000481975
0.00278582
-0.000430523
0.00250055
-0.000359787
0.00225297
-0.000281007
0.00204797
-0.000205065
0.00188271
-0.000139503
0.00174642
-8.55036e-05
0.00163058
-5.0249e-05
0.0015282
-3.2644e-05
0.00143451
-2.77349e-05
0.001347
-2.95281e-05
0.00126479
-3.24785e-05
0.00118889
-3.17192e-05
0.00112276
-2.29887e-05
0.00107209
-2.24932e-06
0.00104046
3.3525e-05
0.00103748
8.59154e-05
0.00107189
0.000149829
0.00114496
0.000199753
0.00124864
0.000192025
0.00137524
8.61614e-05
0.00149972
-0.000102931
0.00165553
-0.000365379
0.00187069
-0.000658441
0.00164974
-0.00126625
-0.00224066
-7.51623e-05
0.00375152
0.00201164
0.000929017
0.00312495
0.000965494
0.00387122
0.000941236
0.00436849
0.00069137
0.00464805
0.000407587
0.00475469
0.00017205
0.00472012
-2.32939e-08
0.00456053
-9.78444e-05
0.00431759
-0.00015841
0.00402317
-0.000184906
0.00370435
-0.000183415
0.00338378
-0.000161328
0.00308014
-0.000126804
0.00280821
-8.7781e-05
0.00257793
-5.06421e-05
0.00239229
-1.93488e-05
0.00224833
4.53542e-06
0.00214252
2.03829e-05
0.00206443
2.79135e-05
0.00200221
2.96498e-05
0.00194679
2.77574e-05
0.00189306
2.42837e-05
0.00183964
2.10151e-05
0.0017885
1.94924e-05
0.00174448
2.11042e-05
0.00171511
2.7198e-05
0.00170629
4.24219e-05
0.00172776
6.45199e-05
0.0017889
8.87625e-05
0.0018885
0.000100227
0.00200664
7.39659e-05
0.00210332
-1.04372e-05
0.00214604
-0.000145578
0.00212799
-0.000347246
0.00212235
-0.000652719
0.00213343
-0.00127726
-6.45836e-05
-0.00267642
-0.0038498
-0.000108814
0.000804352
0.0017507
0.00267051
0.00333852
0.00372097
0.00386616
0.00383761
0.00370975
0.00352002
0.00330266
0.0030859
0.00289063
0.00272963
0.00260772
0.00252327
0.00247058
0.0024423
0.00243041
0.00242651
0.0024247
0.0024213
0.00241469
0.00240509
0.00239426
0.00238534
0.00238286
0.00239597
0.00243157
0.0024918
0.00256384
0.00260982
0.00257139
0.0023978
0.00202237
0.00134089
3.49215e-05
)
;

boundaryField
{
    floor
    {
        type            calculated;
        value           nonuniform List<scalar> 
36
(
0
0
0
0
0
0
0
0
0
0
0
0
0
0
0
0
0
0
0
-2.97821e-06
-7.45587e-06
-5.35186e-06
-4.35032e-06
-2.48692e-06
-2.79759e-06
-3.0992e-06
-4.64607e-07
-8.78545e-07
-9.8772e-07
-1.53515e-06
-3.13079e-06
-2.3788e-06
-6.96413e-06
-2.67048e-06
-6.5449e-06
-3.56469e-06
)
;
    }
    ceiling
    {
        type            calculated;
        value           nonuniform List<scalar> 
43
(
1.48973e-05
1.21958e-05
1.05795e-05
1.59173e-05
1.92208e-05
2.14985e-05
2.34291e-05
2.52173e-05
2.69338e-05
2.86068e-05
3.00895e-05
3.14049e-05
3.25318e-05
3.34216e-05
3.40157e-05
3.42744e-05
3.42081e-05
3.38874e-05
3.34186e-05
3.28887e-05
3.23473e-05
3.18933e-05
3.15315e-05
3.12318e-05
3.09595e-05
3.06878e-05
3.04006e-05
3.00902e-05
2.97539e-05
2.93825e-05
2.89884e-05
2.85969e-05
2.82589e-05
2.80564e-05
2.80719e-05
2.80811e-05
2.82607e-05
2.88274e-05
2.87816e-05
2.87808e-05
1.87346e-05
1.47139e-05
8.02672e-06
)
;
    }
    sWall
    {
        type            calculated;
        value           uniform -0.000176198;
    }
    nWall
    {
        type            calculated;
        value           nonuniform List<scalar> 6(-2.812e-05 -3.31177e-05 -3.92393e-05 -3.83951e-05 -4.257e-05 -5.83755e-05);
    }
    sideWalls
    {
        type            empty;
        value           nonuniform 0();
    }
    glass1
    {
        type            calculated;
        value           nonuniform List<scalar> 9(-5.46027e-05 -0.000142531 -0.000212462 -0.000269596 -0.000317912 -0.000359953 -0.000397841 -0.000444077 -0.000497568);
    }
    glass2
    {
        type            calculated;
        value           nonuniform List<scalar> 2(-0.000160649 -0.000174502);
    }
    sun
    {
        type            calculated;
        value           uniform 0;
    }
    Table_master
    {
        type            calculated;
        value           nonuniform List<scalar> 9(-1.52827e-07 -1.52767e-07 -1.52702e-07 -1.52648e-07 -1.52604e-07 -1.52561e-07 -1.52517e-07 -1.52466e-07 -1.52367e-07);
    }
    Table_slave
    {
        type            calculated;
        value           nonuniform List<scalar> 9(1.51577e-07 1.51632e-07 1.5168e-07 1.51727e-07 1.51774e-07 1.5182e-07 1.51867e-07 1.51921e-07 1.51959e-07);
    }
    inlet
    {
        type            calculated;
        value           uniform -0.00161851;
    }
    outlet
    {
        type            calculated;
        value           nonuniform List<scalar> 2(0.00283777 0.00116123);
    }
}


// ************************************************************************* //
