// -*- C++ -*-
// File generated by PyFoam - sorry for the ugliness

FoamFile
{
 version 2.0;
 format ascii;
 class volVectorField;
 location "600";
 object U;
}

dimensions [ 0 1 -1 0 0 0 0 ];

internalField nonuniform List<vector> 458
(
  (0.0857903 0.0637182 0)
  (-0.128544 0.00377652 0)
  (-0.115505 0.00642974 0)
  (-0.130187 0.00686089 0)
  (-0.144205 0.00561814 0)
  (-0.156522 0.00368484 0)
  (-0.16628 0.00126362 0)
  (-0.172809 -0.00164613 0)
  (-0.175457 -0.00511502 0)
  (-0.173413 -0.00926767 0)
  (-0.165365 -0.0144844 0)
  (-0.148986 -0.0212105 0)
  (-0.122807 -0.0309078 0)
  (-0.0944685 -0.0466705 0)
  (-0.092337 -0.0693705 0)
  (0.028274 0.00776751 0)
  (-0.0240138 -0.00477017 0)
  (-0.0142607 -0.00599431 0)
  (-0.00921635 -0.00464201 0)
  (-0.00314142 -0.00487794 0)
  (0.00334401 -0.00636585 0)
  (0.00883777 -0.00507067 0)
  (0.0134211 -0.00399933 0)
  (0.0167984 -0.00334061 0)
  (0.0193578 -0.00302353 0)
  (0.0212953 -0.00262901 0)
  (0.0223044 -0.00200904 0)
  (0.0211115 -0.000686324 0)
  (0.0185081 0.00110643 0)
  (0.0173579 0.00102306 0)
  (0.0178264 -0.00373078 0)
  (0.0261473 -0.00558659 0)
  (-0.0154367 0.0099511 0)
  (0.272349 0.138344 0)
  (-0.147973 0.0210305 0)
  (-0.103631 0.0224254 0)
  (-0.123124 0.0227983 0)
  (-0.138064 0.0209938 0)
  (-0.150965 0.0179707 0)
  (-0.161381 0.013974 0)
  (-0.168882 0.00897851 0)
  (-0.172927 0.00286897 0)
  (-0.172814 -0.00449403 0)
  (-0.168046 -0.0129892 0)
  (-0.157999 -0.0226924 0)
  (-0.143503 -0.0347653 0)
  (-0.129546 -0.0512575 0)
  (-0.119563 -0.0676828 0)
  (-0.0926239 -0.0594737 0)
  (-0.0518173 -0.0627187 0)
  (0.0110546 0.0325887 0)
  (0.0864322 0.00640605 0)
  (0.0268156 0.00564482 0)
  (0.00383729 0.00303974 0)
  (-0.00194667 0.000794542 0)
  (-0.00398791 -0.00278842 0)
  (-0.00706174 -0.00716127 0)
  (-0.00688013 -0.00546029 0)
  (-0.00630358 -0.00378501 0)
  (-0.0071392 -0.00242924 0)
  (-0.00857108 -0.000722457 0)
  (-0.0113221 0.0017163 0)
  (-0.0142698 0.00421709 0)
  (-0.0167542 0.00615101 0)
  (-0.0191356 0.00641614 0)
  (-0.0190686 0.00334694 0)
  (-0.017182 0.00152368 0)
  (-0.0308528 0.00556724 0)
  (-0.091966 0.0149503 0)
  (0.430246 0.211131 0)
  (-0.189129 0.0467895 0)
  (-0.084661 0.0414547 0)
  (-0.109871 0.0376945 0)
  (-0.12407 0.0334985 0)
  (-0.136284 0.0279648 0)
  (-0.146295 0.0210274 0)
  (-0.153838 0.0126047 0)
  (-0.158447 0.00263727 0)
  (-0.159465 -0.00873396 0)
  (-0.156576 -0.021257 0)
  (-0.15026 -0.0346461 0)
  (-0.142072 -0.0489819 0)
  (-0.134758 -0.0637653 0)
  (-0.127607 -0.0744131 0)
  (-0.114358 -0.0752037 0)
  (-0.102741 -0.081987 0)
  (-0.114539 -0.0798162 0)
  (0.0061675 0.0197784 0)
  (-0.0390533 0.0108146 0)
  (-0.0385695 0.00726227 0)
  (-0.0357115 0.000675316 0)
  (-0.0326378 -0.00576827 0)
  (-0.0251055 -0.00677497 0)
  (-0.0349329 -0.00638674 0)
  (-0.0389522 -0.00495701 0)
  (-0.0414659 -0.00383577 0)
  (-0.042568 -0.00284342 0)
  (-0.0418492 -0.00187697 0)
  (-0.0399744 -0.00112399 0)
  (-0.0371291 -0.000987938 0)
  (-0.0311641 -0.00269253 0)
  (-0.0177819 -0.00735002 0)
  (-0.0033768 -0.00158532 0)
  (0.00555973 -0.000282945 0)
  (-0.0815061 -0.004484 0)
  (0.559239 0.271643 0)
  (-0.233141 0.0766335 0)
  (-0.0614109 0.0603566 0)
  (-0.0933287 0.0521043 0)
  (-0.105752 0.0460059 0)
  (-0.116101 0.0387331 0)
  (-0.124733 0.0298761 0)
  (-0.131457 0.0191727 0)
  (-0.135827 0.00642522 0)
  (-0.13707 -0.00821336 0)
  (-0.134953 -0.0238581 0)
  (-0.13086 -0.0394212 0)
  (-0.126659 -0.0542221 0)
  (-0.124286 -0.0671523 0)
  (-0.12369 -0.0756099 0)
  (-0.124412 -0.078312 0)
  (-0.132295 -0.0765882 0)
  (-0.150683 -0.0570908 0)
  (-0.146416 -0.00364507 0)
  (-0.105503 0.0133141 0)
  (-0.09524 0.00701829 0)
  (-0.0857896 0.00140203 0)
  (-0.082822 -0.00408508 0)
  (-0.0822793 -0.00836262 0)
  (-0.0798283 -0.00722786 0)
  (-0.0731032 -0.00674026 0)
  (-0.0665185 -0.00703244 0)
  (-0.0598057 -0.00733812 0)
  (-0.0529174 -0.00770876 0)
  (-0.04569 -0.00825482 0)
  (-0.0375741 -0.00917824 0)
  (-0.0276166 -0.0108382 0)
  (-0.0154945 -0.0138146 0)
  (-0.00891997 -0.0175839 0)
  (0.000916759 -0.0126417 0)
  (0.016645 -0.00434442 0)
  (-0.0180928 0.0147254 0)
  (0.661983 0.321453 0)
  (-0.271743 0.107618 0)
  (-0.0376712 0.075526 0)
  (-0.0744381 0.0638214 0)
  (-0.0847483 0.0559589 0)
  (-0.0920936 0.0470671 0)
  (-0.0980256 0.0365698 0)
  (-0.102538 0.023987 0)
  (-0.10524 0.00890392 0)
  (-0.104939 -0.00852425 0)
  (-0.101823 -0.0264647 0)
  (-0.0979398 -0.0426682 0)
  (-0.0951584 -0.0561955 0)
  (-0.0948145 -0.0664721 0)
  (-0.0970141 -0.0726826 0)
  (-0.101727 -0.0749485 0)
  (-0.109949 -0.0730295 0)
  (-0.118469 -0.0612356 0)
  (-0.118318 -0.0343803 0)
  (-0.107716 -0.0132513 0)
  (-0.0949145 -0.00520313 0)
  (-0.0849992 -0.00486627 0)
  (-0.07916 -0.00679314 0)
  (-0.0757827 -0.00861964 0)
  (-0.0726502 -0.00847892 0)
  (-0.0687559 -0.00871848 0)
  (-0.0647324 -0.00899847 0)
  (-0.0606768 -0.00931415 0)
  (-0.0565539 -0.00974895 0)
  (-0.0522597 -0.0105106 0)
  (-0.0475149 -0.0119647 0)
  (-0.0419232 -0.0146329 0)
  (-0.0354159 -0.0189963 0)
  (-0.0281237 -0.0247425 0)
  (-0.0178473 -0.0274014 0)
  (0.00326625 -0.0265472 0)
  (0.0335652 -0.0155904 0)
  (0.0716472 -0.0138006 0)
  (0.102084 0.0141482 0)
  (-0.0319716 0.0661742 0)
  (0.729636 0.365949 0)
  (-0.303191 0.135549 0)
  (-0.0202676 0.0823359 0)
  (-0.0521537 0.0727564 0)
  (-0.0608185 0.0631231 0)
  (-0.0646839 0.0521308 0)
  (-0.0666078 0.0400444 0)
  (-0.0673155 0.0260182 0)
  (-0.0666821 0.00904784 0)
  (-0.0622764 -0.0109089 0)
  (-0.0570184 -0.0304455 0)
  (-0.0528053 -0.0460504 0)
  (-0.0509509 -0.0572773 0)
  (-0.0520953 -0.0645256 0)
  (-0.05617 -0.0679932 0)
  (-0.0628116 -0.0679249 0)
  (-0.071407 -0.0635522 0)
  (-0.0788909 -0.0524003 0)
  (-0.0809266 -0.0355259 0)
  (-0.0769803 -0.0213537 0)
  (-0.0704816 -0.013831 0)
  (-0.0648691 -0.0112086 0)
  (-0.0612308 -0.0110315 0)
  (-0.0591223 -0.0114903 0)
  (-0.0576017 -0.0115137 0)
  (-0.0561442 -0.0116391 0)
  (-0.0548256 -0.0118384 0)
  (-0.0537571 -0.0120546 0)
  (-0.0530535 -0.0123629 0)
  (-0.052817 -0.0130309 0)
  (-0.053055 -0.0145689 0)
  (-0.0536713 -0.0176813 0)
  (-0.0545067 -0.0229486 0)
  (-0.0547977 -0.0302003 0)
  (-0.052127 -0.0382726 0)
  (-0.0429639 -0.0475165 0)
  (-0.0268078 -0.057764 0)
  (-0.00653352 -0.0645359 0)
  (0.0716767 -0.0110296 0)
  (-0.0731488 0.0950183 0)
  (0.749125 0.406484 0)
  (-0.318221 0.137076 0)
  (-0.00542625 0.0599951 0)
  (-0.0136746 0.0782699 0)
  (-0.0256341 0.0710079 0)
  (-0.0287957 0.0536856 0)
  (-0.0264014 0.0386721 0)
  (-0.0222699 0.0235029 0)
  (-0.0169731 0.0044762 0)
  (-0.00488253 -0.0182786 0)
  (0.00137227 -0.037027 0)
  (0.00416834 -0.0498474 0)
  (0.0037745 -0.0576091 0)
  (0.000326325 -0.0615609 0)
  (-0.0059313 -0.0623241 0)
  (-0.0143094 -0.0604051 0)
  (-0.0238254 -0.0554365 0)
  (-0.032198 -0.0464139 0)
  (-0.0369131 -0.0347071 0)
  (-0.0376632 -0.0242917 0)
  (-0.0363582 -0.0175104 0)
  (-0.0349587 -0.0140315 0)
  (-0.0343218 -0.0126496 0)
  (-0.0344478 -0.0122148 0)
  (-0.034988 -0.0119955 0)
  (-0.0357202 -0.011886 0)
  (-0.0367092 -0.0117297 0)
  (-0.0381476 -0.0113909 0)
  (-0.0403725 -0.0108668 0)
  (-0.0438905 -0.0104265 0)
  (-0.0493054 -0.0107432 0)
  (-0.0571221 -0.0128064 0)
  (-0.0674414 -0.0173864 0)
  (-0.0795886 -0.0247119 0)
  (-0.0921749 -0.0349225 0)
  (-0.103162 -0.0483651 0)
  (-0.109257 -0.0627062 0)
  (-0.105253 -0.0641843 0)
  (-0.0908162 -0.0136039 0)
  (-0.141822 0.16285 0)
  (0.844213 0.428114 0)
  (-0.139348 0.114409 0)
  (0.0602299 -0.00439485 0)
  (0.0903429 0.0352381 0)
  (0.0617503 0.0487719 0)
  (0.0453705 0.0325175 0)
  (0.046083 0.0160892 0)
  (0.0516382 0.00152664 0)
  (0.0638006 -0.0153903 0)
  (0.072054 -0.030497 0)
  (0.0739096 -0.0422456 0)
  (0.0714469 -0.0501455 0)
  (0.0660764 -0.054448 0)
  (0.0585891 -0.0556765 0)
  (0.0494787 -0.0543823 0)
  (0.0391733 -0.0510721 0)
  (0.0282852 -0.0459388 0)
  (0.0181435 -0.0388305 0)
  (0.0104441 -0.030423 0)
  (0.0057305 -0.0226522 0)
  (0.00297749 -0.0169416 0)
  (0.000911552 -0.0134378 0)
  (-0.00119147 -0.0116118 0)
  (-0.00347802 -0.0107801 0)
  (-0.00588276 -0.0103576 0)
  (-0.00832584 -0.010036 0)
  (-0.0108537 -0.00952239 0)
  (-0.0135998 -0.00852878 0)
  (-0.0168416 -0.00682907 0)
  (-0.0210929 -0.00438103 0)
  (-0.0271287 -0.00143866 0)
  (-0.0364643 0.00108366 0)
  (-0.0516774 0.00117743 0)
  (-0.074539 -0.00364 0)
  (-0.105138 -0.0147849 0)
  (-0.140708 -0.0311725 0)
  (-0.176605 -0.049739 0)
  (-0.210521 -0.0658707 0)
  (-0.263027 -0.0722632 0)
  (-0.465678 -0.0572472 0)
  (0.972748 0.41255 0)
  (0.463374 0.274403 0)
  (0.437143 0.199095 0)
  (0.400052 0.170578 0)
  (0.315071 0.137314 0)
  (0.254506 0.095248 0)
  (0.224298 0.0583533 0)
  (0.207787 0.029283 0)
  (0.193517 0.00508158 0)
  (0.176883 -0.01474 0)
  (0.160718 -0.0288384 0)
  (0.145392 -0.0374767 0)
  (0.130759 -0.0416828 0)
  (0.116693 -0.0425041 0)
  (0.10314 -0.0407733 0)
  (0.0900954 -0.0371821 0)
  (0.0776703 -0.0323111 0)
  (0.0663013 -0.0266387 0)
  (0.0567273 -0.0207581 0)
  (0.0493366 -0.0154767 0)
  (0.0436955 -0.0113718 0)
  (0.039071 -0.00860322 0)
  (0.0349416 -0.00698469 0)
  (0.0310645 -0.00614923 0)
  (0.0273674 -0.00572061 0)
  (0.0238417 -0.00539439 0)
  (0.0204776 -0.00487613 0)
  (0.017286 -0.00385484 0)
  (0.0142967 -0.00202017 0)
  (0.0116548 0.000841111 0)
  (0.00971902 0.00496169 0)
  (0.00773884 0.0100853 0)
  (0.0056115 0.0151637 0)
  (0.00294269 0.0182015 0)
  (-1.07964e-05 0.0171376 0)
  (-0.00501884 0.0106727 0)
  (-0.0100029 8.88604e-05 0)
  (-0.000500772 -0.0174368 0)
  (0.0143563 -0.0855309 0)
  (-0.369354 -0.189347 0)
  (-0.603557 0.127365 0)
  (0.162537 0.162574 0)
  (0.196968 0.130445 0)
  (0.198846 0.0939345 0)
  (0.209888 0.0623664 0)
  (0.21609 0.0368892 0)
  (0.21462 0.0175981 0)
  (0.20771 0.0035865 0)
  (0.197429 -0.00726501 0)
  (0.184977 -0.0149882 0)
  (0.171035 -0.01968 0)
  (0.156337 -0.0215231 0)
  (0.141587 -0.0208417 0)
  (0.127386 -0.0181165 0)
  (0.114234 -0.0139672 0)
  (0.102551 -0.00911106 0)
  (0.0926673 -0.00432275 0)
  (0.084674 -0.000284328 0)
  (0.0782481 0.00266503 0)
  (0.0729052 0.00437483 0)
  (0.0682667 0.00500122 0)
  (0.0640754 0.0048748 0)
  (0.0601806 0.00436714 0)
  (0.056515 0.00381271 0)
  (0.0530808 0.00350988 0)
  (0.0499665 0.00373327 0)
  (0.0473461 0.00470896 0)
  (0.0456426 0.00634879 0)
  (0.0448008 0.00892415 0)
  (0.0453855 0.0122937 0)
  (0.0476284 0.0152854 0)
  (0.051338 0.0157964 0)
  (0.0562146 0.0117167 0)
  (0.0622313 0.00185561 0)
  (0.0678442 -0.0117596 0)
  (0.0759624 -0.0265533 0)
  (0.104792 -0.0630229 0)
  (-0.0621034 -0.131035 0)
  (-0.368699 0.15556 0)
  (0.170898 0.101123 0)
  (0.124775 0.0637747 0)
  (0.145507 0.0458805 0)
  (0.176742 0.0249795 0)
  (0.197088 0.00221651 0)
  (0.205948 -0.0194146 0)
  (0.207174 -0.0387244 0)
  (0.202523 -0.0520013 0)
  (0.193463 -0.0610118 0)
  (0.181455 -0.0669846 0)
  (0.167821 -0.0708291 0)
  (0.153669 -0.0732126 0)
  (0.139904 -0.0745543 0)
  (0.127249 -0.0750498 0)
  (0.116245 -0.0747719 0)
  (0.107181 -0.0738034 0)
  (0.100079 -0.0720895 0)
  (0.094765 -0.0694684 0)
  (0.0908805 -0.0669193 0)
  (0.0879403 -0.064865 0)
  (0.0854718 -0.0633625 0)
  (0.083152 -0.0622778 0)
  (0.0808384 -0.0614072 0)
  (0.0785474 -0.0605357 0)
  (0.0764358 -0.0594541 0)
  (0.0748135 -0.0579199 0)
  (0.0739095 -0.0553251 0)
  (0.0740807 -0.0515834 0)
  (0.075768 -0.0472064 0)
  (0.079195 -0.0436924 0)
  (0.083923 -0.0434517 0)
  (0.0889425 -0.0482076 0)
  (0.0926621 -0.0537256 0)
  (0.0932903 -0.0594164 0)
  (0.0885527 -0.0643249 0)
  (0.122442 -0.0775592 0)
  (-0.0621889 -0.104885 0)
  (0.294314 -0.12148 0)
  (-0.196797 -0.0476735 0)
  (-0.220291 0.170486 0)
  (0.131074 0.0893051 0)
  (0.0557736 0.0906409 0)
  (0.0887288 0.100168 0)
  (0.12873 0.105382 0)
  (0.154798 0.111159 0)
  (0.166955 0.120717 0)
  (0.168928 0.134601 0)
  (0.165029 0.147139 0)
  (0.1576 0.158965 0)
  (0.148336 0.170556 0)
  (0.138563 0.18198 0)
  (0.129343 0.192859 0)
  (0.121428 0.20248 0)
  (0.115208 0.210065 0)
  (0.110734 0.215092 0)
  (0.107819 0.217499 0)
  (0.106144 0.217305 0)
  (0.105341 0.21446 0)
  (0.105083 0.210818 0)
  (0.105043 0.207357 0)
  (0.104989 0.204427 0)
  (0.1048 0.202033 0)
  (0.104451 0.200025 0)
  (0.103988 0.198197 0)
  (0.103525 0.196326 0)
  (0.103234 0.194144 0)
  (0.103375 0.191045 0)
  (0.104312 0.186821 0)
  (0.106283 0.18163 0)
  (0.109142 0.176284 0)
  (0.111979 0.172306 0)
  (0.112882 0.171059 0)
  (0.108901 0.166624 0)
  (0.0974721 0.159236 0)
  (0.069475 0.147825 0)
  (0.150317 0.122344 0)
  (-0.419905 0.245218 0)
)
;

boundaryField
{
  floor
  {
    type noSlip;
  }
  ceiling
  {
    type noSlip;
  }
  sWall
  {
    type noSlip;
  }
  nWall
  {
    type noSlip;
  }
  sideWalls
  {
    type empty;
  }
  glass1
  {
    type noSlip;
  }
  glass2
  {
    type noSlip;
  }
  sun
  {
    type noSlip;
  }
  Table_master
  {
    type noSlip;
  }
  Table_slave
  {
    type noSlip;
  }
  inlet
  {
    type fixedValue;
    value uniform (0.494975 -0.494975 0);
  }
  outlet
  {
    type zeroGradient;
  }
} 	// ************************************************************************* //

