/*--------------------------------*- C++ -*----------------------------------*\
  =========                 |
  \\      /  F ield         | OpenFOAM: The Open Source CFD Toolbox
   \\    /   O peration     | Website:  https://openfoam.org
    \\  /    A nd           | Version:  6
     \\/     M anipulation  |
\*---------------------------------------------------------------------------*/
FoamFile
{
    version     2.0;
    format      ascii;
    class       volScalarField;
    location    "2100";
    object      epsilon;
}
// * * * * * * * * * * * * * * * * * * * * * * * * * * * * * * * * * * * * * //

dimensions      [0 2 -3 0 0 0 0];

internalField   nonuniform List<scalar> 
458
(
0.000116837
0.00012985
0.000117442
0.000130223
0.000142653
0.000154151
0.00016482
0.000174939
0.000184912
0.000195358
0.000204446
0.000211067
0.000215189
0.000218028
0.000219797
3.63704e-05
7.66772e-05
7.40791e-05
6.9041e-05
6.14368e-05
5.18626e-05
4.42789e-05
3.84057e-05
3.36702e-05
2.9676e-05
2.62161e-05
2.31678e-05
2.04445e-05
1.79647e-05
1.56515e-05
1.34158e-05
1.17949e-05
9.00667e-06
0.000478008
0.00108539
0.000123584
0.000100344
0.000100448
0.00010229
0.000105068
0.000109533
0.000116565
0.000127055
0.000139454
0.000152226
0.00016424
0.000175854
0.000195911
0.000253803
0.000226299
6.9296e-05
4.87379e-05
0.000110954
6.31107e-05
4.86985e-05
4.36865e-05
3.77691e-05
3.0492e-05
2.79442e-05
2.57781e-05
2.32525e-05
2.05661e-05
1.78631e-05
1.52405e-05
1.2815e-05
1.11178e-05
1.02951e-05
2.38323e-05
1.63871e-05
0.00115943
0.00361474
0.000239852
0.000108111
0.000103054
0.000106823
0.000112733
0.000120938
0.000131725
0.000145018
0.000159375
0.000171228
0.000177917
0.000179412
0.000180384
0.000188632
0.000212143
0.000285793
0.000118502
0.000153051
6.57831e-05
4.21321e-05
3.59958e-05
4.54081e-05
2.39544e-05
1.52251e-05
1.32213e-05
1.25135e-05
1.17239e-05
1.08379e-05
1.00629e-05
9.86376e-06
1.11112e-05
1.22901e-05
5.9368e-05
2.76516e-05
0.00231847
0.00845339
0.000571632
0.000131735
0.000113567
0.000121079
0.000132043
0.000145568
0.000161977
0.000181383
0.000202452
0.000218492
0.000224879
0.000221329
0.000211255
0.000201268
0.000205233
0.000243224
0.000314992
0.000173709
6.9253e-05
4.01715e-05
2.8453e-05
3.34492e-05
5.88069e-05
6.01041e-05
6.57238e-05
7.24687e-05
7.91025e-05
8.35854e-05
8.3469e-05
7.68879e-05
6.96692e-05
5.34526e-05
4.10685e-05
9.86197e-05
5.245e-05
0.00407349
0.0155565
0.00143232
0.000193172
0.00012799
0.000134855
0.000150757
0.000171781
0.000198542
0.000231813
0.000268439
0.000294141
0.000301961
0.000293032
0.000271336
0.000242484
0.000214642
0.000189034
0.000149543
8.61593e-05
4.75275e-05
2.98691e-05
2.4226e-05
2.62886e-05
3.46429e-05
4.20868e-05
5.05487e-05
5.88448e-05
6.69418e-05
7.24934e-05
7.28006e-05
6.63843e-05
5.85812e-05
5.17222e-05
4.51357e-05
6.57203e-05
8.11636e-05
9.62021e-05
9.99441e-05
9.96908e-05
0.00656304
0.022779
0.00365903
0.000483398
0.000201202
0.000171547
0.000180883
0.000204932
0.000242327
0.000300069
0.000363787
0.000399071
0.000403078
0.000383825
0.00034908
0.000305273
0.000259156
0.000207898
0.0001481
9.01014e-05
5.09773e-05
3.2661e-05
2.64826e-05
2.65227e-05
3.24087e-05
4.11454e-05
5.40343e-05
6.81665e-05
8.37283e-05
9.77073e-05
0.000105786
0.000103055
8.52002e-05
6.80531e-05
5.53842e-05
5.52365e-05
6.14081e-05
8.08796e-05
0.0003179
0.000207343
0.00976439
0.0267878
0.00885613
0.00235508
0.000919587
0.000482321
0.000366364
0.000345652
0.000365965
0.000454306
0.000531281
0.000550874
0.000530073
0.000486126
0.000429831
0.00036635
0.000303148
0.000237602
0.000169615
0.000108157
6.43244e-05
4.08626e-05
3.13366e-05
2.93546e-05
3.54965e-05
4.65619e-05
6.15523e-05
8.06802e-05
0.000104394
0.00012986
0.000152699
0.000167306
0.000158841
0.000126483
0.000103591
9.82349e-05
0.00010904
0.000149615
0.000560087
0.000380657
0.0106273
0.03214
0.016774
0.0108185
0.00603096
0.00315629
0.00181845
0.00123569
0.000993663
0.000917656
0.000854474
0.000775281
0.00068575
0.000593737
0.000503882
0.000418504
0.000338249
0.000262052
0.000190429
0.000128457
8.1937e-05
5.24411e-05
3.83414e-05
3.36989e-05
4.09806e-05
5.53967e-05
7.43547e-05
9.86867e-05
0.000129017
0.000165441
0.00020773
0.000255125
0.0003058
0.000322427
0.000341635
0.000460525
0.000725389
0.00106731
0.00356694
0.000957293
0.00988036
0.0170012
0.0152735
0.0115893
0.00846896
0.00589696
0.0040551
0.0028538
0.00211511
0.0016236
0.00127894
0.00102735
0.000835075
0.000681503
0.000554193
0.000445765
0.000351821
0.000269726
0.000198706
0.000139906
9.47814e-05
6.41679e-05
4.6627e-05
3.82348e-05
4.61789e-05
6.3677e-05
8.55789e-05
0.000113005
0.000147494
0.000190956
0.000246195
0.000317001
0.000407819
0.000522738
0.000664048
0.000877955
0.00114628
0.00141437
0.00166324
0.000899059
0.00777598
0.0145602
0.0088638
0.00611574
0.00435762
0.00316889
0.00236291
0.00180469
0.00139935
0.0010985
0.000870465
0.000693039
0.000551099
0.00043472
0.000337716
0.000256557
0.0001896
0.000136294
9.61975e-05
6.8817e-05
5.38675e-05
4.13615e-05
4.8163e-05
6.71786e-05
8.884e-05
0.000113962
0.000143877
0.000179977
0.000224337
0.000280193
0.000352366
0.000447348
0.000566356
0.000705004
0.000831829
0.000889515
0.000850924
0.000474987
0.005968
0.0114495
0.00725344
0.00519158
0.00384919
0.00289773
0.00219526
0.0016797
0.00130134
0.00101781
0.00080185
0.000633715
0.000499772
0.000390953
0.00030153
0.000228194
0.000169342
0.000124441
9.3298e-05
7.47182e-05
6.54272e-05
4.33135e-05
4.53932e-05
6.55351e-05
8.64382e-05
0.0001092
0.000135754
0.000167914
0.000208225
0.000260456
0.000329371
0.000419877
0.000532067
0.000655052
0.000774044
0.000864213
0.000665042
0.000489604
0.0029487
0.00378338
0.00461023
0.00560379
0.00461273
0.00385078
0.00293282
0.0023012
0.00180469
0.00141074
0.00109807
0.000872674
0.000696952
0.000553599
0.000433862
0.000333088
0.000248763
0.000179538
0.000124707
8.38679e-05
5.63182e-05
3.99053e-05
3.00333e-05
1.96099e-05
2.9768e-05
4.81885e-05
6.83606e-05
9.09294e-05
0.000116679
0.000146429
0.000181495
0.000224428
0.000280832
0.000351893
0.000434867
0.000527202
0.000637247
0.000605788
0.000467421
0.000364221
)
;

boundaryField
{
    floor
    {
        Cmu             0.09;
        kappa           0.41;
        E               9.8;
        type            epsilonWallFunction;
        value           nonuniform List<scalar> 
36
(
0.000219797
3.63704e-05
7.66772e-05
7.40791e-05
6.9041e-05
6.14368e-05
5.18626e-05
4.42789e-05
3.84057e-05
3.36702e-05
2.9676e-05
2.62161e-05
2.31678e-05
2.04445e-05
1.79647e-05
1.56515e-05
1.34158e-05
1.17949e-05
9.00667e-06
9.00667e-06
1.63871e-05
2.76516e-05
5.245e-05
9.62021e-05
9.99441e-05
9.96908e-05
0.000219797
0.000253803
0.000226299
6.9296e-05
3.63704e-05
6.9296e-05
4.87379e-05
0.000285793
0.000118502
0.000314992
)
;
    }
    ceiling
    {
        Cmu             0.09;
        kappa           0.41;
        E               9.8;
        type            epsilonWallFunction;
        value           nonuniform List<scalar> 
43
(
0.0029487
0.00378338
0.00461023
0.00560379
0.00461273
0.00385078
0.00293282
0.0023012
0.00180469
0.00141074
0.00109807
0.000872674
0.000696952
0.000553599
0.000433862
0.000333088
0.000248763
0.000179538
0.000124707
8.38679e-05
5.63182e-05
3.99053e-05
3.00333e-05
1.96099e-05
2.9768e-05
4.81885e-05
6.83606e-05
9.09294e-05
0.000116679
0.000146429
0.000181495
0.000224428
0.000280832
0.000351893
0.000434867
0.000527202
0.000637247
0.000605788
0.000467421
0.000364221
0.00988036
0.0170012
0.005968
)
;
    }
    sWall
    {
        Cmu             0.09;
        kappa           0.41;
        E               9.8;
        type            epsilonWallFunction;
        value           uniform 0.0029487;
    }
    nWall
    {
        Cmu             0.09;
        kappa           0.41;
        E               9.8;
        type            epsilonWallFunction;
        value           nonuniform List<scalar> 6(9.96908e-05 0.000207343 0.000380657 0.000474987 0.000489604 0.000364221);
    }
    sideWalls
    {
        type            empty;
    }
    glass1
    {
        Cmu             0.09;
        kappa           0.41;
        E               9.8;
        type            epsilonWallFunction;
        value           nonuniform List<scalar> 9(0.000116837 0.000478008 0.00115943 0.00231847 0.00407349 0.00656304 0.00976439 0.0106273 0.00988036);
    }
    glass2
    {
        Cmu             0.09;
        kappa           0.41;
        E               9.8;
        type            epsilonWallFunction;
        value           nonuniform List<scalar> 2(0.000957293 0.000899059);
    }
    sun
    {
        Cmu             0.09;
        kappa           0.41;
        E               9.8;
        type            epsilonWallFunction;
        value           nonuniform List<scalar> 
14
(
0.000116837
0.00012985
0.000117442
0.000130223
0.000142653
0.000154151
0.00016482
0.000174939
0.000184912
0.000195358
0.000204446
0.000211067
0.000215189
0.000218028
)
;
    }
    Table_master
    {
        Cmu             0.09;
        kappa           0.41;
        E               9.8;
        type            epsilonWallFunction;
        value           nonuniform List<scalar> 9(4.54081e-05 2.39544e-05 1.52251e-05 1.32213e-05 1.25135e-05 1.17239e-05 1.08379e-05 1.00629e-05 9.86376e-06);
    }
    Table_slave
    {
        Cmu             0.09;
        kappa           0.41;
        E               9.8;
        type            epsilonWallFunction;
        value           nonuniform List<scalar> 9(5.88069e-05 6.01041e-05 6.57238e-05 7.24687e-05 7.91025e-05 8.35854e-05 8.3469e-05 7.68879e-05 6.96692e-05);
    }
    inlet
    {
        type            turbulentMixingLengthDissipationRateInlet;
        mixingLength    0.01;
        phi             phi;
        k               k;
        value           uniform 0.000101881;
    }
    outlet
    {
        type            zeroGradient;
    }
}


// ************************************************************************* //
