/*--------------------------------*- C++ -*----------------------------------*\
  =========                 |
  \\      /  F ield         | OpenFOAM: The Open Source CFD Toolbox
   \\    /   O peration     | Website:  https://openfoam.org
    \\  /    A nd           | Version:  6
     \\/     M anipulation  |
\*---------------------------------------------------------------------------*/
FoamFile
{
    version     2.0;
    format      ascii;
    class       volScalarField;
    location    "1200";
    object      alphat;
}
// * * * * * * * * * * * * * * * * * * * * * * * * * * * * * * * * * * * * * //

dimensions      [1 -1 -1 0 0 0 0];

internalField   nonuniform List<scalar> 
458
(
0.00080188
0.000831364
0.000803604
0.00083182
0.000857594
0.000880165
0.000900152
0.000918347
0.000935627
0.000953088
0.000967761
0.00097817
0.000984504
0.000988742
0.000991275
0.000567544
0.000732718
0.000696942
0.000671097
0.000643514
0.000607212
0.000575632
0.000548688
0.00052482
0.000502831
0.000482097
0.000462251
0.000443008
0.00042398
0.000404653
0.000384213
0.000368696
0.000337491
0.0012828
0.00205361
0.00167617
0.00203215
0.00217948
0.00233154
0.0024822
0.00261988
0.00272808
0.00278458
0.00279679
0.00273213
0.00254724
0.00218032
0.00159397
0.00104015
0.00100025
0.000676729
0.000628131
0.00249891
0.00240095
0.00209095
0.00161706
0.00124079
0.00113812
0.00111745
0.00107998
0.00102602
0.000965181
0.000900559
0.00083047
0.000751781
0.000679792
0.000625613
0.00076241
0.000415379
0.00172282
0.00325426
0.00181295
0.00295704
0.00324359
0.00342733
0.0035762
0.00369474
0.00378431
0.00384031
0.00386539
0.00383654
0.00372084
0.00347749
0.00307109
0.00250632
0.00179105
0.00108132
0.000790421
0.00286581
0.00256265
0.00205436
0.0012501
0.000575654
0.00045785
0.000395629
0.000381752
0.000376148
0.000367957
0.000357982
0.000348726
0.000346332
0.000489209
0.000594329
0.0010028
0.00049871
0.00216897
0.00502068
0.00188213
0.00330863
0.00387591
0.00406588
0.00418117
0.00425808
0.00431157
0.00434817
0.00437318
0.00438091
0.00435257
0.00425679
0.00403652
0.00360046
0.00286515
0.00189985
0.00111844
0.00236791
0.0026019
0.00231756
0.00171099
0.00108012
0.00063782
0.000642784
0.000663754
0.000686561
0.000707875
0.000722306
0.000723532
0.000705552
0.000682866
0.000698952
0.000724751
0.00114074
0.00062369
0.00261514
0.00726092
0.00254756
0.00308551
0.00413004
0.00439749
0.00450483
0.00455374
0.00457309
0.00458388
0.00459492
0.00462637
0.0046641
0.00468533
0.00466118
0.00456385
0.00437968
0.00408664
0.00362704
0.00316916
0.00270896
0.00224138
0.001905
0.00178513
0.00188786
0.00207313
0.00226539
0.00241709
0.00253957
0.00261321
0.00261843
0.00253466
0.0022246
0.00183261
0.00148136
0.00130312
0.00106566
0.000763285
0.000770512
0.000767808
0.0030634
0.00960209
0.00458067
0.00289873
0.00372064
0.00428785
0.00455864
0.00468558
0.00471172
0.00467422
0.00463601
0.00467119
0.00473001
0.00478219
0.00480387
0.00477522
0.00466906
0.00442428
0.00397009
0.00335319
0.00272614
0.00225037
0.00194557
0.00178895
0.00187154
0.0020899
0.00236027
0.00259169
0.00278712
0.00293177
0.00301423
0.00302649
0.00289869
0.00259413
0.00219754
0.00176911
0.00142096
0.00134995
0.00182046
0.000977318
0.00349466
0.0115054
0.0082012
0.00476008
0.00346208
0.00339603
0.00386443
0.00433991
0.00466456
0.00464837
0.00459613
0.0046285
0.00467461
0.00471158
0.00472126
0.00468535
0.00457697
0.00434687
0.00394442
0.00339114
0.00280685
0.00234612
0.00200737
0.00175685
0.00179143
0.00201856
0.00227977
0.00252937
0.00275855
0.00294773
0.00309202
0.00320529
0.00328182
0.00313553
0.00281101
0.00242053
0.00205061
0.00187649
0.00217786
0.00119642
0.0035917
0.0113027
0.00961288
0.00818935
0.00630029
0.0048889
0.00427783
0.00423023
0.00444611
0.00455491
0.00455319
0.00454586
0.0045463
0.00454024
0.00450757
0.00443086
0.00429408
0.00407202
0.00373911
0.00330694
0.00284489
0.00244021
0.00209086
0.00174634
0.00174484
0.00198683
0.00224368
0.00247712
0.00268486
0.00286823
0.00303834
0.003221
0.00345375
0.00372119
0.00358569
0.00343116
0.00341301
0.00338536
0.00399518
0.00162184
0.00350166
0.00419905
0.00494286
0.00529889
0.00536561
0.00509572
0.00475375
0.00450103
0.00437454
0.00431257
0.00430384
0.00431533
0.00431768
0.00428874
0.0042141
0.00408684
0.00390505
0.0036676
0.00337555
0.00304302
0.00270583
0.00241527
0.00213874
0.00171248
0.00166347
0.00191755
0.002165
0.00236891
0.00253337
0.00266158
0.00275748
0.00282483
0.00286288
0.00286367
0.0028291
0.00278357
0.00270803
0.00257106
0.00242187
0.00158762
0.00323985
0.00628929
0.00582829
0.00552568
0.00523734
0.00498732
0.0047932
0.00464276
0.00450642
0.00437331
0.00423006
0.0040656
0.0038737
0.00365335
0.00340785
0.00314366
0.00287069
0.00260484
0.0023704
0.00219731
0.00205821
0.00160658
0.00147867
0.00173653
0.00197272
0.00215559
0.00229764
0.00240422
0.00247889
0.00252812
0.00256226
0.00259226
0.00259629
0.00254684
0.00241468
0.00218136
0.00188915
0.0012824
0.00302855
0.00681161
0.00628272
0.00586624
0.00552741
0.00522847
0.00494185
0.00467375
0.00441811
0.00411433
0.00379605
0.00348065
0.00317699
0.00288915
0.00261914
0.00236946
0.00214645
0.00196511
0.00185373
0.00183903
0.00184546
0.00141401
0.00112967
0.00137086
0.00158734
0.00176488
0.00192884
0.00208933
0.00224738
0.0023975
0.00252233
0.00262174
0.00269564
0.0027115
0.00266497
0.00256644
0.00233007
0.00129549
0.00237739
0.00258382
0.0027597
0.00292722
0.00273834
0.0025757
0.0023505
0.00216738
0.00199844
0.00184085
0.00169327
0.00156841
0.00145519
0.00134776
0.0012428
0.00113832
0.00103331
0.000927672
0.000822641
0.000721791
0.000632181
0.000562112
0.000511399
0.000448237
0.000487018
0.000583183
0.000660837
0.000730098
0.000795744
0.000860229
0.000925663
0.000994968
0.00107346
0.00115936
0.00124585
0.00132964
0.00141674
0.00139276
0.00127698
0.00117451
)
;

boundaryField
{
    floor
    {
        type            compressible::alphatWallFunction;
        Prt             0.85;
        value           nonuniform List<scalar> 
36
(
0.000141086
7.95024e-05
0.000103998
9.87584e-05
9.49527e-05
9.08695e-05
8.54622e-05
8.07261e-05
7.66598e-05
7.30369e-05
6.96811e-05
6.64997e-05
6.34383e-05
6.0454e-05
5.74869e-05
5.44554e-05
5.12292e-05
4.8765e-05
4.37684e-05
4.37678e-05
5.61377e-05
6.90466e-05
8.79177e-05
0.000108456
0.000109505
0.000109115
0.000141085
0.000147956
0.000142348
9.57939e-05
7.95014e-05
9.57928e-05
8.85709e-05
0.000153709
0.000112399
0.000158876
)
;
    }
    ceiling
    {
        type            compressible::alphatWallFunction;
        Prt             0.85;
        value           nonuniform List<scalar> 
43
(
0.00032576
0.000352036
0.000374253
0.000395395
0.000371718
0.000351181
0.000322501
0.000298958
0.000277046
0.000256423
0.000236934
0.000220298
0.000205086
0.00019053
0.000176179
0.000161757
0.000147107
0.000132195
0.000117168
0.000102521
8.92971e-05
7.87945e-05
7.10902e-05
6.13615e-05
6.73525e-05
8.19652e-05
9.35447e-05
0.000103732
0.00011328
0.000122568
0.000131908
0.000141716
0.000152729
0.000164675
0.0001766
0.000188064
0.000199894
0.000196646
0.00018087
0.000166774
0.000466798
0.00055162
0.000407796
)
;
    }
    sWall
    {
        type            compressible::alphatWallFunction;
        Prt             0.85;
        value           uniform 0.000324551;
    }
    nWall
    {
        type            compressible::alphatWallFunction;
        Prt             0.85;
        value           nonuniform List<scalar> 6(0.000108915 0.000138894 0.000169452 0.00018128 0.000183068 0.000166443);
    }
    sideWalls
    {
        type            empty;
    }
    glass1
    {
        type            compressible::alphatWallFunction;
        Prt             0.85;
        value           nonuniform List<scalar> 9(0.000110934 0.000177355 0.000235815 0.000293558 0.000350131 0.00040602 0.000459036 0.000471001 0.000460224);
    }
    glass2
    {
        type            compressible::alphatWallFunction;
        Prt             0.85;
        value           nonuniform List<scalar> 2(0.000225703 0.00022121);
    }
    sun
    {
        type            compressible::alphatWallFunction;
        Prt             0.85;
        value           nonuniform List<scalar> 
14
(
0.000114082
0.000118318
0.000114314
0.000118383
0.000122085
0.000125317
0.00012817
0.000130761
0.000133217
0.000135692
0.000137768
0.000139239
0.000140132
0.00014073
)
;
    }
    Table_master
    {
        type            compressible::alphatWallFunction;
        Prt             0.85;
        value           nonuniform List<scalar> 9(8.08294e-05 6.28523e-05 5.31269e-05 5.09328e-05 5.00439e-05 4.87409e-05 4.71489e-05 4.56664e-05 4.52823e-05);
    }
    Table_slave
    {
        type            compressible::alphatWallFunction;
        Prt             0.85;
        value           nonuniform List<scalar> 9(9.01297e-05 9.0868e-05 9.39755e-05 9.73416e-05 0.000100475 0.00010259 0.000102769 0.000100133 9.67962e-05);
    }
    inlet
    {
        type            fixedValue;
        value           uniform 1.94e-05;
    }
    outlet
    {
        type            zeroGradient;
    }
}


// ************************************************************************* //
