/*--------------------------------*- C++ -*----------------------------------*\
  =========                 |
  \\      /  F ield         | OpenFOAM: The Open Source CFD Toolbox
   \\    /   O peration     | Website:  https://openfoam.org
    \\  /    A nd           | Version:  6
     \\/     M anipulation  |
\*---------------------------------------------------------------------------*/
FoamFile
{
    version     2.0;
    format      ascii;
    class       volScalarField;
    location    "2000";
    object      alphat;
}
// * * * * * * * * * * * * * * * * * * * * * * * * * * * * * * * * * * * * * //

dimensions      [1 -1 -1 0 0 0 0];

internalField   nonuniform List<scalar> 
458
(
0.000808437
0.000833147
0.000775849
0.000805167
0.000835473
0.000863622
0.000889838
0.000914842
0.000939618
0.000965578
0.000988685
0.00100769
0.00102297
0.00103646
0.00104746
0.000367351
0.000405043
0.000418697
0.000341544
0.000267619
0.000234206
0.000227588
0.00024293
0.000268877
0.000299983
0.000329253
0.000346062
0.000357291
0.000381097
0.000423838
0.000477043
0.000505447
0.000439809
0.00136141
0.0023352
0.00176119
0.002279
0.00247556
0.00267411
0.00287537
0.00306316
0.00321529
0.00330255
0.00333589
0.00327513
0.00306468
0.00261817
0.00187083
0.00113419
0.00108558
0.000767078
0.000498238
0.00108467
0.00123075
0.00113676
0.00065377
0.000336634
0.000345559
0.000467595
0.00066218
0.000884277
0.00109417
0.00125351
0.00139399
0.00158397
0.00187351
0.00179576
0.00177454
0.000522181
0.00185383
0.00384373
0.00186981
0.0032975
0.00376049
0.0040179
0.00424307
0.00443936
0.00460005
0.00471411
0.00478945
0.00480288
0.00470886
0.00443747
0.0039182
0.00316096
0.00218703
0.00117155
0.000880499
0.00227428
0.00198348
0.00155139
0.0010124
0.000333971
0.000341687
0.00038261
0.000424621
0.00046905
0.000518172
0.000576492
0.000651686
0.000759914
0.00208874
0.00184359
0.00139936
0.000722972
0.00232662
0.00579706
0.0020628
0.0035162
0.00444639
0.00472666
0.00491632
0.00507515
0.0052127
0.00533069
0.00544356
0.00556617
0.00567185
0.00569271
0.0055006
0.00492419
0.00382324
0.00232564
0.00121453
0.00280999
0.00279637
0.00226897
0.0016882
0.00117427
0.000783381
0.000779601
0.000779885
0.000784012
0.000793988
0.000812443
0.000842338
0.000887375
0.000962578
0.00299592
0.00333727
0.00313735
0.00107394
0.00277036
0.00796332
0.00273528
0.00318029
0.00461648
0.00496005
0.00510106
0.00519552
0.00527287
0.00535355
0.00546968
0.00567944
0.00598597
0.00636452
0.00674488
0.00702639
0.0071147
0.00692603
0.00646237
0.00617994
0.00569602
0.00521032
0.00480072
0.00447058
0.00419924
0.00401633
0.00384252
0.00368362
0.00356049
0.00349633
0.00350409
0.00358086
0.00371679
0.00392798
0.00400893
0.00391287
0.00332424
0.00147979
0.00133383
0.00119026
0.00318863
0.00993778
0.00417764
0.00284308
0.00419351
0.00475643
0.00495898
0.0050412
0.00505303
0.00503575
0.00509194
0.00527975
0.0056087
0.00609089
0.00669882
0.00734798
0.00790666
0.00820659
0.00814748
0.00783176
0.00740705
0.006999
0.00665392
0.0063564
0.00606941
0.00576431
0.00542684
0.00506631
0.00471799
0.00443293
0.0042468
0.00415486
0.00411927
0.00409175
0.00404583
0.00396202
0.00370159
0.00313511
0.00240154
0.0012234
0.00358302
0.0113886
0.00676212
0.00355681
0.00317944
0.00380125
0.00438768
0.00474653
0.00487902
0.00474488
0.00472424
0.00480767
0.00500416
0.00535636
0.00589882
0.00660581
0.00735305
0.00794173
0.00822598
0.00822067
0.00804011
0.00780947
0.00759147
0.00739238
0.00719032
0.00695596
0.00665921
0.00627517
0.00580982
0.00532121
0.00488943
0.00454983
0.00428618
0.0040534
0.00380544
0.0034964
0.00307028
0.00254737
0.00199112
0.00118981
0.00367879
0.0116323
0.0088425
0.00648465
0.00465553
0.0039047
0.00406455
0.00447282
0.00465278
0.00456498
0.00448813
0.00447241
0.00452808
0.00467494
0.00495462
0.00541724
0.00605849
0.00674931
0.00730327
0.00763207
0.00774978
0.00776052
0.00773285
0.00769774
0.00766351
0.0076257
0.00756224
0.00742368
0.00714996
0.00672914
0.00623157
0.005699
0.00515497
0.00460451
0.004065
0.00356074
0.00305183
0.00264344
0.0022855
0.00145491
0.00357171
0.00428975
0.00506104
0.00516152
0.00483519
0.00439912
0.00410048
0.00396769
0.00392546
0.00393187
0.00396656
0.00401335
0.00406844
0.00414082
0.00425487
0.00445315
0.00478364
0.00525115
0.00577809
0.00625502
0.00662105
0.00688175
0.0070661
0.00720474
0.00732548
0.00745517
0.00761453
0.00779965
0.00795922
0.00799701
0.00784954
0.00755775
0.0072517
0.0069972
0.00667332
0.00594899
0.00499688
0.00425746
0.00415262
0.00173189
0.0047142
0.00649325
0.00559396
0.00504289
0.00465736
0.00438788
0.00419904
0.00405895
0.00395418
0.00387727
0.00382288
0.00379031
0.00378571
0.00382419
0.0039304
0.00413078
0.00443279
0.00480748
0.00519999
0.00556049
0.0058648
0.0061131
0.0063221
0.00651888
0.0067361
0.00700104
0.00730307
0.0075995
0.00781396
0.0078695
0.00777077
0.00757866
0.00733343
0.00704815
0.00644874
0.00549709
0.00493005
0.00173527
0.00331341
0.00677251
0.00578515
0.00521222
0.00480083
0.0044863
0.00424737
0.00407018
0.00390646
0.0037666
0.00366022
0.00359423
0.00357494
0.00360926
0.00370459
0.00386686
0.00409597
0.00437965
0.00468615
0.00496503
0.00520225
0.00539612
0.00555249
0.00568041
0.00578999
0.00589214
0.00600109
0.00612689
0.00625756
0.00635897
0.00639318
0.00634369
0.00621069
0.00590711
0.0053483
0.00447933
0.00429327
0.00158482
0.00219159
0.00249293
0.00283676
0.00294728
0.00258704
0.00236093
0.00217433
0.00201172
0.00186747
0.00173775
0.00162809
0.00153285
0.00144862
0.00137396
0.0013087
0.00125357
0.00120971
0.00117833
0.00116002
0.00115429
0.00115975
0.00117487
0.00119249
0.00120846
0.00122116
0.00123056
0.00123749
0.00124327
0.00124984
0.00125877
0.00127001
0.00128176
0.00129033
0.00129049
0.00127544
0.00124822
0.00121521
0.00117198
0.00119719
0.00113697
)
;

boundaryField
{
    floor
    {
        type            compressible::alphatWallFunction;
        Prt             0.85;
        value           nonuniform List<scalar> 
36
(
0.000148999
4.85174e-05
5.44817e-05
5.66239e-05
4.43854e-05
3.2314e-05
2.6717e-05
2.55943e-05
2.81849e-05
3.2519e-05
3.76428e-05
4.24011e-05
4.51092e-05
4.69084e-05
5.06992e-05
5.74314e-05
6.56924e-05
7.00521e-05
5.9927e-05
5.99262e-05
7.26057e-05
0.000102565
0.000152697
0.000208323
0.000188552
0.000168866
0.000148998
0.00016109
0.000154324
0.000109031
4.85168e-05
0.00010903
6.8942e-05
0.000166259
0.000125339
0.000172186
)
;
    }
    ceiling
    {
        type            compressible::alphatWallFunction;
        Prt             0.85;
        value           nonuniform List<scalar> 
43
(
0.000302139
0.000340735
0.00038418
0.00039805
0.000352715
0.000323921
0.000299935
0.000278853
0.000259996
0.000242901
0.000228341
0.000215606
0.000204269
0.000194159
0.000185272
0.000177722
0.00017169
0.000167356
0.000164821
0.000164024
0.000164778
0.000166868
0.0001693
0.000171502
0.000173251
0.000174543
0.000175495
0.000176288
0.000177189
0.000178414
0.000179953
0.000181561
0.000182734
0.000182755
0.000180694
0.000176961
0.000172421
0.000166454
0.000169934
0.000161604
0.000475409
0.000562565
0.000443515
)
;
    }
    sWall
    {
        type            compressible::alphatWallFunction;
        Prt             0.85;
        value           uniform 0.000301064;
    }
    nWall
    {
        type            compressible::alphatWallFunction;
        Prt             0.85;
        value           nonuniform List<scalar> 6(0.000168661 0.000173229 0.000168601 0.000242203 0.000222197 0.000161291);
    }
    sideWalls
    {
        type            empty;
    }
    glass1
    {
        type            compressible::alphatWallFunction;
        Prt             0.85;
        value           nonuniform List<scalar> 9(0.000111944 0.000188034 0.000253022 0.000313786 0.000369716 0.000421638 0.000469988 0.000481769 0.000468931);
    }
    glass2
    {
        type            compressible::alphatWallFunction;
        Prt             0.85;
        value           nonuniform List<scalar> 2(0.000203716 0.000240596);
    }
    sun
    {
        type            compressible::alphatWallFunction;
        Prt             0.85;
        value           nonuniform List<scalar> 
14
(
0.000115046
0.00011859
0.000110311
0.000114556
0.000118925
0.000122967
0.000126716
0.000130281
0.000133801
0.000137478
0.000140741
0.000143418
0.000145566
0.000147458
)
;
    }
    Table_master
    {
        type            compressible::alphatWallFunction;
        Prt             0.85;
        value           nonuniform List<scalar> 9(4.32896e-05 4.45299e-05 5.10645e-05 5.7679e-05 6.45833e-05 7.21211e-05 8.09553e-05 9.21844e-05 0.000108075);
    }
    Table_slave
    {
        type            compressible::alphatWallFunction;
        Prt             0.85;
        value           nonuniform List<scalar> 9(0.000111487 0.000110939 0.000110981 0.00011158 0.000113025 0.000115692 0.000119998 0.00012645 0.000137141);
    }
    inlet
    {
        type            fixedValue;
        value           uniform 1.94e-05;
    }
    outlet
    {
        type            zeroGradient;
    }
}


// ************************************************************************* //
