/*--------------------------------*- C++ -*----------------------------------*\
  =========                 |
  \\      /  F ield         | OpenFOAM: The Open Source CFD Toolbox
   \\    /   O peration     | Website:  https://openfoam.org
    \\  /    A nd           | Version:  6
     \\/     M anipulation  |
\*---------------------------------------------------------------------------*/
FoamFile
{
    version     2.0;
    format      ascii;
    class       volScalarField;
    location    "2000";
    object      k;
}
// * * * * * * * * * * * * * * * * * * * * * * * * * * * * * * * * * * * * * //

dimensions      [0 2 -2 0 0 0 0];

internalField   nonuniform List<scalar> 
458
(
0.000965813
0.00102374
0.00088775
0.000956158
0.00102953
0.00110011
0.00116795
0.00123454
0.00130234
0.00137531
0.00144192
0.00149786
0.00154357
0.00158444
0.00161811
0.000197415
0.000240005
0.000256473
0.000170637
0.000104755
8.02349e-05
7.5756e-05
8.62987e-05
0.000105709
0.000131583
0.000158524
0.000175138
0.0001867
0.000212447
0.000262885
0.000333195
0.000374077
0.0002832
0.00274308
0.00543164
0.00149038
0.00141501
0.00149389
0.00159227
0.00169736
0.00180987
0.00193027
0.00205603
0.00217941
0.00227928
0.00232665
0.00227398
0.00207927
0.00189683
0.00173722
0.000867074
0.000363335
0.000729288
0.000677252
0.000489703
0.000227559
0.000119331
0.000123254
0.000173521
0.000258051
0.000361753
0.000467581
0.000570335
0.000683053
0.000817337
0.000947798
0.000982315
0.00122978
0.00039932
0.00509348
0.0127624
0.00234843
0.00180129
0.00184676
0.00195687
0.00208211
0.0022198
0.00236929
0.00252607
0.00268191
0.00281374
0.00289941
0.00291564
0.00284495
0.00269516
0.00241188
0.00202268
0.00113778
0.00170941
0.00114322
0.000860689
0.000615688
0.000163355
0.000171007
0.00021451
0.000264302
0.000322622
0.000393884
0.000487732
0.000623572
0.000848434
0.00124368
0.0011889
0.00113285
0.000767067
0.00803315
0.023407
0.00383004
0.00211189
0.00208089
0.00220315
0.00235283
0.00251881
0.00269984
0.00289273
0.00308832
0.0032636
0.00340715
0.00350807
0.00353285
0.00343019
0.00315047
0.00265601
0.00217228
0.00203407
0.00153687
0.00124957
0.00107905
0.000962258
0.000904892
0.000896211
0.000896895
0.000906449
0.000929708
0.000973481
0.00104649
0.00116143
0.00136659
0.00207688
0.00240667
0.00255138
0.00169908
0.0114031
0.0361723
0.006542
0.00243046
0.00222566
0.0023522
0.00253359
0.00274107
0.0029723
0.00322558
0.00347411
0.00369324
0.00389613
0.00410104
0.00429048
0.00441474
0.00441443
0.00419582
0.0036402
0.00286198
0.00233428
0.0020259
0.00186758
0.00179015
0.00175114
0.00173165
0.0017355
0.00176882
0.00184246
0.00197096
0.00216863
0.00244412
0.00279437
0.00317229
0.00362183
0.00399461
0.00392422
0.00323229
0.00262598
0.00209116
0.0151218
0.0477062
0.0114492
0.00316164
0.00244308
0.00252657
0.00274357
0.00300486
0.00329877
0.00362804
0.00388714
0.00406722
0.00422746
0.00442924
0.00468835
0.00496235
0.00514441
0.00505841
0.00460049
0.00393559
0.00333795
0.00291507
0.00265812
0.00250871
0.00241705
0.00235946
0.00233417
0.00234471
0.00240319
0.00253013
0.00274628
0.00305964
0.00345723
0.00390557
0.00438551
0.00486115
0.00505434
0.00459974
0.00318255
0.00220967
0.0191096
0.0542883
0.0207254
0.00668301
0.00368406
0.00326222
0.00343516
0.00374073
0.00409229
0.0044343
0.00454
0.00452785
0.00449656
0.00453126
0.0046847
0.00495334
0.00523723
0.00533803
0.00511763
0.00465124
0.00413633
0.00371152
0.00341526
0.00322609
0.00310991
0.00304514
0.00302282
0.00303815
0.00309304
0.00320042
0.00337911
0.00363563
0.00395591
0.00429957
0.00460272
0.00476558
0.0046238
0.00408827
0.00319047
0.00209021
0.0201722
0.0624919
0.036237
0.0215719
0.0121735
0.00769345
0.00633455
0.00607456
0.00608053
0.00583244
0.00547985
0.00513046
0.00483131
0.00461542
0.00451821
0.00457321
0.00476628
0.00497018
0.00500676
0.00481807
0.00451455
0.00421601
0.00397998
0.00381932
0.00372693
0.00369668
0.00372778
0.00382026
0.00397415
0.00419102
0.00446321
0.00474254
0.00496274
0.00507781
0.0050946
0.00506368
0.00496187
0.00490236
0.00475339
0.00312889
0.0190499
0.0274301
0.0275329
0.0233395
0.0183476
0.0140369
0.011018
0.00907766
0.00777216
0.00679808
0.00605332
0.0054655
0.00499416
0.00462176
0.0043485
0.00418907
0.00415905
0.00423677
0.00434181
0.00439108
0.00436608
0.00429721
0.00422008
0.00415984
0.00413089
0.00414434
0.00421271
0.00434908
0.00456548
0.00486389
0.00522069
0.00565756
0.00619255
0.00685566
0.00752788
0.00771584
0.00750671
0.00777807
0.00950849
0.00443485
0.0218567
0.0288247
0.020208
0.0153854
0.0121839
0.00994862
0.00833967
0.00713127
0.00620184
0.00548241
0.00492323
0.00448995
0.00416107
0.00392699
0.00378841
0.00374912
0.00380151
0.00391788
0.00405908
0.0041879
0.00429007
0.00436875
0.00443522
0.00450361
0.00458923
0.00470713
0.00486965
0.0050725
0.00530885
0.00556858
0.00584134
0.00611354
0.00633552
0.00643113
0.00622587
0.00576001
0.00747094
0.00444919
0.016221
0.0263208
0.018383
0.0142317
0.011486
0.00952233
0.00809191
0.00704663
0.00625044
0.00564764
0.00519928
0.00487749
0.00466444
0.0045506
0.0045317
0.00460408
0.00475891
0.00497658
0.00521904
0.00542566
0.00557984
0.00568391
0.00574769
0.00578004
0.00578499
0.00576339
0.00571151
0.00562798
0.00552363
0.00542069
0.00533853
0.00527329
0.0051969
0.00503742
0.00475349
0.00440772
0.00726576
0.00371131
0.00710384
0.0091874
0.0118963
0.0128732
0.00992375
0.00826624
0.00701156
0.00600208
0.00517207
0.00447832
0.00393081
0.00348419
0.00311164
0.002799
0.00253929
0.00232964
0.00216931
0.002058
0.00199433
0.00197444
0.00199292
0.00204501
0.00210656
0.00216311
0.00220852
0.00224234
0.00226733
0.00228819
0.00231202
0.00234473
0.0023863
0.00243014
0.0024623
0.00246246
0.00240501
0.00230317
0.00218268
0.00202991
0.00211792
0.00191044
)
;

boundaryField
{
    floor
    {
        type            kqRWallFunction;
        value           nonuniform List<scalar> 
36
(
0.00161811
0.000197415
0.000240005
0.000256473
0.000170637
0.000104755
8.02349e-05
7.5756e-05
8.62987e-05
0.000105709
0.000131583
0.000158524
0.000175138
0.0001867
0.000212447
0.000262885
0.000333195
0.000374077
0.0002832
0.0002832
0.00039932
0.000767067
0.00169908
0.00323229
0.00262598
0.00209116
0.00161811
0.00189683
0.00173722
0.000867074
0.000197415
0.000867074
0.000363335
0.00202268
0.00113778
0.00217228
)
;
    }
    ceiling
    {
        type            kqRWallFunction;
        value           nonuniform List<scalar> 
43
(
0.00710384
0.0091874
0.0118963
0.0128732
0.00992375
0.00826624
0.00701156
0.00600208
0.00517207
0.00447832
0.00393081
0.00348419
0.00311164
0.002799
0.00253929
0.00232964
0.00216931
0.002058
0.00199433
0.00197444
0.00199292
0.00204501
0.00210656
0.00216311
0.00220852
0.00224234
0.00226733
0.00228819
0.00231202
0.00234473
0.0023863
0.00243014
0.0024623
0.00246246
0.00240501
0.00230317
0.00218268
0.00202991
0.00211792
0.00191044
0.0190499
0.0274301
0.016221
)
;
    }
    sWall
    {
        type            kqRWallFunction;
        value           uniform 0.00710384;
    }
    nWall
    {
        type            kqRWallFunction;
        value           nonuniform List<scalar> 6(0.00209116 0.00220967 0.00209021 0.00444919 0.00371131 0.00191044);
    }
    sideWalls
    {
        type            empty;
    }
    glass1
    {
        type            kqRWallFunction;
        value           nonuniform List<scalar> 9(0.000965813 0.00274308 0.00509348 0.00803315 0.0114031 0.0151218 0.0191096 0.0201722 0.0190499);
    }
    glass2
    {
        type            kqRWallFunction;
        value           nonuniform List<scalar> 2(0.00312889 0.00443485);
    }
    sun
    {
        type            kqRWallFunction;
        value           nonuniform List<scalar> 
14
(
0.000965813
0.00102374
0.00088775
0.000956158
0.00102953
0.00110011
0.00116795
0.00123454
0.00130234
0.00137531
0.00144192
0.00149786
0.00154357
0.00158444
)
;
    }
    Table_master
    {
        type            kqRWallFunction;
        value           nonuniform List<scalar> 9(0.000163355 0.000171007 0.00021451 0.000264302 0.000322622 0.000393884 0.000487732 0.000623572 0.000848434);
    }
    Table_slave
    {
        type            kqRWallFunction;
        value           nonuniform List<scalar> 9(0.000904892 0.000896211 0.000896895 0.000906449 0.000929708 0.000973481 0.00104649 0.00116143 0.00136659);
    }
    inlet
    {
        type            turbulentIntensityKineticEnergyInlet;
        intensity       0.05;
        value           uniform 3.75e-05;
    }
    outlet
    {
        type            zeroGradient;
    }
}


// ************************************************************************* //
