/*--------------------------------*- C++ -*----------------------------------*\
  =========                 |
  \\      /  F ield         | OpenFOAM: The Open Source CFD Toolbox
   \\    /   O peration     | Website:  https://openfoam.org
    \\  /    A nd           | Version:  6
     \\/     M anipulation  |
\*---------------------------------------------------------------------------*/
FoamFile
{
    version     2.0;
    format      ascii;
    class       volScalarField;
    location    "2000";
    object      T;
}
// * * * * * * * * * * * * * * * * * * * * * * * * * * * * * * * * * * * * * //

dimensions      [0 0 0 1 0 0 0];

internalField   nonuniform List<scalar> 
458
(
304.033
303.735
303.732
303.74
303.746
303.751
303.755
303.759
303.762
303.764
303.764
303.761
303.754
303.745
303.732
302.495
302.498
302.512
302.497
302.482
302.484
302.476
302.459
302.451
302.45
302.455
302.461
302.468
302.494
302.55
302.619
302.628
302.615
304.255
303.8
303.779
303.793
303.808
303.821
303.832
303.84
303.846
303.849
303.847
303.837
303.817
303.786
303.741
303.698
303.654
303.596
302.571
302.595
302.617
302.633
302.589
302.564
302.562
302.562
302.568
302.585
302.617
302.676
302.751
302.838
302.932
302.921
302.809
302.646
304.462
303.871
303.828
303.85
303.875
303.899
303.92
303.939
303.953
303.961
303.962
303.95
303.924
303.881
303.819
303.746
303.668
303.603
302.964
302.925
302.936
302.97
302.991
302.666
302.697
302.754
302.806
302.859
302.913
302.972
303.045
303.14
303.234
303.102
303.014
302.959
304.652
303.951
303.875
303.901
303.937
303.973
304.007
304.038
304.063
304.081
304.089
304.082
304.057
304.011
303.943
303.854
303.742
303.609
303.487
303.389
303.441
303.521
303.599
303.643
303.676
303.68
303.684
303.689
303.696
303.704
303.712
303.719
303.713
303.635
303.595
303.555
303.53
304.826
304.037
303.921
303.942
303.986
304.032
304.077
304.121
304.159
304.189
304.207
304.21
304.194
304.158
304.103
304.03
303.947
303.861
303.789
303.739
303.726
303.733
303.74
303.742
303.742
303.742
303.743
303.748
303.757
303.768
303.781
303.794
303.803
303.803
303.809
303.813
303.798
303.824
303.817
303.82
304.976
304.133
303.98
303.976
304.02
304.07
304.121
304.172
304.221
304.263
304.293
304.309
304.307
304.285
304.243
304.184
304.111
304.034
303.964
303.909
303.873
303.85
303.832
303.818
303.806
303.797
303.792
303.793
303.8
303.812
303.829
303.848
303.866
303.884
303.9
303.914
303.923
303.926
303.879
303.843
305.095
304.277
304.109
304.045
304.058
304.099
304.146
304.196
304.248
304.303
304.345
304.372
304.382
304.376
304.353
304.312
304.255
304.188
304.119
304.058
304.008
303.968
303.935
303.907
303.883
303.862
303.846
303.837
303.835
303.844
303.86
303.881
303.903
303.923
303.939
303.953
303.962
303.961
303.938
303.853
305.295
304.65
304.473
304.32
304.229
304.204
304.219
304.252
304.302
304.354
304.391
304.415
304.428
304.43
304.422
304.402
304.367
304.318
304.26
304.199
304.144
304.095
304.052
304.014
303.979
303.946
303.917
303.893
303.876
303.871
303.877
303.893
303.913
303.933
303.951
303.968
303.984
304
304.013
304.028
305.568
305.295
305.121
304.928
304.753
304.63
304.554
304.514
304.495
304.484
304.479
304.478
304.475
304.471
304.463
304.451
304.431
304.402
304.364
304.319
304.271
304.223
304.177
304.133
304.092
304.051
304.012
303.976
303.944
303.92
303.904
303.898
303.9
303.905
303.912
303.925
303.943
303.966
303.994
304.063
303.872
304.528
304.63
304.62
304.595
304.574
304.559
304.547
304.536
304.524
304.513
304.502
304.49
304.477
304.462
304.444
304.421
304.393
304.36
304.323
304.284
304.243
304.203
304.161
304.12
304.078
304.038
304.001
303.968
303.943
303.927
303.918
303.913
303.912
303.915
303.921
303.931
303.956
303.946
304.463
304.542
304.563
304.563
304.557
304.55
304.541
304.533
304.523
304.513
304.502
304.491
304.479
304.467
304.453
304.437
304.419
304.398
304.373
304.345
304.315
304.282
304.248
304.211
304.174
304.135
304.094
304.055
304.019
303.99
303.968
303.953
303.944
303.939
303.937
303.938
303.963
304.089
304.021
304.022
304.398
304.476
304.501
304.508
304.508
304.504
304.499
304.493
304.486
304.478
304.47
304.461
304.451
304.441
304.429
304.416
304.402
304.388
304.372
304.354
304.336
304.315
304.293
304.269
304.243
304.214
304.184
304.151
304.118
304.086
304.058
304.035
304.015
303.996
303.979
303.961
303.977
)
;

boundaryField
{
    floor
    {
        type            wallHeatTransfer;
        Tinf            uniform 305.2;
        alphaWall       uniform 0.24;
        value           nonuniform List<scalar> 
36
(
303.91
303.156
303.12
303.119
303.186
303.277
303.337
303.344
303.304
303.253
303.206
303.17
303.154
303.147
303.14
303.144
303.156
303.143
303.181
303.181
303.147
303.312
303.728
303.952
303.956
303.971
303.91
303.869
303.836
303.839
303.156
303.839
303.103
303.781
303.271
303.672
)
;
    }
    ceiling
    {
        type            wallHeatTransfer;
        Tinf            uniform 303.2;
        alphaWall       uniform 0.24;
        value           nonuniform List<scalar> 
43
(
304.029
303.97
303.976
304.334
304.4
304.417
304.418
304.412
304.403
304.392
304.381
304.369
304.358
304.345
304.332
304.319
304.306
304.293
304.28
304.267
304.255
304.242
304.228
304.212
304.195
304.176
304.155
304.132
304.107
304.08
304.052
304.023
303.995
303.969
303.948
303.928
303.91
303.892
303.878
303.889
305.46
305.213
303.91
)
;
    }
    sWall
    {
        type            wallHeatTransfer;
        Tinf            uniform 315.2;
        alphaWall       uniform 0.36;
        value           uniform 305.192;
    }
    nWall
    {
        type            wallHeatTransfer;
        Tinf            uniform 307.2;
        alphaWall       uniform 0.36;
        value           nonuniform List<scalar> 6(304.348 304.358 304.376 304.341 304.373 304.497);
    }
    sideWalls
    {
        type            empty;
    }
    glass1
    {
        type            wallHeatTransfer;
        Tinf            uniform 315.2;
        alphaWall       uniform 4.3;
        value           nonuniform List<scalar> 9(312.492 311.566 310.977 310.546 310.23 309.987 309.789 309.838 310.047);
    }
    glass2
    {
        type            wallHeatTransfer;
        Tinf            uniform 307.2;
        alphaWall       uniform 4.3;
        value           nonuniform List<scalar> 2(306.097 306);
    }
    sun
    {
        type            wallHeatTransfer;
        Tinf            uniform 305.2;
        alphaWall       uniform 0.24;
        value           nonuniform List<scalar> 
14
(
304.203
303.944
303.953
303.953
303.953
303.953
303.952
303.951
303.95
303.948
303.945
303.94
303.932
303.922
)
;
    }
    Table_master
    {
        type            zeroGradient;
    }
    Table_slave
    {
        type            zeroGradient;
    }
    inlet
    {
        type            fixedValue;
        value           uniform 299.15;
    }
    outlet
    {
        type            zeroGradient;
    }
}


// ************************************************************************* //
