/*--------------------------------*- C++ -*----------------------------------*\
  =========                 |
  \\      /  F ield         | OpenFOAM: The Open Source CFD Toolbox
   \\    /   O peration     | Website:  https://openfoam.org
    \\  /    A nd           | Version:  6
     \\/     M anipulation  |
\*---------------------------------------------------------------------------*/
FoamFile
{
    version     2.0;
    format      ascii;
    class       volScalarField;
    location    "2200";
    object      nut;
}
// * * * * * * * * * * * * * * * * * * * * * * * * * * * * * * * * * * * * * //

dimensions      [0 2 -1 0 0 0 0];

internalField   nonuniform List<scalar> 
458
(
0.00115729
0.00127298
0.00130448
0.00137098
0.00143424
0.00149606
0.00155998
0.00160726
0.00163187
0.00162911
0.00159649
0.00153205
0.00143022
0.00124478
0.000993071
0.000509348
0.000609399
0.000709348
0.000750289
0.000740025
0.000690746
0.000636724
0.000588672
0.000547316
0.000511661
0.000480766
0.000453722
0.000429909
0.000408346
0.000387894
0.00036703
0.000347474
0.000313614
0.00155142
0.00399043
0.00391777
0.00458232
0.00524566
0.00586029
0.0063003
0.00669294
0.00701418
0.00723627
0.00733857
0.00730252
0.00710163
0.00661787
0.00522078
0.0013291
0.0011009
0.000874099
0.000505033
0.00132842
0.00203735
0.00256041
0.00267732
0.00186814
0.00154891
0.00133891
0.00118666
0.00107144
0.000981187
0.000909028
0.000841639
0.000770999
0.000703612
0.000645837
0.00071166
0.000371161
0.00187475
0.00544617
0.00491492
0.00597627
0.00652505
0.00693807
0.00724202
0.00755564
0.0078735
0.00816911
0.00841069
0.00855922
0.00855411
0.00830997
0.00766021
0.00618521
0.00459345
0.00112209
0.000827265
0.00156501
0.00240583
0.00316634
0.0032753
0.000949698
0.000819377
0.000713346
0.000628743
0.000561189
0.000506877
0.000462863
0.000427748
0.000401445
0.000449186
0.000529266
0.000820094
0.000414491
0.00218168
0.00684473
0.005029
0.00627679
0.006647
0.00682281
0.00699515
0.00724452
0.00755549
0.00790294
0.00824564
0.00851774
0.00863328
0.00858358
0.00833397
0.00778133
0.00659156
0.00366682
0.00132219
0.00174606
0.00257827
0.00358032
0.00439646
0.00432324
0.00108158
0.000976747
0.000900972
0.000841797
0.000790931
0.000745997
0.000703008
0.000658556
0.000608525
0.000562452
0.000556391
0.000930624
0.000461472
0.00249442
0.00861968
0.00560309
0.0062539
0.00663378
0.00665299
0.0067528
0.00694786
0.00724537
0.00762067
0.00800842
0.00831365
0.00846752
0.00845732
0.00831718
0.00806178
0.00752739
0.00639218
0.00573213
0.00580247
0.00613231
0.0064866
0.00667575
0.00647389
0.00530949
0.00468952
0.00430986
0.0040272
0.00375983
0.00341299
0.00298684
0.00249091
0.00195224
0.00144393
0.00106725
0.00101473
0.000752736
0.000601
0.000668696
0.000734886
0.0028263
0.0105784
0.00762813
0.00672147
0.00699338
0.00686188
0.00683203
0.00690485
0.00714835
0.00753886
0.00796881
0.00830234
0.00844479
0.00839108
0.00822706
0.00807133
0.00797686
0.00789132
0.00804083
0.00827775
0.00842658
0.00840975
0.00820597
0.00780092
0.00717068
0.00660611
0.00613646
0.00571747
0.0053082
0.00485558
0.00433558
0.0037402
0.00307467
0.00238676
0.00179958
0.00136261
0.00104295
0.000855182
0.00108507
0.000760452
0.0031143
0.0118835
0.0103458
0.00863165
0.00800915
0.00739791
0.00702952
0.00698156
0.0072387
0.00769918
0.00819251
0.00854293
0.00864568
0.00852312
0.00833224
0.00829752
0.00856448
0.00900398
0.00942826
0.0096334
0.00956958
0.00927329
0.00880382
0.00821708
0.00756872
0.00695463
0.00639796
0.0058862
0.00540764
0.00496185
0.00455276
0.00410185
0.00357952
0.0029885
0.00243013
0.00194184
0.0015828
0.00139644
0.00130212
0.00090235
0.00315997
0.0101554
0.0093712
0.00835476
0.00750628
0.0069247
0.00673982
0.0069632
0.00749991
0.00816671
0.00873892
0.00904202
0.00902147
0.00879269
0.00863785
0.00885678
0.00938546
0.00982024
0.0100351
0.00997936
0.00964719
0.00910053
0.00841104
0.0076475
0.00688126
0.00617829
0.00555881
0.00501858
0.00455966
0.00419556
0.0039406
0.00377946
0.00356816
0.00322312
0.00292163
0.00273184
0.0027154
0.00277898
0.0032273
0.00139131
0.00306963
0.00359549
0.00387176
0.00402996
0.00442751
0.00515931
0.00616438
0.00732068
0.00843611
0.00928687
0.00969414
0.00963689
0.00926705
0.00899214
0.00909542
0.0093464
0.00956533
0.00963503
0.00950697
0.00915758
0.00859959
0.00787268
0.00704941
0.00620953
0.005427
0.00474634
0.00417231
0.00369579
0.00330975
0.00300544
0.00276598
0.00257823
0.00243956
0.00233312
0.00226015
0.00221445
0.00215406
0.00204945
0.00192074
0.00132758
0.00126645
0.00463596
0.00775424
0.00960652
0.0107105
0.0112568
0.0112967
0.0109465
0.0103462
0.0095644
0.00890917
0.00860957
0.00859955
0.00857561
0.00843534
0.00816287
0.00773576
0.00714971
0.00644961
0.00571297
0.00500522
0.00437508
0.00384167
0.00339656
0.00302685
0.00272636
0.00249331
0.00232849
0.00222762
0.0021775
0.00215827
0.00215684
0.00215891
0.00214026
0.00206584
0.00192408
0.00173682
0.00112633
0.00207655
0.00821069
0.0099918
0.0104722
0.0104637
0.0100967
0.00945412
0.00870768
0.00799482
0.00736975
0.00691117
0.00660527
0.00635551
0.00610006
0.00582701
0.00551425
0.00514232
0.00472429
0.00430243
0.00391831
0.00359091
0.003318
0.00308665
0.00288354
0.00270046
0.00253654
0.00239628
0.00228551
0.00220979
0.00217178
0.00216963
0.00219516
0.00222985
0.00224686
0.00220849
0.0021988
0.00229677
0.00115682
0.00178562
0.00193367
0.00204078
0.0022187
0.00214621
0.0020953
0.00202299
0.00190644
0.00175681
0.00158871
0.00142136
0.00127978
0.00117514
0.0011031
0.00105362
0.0010173
0.000987046
0.000958058
0.000928183
0.000897893
0.000869022
0.000843133
0.000820857
0.000802203
0.000787206
0.000776398
0.00077082
0.000771752
0.000780381
0.000797214
0.000822317
0.00085557
0.000896894
0.000946103
0.0010021
0.00106552
0.00109458
0.00106868
0.00100504
0.000946972
)
;

boundaryField
{
    floor
    {
        type            nutkWallFunction;
        Cmu             0.09;
        kappa           0.41;
        E               9.8;
        value           nonuniform List<scalar> 
36
(
0.000119909
6.09014e-05
7.35178e-05
8.58715e-05
9.08707e-05
8.96208e-05
8.35897e-05
7.69184e-05
7.09269e-05
6.57224e-05
6.11965e-05
5.72432e-05
5.37566e-05
5.0665e-05
4.78467e-05
4.51561e-05
4.23925e-05
3.97835e-05
3.52205e-05
3.52204e-05
4.29395e-05
4.86491e-05
5.47552e-05
7.24649e-05
8.08704e-05
8.89908e-05
0.000119909
0.000158801
0.000132533
0.000105798
6.09013e-05
0.000105798
6.03501e-05
0.000134996
0.000100179
0.000158015
)
;
    }
    ceiling
    {
        type            nutkWallFunction;
        Cmu             0.09;
        kappa           0.41;
        E               9.8;
        value           nonuniform List<scalar> 
43
(
0.000209833
0.000226075
0.000237745
0.000257087
0.000249293
0.000243792
0.000235945
0.000223226
0.000206768
0.000188092
0.000169284
0.000153179
0.000141148
0.000132795
0.000127023
0.000122766
0.000119207
0.000115785
0.000112245
0.000108643
0.000105196
0.000102094
9.94153e-05
9.71658e-05
9.53528e-05
9.40435e-05
9.33666e-05
9.34791e-05
9.45246e-05
9.65605e-05
9.95876e-05
0.000103581
0.000108519
0.000114365
0.000120975
0.000128411
0.000131801
0.00012878
0.000121322
0.000114468
0.000347389
0.000401739
0.000241407
)
;
    }
    sWall
    {
        type            nutkWallFunction;
        Cmu             0.09;
        kappa           0.41;
        E               9.8;
        value           uniform 0.00020989;
    }
    nWall
    {
        type            nutkWallFunction;
        Cmu             0.09;
        kappa           0.41;
        E               9.8;
        value           nonuniform List<scalar> 6(8.89897e-05 9.2103e-05 0.00010917 0.000135504 0.00013904 0.000114473);
    }
    sideWalls
    {
        type            empty;
    }
    glass1
    {
        type            nutkWallFunction;
        Cmu             0.09;
        kappa           0.41;
        E               9.8;
        value           nonuniform List<scalar> 9(0.000139206 0.000184153 0.000220066 0.000253535 0.000287122 0.000322285 0.00035245 0.000357216 0.000347818);
    }
    glass2
    {
        type            nutkWallFunction;
        Cmu             0.09;
        kappa           0.41;
        E               9.8;
        value           nonuniform List<scalar> 2(0.000165939 0.000158691);
    }
    sun
    {
        type            nutkWallFunction;
        Cmu             0.09;
        kappa           0.41;
        E               9.8;
        value           nonuniform List<scalar> 
14
(
0.000139081
0.000152393
0.000155994
0.000163567
0.000170732
0.0001777
0.000184872
0.000190156
0.000192899
0.000192592
0.000188953
0.000181741
0.000170275
0.000149155
)
;
    }
    Table_master
    {
        type            nutkWallFunction;
        Cmu             0.09;
        kappa           0.41;
        E               9.8;
        value           nonuniform List<scalar> 9(0.000114789 9.92332e-05 8.63621e-05 7.59288e-05 6.74761e-05 6.05902e-05 5.49429e-05 5.03892e-05 4.69476e-05);
    }
    Table_slave
    {
        type            nutkWallFunction;
        Cmu             0.09;
        kappa           0.41;
        E               9.8;
        value           nonuniform List<scalar> 9(0.000130283 0.000117987 0.000109005 0.000101929 9.58007e-05 9.0348e-05 8.50949e-05 7.96225e-05 7.34097e-05);
    }
    inlet
    {
        type            calculated;
        value           uniform 0.000100623;
    }
    outlet
    {
        type            calculated;
        value           nonuniform List<scalar> 2(0.00178562 0.00193367);
    }
}


// ************************************************************************* //
