/*--------------------------------*- C++ -*----------------------------------*\
  =========                 |
  \\      /  F ield         | OpenFOAM: The Open Source CFD Toolbox
   \\    /   O peration     | Website:  https://openfoam.org
    \\  /    A nd           | Version:  6
     \\/     M anipulation  |
\*---------------------------------------------------------------------------*/
FoamFile
{
    version     2.0;
    format      ascii;
    class       volScalarField;
    location    "2900";
    object      alphat;
}
// * * * * * * * * * * * * * * * * * * * * * * * * * * * * * * * * * * * * * //

dimensions      [1 -1 -1 0 0 0 0];

internalField   nonuniform List<scalar> 
458
(
0.00131299
0.00144186
0.00147183
0.00154518
0.0016145
0.0016811
0.00174902
0.00180464
0.00183774
0.00184244
0.00181501
0.00175304
0.00165325
0.00150601
0.00127031
0.000589816
0.00071752
0.000831768
0.000862029
0.000850436
0.000800466
0.000744212
0.000692992
0.000648032
0.000608599
0.00057389
0.000543324
0.00051601
0.000490893
0.000466743
0.000441739
0.000418437
0.000376753
0.00177743
0.00453553
0.00442056
0.0051649
0.00590154
0.00660621
0.00715456
0.00761096
0.00799613
0.00827851
0.00843063
0.00842862
0.00824158
0.00778155
0.00643147
0.00152164
0.0012343
0.000970067
0.000602633
0.00152701
0.00231282
0.0028944
0.0030318
0.00218814
0.00184443
0.00161515
0.00144596
0.00131571
0.00121191
0.0011213
0.00103501
0.000946986
0.0008661
0.000798056
0.000882577
0.000454796
0.00215906
0.00619972
0.00554083
0.00684615
0.00751167
0.0080107
0.00838869
0.00873862
0.00909465
0.0094299
0.00970574
0.00987936
0.00989935
0.00967908
0.0090072
0.00731807
0.00561526
0.00127775
0.00107103
0.0019145
0.00284152
0.00365559
0.00374656
0.00109447
0.000952872
0.000837788
0.000745803
0.00067212
0.000612634
0.000564459
0.000525798
0.000496413
0.000554568
0.000652127
0.000996412
0.000510715
0.00252122
0.00784064
0.00565334
0.00723852
0.00776158
0.00798765
0.00817264
0.00843103
0.00876542
0.00914288
0.00951573
0.00982208
0.0099873
0.00995439
0.00971519
0.00914364
0.00792389
0.00462699
0.00155959
0.00215888
0.00318178
0.00428822
0.00511588
0.00493271
0.00121989
0.00110435
0.00102572
0.000968256
0.000921327
0.000876799
0.000834232
0.000790174
0.000739508
0.000695817
0.000691594
0.00109033
0.000571387
0.00288864
0.00991781
0.00630965
0.00714175
0.00772972
0.00780693
0.00786293
0.00807145
0.0083879
0.00879182
0.00922044
0.00958086
0.00978402
0.00979785
0.00965499
0.00938667
0.00889561
0.00776979
0.00693607
0.00687729
0.00713165
0.00740629
0.00750371
0.00718669
0.00583814
0.00518988
0.0048348
0.00459193
0.00436968
0.00410962
0.0036909
0.00314355
0.0025108
0.00189088
0.00141492
0.00125962
0.000933043
0.000689063
0.000721228
0.000730167
0.0032767
0.0121908
0.00864179
0.00754408
0.00793106
0.00791746
0.00792679
0.00801985
0.00825804
0.00865471
0.00912514
0.00952997
0.00974278
0.00971662
0.00951465
0.00927548
0.00912365
0.00907576
0.00917131
0.00933571
0.009392
0.00926052
0.00893269
0.00840601
0.00767425
0.00707575
0.00661592
0.00623005
0.00587249
0.00551348
0.00509985
0.00455989
0.00388643
0.00312232
0.00241455
0.00183847
0.00139064
0.00137619
0.00190026
0.000973451
0.00361498
0.0137149
0.0118002
0.00974504
0.00916303
0.00862967
0.0082415
0.00813445
0.00833493
0.00878086
0.00932086
0.00976227
0.00995184
0.00984642
0.0095585
0.00933376
0.00942832
0.0098541
0.0102997
0.010481
0.0103281
0.0098937
0.00926413
0.00851937
0.00774832
0.00708624
0.00655292
0.00611014
0.00572697
0.00539135
0.00510186
0.00484296
0.0044222
0.00383872
0.00321205
0.00262109
0.00213944
0.001972
0.00230009
0.00121651
0.00366629
0.0118021
0.0108423
0.00983712
0.00897403
0.00828419
0.0079611
0.00806529
0.00853788
0.00922046
0.00988565
0.0103126
0.0103788
0.0101093
0.00973315
0.00961939
0.00998278
0.0105045
0.0107479
0.0105957
0.0101019
0.00935455
0.00845785
0.00752662
0.0066875
0.00602644
0.00552959
0.00514965
0.00485854
0.00464868
0.00452319
0.00448766
0.00449709
0.00419199
0.0038716
0.00364646
0.00361041
0.00361328
0.00424409
0.00163821
0.00355643
0.00417324
0.00453476
0.00471857
0.00513011
0.00587801
0.00692145
0.00815667
0.0094025
0.0104329
0.0110379
0.0111119
0.0107344
0.0101414
0.00988467
0.00998297
0.0101765
0.0102148
0.00998759
0.00947091
0.00868782
0.00773321
0.00673339
0.00582932
0.00511837
0.004607
0.00424092
0.00396886
0.00376016
0.00359506
0.00345522
0.00332072
0.00318292
0.00306381
0.00295845
0.00287545
0.00277422
0.00262166
0.0024606
0.00158917
0.00163243
0.00566237
0.00916396
0.0112155
0.0124544
0.0130823
0.013164
0.0128074
0.0121334
0.0112274
0.0102522
0.00951743
0.00923445
0.00913023
0.0089127
0.00850473
0.00790598
0.00714595
0.00629991
0.00545005
0.00470341
0.00412725
0.00371084
0.00341048
0.00318752
0.00301831
0.00289044
0.00279724
0.00273515
0.00270486
0.00270285
0.00270095
0.00268568
0.00263336
0.00250372
0.00227316
0.0019781
0.00129546
0.00248813
0.00937963
0.0115786
0.0121538
0.012219
0.0118757
0.0111924
0.0103174
0.00939334
0.00853006
0.00780859
0.00729209
0.00691924
0.00654751
0.00612955
0.00566701
0.00516709
0.0046623
0.00420312
0.00382392
0.00352374
0.00327903
0.00307043
0.00289292
0.00275322
0.0026495
0.00258018
0.00254266
0.00253146
0.00255164
0.00259891
0.00266163
0.00271894
0.00273634
0.00269257
0.0026023
0.00251572
0.00131793
0.00210504
0.0022778
0.00240177
0.00259208
0.00252443
0.00247852
0.00240341
0.00227599
0.0021049
0.00190367
0.00169106
0.00149453
0.00133659
0.00122144
0.00114035
0.00108124
0.00103426
0.000992991
0.000954496
0.000918953
0.000887973
0.00086296
0.000844518
0.000833117
0.000830008
0.000835473
0.000848124
0.000868174
0.000895918
0.000931927
0.000977466
0.00103093
0.00109091
0.00115743
0.00122994
0.00130568
0.00137042
0.00134403
0.00123869
0.00114289
)
;

boundaryField
{
    floor
    {
        type            compressible::alphatWallFunction;
        Prt             0.85;
        value           nonuniform List<scalar> 
36
(
0.000179808
8.28625e-05
0.000101784
0.000118369
0.000122717
0.000121055
0.000113857
0.000105689
9.81869e-05
9.15466e-05
8.56762e-05
8.04704e-05
7.58538e-05
7.1701e-05
6.78579e-05
6.41394e-05
6.02638e-05
5.66267e-05
5.00547e-05
5.0054e-05
6.22901e-05
7.08916e-05
8.00925e-05
9.76096e-05
0.000102332
0.000103643
0.000179806
0.000213906
0.00017489
0.000138084
8.28615e-05
0.000138083
8.47802e-05
0.000180848
0.000152262
0.00021899
)
;
    }
    ceiling
    {
        type            compressible::alphatWallFunction;
        Prt             0.85;
        value           nonuniform List<scalar> 
43
(
0.000290709
0.00031299
0.00032887
0.0003532
0.000344651
0.000338827
0.00032926
0.000312944
0.000290878
0.000264671
0.000236649
0.000210399
0.000189024
0.000173264
0.000162063
0.000153839
0.000147267
0.000141465
0.000136026
0.000130981
0.000126565
0.000122986
0.000120339
0.000118699
0.00011825
0.000119035
0.000120853
0.000123727
0.000127692
0.000132818
0.000139266
0.000146793
0.000155183
0.000164426
0.000174432
0.000184812
0.000193632
0.000190043
0.000175636
0.000162415
0.000473496
0.000548486
0.00033962
)
;
    }
    sWall
    {
        type            compressible::alphatWallFunction;
        Prt             0.85;
        value           uniform 0.000289518;
    }
    nWall
    {
        type            compressible::alphatWallFunction;
        Prt             0.85;
        value           nonuniform List<scalar> 6(0.000103451 0.000138369 0.000172243 0.000183096 0.000186163 0.000162095);
    }
    sideWalls
    {
        type            empty;
    }
    glass1
    {
        type            compressible::alphatWallFunction;
        Prt             0.85;
        value           nonuniform List<scalar> 9(0.000181219 0.000242685 0.000291991 0.000338004 0.000384036 0.000432039 0.000473454 0.000479836 0.000466689);
    }
    glass2
    {
        type            compressible::alphatWallFunction;
        Prt             0.85;
        value           nonuniform List<scalar> 2(0.000227998 0.000221541);
    }
    sun
    {
        type            compressible::alphatWallFunction;
        Prt             0.85;
        value           nonuniform List<scalar> 
14
(
0.000185685
0.000203167
0.000207209
0.000217067
0.000226335
0.000235198
0.000244198
0.000251538
0.000255893
0.000256509
0.000252899
0.000244723
0.00023149
0.000211799
)
;
    }
    Table_master
    {
        type            compressible::alphatWallFunction;
        Prt             0.85;
        value           nonuniform List<scalar> 9(0.000155657 0.000135764 0.000119341 0.000106022 9.52099e-05 8.63758e-05 7.91442e-05 7.32853e-05 6.87962e-05);
    }
    Table_slave
    {
        type            compressible::alphatWallFunction;
        Prt             0.85;
        value           nonuniform List<scalar> 9(0.000173032 0.000157037 0.000146043 0.000137945 0.00013129 0.000124939 0.000118832 0.000112472 0.000105105);
    }
    inlet
    {
        type            fixedValue;
        value           uniform 1.94e-05;
    }
    outlet
    {
        type            zeroGradient;
    }
}


// ************************************************************************* //
