/*--------------------------------*- C++ -*----------------------------------*\
  =========                 |
  \\      /  F ield         | OpenFOAM: The Open Source CFD Toolbox
   \\    /   O peration     | Website:  https://openfoam.org
    \\  /    A nd           | Version:  6
     \\/     M anipulation  |
\*---------------------------------------------------------------------------*/
FoamFile
{
    version     2.0;
    format      ascii;
    class       volScalarField;
    location    "1100";
    object      epsilon;
}
// * * * * * * * * * * * * * * * * * * * * * * * * * * * * * * * * * * * * * //

dimensions      [0 2 -3 0 0 0 0];

internalField   nonuniform List<scalar> 
458
(
0.000138303
0.000149811
0.000120298
0.000133779
0.000148649
0.000163323
0.00017773
0.000192137
0.000207069
0.000223457
0.00023812
0.000249757
0.000258145
0.000264605
0.00026916
3.60861e-05
7.2118e-05
7.27293e-05
5.71449e-05
3.71292e-05
2.22431e-05
6.97258e-06
1.51311e-06
1.49981e-06
1.86171e-06
2.20265e-06
2.15151e-06
2.08451e-06
3.22704e-06
7.37559e-06
1.482e-05
2.24233e-05
1.8776e-05
0.000669221
0.00154793
0.00015067
0.000104905
0.000107162
0.000112248
0.000118252
0.000125916
0.000136189
0.000150067
0.000166187
0.000183646
0.00020147
0.000219791
0.000249807
0.000335287
0.000293332
0.000126282
0.000112062
0.000127525
9.24728e-05
7.49336e-05
5.47471e-05
2.97804e-05
1.39812e-05
8.20122e-06
6.55219e-06
6.38271e-06
5.64437e-06
4.09576e-06
2.81851e-06
4.6844e-06
2.6012e-05
5.19685e-05
0.000122888
6.44018e-05
0.00168624
0.00515673
0.000351045
0.000119485
0.00011013
0.000115077
0.000122598
0.000132444
0.000144929
0.000160109
0.000176854
0.000192691
0.000206048
0.000217402
0.000231478
0.000257368
0.000298573
0.00038311
0.000259621
0.000222371
0.00013742
0.000122009
0.000125401
3.83252e-05
2.04569e-05
1.37547e-05
1.03152e-05
8.16992e-06
6.54274e-06
5.15099e-06
4.00842e-06
7.91835e-06
0.000110641
0.000146213
0.000384771
9.93072e-05
0.0033336
0.0114994
0.000854034
0.000157061
0.000121978
0.000127873
0.000138894
0.00015273
0.000169373
0.000188751
0.000209629
0.000226944
0.000238364
0.000244967
0.000250424
0.000261391
0.000291255
0.000360992
0.000473898
0.000199523
0.000114155
0.000102014
0.000111206
0.000140707
0.000203067
0.000215281
0.000240347
0.000277345
0.000327769
0.000406532
0.00047256
0.000503205
0.000483239
0.000338023
0.00027036
0.000399725
0.000318006
0.00565664
0.0200448
0.00195778
0.000242682
0.000141514
0.000144612
0.000160339
0.000181624
0.000207955
0.000238996
0.000271531
0.000294675
0.00030546
0.000306558
0.000301201
0.000291848
0.000280432
0.000262506
0.000218564
0.000142257
0.000107034
9.58553e-05
9.86199e-05
0.000109297
0.00012353
0.00013957
0.000164698
0.000200884
0.000249653
0.000313719
0.000380285
0.000420019
0.0004168
0.000362812
0.000300085
0.000300903
0.0003475
0.000479759
0.000353486
0.000360203
0.00872276
0.028001
0.00429028
0.000555714
0.000220993
0.000189046
0.000200834
0.000228355
0.000267882
0.000320318
0.000371763
0.000398191
0.00040163
0.000391528
0.000375042
0.00035541
0.000330475
0.000290796
0.000232749
0.000173434
0.000133768
0.000114627
0.000109936
0.000113765
0.000123831
0.000142225
0.000173479
0.000220611
0.000284631
0.000362792
0.000446952
0.000522499
0.000558526
0.000549648
0.000443776
0.000364583
0.000339711
0.000366529
0.000368211
0.000435805
0.0124171
0.0318886
0.00937586
0.00240992
0.000881655
0.000489871
0.000393211
0.000385772
0.000418691
0.000495601
0.000550212
0.000554497
0.00052826
0.000489893
0.00044996
0.000413077
0.000376583
0.000330213
0.000270578
0.00021154
0.000167381
0.000141533
0.000130137
0.000128479
0.000135584
0.00015522
0.000193142
0.000253869
0.000338003
0.000439451
0.000547068
0.000649577
0.000737205
0.000815816
0.000861102
0.000766158
0.000749974
0.000685604
0.000697059
0.000723615
0.0132831
0.0381514
0.0190414
0.0115255
0.00610222
0.00304187
0.00172176
0.00120492
0.00100986
0.000946392
0.000871054
0.000778699
0.000684072
0.000596614
0.000520347
0.000456465
0.000402917
0.000351962
0.000295713
0.000241595
0.000199355
0.000171907
0.000157447
0.000152799
0.000157872
0.000178162
0.000222676
0.000299034
0.000407586
0.000536985
0.000672943
0.000809962
0.000955434
0.00114983
0.00148498
0.00194414
0.00230142
0.00256506
0.00383593
0.00089235
0.0121555
0.0204603
0.0175089
0.0130424
0.00930032
0.00630167
0.00422306
0.00291205
0.00212792
0.00161509
0.00126025
0.00100738
0.000820843
0.00067857
0.000567164
0.000478781
0.000408374
0.000351021
0.000302043
0.00026036
0.000228031
0.000206537
0.000195263
0.000192227
0.000196986
0.000215829
0.000261559
0.000348712
0.000482349
0.000640244
0.000793379
0.000934151
0.001044
0.00107916
0.00107931
0.00113406
0.00123719
0.0013325
0.00141854
0.000973571
0.00890769
0.0142132
0.00901338
0.0062294
0.0043853
0.00313954
0.00230779
0.00174434
0.00135055
0.00106757
0.00085863
0.000700078
0.00057717
0.00048108
0.000406633
0.000350488
0.000310052
0.000283283
0.000268458
0.000263457
0.000265521
0.000271974
0.000281828
0.000298147
0.000330207
0.000395496
0.000518067
0.00068395
0.000848891
0.00106912
0.00145844
0.00196962
0.00220765
0.00215885
0.00193848
0.0016723
0.00126057
0.00098469
0.0071651
0.0118089
0.00751943
0.00531799
0.00390215
0.00289731
0.00217201
0.00164991
0.00127136
0.000992833
0.0007847
0.000627681
0.000509104
0.000420788
0.000357724
0.000317105
0.000297347
0.000296752
0.000311928
0.000337074
0.000365479
0.000392317
0.000416221
0.000439263
0.000467609
0.000511107
0.000571643
0.000619437
0.00065561
0.000734175
0.000928498
0.00127478
0.00157273
0.00186302
0.00195018
0.00182795
0.00131504
0.00107984
0.0036957
0.00460445
0.00552146
0.00643301
0.00502023
0.00395327
0.00304432
0.00239962
0.00190266
0.00151674
0.0012151
0.000989253
0.000815005
0.000675475
0.000561869
0.000469285
0.000394805
0.000336552
0.000293211
0.00026371
0.00024684
0.000240798
0.000243031
0.000250692
0.000261552
0.000274965
0.000293121
0.000322262
0.000367787
0.000434564
0.000478727
0.000457131
0.000479421
0.000785837
0.00114352
0.00139625
0.00147345
0.00131768
0.00106263
0.000800992
)
;

boundaryField
{
    floor
    {
        Cmu             0.09;
        kappa           0.41;
        E               9.8;
        type            epsilonWallFunction;
        value           nonuniform List<scalar> 
36
(
0.00026916
3.60861e-05
7.2118e-05
7.27293e-05
5.71449e-05
3.71292e-05
2.22431e-05
6.97258e-06
1.51311e-06
1.49981e-06
1.86171e-06
2.20265e-06
2.15151e-06
2.08451e-06
3.22704e-06
7.37559e-06
1.482e-05
2.24233e-05
1.8776e-05
1.8776e-05
6.44018e-05
9.93072e-05
0.000318006
0.000479759
0.000353486
0.000360203
0.00026916
0.000335287
0.000293332
0.000126282
3.60861e-05
0.000126282
0.000112062
0.00038311
0.000259621
0.000473898
)
;
    }
    ceiling
    {
        Cmu             0.09;
        kappa           0.41;
        E               9.8;
        type            epsilonWallFunction;
        value           nonuniform List<scalar> 
43
(
0.0036957
0.00460445
0.00552146
0.00643301
0.00502023
0.00395327
0.00304432
0.00239962
0.00190266
0.00151674
0.0012151
0.000989253
0.000815005
0.000675475
0.000561869
0.000469285
0.000394805
0.000336552
0.000293211
0.00026371
0.00024684
0.000240798
0.000243031
0.000250692
0.000261552
0.000274965
0.000293121
0.000322262
0.000367787
0.000434564
0.000478727
0.000457131
0.000479421
0.000785837
0.00114352
0.00139625
0.00147345
0.00131768
0.00106263
0.000800992
0.0121555
0.0204603
0.0071651
)
;
    }
    sWall
    {
        Cmu             0.09;
        kappa           0.41;
        E               9.8;
        type            epsilonWallFunction;
        value           uniform 0.0036957;
    }
    nWall
    {
        Cmu             0.09;
        kappa           0.41;
        E               9.8;
        type            epsilonWallFunction;
        value           nonuniform List<scalar> 6(0.000360203 0.000435805 0.000723615 0.00098469 0.00107984 0.000800992);
    }
    sideWalls
    {
        type            empty;
    }
    glass1
    {
        Cmu             0.09;
        kappa           0.41;
        E               9.8;
        type            epsilonWallFunction;
        value           nonuniform List<scalar> 9(0.000138303 0.000669221 0.00168624 0.0033336 0.00565664 0.00872276 0.0124171 0.0132831 0.0121555);
    }
    glass2
    {
        Cmu             0.09;
        kappa           0.41;
        E               9.8;
        type            epsilonWallFunction;
        value           nonuniform List<scalar> 2(0.00089235 0.000973571);
    }
    sun
    {
        Cmu             0.09;
        kappa           0.41;
        E               9.8;
        type            epsilonWallFunction;
        value           nonuniform List<scalar> 
14
(
0.000138303
0.000149811
0.000120298
0.000133779
0.000148649
0.000163323
0.00017773
0.000192137
0.000207069
0.000223457
0.00023812
0.000249757
0.000258145
0.000264605
)
;
    }
    Table_master
    {
        Cmu             0.09;
        kappa           0.41;
        E               9.8;
        type            epsilonWallFunction;
        value           nonuniform List<scalar> 9(3.83252e-05 2.04569e-05 1.37547e-05 1.03152e-05 8.16992e-06 6.54274e-06 5.15099e-06 4.00842e-06 7.91835e-06);
    }
    Table_slave
    {
        Cmu             0.09;
        kappa           0.41;
        E               9.8;
        type            epsilonWallFunction;
        value           nonuniform List<scalar> 9(0.000203067 0.000215281 0.000240347 0.000277345 0.000327769 0.000406532 0.00047256 0.000503205 0.000483239);
    }
    inlet
    {
        type            turbulentMixingLengthDissipationRateInlet;
        mixingLength    0.01;
        phi             phi;
        k               k;
        value           uniform 0.000101881;
    }
    outlet
    {
        type            zeroGradient;
    }
}


// ************************************************************************* //
