/*--------------------------------*- C++ -*----------------------------------*\
  =========                 |
  \\      /  F ield         | OpenFOAM: The Open Source CFD Toolbox
   \\    /   O peration     | Website:  https://openfoam.org
    \\  /    A nd           | Version:  6
     \\/     M anipulation  |
\*---------------------------------------------------------------------------*/
FoamFile
{
    version     2.0;
    format      ascii;
    class       volScalarField;
    location    "3000";
    object      epsilon;
}
// * * * * * * * * * * * * * * * * * * * * * * * * * * * * * * * * * * * * * //

dimensions      [0 2 -3 0 0 0 0];

internalField   nonuniform List<scalar> 
458
(
0.000111685
0.000120188
8.98854e-05
9.8732e-05
0.000109488
0.00012048
0.000131631
0.000143157
0.000155519
0.000169147
0.000181721
0.000192631
0.000201919
0.000210564
0.000217682
9.42926e-06
1.2757e-05
1.39543e-05
8.49129e-06
4.57927e-06
2.5062e-06
2.60537e-06
3.37612e-06
4.63573e-06
6.20708e-06
7.73875e-06
8.46933e-06
9.08169e-06
1.05256e-05
1.31479e-05
1.753e-05
2.10423e-05
1.36225e-05
0.000576618
0.00131752
0.000125187
7.46951e-05
7.59914e-05
8.05564e-05
8.58393e-05
9.21317e-05
0.00010007
0.000110339
0.000122123
0.00013547
0.000150805
0.000169666
0.000200929
0.000280556
0.00024252
7.87798e-05
2.60364e-05
3.92608e-05
2.89049e-05
1.6167e-05
6.78462e-06
4.0381e-06
4.88482e-06
7.4518e-06
1.12087e-05
1.53726e-05
1.93561e-05
2.34835e-05
2.83252e-05
3.40037e-05
3.76619e-05
4.15229e-05
6.55285e-05
2.25457e-05
0.00153206
0.00459454
0.000349556
9.16046e-05
7.96771e-05
8.43298e-05
9.15141e-05
0.000100179
0.000110361
0.000122116
0.000134588
0.000146673
0.000157983
0.000168775
0.000180708
0.000199028
0.000229414
0.000305977
0.000111975
9.15112e-05
4.87998e-05
3.52213e-05
2.68651e-05
7.38829e-06
8.6289e-06
1.16124e-05
1.53694e-05
2.01478e-05
2.65372e-05
3.59345e-05
5.13231e-05
8.13477e-05
6.2156e-05
6.06949e-05
7.24347e-05
6.7533e-05
0.00312668
0.0103494
0.000954424
0.000142191
9.32438e-05
9.6541e-05
0.000106735
0.000119461
0.000134094
0.000150275
0.000166114
0.000179337
0.000189825
0.000198436
0.000205654
0.000213142
0.000227137
0.000259407
0.000330317
0.000113006
6.81838e-05
5.76405e-05
5.9601e-05
6.98821e-05
9.43324e-05
9.26424e-05
9.26113e-05
9.42091e-05
9.82769e-05
0.000106071
0.000119492
0.000142105
0.00018649
0.000127089
0.000150313
0.000169815
0.000217079
0.00539669
0.0178493
0.00232511
0.000294618
0.000130899
0.000121809
0.000133542
0.000151719
0.000174159
0.000199975
0.00022205
0.000236622
0.000245472
0.000251682
0.000255795
0.000255922
0.000249058
0.000228292
0.000183229
0.000119803
8.77887e-05
7.32203e-05
6.7748e-05
6.65367e-05
6.70743e-05
6.75588e-05
6.98557e-05
7.46737e-05
8.29571e-05
9.605e-05
0.000115707
0.000143853
0.000181347
0.000221522
0.000280723
0.000352581
0.000392967
0.000590181
0.000417578
0.000286915
0.00837144
0.0244962
0.00510943
0.000926838
0.000322422
0.000221076
0.000213411
0.000229545
0.000258259
0.000298539
0.000322181
0.000328327
0.000325102
0.000320828
0.000319323
0.000318805
0.00031224
0.000287637
0.000239861
0.000184946
0.000143192
0.000117156
0.00010285
9.54049e-05
9.16194e-05
9.02973e-05
9.18688e-05
9.71317e-05
0.000107519
0.000125222
0.000153089
0.00019421
0.000250995
0.00032385
0.000413186
0.000515805
0.000595428
0.000589662
0.00034708
0.000316231
0.0117172
0.0273273
0.0103489
0.00363373
0.0015386
0.00080594
0.000592871
0.000519365
0.000506167
0.000529272
0.000517369
0.000483206
0.000442586
0.000407255
0.000384496
0.000373741
0.000366078
0.000346421
0.000306668
0.000256177
0.000210208
0.000176402
0.000154436
0.000141059
0.000133246
0.000129508
0.000129778
0.000134933
0.000146979
0.000169115
0.000205104
0.000257796
0.000328381
0.000415229
0.000512362
0.000604201
0.000656512
0.000633935
0.000530483
0.000300037
0.0121738
0.0303493
0.0175295
0.0123308
0.00711101
0.00399757
0.00247299
0.00170608
0.00129284
0.00106049
0.000884335
0.000737941
0.000618648
0.000526939
0.000462461
0.000422849
0.000401317
0.000383966
0.000356787
0.000318061
0.000277156
0.000243225
0.000218347
0.000201562
0.000190966
0.000185247
0.000184158
0.000188692
0.000201767
0.000228992
0.0002776
0.000351352
0.000447808
0.000555593
0.000662021
0.000764296
0.000867224
0.000980277
0.00110249
0.000724904
0.0108194
0.0169785
0.031108
0.0242582
0.0156784
0.00979416
0.00619162
0.00404612
0.00276973
0.00194907
0.00141925
0.0010671
0.000827951
0.000664191
0.000553433
0.00048169
0.000438551
0.00041292
0.000392506
0.000369668
0.000344301
0.000320039
0.000299781
0.0002846
0.000274207
0.000267862
0.000265048
0.000265995
0.00027264
0.000290303
0.000322996
0.000377261
0.000460589
0.000581819
0.000754921
0.000971972
0.0011531
0.00135169
0.00252777
0.00109155
0.08841
0.0919065
0.0307423
0.0149062
0.00836891
0.00513146
0.00336016
0.00231455
0.00165598
0.00123081
0.000953148
0.00077141
0.000653708
0.00057972
0.0005359
0.00051211
0.000498012
0.000486691
0.000475345
0.000464101
0.000454138
0.000446387
0.000441029
0.00043756
0.000435105
0.000432866
0.00043118
0.000432628
0.000437226
0.000450079
0.00047594
0.000516373
0.000563858
0.00060017
0.000621214
0.000612527
0.00079448
0.00105683
0.0628431
0.0467009
0.019463
0.0105733
0.0064615
0.00423977
0.00294874
0.00216878
0.00169018
0.00139133
0.00120662
0.00109848
0.00104312
0.00102342
0.00102527
0.00103592
0.00103917
0.00103056
0.00101338
0.000993388
0.000975197
0.000961005
0.000950688
0.000942299
0.000932517
0.000917193
0.000891957
0.000850616
0.000794305
0.000731723
0.000677755
0.000646328
0.000639393
0.000638803
0.00062059
0.000560751
0.000758688
0.000968366
0.00648675
0.0126331
0.0266213
0.0123186
0.00783399
0.00626764
0.00443139
0.00316145
0.0023104
0.00173054
0.00132933
0.00106581
0.000889263
0.000770803
0.000694291
0.000649467
0.000628675
0.00062521
0.000636815
0.000652618
0.000665648
0.000673214
0.000675462
0.000673824
0.000669951
0.000665194
0.000660451
0.000656251
0.000653078
0.000651671
0.000650744
0.000647801
0.000638177
0.000614907
0.00057922
0.000542189
0.000489583
0.000411101
0.000399859
0.000628508
)
;

boundaryField
{
    floor
    {
        Cmu             0.09;
        kappa           0.41;
        E               9.8;
        type            epsilonWallFunction;
        value           nonuniform List<scalar> 
36
(
0.000217682
9.42926e-06
1.2757e-05
1.39543e-05
8.49129e-06
4.57927e-06
2.5062e-06
2.60537e-06
3.37612e-06
4.63573e-06
6.20708e-06
7.73875e-06
8.46933e-06
9.08169e-06
1.05256e-05
1.31479e-05
1.753e-05
2.10423e-05
1.36225e-05
1.36225e-05
2.25457e-05
6.7533e-05
0.000217079
0.000590181
0.000417578
0.000286915
0.000217682
0.000280556
0.00024252
7.87798e-05
9.42926e-06
7.87798e-05
2.60364e-05
0.000305977
0.000111975
0.000330317
)
;
    }
    ceiling
    {
        Cmu             0.09;
        kappa           0.41;
        E               9.8;
        type            epsilonWallFunction;
        value           nonuniform List<scalar> 
43
(
0.00648675
0.0126331
0.0266213
0.0123186
0.00783399
0.00626764
0.00443139
0.00316145
0.0023104
0.00173054
0.00132933
0.00106581
0.000889263
0.000770803
0.000694291
0.000649467
0.000628675
0.00062521
0.000636815
0.000652618
0.000665648
0.000673214
0.000675462
0.000673824
0.000669951
0.000665194
0.000660451
0.000656251
0.000653078
0.000651671
0.000650744
0.000647801
0.000638177
0.000614907
0.00057922
0.000542189
0.000489583
0.000411101
0.000399859
0.000628508
0.0108194
0.0169785
0.0628431
)
;
    }
    sWall
    {
        Cmu             0.09;
        kappa           0.41;
        E               9.8;
        type            epsilonWallFunction;
        value           uniform 0.00648675;
    }
    nWall
    {
        Cmu             0.09;
        kappa           0.41;
        E               9.8;
        type            epsilonWallFunction;
        value           nonuniform List<scalar> 6(0.000286915 0.000316231 0.000300037 0.00105683 0.000968366 0.000628508);
    }
    sideWalls
    {
        type            empty;
    }
    glass1
    {
        Cmu             0.09;
        kappa           0.41;
        E               9.8;
        type            epsilonWallFunction;
        value           nonuniform List<scalar> 9(0.000111685 0.000576618 0.00153206 0.00312668 0.00539669 0.00837144 0.0117172 0.0121738 0.0108194);
    }
    glass2
    {
        Cmu             0.09;
        kappa           0.41;
        E               9.8;
        type            epsilonWallFunction;
        value           nonuniform List<scalar> 2(0.000724904 0.00109155);
    }
    sun
    {
        Cmu             0.09;
        kappa           0.41;
        E               9.8;
        type            epsilonWallFunction;
        value           nonuniform List<scalar> 
14
(
0.000111685
0.000120188
8.98854e-05
9.8732e-05
0.000109488
0.00012048
0.000131631
0.000143157
0.000155519
0.000169147
0.000181721
0.000192631
0.000201919
0.000210564
)
;
    }
    Table_master
    {
        Cmu             0.09;
        kappa           0.41;
        E               9.8;
        type            epsilonWallFunction;
        value           nonuniform List<scalar> 9(7.38829e-06 8.6289e-06 1.16124e-05 1.53694e-05 2.01478e-05 2.65372e-05 3.59345e-05 5.13231e-05 8.13477e-05);
    }
    Table_slave
    {
        Cmu             0.09;
        kappa           0.41;
        E               9.8;
        type            epsilonWallFunction;
        value           nonuniform List<scalar> 9(9.43324e-05 9.26424e-05 9.26113e-05 9.42091e-05 9.82769e-05 0.000106071 0.000119492 0.000142105 0.00018649);
    }
    inlet
    {
        type            turbulentMixingLengthDissipationRateInlet;
        mixingLength    0.01;
        phi             phi;
        k               k;
        value           uniform 3.77337e-06;
    }
    outlet
    {
        type            zeroGradient;
    }
}


// ************************************************************************* //
