/*--------------------------------*- C++ -*----------------------------------*\
  =========                 |
  \\      /  F ield         | OpenFOAM: The Open Source CFD Toolbox
   \\    /   O peration     | Website:  https://openfoam.org
    \\  /    A nd           | Version:  6
     \\/     M anipulation  |
\*---------------------------------------------------------------------------*/
FoamFile
{
    version     2.0;
    format      ascii;
    class       surfaceScalarField;
    location    "3000";
    object      phi;
}
// * * * * * * * * * * * * * * * * * * * * * * * * * * * * * * * * * * * * * //

dimensions      [1 0 -1 0 0 0 0];

internalField   nonuniform List<scalar> 
850
(
-0.00230189
0.00235859
-0.00246383
0.000162034
-0.00265142
0.000187694
-0.00287817
0.000226843
-0.00309341
0.000215332
-0.00327359
0.000180281
-0.0034038
0.000130302
-0.00347042
6.67216e-05
-0.00345921
-1.11136e-05
-0.00335294
-0.000106177
-0.00313361
-0.000219233
-0.0027843
-0.000349217
-0.00226808
-0.000516127
-0.00144872
-0.000819264
-0.00144782
-0.000555337
0.000559173
-0.000536403
-1.88467e-05
-0.000371399
-0.000164918
-0.000248133
-0.000123179
-8.84045e-05
-0.000159641
7.83157e-05
-0.000166635
0.000220065
-0.000141663
0.000329575
-0.000109423
0.000418814
-8.91526e-05
0.00049321
-7.43101e-05
0.000550244
-5.69494e-05
0.000569217
-1.88898e-05
0.000547493
2.18063e-05
0.000510378
3.71964e-05
0.000496904
1.35548e-05
0.000555903
-5.89135e-05
0.000594917
-3.89291e-05
0.000598319
-0.00166394
0.00416882
-0.00215788
0.000656078
-0.0024783
0.000508208
-0.0027372
0.000485845
-0.00296449
0.000442713
-0.00315543
0.000371322
-0.00330144
0.000276406
-0.0033926
0.000157981
-0.00341838
1.47552e-05
-0.00337129
-0.000153166
-0.00324544
-0.000344994
-0.00303134
-0.000563222
-0.00271979
-0.000827584
-0.00238436
-0.00115459
-0.00244623
-0.00138586
-0.00118668
-0.00125794
0.000158215
-0.00134316
0.000164254
0.000723001
-0.000155092
0.000553757
0.000150482
0.000206136
0.00018279
8.04589e-06
7.49976e-05
-0.000168574
1.7065e-05
-0.000128146
-0.000206976
-0.000113526
-0.000156194
-0.000117051
-0.000105809
-0.000133697
-7.24191e-05
-0.000164725
-4.31954e-05
-0.000214226
-7.36365e-06
-0.000272286
3.92533e-05
-0.00032778
7.7379e-05
-0.000357731
6.72245e-05
-0.000276042
-6.80604e-05
-0.000118902
-0.000215978
-8.57774e-05
-7.19833e-05
0.000521448
-0.00122537
0.00561028
-0.00184013
0.00127093
-0.0021891
0.000857279
-0.00244611
0.000742956
-0.00266122
0.000657918
-0.00284054
0.000550738
-0.00298123
0.00041719
-0.0030772
0.000254048
-0.00312173
5.93771e-05
-0.00310969
-0.000165106
-0.0030415
-0.000413084
-0.00292357
-0.000681066
-0.0027794
-0.000971659
-0.00267049
-0.00126341
-0.00258896
-0.00146729
-0.00227861
-0.00156821
-0.00193448
-0.00168719
-0.00176596
-0.000677982
0.000531441
-0.000753509
0.000226095
-0.000683949
0.000113314
-0.000602039
-6.82824e-06
-0.000408415
-0.000176471
-0.000615154
-0.000771112
-0.000876684
-0.000948864
-0.00099182
-0.000998943
-0.000959448
-0.000881827
-0.000814354
-0.00061092
-0.00027139
-0.000792465
-3.4319e-05
-0.000877176
1.28459e-05
-0.000346143
-0.000910323
0.00679301
-0.00155014
0.00191084
-0.00184859
0.00115583
-0.00208009
0.000974551
-0.00226439
0.000842315
-0.00241161
0.000698056
-0.00252573
0.000531405
-0.00260502
0.000333426
-0.00264523
9.96852e-05
-0.00264283
-0.000167412
-0.00260544
-0.000450375
-0.00255439
-0.000732022
-0.00252278
-0.00100318
-0.00254472
-0.00124138
-0.00260414
-0.00140777
-0.00267013
-0.00150212
-0.0028344
-0.00152282
-0.00337023
-0.00123003
-0.00276954
-0.000595342
-0.00212689
-0.000111121
-0.00193377
3.30649e-05
-0.0018242
3.83907e-06
-0.00175978
-7.11556e-05
-0.00178987
-0.000146282
-0.00164937
-0.000140557
-0.00150044
-0.00014898
-0.00134182
-0.000158676
-0.00117787
-0.00016401
-0.00101047
-0.000167459
-0.000837178
-0.000173347
-0.000648672
-0.000188565
-0.000427457
-0.000221273
-0.000147436
-0.00028008
-1.73086e-05
-0.000401423
0.000316149
-0.000367681
0.000562694
-0.000233601
0.000223326
-0.000679448
0.00779223
-0.00131041
0.00254191
-0.00148352
0.00132904
-0.00165275
0.00114388
-0.0017953
0.000984958
-0.00189443
0.000797284
-0.00195876
0.000595829
-0.00199329
0.000368049
-0.00199702
0.000103509
-0.00196936
-0.000194978
-0.00192591
-0.000493728
-0.00189542
-0.000762424
-0.00190655
-0.000991953
-0.00197429
-0.00117355
-0.00208697
-0.001295
-0.00223637
-0.00135263
-0.00244626
-0.00131284
-0.00260668
-0.00106951
-0.00251601
-0.000685927
-0.00226343
-0.000363605
-0.0020282
-0.000202072
-0.00186
-0.000164265
-0.00174783
-0.000183231
-0.00167891
-0.000215105
-0.00158824
-0.000231137
-0.00149218
-0.000244946
-0.00139445
-0.000256307
-0.00129458
-0.000263783
-0.00119254
-0.000269407
-0.00108604
-0.000279762
-0.00096798
-0.000306528
-0.000824358
-0.000364805
-0.000635879
-0.000468469
-0.000421792
-0.00061542
-2.49095e-05
-0.000764476
0.00061945
-0.000877872
0.00169797
-0.000855104
0.00233012
-0.000627888
0.00196115
0.000373664
0.001997
-0.000637098
0.00879019
-0.00120048
0.00310539
-0.0010505
0.00117916
-0.00105236
0.00114584
-0.00117855
0.00111125
-0.00124423
0.000863056
-0.00124984
0.000601533
-0.00122137
0.000339677
-0.00116361
4.58428e-05
-0.00108786
-0.00027063
-0.00102325
-0.000558249
-0.000996869
-0.000788711
-0.00102815
-0.000960582
-0.00112168
-0.00107992
-0.00126761
-0.00114898
-0.00145404
-0.00116611
-0.00165949
-0.0011073
-0.00179479
-0.000934128
-0.00179781
-0.000682808
-0.00170018
-0.000461143
-0.00157855
-0.000323615
-0.00147871
-0.000264012
-0.00140993
-0.000251912
-0.00136519
-0.000259755
-0.0013269
-0.000269333
-0.00129325
-0.000278505
-0.00126567
-0.000283794
-0.00124623
-0.000283127
-0.00123742
-0.000278126
-0.0012405
-0.000276589
-0.00125307
-0.000293876
-0.00126687
-0.000350919
-0.00126822
-0.000467026
-0.00123245
-0.000651102
-0.00109685
-0.000899993
-0.000761603
-0.00121303
-5.79303e-05
-0.00155869
0.000931502
-0.00161724
0.00128569
1.95657e-05
0.00331908
-0.000817576
0.0100067
-0.000839423
0.00312733
-0.000120426
0.000460272
9.54294e-05
0.000930097
-9.99618e-05
0.00130675
-0.000210138
0.000973336
-0.000197708
0.000589205
-0.000129553
0.000271621
-3.28949e-05
-5.07177e-05
5.69082e-05
-0.000360336
0.000109332
-0.000610579
0.000108074
-0.00078736
4.51861e-05
-0.000897602
-7.89108e-05
-0.000955733
-0.00025431
-0.00097349
-0.000464196
-0.000956136
-0.000676921
-0.000894483
-0.000837682
-0.000773275
-0.000911675
-0.000608724
-0.000917907
-0.000454818
-0.000895143
-0.000346287
-0.000872519
-0.000286545
-0.000862358
-0.000261981
-0.000865379
-0.000256642
-0.000877137
-0.000257482
-0.000897709
-0.00025784
-0.000930386
-0.000251024
-0.000981967
-0.000231454
-0.00106289
-0.000197112
-0.00118591
-0.000153479
-0.00136165
-0.00011805
-0.00159109
-0.000121389
-0.00186339
-0.000194641
-0.00215336
-0.000361046
-0.00242125
-0.000632022
-0.0026166
-0.00101759
-0.00266645
-0.00150876
-0.00238896
-0.00189464
-0.0010335
-0.00133581
0.00232894
0.00185273
0.00860154
0.00254609
0.00243407
0.00282701
0.000179457
0.00240413
0.00135308
0.00199781
0.00171318
0.00178351
0.00118775
0.00165949
0.000713325
0.00158929
0.00034193
0.0015589
-2.02343e-05
0.00153375
-0.000335083
0.00147671
-0.000553444
0.0013781
-0.000688658
0.0012403
-0.000759708
0.00106682
-0.000782159
0.000861873
-0.000768454
0.000633893
-0.000728065
0.000403996
-0.000664496
0.000206969
-0.000576159
6.82382e-05
-0.000469903
-1.77504e-05
-0.000368739
-7.22639e-05
-0.000291683
-0.000115211
-0.000243507
-0.000158213
-0.000218888
-0.000205376
-0.000209387
-0.000256699
-0.000206067
-0.000312938
-0.000201509
-0.000376242
-0.000187628
-0.0004518
-0.000155804
-0.000549913
-9.89083e-05
-0.00068826
-1.50423e-05
-0.00090248
9.62596e-05
-0.00124279
0.000219013
-0.00174504
0.000307688
-0.00240496
0.00029896
-0.00317661
0.000139717
-0.00403923
-0.000154891
-0.00510083
-0.000447075
-0.00630235
-0.000693042
-0.00592334
-0.00171474
-0.00341217
0.00908847
0.0115092
0.0101759
0.00151284
0.00724812
0.00428092
0.00598625
0.00297514
0.00514645
0.00202764
0.00450833
0.00135154
0.00405248
0.000797876
0.00367705
0.000355288
0.00332551
1.65508e-05
0.00300258
-0.000230415
0.00270901
-0.000394998
0.00243717
-0.000487777
0.00217934
-0.000524235
0.00192936
-0.000518382
0.00168436
-0.000482972
0.00144903
-0.000429083
0.00123765
-0.00036469
0.00106255
-0.000294709
0.000924589
-0.000230692
0.000814994
-0.000181999
0.000722724
-0.000151147
0.000639385
-0.000135459
0.000560013
-0.000129925
0.000482632
-0.000128595
0.000406742
-0.000125528
0.000333392
-0.000114186
0.000264971
-8.7293e-05
0.000204533
-3.83795e-05
0.000153126
3.64558e-05
0.000107331
0.000142144
6.46791e-05
0.000261753
2.4961e-05
0.000347495
-1.4255e-05
0.000338264
-8.12498e-05
0.000206799
-0.000199023
-3.70311e-05
-0.000373808
-0.000272206
-0.000614158
-0.000452609
-0.000837458
-0.00149136
-0.00405144
-0.000597853
0.00318436
0.00237674
0.0013064
0.00378527
0.00156669
0.00410096
0.00171204
0.00413544
0.00131715
0.00409706
0.000836343
0.00400488
0.00044756
0.00385478
0.000166745
0.0036617
-3.72487e-05
0.00343874
-0.000171951
0.00319944
-0.000248387
0.00295504
-0.000279739
0.00271396
-0.000277216
0.0024828
-0.000251722
0.00226729
-0.000213488
0.00207399
-0.000171301
0.00190441
-0.000125037
0.00175874
-8.49297e-05
0.00163379
-5.69623e-05
0.00152467
-4.19439e-05
0.00142664
-3.73366e-05
0.00133595
-3.91473e-05
0.00125045
-4.30129e-05
0.00116978
-4.47621e-05
0.00109594
-4.02584e-05
0.00103388
-2.51403e-05
0.000990054
5.53126e-06
0.000972296
5.43039e-05
0.000991092
0.000123438
0.00105372
0.00019921
0.00115732
0.000243986
0.00129061
0.000205065
0.00144207
5.54264e-05
0.00159335
-0.000188225
0.00179711
-0.000475882
0.00209795
-0.000753359
0.0018566
-0.00124993
-0.00214949
-0.000588395
0.00376922
0.00118926
-0.000471191
0.0022212
0.000534818
0.00282343
0.00110989
0.00329154
0.000849123
0.00359862
0.000529347
0.0037563
0.000289969
0.00380067
0.000122465
0.00375237
1.11333e-05
0.00362664
-4.61308e-05
0.00345231
-7.39694e-05
0.00325137
-7.87187e-05
0.00304167
-6.74232e-05
0.00283712
-4.70835e-05
0.00264745
-2.37351e-05
0.00247755
-1.31323e-06
0.00233516
1.74384e-05
0.00222122
2.91012e-05
0.0021302
3.41438e-05
0.00205445
3.38886e-05
0.00198705
3.01491e-05
0.0019232
2.47969e-05
0.00186073
1.95351e-05
0.00180021
1.58532e-05
0.0017449
1.51349e-05
0.00170101
1.88372e-05
0.0016775
2.91235e-05
0.00168119
5.07098e-05
0.00172504
7.96683e-05
0.00181697
0.000107367
0.0019489
0.000112146
0.00208972
6.43281e-05
0.00219737
-5.21336e-05
0.00223189
-0.000222656
0.0022287
-0.000472607
0.00234497
-0.000869552
0.00239389
-0.00129877
0.000295824
-0.00278664
-0.00358683
0.000177505
-0.000304127
0.000216128
0.00130947
0.00214012
0.0026491
0.00291687
0.00301536
0.00300083
0.00292757
0.00282524
0.0027172
0.00261978
0.00254234
0.00248816
0.00245655
0.00244406
0.00244365
0.00244868
0.00245383
0.00245557
0.00245226
0.00244401
0.0024324
0.00242042
0.00241251
0.00241531
0.00244014
0.00249442
0.00257686
0.00266447
0.00270443
0.00262792
0.00238079
0.00188338
0.000988232
-0.00033587
)
;

boundaryField
{
    floor
    {
        type            calculated;
        value           nonuniform List<scalar> 
36
(
0
0
0
0
0
0
0
0
0
0
0
0
0
0
0
0
0
0
0
-3.31835e-06
-8.82333e-06
-9.45888e-06
-6.67735e-06
-4.17103e-06
-4.61428e-06
-5.07288e-06
-8.06214e-07
-1.51027e-06
-1.64415e-06
-2.34774e-06
-3.74863e-06
-3.59779e-06
-8.65375e-06
-4.18231e-06
-8.46356e-06
-5.25272e-06
)
;
    }
    ceiling
    {
        type            calculated;
        value           nonuniform List<scalar> 
43
(
8.17129e-06
6.25594e-06
4.96116e-06
1.04883e-05
1.46291e-05
1.66229e-05
1.85586e-05
2.04494e-05
2.22831e-05
2.40562e-05
2.57484e-05
2.72158e-05
2.84421e-05
2.9406e-05
3.00787e-05
3.04467e-05
3.05286e-05
3.03784e-05
3.00219e-05
2.95995e-05
2.91928e-05
2.88272e-05
2.8497e-05
2.81851e-05
2.78738e-05
2.75491e-05
2.72016e-05
2.68254e-05
2.64146e-05
2.59586e-05
2.54755e-05
2.50061e-05
2.4627e-05
2.4445e-05
2.44643e-05
2.45501e-05
2.48852e-05
2.56808e-05
2.54173e-05
2.28064e-05
1.66545e-05
1.34638e-05
3.61028e-06
)
;
    }
    sWall
    {
        type            calculated;
        value           uniform -0.000142981;
    }
    nWall
    {
        type            calculated;
        value           nonuniform List<scalar> 6(-3.06881e-05 -3.62978e-05 -4.32783e-05 -4.5274e-05 -5.13382e-05 -6.27718e-05);
    }
    sideWalls
    {
        type            empty;
        value           nonuniform 0();
    }
    glass1
    {
        type            calculated;
        value           nonuniform List<scalar> 9(-5.66026e-05 -0.000146203 -0.000216003 -0.000272318 -0.000319685 -0.000360775 -0.000398809 -0.000447518 -0.000503508);
    }
    glass2
    {
        type            calculated;
        value           nonuniform List<scalar> 2(-0.000182139 -0.000198109);
    }
    sun
    {
        type            calculated;
        value           uniform 0;
    }
    Table_master
    {
        type            calculated;
        value           nonuniform List<scalar> 9(-1.53277e-07 -1.53206e-07 -1.53126e-07 -1.53056e-07 -1.52993e-07 -1.52939e-07 -1.52884e-07 -1.52826e-07 -1.52736e-07);
    }
    Table_slave
    {
        type            calculated;
        value           nonuniform List<scalar> 9(1.5192e-07 1.51971e-07 1.52018e-07 1.52067e-07 1.52116e-07 1.52164e-07 1.52212e-07 1.52266e-07 1.52307e-07);
    }
    inlet
    {
        type            calculated;
        value           uniform -0.00107359;
    }
    outlet
    {
        type            calculated;
        value           nonuniform List<scalar> 2(0.00292152 0.000794018);
    }
}


// ************************************************************************* //
