/*--------------------------------*- C++ -*----------------------------------*=========                 |
  \      /  F ield         | OpenFOAM: The Open Source CFD Toolbox
   \    /   O peration     | Website:  https://openfoam.org
    \  /    A nd           | Version:  6
     \/     M anipulation  |
\*---------------------------------------------------------------------------*/
FoamFile
{
    version     2.0;
    format      ascii;
    class       volScalarField;
    location    "3000";
    object      PMV;
}
// * * * * * * * * * * * * * * * * * * * * * * * * * * * * * * * * * * * * * //

dimensions      [0 0 0 0 0 0 0];

internalField   nonuniform List<scalar> 
458
(
2.236806684039879
2.086291703671359
2.097714143393115
2.0942473199023572
2.0909007385551797
2.088118873669674
2.086176882935614
2.085220766498367
2.085931571347101
2.088101557585907
2.0919096473498286
2.098362377892266
2.1089930218975703
2.1187173094940523
2.1050861039166002
1.6200697322864728
1.6253607028200268
1.633056274100784
1.6253607028200268
1.618626703206368
1.6171836583151722
1.6118923592602503
1.607081905613202
1.6051576761134263
1.6061197942800032
1.6085250597680294
1.6104492412528624
1.6142975213024842
1.624398724152601
1.6431560055269459
1.6681613064164578
1.6720078131048488
1.665276344145912
2.275891803955632
2.108506745094866
2.1304663733882476
2.1259044971883365
2.125598794896556
2.1257086304532966
2.1266698546417384
2.12744185265233
2.12808847438306
2.1298140701654433
2.1302276256323385
2.1292290450649474
2.1264549696531443
2.1166535339423094
2.097830914499146
2.0977313941358315
2.105353928431897
2.0916900893773267
1.6127786042723384
1.6782581166640618
1.6835465712818232
1.6821042896285647
1.6628721554134522
1.664314674474023
1.6623913118538551
1.6614296189376554
1.6647955102814902
1.6724886175825395
1.6854695851655084
1.7085431796767927
1.7364171989016641
1.768607013808521
1.805587870482089
1.8027067836304376
1.753234080940548
1.6190821115770018
2.356193768517609
2.1269056685519585
2.1662800513562828
2.1596852459461644
2.163645094369012
2.169216276404552
2.174527317075219
2.1794264874992435
2.183876984135845
2.1864340614344946
2.1870374373899613
2.182885932150228
2.1726207067616548
2.1533756962732604
2.1261868778251527
2.099356644739153
2.066398106233676
2.027808667150057
1.8372735418501838
1.8219122490874127
1.8233524881490897
1.8334334804973653
1.8343935123342086
1.7234422810626175
1.7354561497781271
1.7546753961853334
1.7734105528009185
1.7935827317050395
1.8147106933688908
1.8382335296215515
1.8684673692836806
1.908281354142248
1.9519076674466493
1.901567228163779
1.8641489467917411
1.7694551369755243
2.444764738584117
2.155449476688385
2.2015290225302246
2.1920574781974995
2.2007778767771335
2.2120239854635524
2.223745107685497
2.2347857651688825
2.2445387561058827
2.250998980622654
2.2539224931740507
2.2501907529143232
2.238029371309301
2.214985432638174
2.1826348928301096
2.1414158243389494
2.0878269588436487
2.023074256241187
1.9771388255333833
1.9632779578976634
1.9926926015745219
2.035461846258253
2.0714554978851756
2.091245418665905
2.107457344935666
2.116053376941342
2.125644439200839
2.1360797340698423
2.147865563280318
2.151894305829705
2.1547592482989804
2.1557141886240094
2.1514167977491065
2.1227572611379193
2.109376879833996
2.0964709181965713
2.0854743409275533
2.5325776780230735
2.1965079117445714
2.236861537561078
2.2239461707279187
2.2354666688268554
2.2522089291004823
2.270185312317689
2.288153415350526
2.304922742012997
2.318490025779368
2.3256913519138926
2.3249734679042855
2.3150275668165614
2.2945495930043696
2.265287468463832
2.228949144818118
2.187601176993595
2.147998597432421
2.120662049650626
2.107194736029696
2.1111991823199614
2.1224156893011186
2.1319639395065515
2.137227387546959
2.1409526311781724
2.145419038002608
2.150685265873844
2.157173254870357
2.1658107508511053
2.175680146512243
2.1862613474975774
2.191509454131695
2.195802870077119
2.196756902275429
2.2000958415168643
2.203911439945777
2.199945224753348
2.1720020179139836
2.1464761127981755
2.168814790322331
2.612335300830945
2.2539593899054515
2.291239728145371
2.2692837955045237
2.2739148445855935
2.293147139975247
2.3165747312484326
2.341122364241098
2.3648164759163053
2.385884317705248
2.3974825770593964
2.399009326657407
2.391332571902959
2.3747596365170764
2.349701738951743
2.318071200793001
2.2820938144733143
2.24759631308439
2.2204172034480942
2.2020841264172186
2.193458198820446
2.18956324115537
2.187076629285596
2.1842092291978217
2.181724464020727
2.1800241356242367
2.179544669938579
2.1811231063614764
2.184119554576253
2.188797917463983
2.1950430769533678
2.201433802762353
2.207043308397503
2.2117922309511417
2.2173899937340265
2.2240160500247277
2.2265297513600366
2.22634756296213
2.194189826364075
2.150386434132006
2.6847591780947235
2.3500309916797204
2.4098185627464934
2.359864851260947
2.337002383945358
2.3533625155014497
2.3657070245510603
2.3832651564553293
2.404130742334171
2.4259273458942503
2.441078010717859
2.449596879963009
2.4486635739861637
2.439343798739251
2.4237767680660074
2.4014544949862127
2.374244558796571
2.3453514499605053
2.3196714576714785
2.2981318533675608
2.2801447800194197
2.264434442411132
2.251575430182184
2.2406179307471352
2.2310870910888134
2.223460723576691
2.2172632069629685
2.2129720512658992
2.2120183985510535
2.2098038741605053
2.2084755261150035
2.2074024462179715
2.205579689086032
2.203021524185982
2.200032409753686
2.1962635683839054
2.1927851647732433
2.1942030542858806
2.209083698397931
2.107838665037323
2.79889522028205
2.5852717306830084
2.5528516866199515
2.4872803070527123
2.440654838115771
2.422487606381335
2.4170545948434983
2.4191661059549547
2.4266318960258935
2.437064942106701
2.445876153060158
2.452101016998212
2.455378474630625
2.455317630029889
2.452504343830944
2.445649588696128
2.4349400372499352
2.4136097629905957
2.387534405845195
2.3619092649642464
2.3386374117672757
2.318676103306561
2.3015565414183685
2.2863317742014
2.2725285148935055
2.260148608181245
2.249193638254516
2.2396649539027456
2.2325168680799146
2.228704011898539
2.23013387701586
2.2348997117132767
2.2225592291121434
2.2087686532746065
2.194569168706114
2.1819509126196825
2.172837853252188
2.166918084944279
2.157811333895332
2.12719093468733
2.961915676483237
2.845304511871383
2.717433460834641
2.6383243780786074
2.570418316124352
2.5250101681659656
2.4955021414658853
2.4772564878898664
2.4687191194714657
2.4631253493790948
2.459736003420253
2.458657399853468
2.4576434543470365
2.456432672144284
2.454242465618801
2.4507908743085323
2.444808908463715
2.435813181365461
2.423914864098414
2.41039121494426
2.3936999382258866
2.373301053841891
2.3543122757712034
2.3367368820409258
2.3205777214995162
2.3048860421954114
2.2901386045441714
2.2758608335321897
2.263005887336281
2.25300443189496
2.245858873716303
2.2420473510563426
2.2420473510563426
2.2444295979743067
2.2463352868612616
2.2487172615601243
2.2525281041245857
2.2577673708462362
2.2225943814345657
2.1389659885400487
1.537221163590832
2.4165392073969536
2.499572592189212
2.5067416811814494
2.497685665775315
2.487885943106062
2.4800325320671432
2.4741348062995505
2.4687386494341363
2.4643585469576754
2.460482972519027
2.4570849250996023
2.453587680993238
2.4499136901067784
2.444966837115697
2.4386202950459808
2.4297529961811972
2.4187599357982528
2.4056260321704817
2.392352402352776
2.3785629633906966
2.364836441356196
2.3517123978313452
2.3392045441548417
2.3272524568130195
2.3147233384557593
2.3020795921873747
2.2882352421061007
2.274432735424248
2.2614295070581387
2.2494691478379787
2.240316221443537
2.2337926916267037
2.2273114355395895
2.2197505303189016
2.208738368235734
2.185432589553097
2.1837642727259032
1.7841998395941978
2.286894539382704
2.4425423861959588
2.4719317163651464
2.475918224198502
2.472874877782298
2.468479273528545
2.4633111331001083
2.4580373172475576
2.4538119121312647
2.449978756138051
2.44627778022832
2.4429823464893325
2.4388893635129856
2.434385558744875
2.428887190417172
2.4224739430211986
2.414431496340514
2.4046195772932277
2.3935261047018948
2.3812314140762987
2.3683418361642334
2.3549605703446925
2.3416476044511914
2.3274547948552495
2.313831832195299
2.29973903030836
2.285267529945764
2.2704532522144447
2.2553469772704036
2.2409978163068165
2.22737609047684
2.215965430097744
2.20833904709693
2.2029317367554473
2.1989034531681395
2.177974082750972
2.2054118800192297
1.9229129853968792
1.9409705092665255
1.8746971424210863
2.213655847054939
2.4165338919919166
2.450643695644935
2.4536588965909645
2.44902683296966
2.44323344224014
2.4365234966087583
2.4302373546959855
2.4242702172388357
2.418187067099069
2.4117291118640476
2.4053739854521283
2.398680633088689
2.3917661819722023
2.3852495387787918
2.3788904514246045
2.371893796127395
2.364545662472354
2.3561679835089158
2.3472257798728435
2.337712035740971
2.326588544128323
2.3154742466522733
2.3033552604458047
2.2913274158208368
2.277883317698995
2.264735753335877
2.2507863898906653
2.2368795215884494
2.2231938248333973
2.210508639052445
2.2002095086984546
2.1935534949898052
2.19058032202454
2.192303466207761
2.1703501979071764
2.0853742864034457
)
;

boundaryField
{
    ".*"
    {
        type            zeroGradient;
    }
}


// ************************************************************************* //
