/*--------------------------------*- C++ -*----------------------------------*\
  =========                 |
  \\      /  F ield         | OpenFOAM: The Open Source CFD Toolbox
   \\    /   O peration     | Website:  https://openfoam.org
    \\  /    A nd           | Version:  6
     \\/     M anipulation  |
\*---------------------------------------------------------------------------*/
FoamFile
{
    version     2.0;
    format      ascii;
    class       volScalarField;
    location    "2700";
    object      epsilon;
}
// * * * * * * * * * * * * * * * * * * * * * * * * * * * * * * * * * * * * * //

dimensions      [0 2 -3 0 0 0 0];

internalField   nonuniform List<scalar> 
458
(
0.000503323
0.000669414
0.000720362
0.000835867
0.000954796
0.00107848
0.00121399
0.00134044
0.00142674
0.00145352
0.00140987
0.00129525
0.00111823
0.000894465
0.000640293
4.52249e-05
8.32799e-05
0.000129178
0.000140402
0.000132757
0.000109535
8.71991e-05
6.98336e-05
5.66983e-05
4.66611e-05
3.88818e-05
3.27971e-05
2.7929e-05
2.3895e-05
2.03901e-05
1.71163e-05
1.4173e-05
1.0018e-05
0.00121886
0.00166675
0.000633631
0.000624353
0.000663569
0.000725491
0.000813856
0.000914707
0.000997391
0.00103626
0.00101897
0.000946328
0.000830048
0.000692369
0.000587133
0.000886816
0.00046211
0.000209916
4.94184e-05
0.000123585
0.000140357
0.000136024
0.000125738
0.000123178
9.66976e-05
7.36463e-05
5.63706e-05
4.36646e-05
3.43001e-05
2.73581e-05
2.21414e-05
1.82616e-05
1.58714e-05
1.47619e-05
2.2222e-05
1.70794e-05
0.00216476
0.00389214
0.000771511
0.000601566
0.000646522
0.000746403
0.000886395
0.00103544
0.00114747
0.00119397
0.00117207
0.00108824
0.000957155
0.000801043
0.000659796
0.000567981
0.000475284
0.000565853
0.000310564
0.000251003
0.000209779
0.000175578
0.000155785
0.000294619
0.000193677
0.000130896
9.17251e-05
6.66807e-05
5.01899e-05
3.9064e-05
3.14523e-05
2.63272e-05
2.00983e-05
1.66794e-05
3.1804e-05
2.33637e-05
0.00343426
0.00791337
0.00120706
0.000632387
0.000665707
0.000819573
0.00105132
0.00125939
0.00138479
0.0014167
0.00137305
0.00126361
0.00110244
0.000925552
0.000760951
0.000631942
0.000548827
0.000552543
0.0010319
0.000604141
0.000390167
0.000278963
0.000213448
0.000181844
0.000410652
0.000300572
0.000235717
0.000193317
0.000162382
0.000137483
0.000116951
9.84052e-05
8.01321e-05
4.82523e-05
3.00477e-05
4.40348e-05
3.16704e-05
0.00516604
0.0139647
0.00238503
0.000827101
0.000784571
0.00103347
0.00142621
0.00165542
0.00174187
0.00172547
0.00163718
0.00148701
0.0012871
0.00106299
0.000846436
0.000664781
0.000532185
0.000460944
0.00043732
0.000375491
0.000313223
0.000258367
0.000210677
0.000171916
0.000156406
0.000138197
0.000123791
0.000111684
0.00010048
8.94874e-05
7.8853e-05
6.86684e-05
5.9148e-05
4.72064e-05
3.55981e-05
3.82703e-05
4.13256e-05
5.08875e-05
5.87784e-05
6.53365e-05
0.00755967
0.0206847
0.00539557
0.00177659
0.00148659
0.00197377
0.0022636
0.00233054
0.00227937
0.00216995
0.00201076
0.00179483
0.00152516
0.00122653
0.000937487
0.000694714
0.000519919
0.000418064
0.00036958
0.000334536
0.000295278
0.000250928
0.000206291
0.000166751
0.00013966
0.00012447
0.000115936
0.000109427
0.000102638
9.42789e-05
8.354e-05
7.18193e-05
6.05331e-05
5.01005e-05
4.14736e-05
3.7792e-05
3.83978e-05
5.53173e-05
0.000256294
0.000158849
0.0101767
0.0246781
0.0110271
0.00564226
0.00461854
0.00422445
0.00379242
0.00339928
0.00307476
0.00279918
0.00252252
0.00220006
0.00182216
0.00141775
0.00103641
0.000728118
0.000518681
0.000404258
0.00035167
0.000317441
0.000279557
0.000236424
0.00019419
0.00015914
0.00013664
0.000126553
0.000123231
0.000122128
0.000121088
0.000118586
0.000112601
0.000101406
8.93267e-05
7.84372e-05
7.13133e-05
7.00957e-05
7.6762e-05
0.000108379
0.000404988
0.000291678
0.0106563
0.0254857
0.0152548
0.0112707
0.00880132
0.00688121
0.00552873
0.00463679
0.00405293
0.00361892
0.0031977
0.00271046
0.00215932
0.00159812
0.00109454
0.000719156
0.00049021
0.000377045
0.000325515
0.000288541
0.000250176
0.000211355
0.000177855
0.000153782
0.000140688
0.000136699
0.00013818
0.000142946
0.000150446
0.000160626
0.000173157
0.000185272
0.000193061
0.00020822
0.000240703
0.000320281
0.000495798
0.000752899
0.00265371
0.000752533
0.0097716
0.015773
0.0128809
0.00994555
0.00790773
0.00667237
0.00595172
0.0055173
0.00516538
0.00471653
0.00406738
0.00323974
0.00237263
0.00158858
0.000948074
0.000576864
0.000406073
0.000327099
0.000285313
0.00025332
0.000223041
0.000195954
0.000174885
0.000160956
0.000153689
0.000151692
0.000153853
0.000160217
0.000171736
0.00018981
0.000216156
0.000252953
0.000304274
0.000378807
0.000492231
0.000655012
0.000861514
0.00107897
0.00128343
0.000721304
0.0023153
0.00624187
0.00762723
0.00810358
0.00814531
0.00770866
0.0067159
0.00533797
0.00380197
0.00238882
0.00148049
0.000916617
0.000588472
0.000416642
0.000333862
0.000292549
0.000267691
0.000248439
0.000232114
0.000219024
0.000208901
0.000199632
0.000189971
0.00017974
0.000170104
0.00016328
0.000161917
0.000168644
0.000186028
0.000215665
0.000261028
0.000326631
0.000417456
0.000531836
0.000649391
0.000726396
0.000735478
0.00046564
0.00262977
0.0083013
0.00805833
0.00692074
0.00607685
0.00512656
0.00406692
0.00300975
0.00207561
0.00135592
0.000897257
0.000630256
0.00048859
0.000422405
0.000397743
0.000393953
0.000399805
0.000409165
0.000418374
0.00042408
0.0004234
0.000414338
0.00039564
0.000368404
0.000336048
0.000303587
0.000276193
0.000257854
0.00025094
0.000258308
0.000282287
0.000325974
0.000390984
0.000471815
0.00055661
0.000628855
0.000710315
0.000507896
0.00190218
0.00243493
0.00287624
0.00390066
0.00375896
0.0036595
0.00343565
0.00300944
0.00246986
0.00191368
0.00141461
0.00102587
0.000760893
0.00059454
0.000492838
0.000429572
0.000387926
0.000357962
0.00033422
0.00031401
0.000295907
0.000278925
0.000262234
0.000245504
0.000229524
0.000215718
0.000205725
0.000200926
0.000202146
0.00020971
0.000223856
0.000244502
0.000272494
0.000309161
0.000355752
0.000410447
0.000470196
0.000450659
0.000365064
0.000300259
)
;

boundaryField
{
    floor
    {
        Cmu             0.09;
        kappa           0.41;
        E               9.8;
        type            epsilonWallFunction;
        value           nonuniform List<scalar> 
36
(
0.000640293
4.52249e-05
8.32799e-05
0.000129178
0.000140402
0.000132757
0.000109535
8.71991e-05
6.98336e-05
5.66983e-05
4.66611e-05
3.88818e-05
3.27971e-05
2.7929e-05
2.3895e-05
2.03901e-05
1.71163e-05
1.4173e-05
1.0018e-05
1.0018e-05
1.70794e-05
2.33637e-05
3.16704e-05
5.08875e-05
5.87784e-05
6.53365e-05
0.000640293
0.000886816
0.00046211
0.000209916
4.52249e-05
0.000209916
4.94184e-05
0.000565853
0.000310564
0.0010319
)
;
    }
    ceiling
    {
        Cmu             0.09;
        kappa           0.41;
        E               9.8;
        type            epsilonWallFunction;
        value           nonuniform List<scalar> 
43
(
0.00190218
0.00243493
0.00287624
0.00390066
0.00375896
0.0036595
0.00343565
0.00300944
0.00246986
0.00191368
0.00141461
0.00102587
0.000760893
0.00059454
0.000492838
0.000429572
0.000387926
0.000357962
0.00033422
0.00031401
0.000295907
0.000278925
0.000262234
0.000245504
0.000229524
0.000215718
0.000205725
0.000200926
0.000202146
0.00020971
0.000223856
0.000244502
0.000272494
0.000309161
0.000355752
0.000410447
0.000470196
0.000450659
0.000365064
0.000300259
0.0097716
0.015773
0.00262977
)
;
    }
    sWall
    {
        Cmu             0.09;
        kappa           0.41;
        E               9.8;
        type            epsilonWallFunction;
        value           uniform 0.00190218;
    }
    nWall
    {
        Cmu             0.09;
        kappa           0.41;
        E               9.8;
        type            epsilonWallFunction;
        value           nonuniform List<scalar> 6(6.53365e-05 0.000158849 0.000291678 0.00046564 0.000507896 0.000300259);
    }
    sideWalls
    {
        type            empty;
    }
    glass1
    {
        Cmu             0.09;
        kappa           0.41;
        E               9.8;
        type            epsilonWallFunction;
        value           nonuniform List<scalar> 9(0.000503323 0.00121886 0.00216476 0.00343426 0.00516604 0.00755967 0.0101767 0.0106563 0.0097716);
    }
    glass2
    {
        Cmu             0.09;
        kappa           0.41;
        E               9.8;
        type            epsilonWallFunction;
        value           nonuniform List<scalar> 2(0.000752533 0.000721304);
    }
    sun
    {
        Cmu             0.09;
        kappa           0.41;
        E               9.8;
        type            epsilonWallFunction;
        value           nonuniform List<scalar> 
14
(
0.000503323
0.000669414
0.000720362
0.000835867
0.000954796
0.00107848
0.00121399
0.00134044
0.00142674
0.00145352
0.00140987
0.00129525
0.00111823
0.000894465
)
;
    }
    Table_master
    {
        Cmu             0.09;
        kappa           0.41;
        E               9.8;
        type            epsilonWallFunction;
        value           nonuniform List<scalar> 9(0.000294619 0.000193677 0.000130896 9.17251e-05 6.66807e-05 5.01899e-05 3.9064e-05 3.14523e-05 2.63272e-05);
    }
    Table_slave
    {
        Cmu             0.09;
        kappa           0.41;
        E               9.8;
        type            epsilonWallFunction;
        value           nonuniform List<scalar> 9(0.000410652 0.000300572 0.000235717 0.000193317 0.000162382 0.000137483 0.000116951 9.84052e-05 8.01321e-05);
    }
    inlet
    {
        type            turbulentMixingLengthDissipationRateInlet;
        mixingLength    0.01;
        phi             phi;
        k               k;
        value           uniform 0.000101881;
    }
    outlet
    {
        type            zeroGradient;
    }
}


// ************************************************************************* //
