/*--------------------------------*- C++ -*----------------------------------*\
  =========                 |
  \\      /  F ield         | OpenFOAM: The Open Source CFD Toolbox
   \\    /   O peration     | Website:  https://openfoam.org
    \\  /    A nd           | Version:  6
     \\/     M anipulation  |
\*---------------------------------------------------------------------------*/
FoamFile
{
    version     2.0;
    format      ascii;
    class       volScalarField;
    location    "3000";
    object      k;
}
// * * * * * * * * * * * * * * * * * * * * * * * * * * * * * * * * * * * * * //

dimensions      [0 2 -2 0 0 0 0];

internalField   nonuniform List<scalar> 
458
(
0.0025929
0.00313813
0.00329829
0.00364349
0.00398533
0.00433059
0.00470211
0.00500705
0.00518877
0.00520885
0.00504806
0.00470254
0.00417226
0.00341189
0.00224567
0.000497536
0.000720549
0.000975597
0.00107532
0.00104115
0.000905306
0.000767648
0.000654727
0.000564706
0.000492392
0.000433668
0.000385239
0.000344979
0.000310371
0.000279167
0.000248931
0.000221598
0.000178761
0.00465722
0.00870222
0.00533948
0.0057356
0.00634461
0.0070561
0.00781629
0.00854921
0.00910906
0.00937417
0.0092904
0.00885588
0.00811957
0.00709768
0.0058719
0.00365741
0.00243886
0.00149356
0.000500178
0.00121637
0.00166412
0.00187081
0.00187288
0.00157457
0.00126368
0.00101684
0.000830629
0.000689545
0.000581214
0.000496664
0.000427443
0.000369141
0.00032588
0.000298507
0.000398049
0.000252143
0.00680591
0.0154745
0.00660266
0.00648699
0.00708201
0.00791214
0.00886703
0.00975501
0.0103957
0.0107031
0.0106597
0.0102548
0.00953726
0.00852375
0.00739786
0.00615556
0.0049418
0.00261836
0.00147383
0.0019007
0.00220439
0.00235567
0.00230676
0.00174968
0.00130276
0.000987726
0.000767474
0.000611474
0.000498904
0.000416124
0.000355434
0.000312539
0.000286019
0.000280781
0.000531153
0.000313675
0.0092267
0.0246792
0.0083168
0.00686202
0.00735235
0.00835341
0.00958743
0.0105581
0.0111604
0.0114282
0.0113879
0.0109795
0.010253
0.00929828
0.00825213
0.00723702
0.00622103
0.0047173
0.00372111
0.00328905
0.00320969
0.00320551
0.00313509
0.00292161
0.00226229
0.00183666
0.0015553
0.00135184
0.00118955
0.00105575
0.000936666
0.000822461
0.000704068
0.00051601
0.000394402
0.000692574
0.000387478
0.0120771
0.0367639
0.0122798
0.00781344
0.00805609
0.00951246
0.010967
0.0117841
0.0121824
0.0123242
0.0122093
0.0117543
0.0109403
0.0098445
0.00864125
0.007513
0.00653284
0.0056919
0.0052929
0.00489442
0.00458179
0.00429037
0.0039539
0.0035465
0.00309295
0.00273263
0.00246806
0.00224966
0.00204428
0.00182635
0.00159286
0.00134679
0.00109553
0.000828348
0.000604637
0.000662713
0.000617076
0.000651007
0.000830345
0.00100682
0.0155289
0.0495854
0.0215423
0.011751
0.0112695
0.0130355
0.0136704
0.0137726
0.0137455
0.0136813
0.01345
0.0128681
0.0118488
0.0104716
0.00896162
0.0075843
0.00653744
0.00591946
0.0056886
0.00552863
0.00527425
0.00489031
0.00440746
0.00387974
0.00340206
0.0030589
0.00281196
0.00260109
0.00239253
0.00216386
0.00190851
0.00163521
0.00135615
0.00108126
0.000851281
0.0007394
0.000711744
0.000716408
0.00127261
0.00107078
0.0188901
0.0574287
0.0359306
0.0236659
0.0209937
0.0191325
0.017563
0.0164979
0.0159226
0.0156131
0.0152117
0.0143988
0.0130456
0.011262
0.00936166
0.0077229
0.00661547
0.00611156
0.00597493
0.00582844
0.00550484
0.00501718
0.00444587
0.00387985
0.00341497
0.00309913
0.00288336
0.00270926
0.0025471
0.00238273
0.00219334
0.00197277
0.00173301
0.00148672
0.0012849
0.00115739
0.00114332
0.00126131
0.00168502
0.00146504
0.0194646
0.0538484
0.040119
0.0326296
0.0272547
0.0231213
0.0204428
0.0190396
0.0184834
0.0182039
0.0176192
0.0163668
0.0144113
0.0119876
0.00957321
0.00770413
0.00658745
0.00612173
0.0059301
0.00566731
0.00522663
0.00467256
0.0040988
0.00358841
0.00320006
0.00294044
0.00276938
0.00265223
0.002577
0.00254454
0.0025569
0.00257564
0.00256325
0.0025501
0.00262135
0.00296487
0.00373061
0.00482678
0.00919905
0.00353424
0.0183737
0.0252452
0.023691
0.0212401
0.0198419
0.0196771
0.0203345
0.0213536
0.0221603
0.0221253
0.0208063
0.0183027
0.0150833
0.0116124
0.00865735
0.00699717
0.00613445
0.00569766
0.00538765
0.0050228
0.00456856
0.00406459
0.0035811
0.00317077
0.00285849
0.00263743
0.00248466
0.00238552
0.00233799
0.00234499
0.00240725
0.00252892
0.00271803
0.00299488
0.00338089
0.00386955
0.00436928
0.00474444
0.00495838
0.00328453
0.00569685
0.0178986
0.0256669
0.0294524
0.0311302
0.0309472
0.028743
0.0248646
0.0196898
0.0149343
0.0112186
0.0085672
0.00684969
0.00586837
0.00530637
0.0049317
0.0045903
0.00421832
0.00382557
0.00344675
0.00310656
0.00281714
0.00257511
0.00236928
0.00219479
0.00205893
0.00197694
0.00196162
0.00202276
0.00216482
0.00238709
0.00269015
0.00306279
0.00345406
0.00374982
0.00382736
0.00367754
0.00247249
0.0080267
0.0277114
0.0298938
0.0281639
0.0261325
0.0233541
0.0199352
0.0162276
0.012637
0.00970478
0.00760113
0.00623492
0.00541384
0.00494685
0.0046749
0.00449288
0.00433683
0.00417936
0.0040187
0.00386013
0.00370299
0.00354104
0.00336578
0.00317336
0.00296825
0.00276492
0.00258372
0.00244805
0.00237889
0.00239223
0.00249953
0.00270391
0.00298611
0.00328951
0.00351172
0.00376263
0.00422778
0.00263135
0.00619939
0.00729348
0.00814061
0.00980978
0.00936987
0.00905504
0.00855821
0.00771021
0.00664451
0.00551253
0.00445295
0.00360158
0.00300207
0.00260938
0.0023553
0.00218331
0.00205513
0.00194683
0.00184636
0.00175141
0.001664
0.00158536
0.00151474
0.00145075
0.00139335
0.0013443
0.00130782
0.00128917
0.00129321
0.00132273
0.00137933
0.00146456
0.00158071
0.00173057
0.00191438
0.00213076
0.00225948
0.00216696
0.00193202
0.00173927
)
;

boundaryField
{
    floor
    {
        type            kqRWallFunction;
        value           nonuniform List<scalar> 
36
(
0.00224567
0.000497536
0.000720549
0.000975597
0.00107532
0.00104115
0.000905306
0.000767648
0.000654727
0.000564706
0.000492392
0.000433668
0.000385239
0.000344979
0.000310371
0.000279167
0.000248931
0.000221598
0.000178761
0.000178761
0.000252143
0.000313675
0.000387478
0.000651007
0.000830345
0.00100682
0.00224567
0.00365741
0.00243886
0.00149356
0.000497536
0.00149356
0.000500178
0.00261836
0.00147383
0.00372111
)
;
    }
    ceiling
    {
        type            kqRWallFunction;
        value           nonuniform List<scalar> 
43
(
0.00619939
0.00729348
0.00814061
0.00980978
0.00936987
0.00905504
0.00855821
0.00771021
0.00664451
0.00551253
0.00445295
0.00360158
0.00300207
0.00260938
0.0023553
0.00218331
0.00205513
0.00194683
0.00184636
0.00175141
0.001664
0.00158536
0.00151474
0.00145075
0.00139335
0.0013443
0.00130782
0.00128917
0.00129321
0.00132273
0.00137933
0.00146456
0.00158071
0.00173057
0.00191438
0.00213076
0.00225948
0.00216696
0.00193202
0.00173927
0.0183737
0.0252452
0.0080267
)
;
    }
    sWall
    {
        type            kqRWallFunction;
        value           uniform 0.00619939;
    }
    nWall
    {
        type            kqRWallFunction;
        value           nonuniform List<scalar> 6(0.00100682 0.00107078 0.00146504 0.00247249 0.00263135 0.00173927);
    }
    sideWalls
    {
        type            empty;
    }
    glass1
    {
        type            kqRWallFunction;
        value           nonuniform List<scalar> 9(0.0025929 0.00465722 0.00680591 0.0092267 0.0120771 0.0155289 0.0188901 0.0194646 0.0183737);
    }
    glass2
    {
        type            kqRWallFunction;
        value           nonuniform List<scalar> 2(0.00353424 0.00328453);
    }
    sun
    {
        type            kqRWallFunction;
        value           nonuniform List<scalar> 
14
(
0.0025929
0.00313813
0.00329829
0.00364349
0.00398533
0.00433059
0.00470211
0.00500705
0.00518877
0.00520885
0.00504806
0.00470254
0.00417226
0.00341189
)
;
    }
    Table_master
    {
        type            kqRWallFunction;
        value           nonuniform List<scalar> 9(0.00174968 0.00130276 0.000987726 0.000767474 0.000611474 0.000498904 0.000416124 0.000355434 0.000312539);
    }
    Table_slave
    {
        type            kqRWallFunction;
        value           nonuniform List<scalar> 9(0.00226229 0.00183666 0.0015553 0.00135184 0.00118955 0.00105575 0.000936666 0.000822461 0.000704068);
    }
    inlet
    {
        type            turbulentIntensityKineticEnergyInlet;
        intensity       0.05;
        value           uniform 0.0003375;
    }
    outlet
    {
        type            zeroGradient;
    }
}


// ************************************************************************* //
