/*--------------------------------*- C++ -*----------------------------------*\
  =========                 |
  \\      /  F ield         | OpenFOAM: The Open Source CFD Toolbox
   \\    /   O peration     | Website:  https://openfoam.org
    \\  /    A nd           | Version:  6
     \\/     M anipulation  |
\*---------------------------------------------------------------------------*/
FoamFile
{
    version     2.0;
    format      ascii;
    class       volVectorField;
    location    "100";
    object      U;
}
// * * * * * * * * * * * * * * * * * * * * * * * * * * * * * * * * * * * * * //

dimensions      [0 1 -1 0 0 0 0];

internalField   nonuniform List<vector> 
458
(
(0.1154 0.0718524 0)
(-0.14694 -0.000367068 0)
(-0.121763 0.00490851 0)
(-0.135531 0.00647742 0)
(-0.149478 0.00577145 0)
(-0.162143 0.00404907 0)
(-0.17226 0.0016579 0)
(-0.178886 -0.00132671 0)
(-0.181177 -0.00493553 0)
(-0.178238 -0.0092926 0)
(-0.168422 -0.0147134 0)
(-0.149495 -0.0215341 0)
(-0.120897 -0.0311306 0)
(-0.0931295 -0.0463198 0)
(-0.100743 -0.0663777 0)
(0.035669 0.00892313 0)
(-0.0254074 -0.0121258 0)
(-0.00451992 -0.0220562 0)
(0.0259309 -0.025481 0)
(0.0465382 -0.0182366 0)
(0.0606103 -0.00826926 0)
(0.0573588 -0.00343454 0)
(0.0490293 -0.000547742 0)
(0.0411596 0.00146667 0)
(0.034087 0.00274984 0)
(0.0274087 0.00338187 0)
(0.0212714 0.00334643 0)
(0.0163359 0.00252156 0)
(0.0134081 0.000945612 0)
(0.0138257 -0.00204992 0)
(0.0200472 -0.00826808 0)
(0.0454938 -0.00942147 0)
(-0.0446744 0.0188411 0)
(0.336317 0.158701 0)
(-0.176894 0.0159678 0)
(-0.115782 0.0204022 0)
(-0.137277 0.0224648 0)
(-0.15341 0.0215064 0)
(-0.167538 0.0186922 0)
(-0.178947 0.0144665 0)
(-0.187002 0.00892454 0)
(-0.190993 0.00202105 0)
(-0.190152 -0.0063503 0)
(-0.183792 -0.01598 0)
(-0.171064 -0.0267142 0)
(-0.152765 -0.0392603 0)
(-0.13332 -0.0545239 0)
(-0.114442 -0.0648451 0)
(-0.0775033 -0.0410282 0)
(-0.014172 -0.0326547 0)
(-0.0562038 0.0853169 0)
(0.143139 0.0184307 0)
(0.011759 0.00562614 0)
(-0.0103605 -0.0158723 0)
(-0.00214867 -0.032268 0)
(0.00643205 -0.0288672 0)
(0.0329861 -6.87781e-05 0)
(0.0269643 0.00614392 0)
(0.0221665 0.00892184 0)
(0.0208515 0.00963951 0)
(0.0210072 0.00923245 0)
(0.0215521 0.00839778 0)
(0.0221962 0.00721287 0)
(0.0230377 0.00530395 0)
(0.0236478 0.00226835 0)
(0.024521 -0.00352975 0)
(0.0277876 -0.0147016 0)
(0.0534494 -0.0111652 0)
(-0.110304 0.042365 0)
(0.518943 0.244094 0)
(-0.22807 0.0464526 0)
(-0.0986192 0.0420976 0)
(-0.129756 0.0394006 0)
(-0.146873 0.0359527 0)
(-0.161864 0.0303874 0)
(-0.174294 0.0227686 0)
(-0.183765 0.0131687 0)
(-0.189712 0.00166941 0)
(-0.191394 -0.0115008 0)
(-0.188646 -0.0261748 0)
(-0.181914 -0.0419783 0)
(-0.172764 -0.0586314 0)
(-0.163488 -0.0751501 0)
(-0.152594 -0.0868276 0)
(-0.136059 -0.0881169 0)
(-0.129978 -0.0886556 0)
(-0.174669 -0.073004 0)
(0.0395194 0.0401491 0)
(-0.0615588 0.00906477 0)
(-0.0590544 -0.0163546 0)
(-0.0562475 -0.0434739 0)
(-0.0580975 -0.0583652 0)
(0.0247759 0.00321957 0)
(-0.00417663 0.00441144 0)
(-0.000537254 0.00496232 0)
(0.00632365 0.00444762 0)
(0.013434 0.00348754 0)
(0.0200078 0.00248308 0)
(0.0255637 0.00130011 0)
(0.0296716 -0.00030437 0)
(0.0295461 0.000445939 0)
(0.0319772 0.00804292 0)
(0.02894 0.00985084 0)
(0.00317344 0.0184557 0)
(-0.212403 0.0468613 0)
(0.666362 0.316011 0)
(-0.279274 0.083498 0)
(-0.0740715 0.0658204 0)
(-0.115373 0.0576185 0)
(-0.13174 0.0520348 0)
(-0.145949 0.0444775 0)
(-0.158027 0.0345543 0)
(-0.167643 0.0221813 0)
(-0.174336 0.00739595 0)
(-0.177431 -0.00945366 0)
(-0.176704 -0.0275155 0)
(-0.173731 -0.0456475 0)
(-0.170379 -0.0626067 0)
(-0.168466 -0.0766329 0)
(-0.167783 -0.0848985 0)
(-0.168438 -0.0859388 0)
(-0.177341 -0.0780855 0)
(-0.197357 -0.042633 0)
(-0.189779 0.0410622 0)
(-0.130948 0.0344106 0)
(-0.12794 0.00675629 0)
(-0.112541 -0.0219456 0)
(-0.113039 -0.0469916 0)
(-0.119682 -0.0592528 0)
(-0.104357 -0.0432998 0)
(-0.0588967 -0.0425681 0)
(-0.00946832 -0.0406723 0)
(0.0349934 -0.0320746 0)
(0.0667786 -0.0276443 0)
(0.0971244 -0.0244107 0)
(0.12442 -0.0206844 0)
(0.145957 -0.0148281 0)
(0.158449 -0.00656825 0)
(0.154044 0.00842045 0)
(0.13249 0.0293035 0)
(0.11674 0.0457671 0)
(-0.0781599 0.069933 0)
(0.783818 0.375976 0)
(-0.323698 0.122926 0)
(-0.0468495 0.0867661 0)
(-0.0957828 0.0738561 0)
(-0.110193 0.0662262 0)
(-0.121841 0.0567476 0)
(-0.131741 0.044697 0)
(-0.139596 0.0298337 0)
(-0.145055 0.0121463 0)
(-0.147376 -0.00784892 0)
(-0.146211 -0.0285262 0)
(-0.143953 -0.0476952 0)
(-0.142472 -0.0638 0)
(-0.143246 -0.0757233 0)
(-0.14658 -0.0826458 0)
(-0.152751 -0.0849538 0)
(-0.162208 -0.0821931 0)
(-0.170071 -0.0676705 0)
(-0.167572 -0.0343328 0)
(-0.150024 -0.00732013 0)
(-0.128046 -0.00999117 0)
(-0.112593 -0.0285738 0)
(-0.106776 -0.0480759 0)
(-0.101727 -0.0600879 0)
(-0.0853778 -0.0602879 0)
(-0.0553282 -0.0670351 0)
(-0.0207276 -0.0674674 0)
(0.0177872 -0.0548463 0)
(0.0454772 -0.0480946 0)
(0.0723069 -0.0435175 0)
(0.0974754 -0.0373546 0)
(0.119889 -0.0258569 0)
(0.137525 -0.00596814 0)
(0.146929 0.020313 0)
(0.144997 0.048398 0)
(0.152903 0.0736649 0)
(0.10509 0.0903365 0)
(0.151718 0.130034 0)
(0.158018 0.164995 0)
(-0.136237 0.226655 0)
(0.861603 0.429982 0)
(-0.360858 0.159047 0)
(-0.0247837 0.0984324 0)
(-0.0704546 0.0872842 0)
(-0.0830789 0.0776325 0)
(-0.091334 0.0659978 0)
(-0.0974874 0.0520384 0)
(-0.101714 0.0352102 0)
(-0.10394 0.0152012 0)
(-0.102946 -0.007561 0)
(-0.0994431 -0.0304207 0)
(-0.0963699 -0.049543 0)
(-0.0951955 -0.063625 0)
(-0.0967948 -0.0724982 0)
(-0.101208 -0.0762907 0)
(-0.108197 -0.0752505 0)
(-0.116695 -0.0686575 0)
(-0.122547 -0.0550117 0)
(-0.120962 -0.0374602 0)
(-0.111274 -0.0246895 0)
(-0.0988767 -0.0257821 0)
(-0.0904737 -0.0377778 0)
(-0.0870679 -0.0536285 0)
(-0.083532 -0.0683177 0)
(-0.0731049 -0.0811964 0)
(-0.0523681 -0.0956264 0)
(-0.0268466 -0.0981557 0)
(0.00118608 -0.0819268 0)
(0.0218607 -0.0730869 0)
(0.0423209 -0.0683297 0)
(0.062788 -0.0621103 0)
(0.0834985 -0.0492723 0)
(0.10388 -0.0252023 0)
(0.124149 0.0104289 0)
(0.134419 0.0460657 0)
(0.146646 0.0750104 0)
(0.142746 0.0786834 0)
(0.140173 0.0460886 0)
(0.147843 0.0290795 0)
(-0.179351 0.143812 0)
(0.883311 0.479862 0)
(-0.378968 0.162902 0)
(-0.00490881 0.0747864 0)
(-0.0246324 0.0981254 0)
(-0.0424172 0.0905945 0)
(-0.0509202 0.0719265 0)
(-0.0533422 0.0542047 0)
(-0.0526881 0.0353416 0)
(-0.0499973 0.013166 0)
(-0.0420969 -0.0121763 0)
(-0.0360523 -0.0355589 0)
(-0.0331704 -0.0525936 0)
(-0.0335042 -0.0634776 0)
(-0.0370288 -0.0691917 0)
(-0.0432521 -0.0706387 0)
(-0.0513616 -0.0683727 0)
(-0.0599146 -0.0620241 0)
(-0.0660711 -0.0513423 0)
(-0.0671852 -0.0394452 0)
(-0.0635478 -0.0315427 0)
(-0.0586633 -0.0320301 0)
(-0.056488 -0.0403126 0)
(-0.0580039 -0.0537642 0)
(-0.0607898 -0.0708204 0)
(-0.0601318 -0.0922554 0)
(-0.0486268 -0.116549 0)
(-0.0324729 -0.123138 0)
(-0.0130232 -0.101004 0)
(-0.00406867 -0.0897465 0)
(0.00614606 -0.0852579 0)
(0.0170209 -0.081006 0)
(0.0300258 -0.0711208 0)
(0.046168 -0.0496881 0)
(0.0688443 -0.0119687 0)
(0.09253 0.0303685 0)
(0.108489 0.0613879 0)
(0.11787 0.0696924 0)
(0.123113 0.0583076 0)
(0.172968 0.0781847 0)
(-0.147565 0.214168 0)
(0.990246 0.504487 0)
(-0.150554 0.149996 0)
(0.0717046 0.0211657 0)
(0.100996 0.0577179 0)
(0.0599341 0.0750692 0)
(0.0305159 0.0572512 0)
(0.0229493 0.0354241 0)
(0.0247827 0.0163111 0)
(0.0292547 -0.00651536 0)
(0.0434081 -0.0268586 0)
(0.0472555 -0.0425289 0)
(0.0456477 -0.053663 0)
(0.0405077 -0.0603742 0)
(0.0326545 -0.0631089 0)
(0.0228472 -0.0625753 0)
(0.0119569 -0.0594983 0)
(0.00109512 -0.0540805 0)
(-0.0075465 -0.0464644 0)
(-0.0121488 -0.0386505 0)
(-0.013422 -0.0334461 0)
(-0.0136601 -0.0332098 0)
(-0.0157304 -0.0383004 0)
(-0.0215497 -0.0484348 0)
(-0.0319835 -0.0651731 0)
(-0.0443491 -0.092254 0)
(-0.0422765 -0.127786 0)
(-0.036508 -0.141049 0)
(-0.0238547 -0.10931 0)
(-0.0285466 -0.0933104 0)
(-0.0339514 -0.0880751 0)
(-0.0392137 -0.0853158 0)
(-0.0428329 -0.0799426 0)
(-0.0428348 -0.0682751 0)
(-0.0353111 -0.0478034 0)
(0.00631801 -0.0158512 0)
(0.0214907 0.017673 0)
(0.031474 0.0236394 0)
(0.0422325 0.0152234 0)
(0.151565 0.105651 0)
(-0.612172 0.33819 0)
(1.13349 0.456316 0)
(0.545703 0.299597 0)
(0.531126 0.251308 0)
(0.475 0.217402 0)
(0.370152 0.184568 0)
(0.284954 0.137895 0)
(0.235456 0.0903851 0)
(0.207788 0.0506032 0)
(0.192129 0.0184642 0)
(0.17284 -0.00853879 0)
(0.154738 -0.0287074 0)
(0.137901 -0.0421496 0)
(0.121683 -0.0497956 0)
(0.105747 -0.0528389 0)
(0.0901908 -0.0525029 0)
(0.0753548 -0.0499099 0)
(0.0617756 -0.0459897 0)
(0.0503323 -0.041458 0)
(0.0417911 -0.0371856 0)
(0.0359204 -0.0343995 0)
(0.0314707 -0.0341052 0)
(0.026698 -0.0363507 0)
(0.0191302 -0.0408405 0)
(0.00314372 -0.0512887 0)
(-0.0251013 -0.0786845 0)
(-0.0310084 -0.124326 0)
(-0.0370767 -0.147659 0)
(-0.0287679 -0.103408 0)
(-0.0468028 -0.0812395 0)
(-0.0711841 -0.0732147 0)
(-0.0984925 -0.0674561 0)
(-0.129218 -0.0573415 0)
(-0.163952 -0.0381362 0)
(-0.203344 -0.00653888 0)
(-0.242759 0.0362468 0)
(-0.276645 0.0798875 0)
(-0.332782 0.121595 0)
(-0.399303 0.157338 0)
(-0.488158 0.181618 0)
(-0.847836 0.186187 0)
(-0.281829 0.138304 0)
(0.169514 0.215751 0)
(0.240987 0.19669 0)
(0.232637 0.152646 0)
(0.232892 0.104681 0)
(0.235857 0.0620513 0)
(0.234947 0.0277501 0)
(0.228767 0.00136566 0)
(0.216018 -0.0178985 0)
(0.199281 -0.0302747 0)
(0.180676 -0.0371084 0)
(0.161784 -0.0398175 0)
(0.143722 -0.0397348 0)
(0.127183 -0.0379822 0)
(0.112538 -0.0354272 0)
(0.100001 -0.0326845 0)
(0.0896265 -0.0301944 0)
(0.0810827 -0.0283057 0)
(0.0738057 -0.0272679 0)
(0.0673532 -0.0270204 0)
(0.0595383 -0.0269852 0)
(0.0426429 -0.0287357 0)
(0.00434757 -0.0416286 0)
(-0.00623393 -0.0923704 0)
(-0.0321913 -0.132788 0)
(-0.030725 -0.0700119 0)
(-0.0511673 -0.0465476 0)
(-0.0831918 -0.0420078 0)
(-0.11579 -0.0391286 0)
(-0.14823 -0.0319417 0)
(-0.176706 -0.0164003 0)
(-0.197614 0.0110535 0)
(-0.214297 0.0476889 0)
(-0.227737 0.088865 0)
(-0.237894 0.117557 0)
(-0.234256 0.103696 0)
(-0.22045 -0.00964561 0)
(-0.305832 -0.289041 0)
(-0.160362 0.275755 0)
(0.0738268 0.21167 0)
(0.0957789 0.161105 0)
(0.133417 0.129009 0)
(0.172958 0.0949213 0)
(0.202661 0.067577 0)
(0.21839 0.0504786 0)
(0.222036 0.0432206 0)
(0.217421 0.0427171 0)
(0.208221 0.042818 0)
(0.196666 0.0438675 0)
(0.184029 0.0461018 0)
(0.171273 0.0494779 0)
(0.159141 0.053641 0)
(0.148092 0.0579107 0)
(0.138283 0.0614523 0)
(0.129578 0.0636227 0)
(0.12158 0.0639407 0)
(0.11389 0.0614832 0)
(0.106441 0.0567522 0)
(0.0985632 0.0580974 0)
(0.0859424 0.0754914 0)
(0.0597561 0.0745253 0)
(0.0513287 -0.0356359 0)
(-0.0188111 -0.12576 0)
(-0.0538961 -0.0184779 0)
(-0.0656529 0.0499227 0)
(-0.083532 0.0666193 0)
(-0.097544 0.0718967 0)
(-0.109628 0.072551 0)
(-0.118633 0.066203 0)
(-0.122077 0.06473 0)
(-0.115614 0.0782852 0)
(-0.099497 0.106179 0)
(-0.0752563 0.135183 0)
(-0.0492919 0.142837 0)
(0.121136 0.0583067 0)
(-0.204376 -0.209529 0)
(-0.231271 -0.401108 0)
(-0.481619 -0.102874 0)
(-0.353459 0.173779 0)
(-0.168366 0.067824 0)
(-0.0691865 0.0319182 0)
(0.0577515 0.00135426 0)
(0.12431 -0.0322006 0)
(0.176322 -0.0638914 0)
(0.208308 -0.0926846 0)
(0.223651 -0.119409 0)
(0.228409 -0.14486 0)
(0.226616 -0.165818 0)
(0.220515 -0.183649 0)
(0.211725 -0.199396 0)
(0.201558 -0.213617 0)
(0.191007 -0.226421 0)
(0.180689 -0.237536 0)
(0.170846 -0.24649 0)
(0.161434 -0.252936 0)
(0.152244 -0.256974 0)
(0.142757 -0.2593 0)
(0.13195 -0.260772 0)
(0.120234 -0.260984 0)
(0.114507 -0.254989 0)
(0.120721 -0.255981 0)
(0.123729 -0.278553 0)
(0.0117601 -0.318497 0)
(-0.0920563 -0.308781 0)
(-0.105072 -0.294277 0)
(-0.11606 -0.286493 0)
(-0.122348 -0.274395 0)
(-0.123062 -0.252215 0)
(-0.11555 -0.215806 0)
(-0.0961182 -0.174572 0)
(-0.0609016 -0.126209 0)
(-0.00617904 -0.0701369 0)
(0.0732984 -0.0378897 0)
(0.1404 -0.0627378 0)
(0.218532 -0.151733 0)
(-0.0879277 -0.254644 0)
)
;

boundaryField
{
    floor
    {
        type            noSlip;
    }
    ceiling
    {
        type            noSlip;
    }
    sWall
    {
        type            noSlip;
    }
    nWall
    {
        type            noSlip;
    }
    sideWalls
    {
        type            empty;
    }
    glass1
    {
        type            noSlip;
    }
    glass2
    {
        type            noSlip;
    }
    sun
    {
        type            noSlip;
    }
    Table_master
    {
        type            noSlip;
    }
    Table_slave
    {
        type            noSlip;
    }
    inlet
    {
        type            fixedValue;
        value           uniform (0.212132 -0.212132 0);
    }
    outlet
    {
        type            zeroGradient;
    }
}


// ************************************************************************* //
