/*--------------------------------*- C++ -*----------------------------------*\
  =========                 |
  \\      /  F ield         | OpenFOAM: The Open Source CFD Toolbox
   \\    /   O peration     | Website:  https://openfoam.org
    \\  /    A nd           | Version:  6
     \\/     M anipulation  |
\*---------------------------------------------------------------------------*/
FoamFile
{
    version     2.0;
    format      ascii;
    class       volScalarField;
    location    "200";
    object      alphat;
}
// * * * * * * * * * * * * * * * * * * * * * * * * * * * * * * * * * * * * * //

dimensions      [1 -1 -1 0 0 0 0];

internalField   nonuniform List<scalar> 
458
(
0.000818041
0.000842578
0.000791786
0.000822194
0.000852303
0.000879662
0.000904624
0.000927959
0.000950638
0.000973973
0.000994858
0.0010114
0.00102368
0.00103338
0.00104031
0.000489779
0.000591155
0.000588613
0.000476043
0.000366134
0.000249538
0.000231231
0.000238972
0.00025184
0.000243256
0.000223676
0.000206952
0.000222319
0.000253597
0.000304594
0.000413398
0.000479233
0.000431192
0.00136582
0.00226438
0.00171085
0.00213911
0.00229343
0.00245557
0.00262039
0.00277413
0.00289851
0.00296957
0.00299283
0.0029371
0.0027546
0.00237259
0.00174102
0.00111372
0.00106851
0.000791195
0.000676195
0.00153088
0.00176561
0.00169775
0.0012076
0.000859865
0.000688089
0.000678225
0.000697995
0.000624661
0.00045979
0.000310543
0.000280017
0.000414347
0.001043
0.00166561
0.00198168
0.000630756
0.00184291
0.00361735
0.00183748
0.00311756
0.00343315
0.00362089
0.00378372
0.00392122
0.00402898
0.00409946
0.00413542
0.00411336
0.00399683
0.00373687
0.00329738
0.00270255
0.00194968
0.00114843
0.0009987
0.0028167
0.0025751
0.00211836
0.00163471
0.000586009
0.000474888
0.000416153
0.000374981
0.000341123
0.000309053
0.00027735
0.000293575
0.000575778
0.00165631
0.0022204
0.00229563
0.000727109
0.00230088
0.00539702
0.00194511
0.00348758
0.00412931
0.00432249
0.00445266
0.00455345
0.00463137
0.00468816
0.00472978
0.00475785
0.00475547
0.00468199
0.00445835
0.00397253
0.00313361
0.00204484
0.00121671
0.00270257
0.0031185
0.00264626
0.00200809
0.00137219
0.000891441
0.000900183
0.000922914
0.000955867
0.00099801
0.00105587
0.0011075
0.00114075
0.0011511
0.00165679
0.00217903
0.00273336
0.00109611
0.00273435
0.00744655
0.00243523
0.00331361
0.00444023
0.00468406
0.00479178
0.00485863
0.00490062
0.00492915
0.00495255
0.00501008
0.00511582
0.0052665
0.00543536
0.00557905
0.00565311
0.00559871
0.00534757
0.00513256
0.00479514
0.0044531
0.00421821
0.00407562
0.00400378
0.00405731
0.00417375
0.00433789
0.00452536
0.00471118
0.00484636
0.00488803
0.00483629
0.00474318
0.00443451
0.00402221
0.00287426
0.0013311
0.00126648
0.00115535
0.00314631
0.00939593
0.00364067
0.00290593
0.00427978
0.00473608
0.00491229
0.00499474
0.00500756
0.00496985
0.00490362
0.00490547
0.00498808
0.0051546
0.00539477
0.0056782
0.00594088
0.00606703
0.00596018
0.00567679
0.00536383
0.00515058
0.00505359
0.00501224
0.00498274
0.00498384
0.00504921
0.00517969
0.00534294
0.0054933
0.00559167
0.00560973
0.00556098
0.00552194
0.00555858
0.00545154
0.0050843
0.0046948
0.00408036
0.00139516
0.00354655
0.0108889
0.00604958
0.00313798
0.00318992
0.00396418
0.00455507
0.0049111
0.00506296
0.00497768
0.00477598
0.00468288
0.00467772
0.00475735
0.00492122
0.00515811
0.00541723
0.00558922
0.00557842
0.0054045
0.00519164
0.00507072
0.00506561
0.00511199
0.00514217
0.00515926
0.00522205
0.00536107
0.00553592
0.00567026
0.00570982
0.00565272
0.00555614
0.00551326
0.0056256
0.00587488
0.00585716
0.00543635
0.00487943
0.00155589
0.00365538
0.0113641
0.00837508
0.00578282
0.00405365
0.00354913
0.00393158
0.00447335
0.00484615
0.00473931
0.00453077
0.00438306
0.00430864
0.004298
0.00434527
0.00445145
0.00460653
0.00475506
0.00481257
0.00474818
0.00462465
0.00455482
0.00459789
0.00474437
0.00493612
0.00510883
0.00526811
0.00548062
0.00571938
0.00587181
0.00585212
0.00565687
0.00535039
0.00502237
0.00473501
0.00446888
0.00412208
0.00366108
0.00324568
0.00156839
0.00356613
0.00432765
0.00473083
0.00472987
0.00436286
0.00393062
0.00365702
0.00357154
0.00359802
0.00365159
0.00369728
0.00372687
0.00374221
0.00374865
0.00375339
0.0037657
0.00379352
0.0038311
0.00385299
0.00383581
0.00379048
0.00375986
0.00379559
0.00394728
0.00425641
0.00469903
0.00510396
0.00547653
0.00587599
0.00618942
0.00627203
0.00607331
0.00563011
0.00502432
0.00434562
0.00368068
0.0031147
0.00271923
0.00247572
0.00170793
0.00236421
0.00349682
0.00388187
0.00385051
0.00371086
0.00358301
0.00348771
0.00341432
0.00336366
0.00332299
0.00328227
0.00323524
0.00317994
0.00311864
0.00305672
0.00299958
0.00294877
0.00290237
0.00286125
0.00283474
0.002843
0.00292244
0.00313844
0.00357725
0.00423002
0.00494996
0.00565242
0.00628918
0.00678975
0.00719142
0.00751636
0.00777365
0.00790282
0.00776035
0.00722422
0.00645198
0.00568767
0.0017885
0.00250876
0.00390096
0.00412662
0.00403617
0.00386672
0.00368775
0.00352295
0.00337528
0.00322917
0.00306976
0.00290771
0.00274944
0.00259874
0.00245796
0.00232884
0.00221298
0.00211165
0.00202566
0.00195567
0.00190332
0.00187323
0.00187698
0.0019427
0.00213394
0.00254942
0.00321652
0.00397244
0.0046556
0.00523642
0.00573938
0.00618735
0.00658895
0.00690657
0.00702993
0.00681881
0.00609722
0.0051928
0.00169532
0.00223466
0.00233588
0.00242765
0.00258441
0.00243709
0.00224052
0.00209036
0.00195925
0.00184219
0.00173565
0.00163941
0.00155295
0.00147222
0.00139487
0.00131952
0.0012455
0.00117269
0.00110141
0.00103237
0.000966411
0.000904412
0.00084707
0.000794883
0.000748262
0.000707869
0.000675403
0.000655187
0.000655496
0.000689135
0.000764712
0.000880437
0.00102614
0.00118946
0.00135789
0.00151485
0.0016283
0.00164584
0.00158235
0.00152234
0.00137624
)
;

boundaryField
{
    floor
    {
        type            compressible::alphatWallFunction;
        Prt             0.85;
        value           nonuniform List<scalar> 
36
(
0.000147968
6.76609e-05
8.30398e-05
8.26582e-05
6.5557e-05
4.83444e-05
2.92922e-05
2.62008e-05
2.75086e-05
2.96716e-05
2.82327e-05
2.49218e-05
2.20617e-05
2.46925e-05
2.99754e-05
3.84018e-05
5.57973e-05
6.60278e-05
5.85792e-05
5.85785e-05
8.8938e-05
0.000103155
0.000155748
0.000188136
0.000179303
0.000163992
0.000147966
0.000158217
0.000151913
0.000112503
6.766e-05
0.000112502
9.56898e-05
0.000163032
0.000142105
0.000172464
)
;
    }
    ceiling
    {
        type            compressible::alphatWallFunction;
        Prt             0.85;
        value           nonuniform List<scalar> 
43
(
0.000307583
0.000320581
0.000332315
0.000352287
0.000333571
0.000308394
0.000288999
0.00027194
0.000256604
0.000242554
0.00022978
0.000218232
0.000207386
0.000196931
0.000186684
0.000176553
0.000166519
0.000156629
0.000146976
0.000137686
0.000128885
0.000120681
0.000113157
0.000106385
0.000100477
9.56978e-05
9.27074e-05
9.27513e-05
9.7715e-05
0.000108768
0.000125449
0.000146092
0.000168827
0.0001919
0.000213107
0.000228281
0.000230617
0.000222149
0.000214112
0.000194391
0.000474693
0.000567086
0.000342618
)
;
    }
    sWall
    {
        type            compressible::alphatWallFunction;
        Prt             0.85;
        value           uniform 0.000306451;
    }
    nWall
    {
        type            compressible::alphatWallFunction;
        Prt             0.85;
        value           nonuniform List<scalar> 6(0.000163765 0.000196606 0.000218248 0.000249173 0.000236845 0.000194046);
    }
    sideWalls
    {
        type            empty;
    }
    glass1
    {
        type            compressible::alphatWallFunction;
        Prt             0.85;
        value           nonuniform List<scalar> 9(0.000113142 0.000188399 0.000251334 0.000310217 0.000364896 0.000416083 0.000465185 0.000478565 0.000467908);
    }
    glass2
    {
        type            compressible::alphatWallFunction;
        Prt             0.85;
        value           nonuniform List<scalar> 2(0.000218506 0.000237083);
    }
    sun
    {
        type            compressible::alphatWallFunction;
        Prt             0.85;
        value           nonuniform List<scalar> 
14
(
0.000116401
0.000119915
0.000112589
0.000116981
0.000121311
0.00012523
0.000128793
0.000132114
0.000135331
0.000138633
0.000141579
0.000143909
0.000145635
0.000146995
)
;
    }
    Table_master
    {
        type            compressible::alphatWallFunction;
        Prt             0.85;
        value           nonuniform List<scalar> 9(8.23755e-05 6.54747e-05 5.63443e-05 4.98462e-05 4.44334e-05 3.92412e-05 3.40373e-05 3.67146e-05 8.08567e-05);
    }
    Table_slave
    {
        type            compressible::alphatWallFunction;
        Prt             0.85;
        value           nonuniform List<scalar> 9(0.00012703 0.000128276 0.000131511 0.000136185 0.000142135 0.000150256 0.000157462 0.000162084 0.000163523);
    }
    inlet
    {
        type            fixedValue;
        value           uniform 1.94e-05;
    }
    outlet
    {
        type            zeroGradient;
    }
}


// ************************************************************************* //
