/*--------------------------------*- C++ -*----------------------------------*\
  =========                 |
  \\      /  F ield         | OpenFOAM: The Open Source CFD Toolbox
   \\    /   O peration     | Website:  https://openfoam.org
    \\  /    A nd           | Version:  6
     \\/     M anipulation  |
\*---------------------------------------------------------------------------*/
FoamFile
{
    version     2.0;
    format      ascii;
    class       volScalarField;
    location    "200";
    object      epsilon;
}
// * * * * * * * * * * * * * * * * * * * * * * * * * * * * * * * * * * * * * //

dimensions      [0 2 -3 0 0 0 0];

internalField   nonuniform List<scalar> 
458
(
0.000123945
0.000135006
0.000112024
0.000125438
0.000139736
0.000153635
0.000167093
0.000180365
0.000193921
0.000208559
0.000222268
0.000233542
0.000242147
0.000249081
0.00025412
2.64275e-05
4.6472e-05
4.58773e-05
2.42736e-05
1.10322e-05
3.48032e-06
2.76644e-06
3.05349e-06
3.57423e-06
3.22144e-06
2.50474e-06
1.98402e-06
2.46012e-06
3.65336e-06
6.33252e-06
1.58394e-05
2.46809e-05
1.79753e-05
0.000578204
0.00133229
0.000134106
0.000100089
0.000102438
0.000106954
0.000112357
0.000119415
0.000129023
0.000142077
0.000157749
0.00017507
0.00019291
0.000210557
0.000236701
0.000311773
0.000275267
0.00011174
6.9589e-05
9.16024e-05
6.29041e-05
5.03242e-05
3.13963e-05
1.85186e-05
1.16288e-05
9.36136e-06
8.61827e-06
7.25834e-06
4.7197e-06
2.93652e-06
3.3794e-06
8.59388e-06
2.53236e-05
5.86152e-05
0.000110992
5.62908e-05
0.00142345
0.00433264
0.000285533
0.000110635
0.00010356
0.00010753
0.000113813
0.000122375
0.000133495
0.000147238
0.000162875
0.000178299
0.000191935
0.000203515
0.000216517
0.000238701
0.000271847
0.000341724
0.000224359
0.000180907
0.00011639
0.000104736
0.000106033
4.52016e-05
2.40339e-05
1.61658e-05
1.18228e-05
8.89833e-06
6.61557e-06
4.78014e-06
5.67037e-06
4.28912e-05
0.000126524
0.00014146
0.000266549
8.6282e-05
0.00277571
0.00958896
0.00065006
0.000136564
0.000111806
0.000117011
0.000126109
0.000137633
0.00015159
0.000168006
0.0001865
0.00020303
0.000215621
0.000224545
0.000231964
0.000242368
0.000265146
0.000316821
0.00040623
0.00017672
0.000106476
8.80255e-05
9.13164e-05
0.000112171
0.000159744
0.000164481
0.000177252
0.00019692
0.000224125
0.000265398
0.000306281
0.000334716
0.000343932
0.000239228
0.000200917
0.000274711
0.000296312
0.00466716
0.016795
0.00140846
0.000185608
0.000121667
0.000127786
0.000142124
0.000160437
0.000182396
0.000207753
0.000235336
0.000257078
0.00027053
0.000277115
0.000278374
0.000275107
0.000267648
0.000251372
0.00020886
0.000134288
9.42124e-05
7.84923e-05
7.67928e-05
8.27987e-05
9.23588e-05
0.00010255
0.000118401
0.000140961
0.000170915
0.00020948
0.000255577
0.000290929
0.00031165
0.000302083
0.000268037
0.00026082
0.00030422
0.000531331
0.000457634
0.000347482
0.00712181
0.0237383
0.00288109
0.000317023
0.000148022
0.000146189
0.000165206
0.000192564
0.000226999
0.000268956
0.000311978
0.000337728
0.000347266
0.000347299
0.000342459
0.000333978
0.000318079
0.000284195
0.000227174
0.000163262
0.000116913
9.25915e-05
8.35715e-05
8.33374e-05
8.90589e-05
0.000101449
0.00012324
0.000155969
0.000200194
0.000254744
0.000316107
0.000376681
0.000433268
0.000477397
0.000526587
0.000521735
0.000525303
0.000556333
0.000607706
0.000611993
0.0102128
0.0270966
0.00610698
0.00106709
0.00036617
0.000256322
0.000255155
0.000284047
0.000328285
0.000394268
0.000443752
0.000455182
0.000443605
0.000423083
0.000401205
0.000380683
0.000357631
0.000320414
0.000263375
0.000198937
0.000146743
0.000113704
9.62505e-05
8.93662e-05
9.15077e-05
0.000105083
0.000133853
0.000180208
0.000244179
0.000322016
0.000406951
0.000492638
0.000578931
0.000676343
0.000815236
0.00103122
0.00119156
0.00101405
0.000937091
0.000848868
0.0112061
0.0362351
0.0155618
0.00693139
0.00286632
0.00131848
0.00086617
0.000738594
0.00070802
0.000714738
0.000676969
0.000619179
0.000557869
0.000500782
0.000450791
0.000408467
0.000371469
0.000331758
0.000281298
0.000222942
0.000172123
0.000134906
0.000110885
9.76155e-05
9.51515e-05
0.000108091
0.000143816
0.000207012
0.000297421
0.000406479
0.00051985
0.00062532
0.000720182
0.000813751
0.000921161
0.00104582
0.00116124
0.00123923
0.00135257
0.000870857
0.0104356
0.018593
0.014139
0.00998135
0.00663253
0.00426905
0.00279807
0.00194589
0.00146604
0.00115245
0.000931094
0.000769595
0.00064749
0.00055214
0.00047568
0.000413012
0.000360202
0.000312958
0.000267225
0.000222158
0.000180944
0.00014679
0.000120938
0.000103372
9.50087e-05
0.000101634
0.00013721
0.000211709
0.00033236
0.000490132
0.000657489
0.00080221
0.000903089
0.000955649
0.000968278
0.000963444
0.000978158
0.00105469
0.00120277
0.00112666
0.00528677
0.00605323
0.0050562
0.00376321
0.00272884
0.00200714
0.00152076
0.00118602
0.000947305
0.000772034
0.000639751
0.000536972
0.000454625
0.000386641
0.000329041
0.000279195
0.000235386
0.000196772
0.00016335
0.000135426
0.000113157
9.66011e-05
8.63542e-05
8.51178e-05
9.98151e-05
0.000141246
0.00022503
0.000371925
0.000588719
0.000895346
0.0013115
0.00182112
0.00234224
0.00268774
0.00263147
0.00222304
0.00173115
0.00129263
0.00351969
0.00539939
0.00445137
0.00336065
0.00251283
0.00189822
0.00146114
0.00114772
0.000919434
0.000750369
0.000621742
0.00052072
0.000438635
0.000369837
0.000310878
0.000259844
0.000215792
0.000178266
0.000146919
0.000121309
0.000100891
8.51567e-05
7.38846e-05
6.76601e-05
6.88128e-05
8.22645e-05
0.000115555
0.000179045
0.000287256
0.000450782
0.000681114
0.000979746
0.00131684
0.00158864
0.00161491
0.00135629
0.0014951
0.0011008
0.00250117
0.00285556
0.00320545
0.0038889
0.003269
0.00254293
0.00206608
0.00170156
0.00141458
0.00118314
0.000997055
0.000847475
0.000722068
0.000614129
0.000519882
0.000437205
0.000364917
0.000302337
0.000248958
0.000204218
0.000167373
0.000137505
0.000113616
9.47659e-05
8.02242e-05
6.96765e-05
6.35965e-05
6.36756e-05
7.39712e-05
0.000101054
0.00015421
0.000244131
0.000380208
0.00056561
0.000785185
0.000975052
0.00100687
0.000894778
0.000796798
0.000588874
)
;

boundaryField
{
    floor
    {
        Cmu             0.09;
        kappa           0.41;
        E               9.8;
        type            epsilonWallFunction;
        value           nonuniform List<scalar> 
36
(
0.00025412
2.64275e-05
4.6472e-05
4.58773e-05
2.42736e-05
1.10322e-05
3.48032e-06
2.76644e-06
3.05349e-06
3.57423e-06
3.22144e-06
2.50474e-06
1.98402e-06
2.46012e-06
3.65336e-06
6.33252e-06
1.58394e-05
2.46809e-05
1.79753e-05
1.79753e-05
5.62908e-05
8.6282e-05
0.000296312
0.000531331
0.000457634
0.000347482
0.00025412
0.000311773
0.000275267
0.00011174
2.64275e-05
0.00011174
6.9589e-05
0.000341724
0.000224359
0.00040623
)
;
    }
    ceiling
    {
        Cmu             0.09;
        kappa           0.41;
        E               9.8;
        type            epsilonWallFunction;
        value           nonuniform List<scalar> 
43
(
0.00250117
0.00285556
0.00320545
0.0038889
0.003269
0.00254293
0.00206608
0.00170156
0.00141458
0.00118314
0.000997055
0.000847475
0.000722068
0.000614129
0.000519882
0.000437205
0.000364917
0.000302337
0.000248958
0.000204218
0.000167373
0.000137505
0.000113616
9.47659e-05
8.02242e-05
6.96765e-05
6.35965e-05
6.36756e-05
7.39712e-05
0.000101054
0.00015421
0.000244131
0.000380208
0.00056561
0.000785185
0.000975052
0.00100687
0.000894778
0.000796798
0.000588874
0.0104356
0.018593
0.00351969
)
;
    }
    sWall
    {
        Cmu             0.09;
        kappa           0.41;
        E               9.8;
        type            epsilonWallFunction;
        value           uniform 0.00250117;
    }
    nWall
    {
        Cmu             0.09;
        kappa           0.41;
        E               9.8;
        type            epsilonWallFunction;
        value           nonuniform List<scalar> 6(0.000347482 0.000611993 0.000848868 0.00129263 0.0011008 0.000588874);
    }
    sideWalls
    {
        type            empty;
    }
    glass1
    {
        Cmu             0.09;
        kappa           0.41;
        E               9.8;
        type            epsilonWallFunction;
        value           nonuniform List<scalar> 9(0.000123945 0.000578204 0.00142345 0.00277571 0.00466716 0.00712181 0.0102128 0.0112061 0.0104356);
    }
    glass2
    {
        Cmu             0.09;
        kappa           0.41;
        E               9.8;
        type            epsilonWallFunction;
        value           nonuniform List<scalar> 2(0.000870857 0.00112666);
    }
    sun
    {
        Cmu             0.09;
        kappa           0.41;
        E               9.8;
        type            epsilonWallFunction;
        value           nonuniform List<scalar> 
14
(
0.000123945
0.000135006
0.000112024
0.000125438
0.000139736
0.000153635
0.000167093
0.000180365
0.000193921
0.000208559
0.000222268
0.000233542
0.000242147
0.000249081
)
;
    }
    Table_master
    {
        Cmu             0.09;
        kappa           0.41;
        E               9.8;
        type            epsilonWallFunction;
        value           nonuniform List<scalar> 9(4.52016e-05 2.40339e-05 1.61658e-05 1.18228e-05 8.89833e-06 6.61557e-06 4.78014e-06 5.67037e-06 4.28912e-05);
    }
    Table_slave
    {
        Cmu             0.09;
        kappa           0.41;
        E               9.8;
        type            epsilonWallFunction;
        value           nonuniform List<scalar> 9(0.000159744 0.000164481 0.000177252 0.00019692 0.000224125 0.000265398 0.000306281 0.000334716 0.000343932);
    }
    inlet
    {
        type            turbulentMixingLengthDissipationRateInlet;
        mixingLength    0.01;
        phi             phi;
        k               k;
        value           uniform 0.000101881;
    }
    outlet
    {
        type            zeroGradient;
    }
}


// ************************************************************************* //
