/*--------------------------------*- C++ -*----------------------------------*\
  =========                 |
  \\      /  F ield         | OpenFOAM: The Open Source CFD Toolbox
   \\    /   O peration     | Website:  https://openfoam.org
    \\  /    A nd           | Version:  6
     \\/     M anipulation  |
\*---------------------------------------------------------------------------*/
FoamFile
{
    version     2.0;
    format      ascii;
    class       volScalarField;
    location    "200";
    object      k;
}
// * * * * * * * * * * * * * * * * * * * * * * * * * * * * * * * * * * * * * //

dimensions      [0 2 -2 0 0 0 0];

internalField   nonuniform List<scalar> 
458
(
0.000985259
0.00104304
0.000921028
0.00099316
0.00106726
0.00113691
0.00120237
0.00126522
0.00132784
0.00139385
0.00145428
0.00150305
0.00153975
0.001569
0.00159009
0.000351634
0.000512284
0.000507906
0.000332229
0.000196381
9.10265e-05
7.81161e-05
8.343e-05
9.26627e-05
8.64577e-05
7.31034e-05
6.2583e-05
7.22313e-05
9.4012e-05
0.000135652
0.000249954
0.000335948
0.000271957
0.00275075
0.00537186
0.00148137
0.00143103
0.00149906
0.00158498
0.00167817
0.00178012
0.00189139
0.00200896
0.00212514
0.00221781
0.00225455
0.00218594
0.00198532
0.00182231
0.00167712
0.000919462
0.000670513
0.0011575
0.00103012
0.000903499
0.000601781
0.000389911
0.000276357
0.000246149
0.000239577
0.000207984
0.000143886
9.32736e-05
9.50166e-05
0.000184328
0.000502117
0.000965476
0.00144901
0.000582116
0.00501524
0.0122452
0.00224024
0.00181642
0.00184424
0.00193
0.00202978
0.00214269
0.0022685
0.00240317
0.00253863
0.002649
0.00270915
0.00269733
0.0026133
0.00248397
0.00225139
0.00193722
0.00146339
0.00220685
0.00169254
0.00145625
0.00128712
0.000502969
0.000330113
0.000253424
0.000205715
0.000170212
0.000139688
0.000112479
0.000126035
0.000485609
0.00141506
0.00173216
0.00241711
0.000773843
0.00782793
0.022254
0.003478
0.00213461
0.00210173
0.0021999
0.00231803
0.00244896
0.0025921
0.00274557
0.00290558
0.00304056
0.00313256
0.00317179
0.00314563
0.00303492
0.00281905
0.00248904
0.00217391
0.00213683
0.00178176
0.00149237
0.0013241
0.00121312
0.00116685
0.00118981
0.00125064
0.00134153
0.00146242
0.00163688
0.00180093
0.00191072
0.0019456
0.00194664
0.00204572
0.0026787
0.00176152
0.0110688
0.0345997
0.00572861
0.00242583
0.00227364
0.00239335
0.00255303
0.00273151
0.00292512
0.00313101
0.00334034
0.00351145
0.00363988
0.00373762
0.00380545
0.00383245
0.00380484
0.00366926
0.00326852
0.0025675
0.00207859
0.00182832
0.00176005
0.00179639
0.00188045
0.00199467
0.00217382
0.00241809
0.00271958
0.00307202
0.00344158
0.00368765
0.00379643
0.00370147
0.00337111
0.00316675
0.0028908
0.00259986
0.00235353
0.00195884
0.014671
0.0462134
0.0100187
0.00296906
0.00246222
0.0025742
0.00278712
0.00303438
0.00329893
0.0035775
0.00382738
0.00398299
0.00407265
0.00414012
0.00420563
0.00426064
0.00425276
0.00406201
0.00359934
0.00297771
0.00244928
0.00213583
0.00200987
0.00199877
0.00206011
0.00219895
0.00243946
0.00277956
0.00319832
0.00365828
0.00411148
0.0044954
0.00480021
0.0050209
0.00529051
0.00521479
0.00505294
0.00499676
0.0048685
0.00285679
0.0186564
0.0531656
0.0188066
0.00566109
0.00334354
0.00311863
0.00333555
0.0036545
0.0039893
0.00433516
0.00450524
0.0045183
0.00445798
0.00439041
0.0043482
0.00433602
0.00430667
0.00414035
0.00374989
0.00320763
0.00269995
0.00234869
0.00215973
0.00209048
0.00212154
0.00227718
0.0025856
0.00303974
0.00359562
0.00417895
0.00471423
0.00516085
0.00554657
0.00597178
0.00662262
0.00761136
0.00816897
0.00725994
0.00661156
0.00355323
0.0198473
0.0628512
0.0353463
0.0195954
0.0105482
0.00669362
0.0057102
0.00562471
0.00573221
0.00569587
0.00542024
0.0050986
0.00479828
0.00454041
0.00433128
0.00417281
0.00404785
0.00388633
0.00359996
0.00318317
0.00276016
0.00242495
0.00220874
0.00210502
0.00211976
0.00229838
0.00269205
0.00329424
0.00403367
0.00477802
0.00539439
0.00581686
0.00607103
0.00625235
0.00645895
0.00668574
0.00676595
0.00658692
0.00647937
0.00361435
0.0189268
0.0278162
0.0253522
0.0212898
0.0166617
0.0126846
0.0099037
0.00816104
0.00710951
0.00634996
0.00574301
0.00524189
0.00481778
0.00445257
0.00413522
0.00385936
0.00361731
0.00338827
0.00313972
0.00285623
0.00256232
0.00229841
0.00209601
0.00197606
0.00196712
0.0021376
0.00258837
0.00333032
0.00432216
0.0053869
0.00628075
0.00682698
0.00697437
0.00677763
0.00634489
0.00582484
0.00539917
0.0052385
0.0053379
0.00429128
0.0109094
0.014223
0.0137071
0.0117808
0.00984921
0.00830036
0.00712825
0.00622838
0.00552483
0.00495722
0.00448471
0.00407902
0.00372089
0.00339808
0.00310338
0.00283173
0.0025779
0.0023383
0.00211526
0.001917
0.0017548
0.00164378
0.0016105
0.00170697
0.00200996
0.00258633
0.00348831
0.00473034
0.00618367
0.0078482
0.00971091
0.0116375
0.0133074
0.0141262
0.0134862
0.0117143
0.00970549
0.00470302
0.00917069
0.0141868
0.0132562
0.0113943
0.00964498
0.00818705
0.00702074
0.00609056
0.00533198
0.00469644
0.0041606
0.00370249
0.00330366
0.00295018
0.00263278
0.00234631
0.00208864
0.00185928
0.00165846
0.00148666
0.00134501
0.00123689
0.00117208
0.0011755
0.0012957
0.00159122
0.00209572
0.002824
0.00379346
0.00497499
0.00634946
0.00785851
0.00932771
0.0103364
0.0102639
0.00889453
0.00861812
0.00422545
0.00730288
0.00797736
0.00861638
0.00980129
0.00872989
0.00738395
0.0064293
0.0056489
0.00499442
0.00443361
0.0039556
0.00354937
0.00318996
0.00286356
0.00256253
0.00228309
0.00202393
0.00178536
0.00156849
0.00137444
0.00120371
0.00105587
0.000929726
0.000823819
0.000737227
0.000671104
0.000631476
0.000632004
0.000698428
0.000859907
0.00113978
0.00154817
0.00208008
0.00271068
0.00337328
0.00389727
0.00398161
0.00368031
0.00340647
0.00278453
)
;

boundaryField
{
    floor
    {
        type            kqRWallFunction;
        value           nonuniform List<scalar> 
36
(
0.00159009
0.000351634
0.000512284
0.000507906
0.000332229
0.000196381
9.10265e-05
7.81161e-05
8.343e-05
9.26627e-05
8.64577e-05
7.31034e-05
6.2583e-05
7.22313e-05
9.4012e-05
0.000135652
0.000249954
0.000335948
0.000271957
0.000271957
0.000582116
0.000773843
0.00176152
0.00259986
0.00235353
0.00195884
0.00159009
0.00182231
0.00167712
0.000919462
0.000351634
0.000919462
0.000670513
0.00193722
0.00146339
0.00217391
)
;
    }
    ceiling
    {
        type            kqRWallFunction;
        value           nonuniform List<scalar> 
43
(
0.00730288
0.00797736
0.00861638
0.00980129
0.00872989
0.00738395
0.0064293
0.0056489
0.00499442
0.00443361
0.0039556
0.00354937
0.00318996
0.00286356
0.00256253
0.00228309
0.00202393
0.00178536
0.00156849
0.00137444
0.00120371
0.00105587
0.000929726
0.000823819
0.000737227
0.000671104
0.000631476
0.000632004
0.000698428
0.000859907
0.00113978
0.00154817
0.00208008
0.00271068
0.00337328
0.00389727
0.00398161
0.00368031
0.00340647
0.00278453
0.0189268
0.0278162
0.00917069
)
;
    }
    sWall
    {
        type            kqRWallFunction;
        value           uniform 0.00730288;
    }
    nWall
    {
        type            kqRWallFunction;
        value           nonuniform List<scalar> 6(0.00195884 0.00285679 0.00355323 0.00470302 0.00422545 0.00278453);
    }
    sideWalls
    {
        type            empty;
    }
    glass1
    {
        type            kqRWallFunction;
        value           nonuniform List<scalar> 9(0.000985259 0.00275075 0.00501524 0.00782793 0.0110688 0.014671 0.0186564 0.0198473 0.0189268);
    }
    glass2
    {
        type            kqRWallFunction;
        value           nonuniform List<scalar> 2(0.00361435 0.00429128);
    }
    sun
    {
        type            kqRWallFunction;
        value           nonuniform List<scalar> 
14
(
0.000985259
0.00104304
0.000921028
0.00099316
0.00106726
0.00113691
0.00120237
0.00126522
0.00132784
0.00139385
0.00145428
0.00150305
0.00153975
0.001569
)
;
    }
    Table_master
    {
        type            kqRWallFunction;
        value           nonuniform List<scalar> 9(0.000502969 0.000330113 0.000253424 0.000205715 0.000170212 0.000139688 0.000112479 0.000126035 0.000485609);
    }
    Table_slave
    {
        type            kqRWallFunction;
        value           nonuniform List<scalar> 9(0.00116685 0.00118981 0.00125064 0.00134153 0.00146242 0.00163688 0.00180093 0.00191072 0.0019456);
    }
    inlet
    {
        type            turbulentIntensityKineticEnergyInlet;
        intensity       0.05;
        value           uniform 0.000337501;
    }
    outlet
    {
        type            zeroGradient;
    }
}


// ************************************************************************* //
