/*--------------------------------*- C++ -*----------------------------------*\
  =========                 |
  \\      /  F ield         | OpenFOAM: The Open Source CFD Toolbox
   \\    /   O peration     | Website:  https://openfoam.org
    \\  /    A nd           | Version:  6
     \\/     M anipulation  |
\*---------------------------------------------------------------------------*/
FoamFile
{
    version     2.0;
    format      ascii;
    class       volScalarField;
    location    "400";
    object      alphat;
}
// * * * * * * * * * * * * * * * * * * * * * * * * * * * * * * * * * * * * * //

dimensions      [1 -1 -1 0 0 0 0];

internalField   nonuniform List<scalar> 
458
(
0.00110763
0.00119273
0.00121642
0.00126935
0.00131568
0.00135709
0.00139551
0.00143284
0.00147133
0.00150848
0.00154087
0.00156431
0.00157322
0.00156271
0.00153035
0.000605012
0.000726892
0.000787779
0.000767725
0.000735492
0.000692612
0.000649595
0.000611009
0.00057711
0.00054726
0.000520792
0.000496844
0.000474071
0.00045059
0.000423248
0.000386577
0.000374236
0.000384732
0.001517
0.0028769
0.00250583
0.00280571
0.00307306
0.0033658
0.0036687
0.00395505
0.00417772
0.00438475
0.00459435
0.00476936
0.00485458
0.00476754
0.00425472
0.00162315
0.00136412
0.00111763
0.000648107
0.00120962
0.0015618
0.00178137
0.00183401
0.00151089
0.00133228
0.00120087
0.00109793
0.00101563
0.000945072
0.000875456
0.000800868
0.000725274
0.000666275
0.000600872
0.000760023
0.000556592
0.00187396
0.00388388
0.00292613
0.00365013
0.00390021
0.00407686
0.00419438
0.00427729
0.00435129
0.00445738
0.00459792
0.00473967
0.00486225
0.0050075
0.00532741
0.00559789
0.00491084
0.00127591
0.00118558
0.0016186
0.00195494
0.00223169
0.00231077
0.000922768
0.000822475
0.000737938
0.000667706
0.000609141
0.000560176
0.000519734
0.000487418
0.000463421
0.000503167
0.000544163
0.000859915
0.000633268
0.00223417
0.00523959
0.00281314
0.0039496
0.00416655
0.00417638
0.00409381
0.00400464
0.00398067
0.00404447
0.00416211
0.00427602
0.00435193
0.00446359
0.00495003
0.00594538
0.00605037
0.00354534
0.00155041
0.00193629
0.00238057
0.00279853
0.00313292
0.00313584
0.000982295
0.000908946
0.000879378
0.000873588
0.00087484
0.000870001
0.000849052
0.000821267
0.000783797
0.000696942
0.000634611
0.000981929
0.000693127
0.00261318
0.00720679
0.00302742
0.00384584
0.00424283
0.00417097
0.00395836
0.00375805
0.00368948
0.00377659
0.00394126
0.00407621
0.0041054
0.00407683
0.00444104
0.00544454
0.00590482
0.00533056
0.00481565
0.00454624
0.00451484
0.00456979
0.0046304
0.00458214
0.00409588
0.00406216
0.0041451
0.0041989
0.00418032
0.00407766
0.00387562
0.00342346
0.00279877
0.00208249
0.00148144
0.0011733
0.00107117
0.000838544
0.000877974
0.000877308
0.00302607
0.00952368
0.00471757
0.00346504
0.00399702
0.00410905
0.00392661
0.00365119
0.00349842
0.00363913
0.00389156
0.00407554
0.00408257
0.00391719
0.00413239
0.00498383
0.00535661
0.00521399
0.00527962
0.00550048
0.00558718
0.00553986
0.00544071
0.00529097
0.00513531
0.00512126
0.00513065
0.00509946
0.00501546
0.00488889
0.00472183
0.00445656
0.00397655
0.00327946
0.00252869
0.00183486
0.00146531
0.00159096
0.00228579
0.00112806
0.00345675
0.0114177
0.00816189
0.00490726
0.00373789
0.00341661
0.00342692
0.00347786
0.00343563
0.00368247
0.00397407
0.00417034
0.00414614
0.00387117
0.00396007
0.00479354
0.00513627
0.00511522
0.00548087
0.00575051
0.00571296
0.00552547
0.00531201
0.00514219
0.005064
0.00505389
0.00503955
0.00499102
0.00491076
0.00482562
0.00474961
0.00468487
0.00447522
0.00400016
0.00336842
0.00272614
0.00228757
0.0022149
0.00275041
0.0014388
0.00356435
0.01088
0.00953879
0.00818879
0.00644096
0.00497833
0.00413805
0.0038821
0.00394899
0.00405404
0.00421106
0.00433566
0.00422372
0.0038022
0.00381848
0.00480048
0.00519632
0.00517274
0.00527491
0.00518879
0.00502258
0.00488738
0.00479125
0.00472621
0.00468987
0.00466568
0.0046311
0.00458096
0.00452819
0.00449764
0.00451882
0.00461574
0.00475224
0.0045933
0.0042297
0.00403869
0.00419592
0.00439481
0.00530528
0.00188117
0.00350927
0.00426055
0.00480684
0.0052395
0.00537942
0.00514583
0.00478247
0.00453901
0.00442767
0.00440604
0.00447634
0.00451282
0.00423011
0.00358887
0.00360138
0.00490482
0.00530199
0.00496389
0.00459859
0.00433165
0.00431374
0.00438535
0.0044026
0.00436295
0.00431363
0.0042651
0.00419938
0.00410784
0.00400019
0.00389329
0.0037985
0.00371376
0.00362289
0.0035302
0.0034431
0.00338502
0.00327851
0.0030661
0.00283455
0.00180336
0.00105485
0.00217047
0.0032839
0.00399223
0.00430385
0.00442295
0.00448869
0.0045702
0.00463834
0.00452406
0.00393973
0.00306311
0.00321753
0.00507707
0.00530628
0.00466664
0.00408255
0.00393673
0.00416523
0.00435834
0.00431985
0.00419032
0.00410429
0.00404972
0.00397001
0.00384944
0.00370542
0.00355981
0.00343197
0.00334106
0.00329882
0.00327085
0.00322189
0.00311714
0.00289868
0.00254124
0.00211051
0.00144672
0.00278196
0.00408738
0.00481125
0.00511806
0.00518502
0.00513129
0.00499517
0.00478771
0.00437868
0.00380785
0.00297684
0.00215128
0.00252636
0.00406184
0.00433733
0.00421666
0.00396483
0.0038934
0.0041487
0.00427311
0.00409435
0.00383002
0.00365713
0.00355914
0.00347575
0.00339852
0.00334677
0.00332827
0.00333065
0.00334164
0.00338672
0.00344068
0.0034716
0.00344093
0.00333021
0.00316397
0.0025417
0.00146316
0.00303143
0.00305689
0.00309462
0.0033376
0.00317564
0.00301698
0.00275285
0.00249085
0.00227282
0.00206206
0.00189115
0.00173501
0.00156615
0.00118989
0.00112313
0.00119256
0.00119332
0.0011392
0.00109204
0.00108848
0.00109711
0.00109776
0.00108686
0.00107659
0.00107646
0.00108626
0.00110369
0.00112837
0.00116085
0.00120192
0.0012533
0.00131658
0.00138734
0.00146487
0.00154647
0.00162863
0.00169973
0.0016658
0.00153008
0.00140564
)
;

boundaryField
{
    floor
    {
        type            compressible::alphatWallFunction;
        Prt             0.85;
        value           nonuniform List<scalar> 
36
(
0.000214938
8.50551e-05
0.000103071
0.00011192
0.000109004
0.000104305
9.80209e-05
9.1671e-05
8.5932e-05
8.08538e-05
7.63515e-05
7.23336e-05
6.86758e-05
6.51758e-05
6.15427e-05
5.72788e-05
5.1502e-05
4.9563e-05
5.12481e-05
5.12474e-05
7.78065e-05
8.92905e-05
9.81341e-05
0.000119262
0.000124902
0.000124817
0.000214936
0.000227391
0.000192538
0.000158659
8.50541e-05
0.000158658
9.14856e-05
0.000180477
0.000168119
0.000217685
)
;
    }
    ceiling
    {
        type            compressible::alphatWallFunction;
        Prt             0.85;
        value           nonuniform List<scalar> 
43
(
0.000408167
0.000411336
0.000416031
0.000446191
0.000426191
0.000406479
0.000373395
0.000340252
0.000312383
0.000285171
0.000262879
0.000242325
0.000219874
0.000168905
0.000159559
0.000169173
0.000169312
0.000161854
0.000155245
0.000154731
0.000155939
0.000156047
0.000154539
0.000153102
0.000153078
0.000154442
0.00015687
0.000160301
0.000164805
0.000170478
0.000177547
0.000186207
0.000195835
0.000206323
0.000217294
0.000228274
0.000237725
0.00023322
0.000215096
0.000198321
0.000467612
0.000558906
0.00037683
)
;
    }
    sWall
    {
        type            compressible::alphatWallFunction;
        Prt             0.85;
        value           uniform 0.000406865;
    }
    nWall
    {
        type            compressible::alphatWallFunction;
        Prt             0.85;
        value           nonuniform List<scalar> 6(0.000124575 0.000159876 0.000202405 0.000203503 0.000205718 0.000197946);
    }
    sideWalls
    {
        type            empty;
    }
    glass1
    {
        type            compressible::alphatWallFunction;
        Prt             0.85;
        value           nonuniform List<scalar> 9(0.000152727 0.00020772 0.000254468 0.000300773 0.000348722 0.00040019 0.000453147 0.000466428 0.00045997);
    }
    glass2
    {
        type            compressible::alphatWallFunction;
        Prt             0.85;
        value           nonuniform List<scalar> 2(0.000259178 0.000249099);
    }
    sun
    {
        type            compressible::alphatWallFunction;
        Prt             0.85;
        value           nonuniform List<scalar> 
14
(
0.000157263
0.000169032
0.000172294
0.000179562
0.000185894
0.000191533
0.000196747
0.000201796
0.000206987
0.000211983
0.000216328
0.000219468
0.000220661
0.00021926
)
;
    }
    Table_master
    {
        type            compressible::alphatWallFunction;
        Prt             0.85;
        value           nonuniform List<scalar> 9(0.000131468 0.000117115 0.000104854 9.45384e-05 8.58346e-05 7.84786e-05 7.23439e-05 6.74e-05 6.37036e-05);
    }
    Table_slave
    {
        type            compressible::alphatWallFunction;
        Prt             0.85;
        value           nonuniform List<scalar> 9(0.000139908 0.000129512 0.000125295 0.000124472 0.000124656 0.000123968 0.000120968 0.000116971 0.000111555);
    }
    inlet
    {
        type            fixedValue;
        value           uniform 1.94e-05;
    }
    outlet
    {
        type            zeroGradient;
    }
}


// ************************************************************************* //
