/*--------------------------------*- C++ -*----------------------------------*\
  =========                 |
  \\      /  F ield         | OpenFOAM: The Open Source CFD Toolbox
   \\    /   O peration     | Website:  https://openfoam.org
    \\  /    A nd           | Version:  6
     \\/     M anipulation  |
\*---------------------------------------------------------------------------*/
FoamFile
{
    version     2.0;
    format      ascii;
    class       surfaceScalarField;
    location    "2400";
    object      phi;
}
// * * * * * * * * * * * * * * * * * * * * * * * * * * * * * * * * * * * * * //

dimensions      [1 0 -1 0 0 0 0];

internalField   nonuniform List<scalar> 
850
(
-0.00284391
0.0028999
-0.00376989
0.000926003
-0.00448111
0.00071124
-0.00506041
0.000579319
-0.00548069
0.000420303
-0.00572614
0.000245479
-0.00577988
5.37606e-05
-0.00562297
-0.000156891
-0.00524497
-0.00037797
-0.00466056
-0.000584394
-0.00391088
-0.000749657
-0.00305276
-0.000858092
-0.00213574
-0.000917002
-0.00115438
-0.000981337
-0.00115308
-0.000521625
0.000524294
-0.000107763
-0.000413841
0.00047262
-0.000580363
0.000878435
-0.000405795
0.001134
-0.000255541
0.00126581
-0.000131796
0.00131992
-5.40867e-05
0.00134343
-2.34884e-05
0.00135319
-9.74183e-06
0.00135357
-3.6014e-07
0.00134665
6.94385e-06
0.00133149
1.51733e-05
0.00130094
3.05793e-05
0.00123469
6.62679e-05
0.00109931
0.000135399
0.00088677
0.000212561
0.000645998
0.000240793
0.000649617
-0.00202113
0.005071
-0.00294788
0.00185278
-0.00368603
0.00144941
-0.00425198
0.00114529
-0.00465959
0.000827929
-0.00490582
0.000491734
-0.00497414
0.000122107
-0.00484445
-0.000286556
-0.00451258
-0.000709817
-0.0040043
-0.00109265
-0.00337118
-0.00138275
-0.00267702
-0.00155223
-0.00199127
-0.00160273
-0.00142296
-0.00154962
-0.0012765
-0.00129952
-0.000594574
-0.000679437
-0.000382438
-0.000209133
-0.000373822
0.00057466
-4.32216e-05
0.000906314
-0.000745476
0.00108728
-0.000761315
0.00126556
-0.000584057
0.00139808
-0.000388038
0.00141929
-0.00015299
0.00141998
-5.47576e-05
0.00142287
-2.63597e-05
0.0014256
-1.24443e-05
0.0014267
-1.44735e-06
0.00142624
7.42343e-06
0.00142378
1.7655e-05
0.00141639
3.79955e-05
0.00137688
0.000105796
0.00121341
0.000298888
0.000930827
0.000495165
0.000579667
0.000591974
0.00123842
-0.00141794
0.00671743
-0.00223537
0.00267024
-0.0028853
0.00209936
-0.00335928
0.0016193
-0.00370591
0.00117458
-0.00392372
0.000709571
-0.00398625
0.000184658
-0.00385951
-0.000413267
-0.00354208
-0.00102722
-0.00307414
-0.00156056
-0.00251587
-0.00194099
-0.00192997
-0.0021381
-0.00137958
-0.00215309
-0.000928691
-0.00200048
-0.000579817
-0.00164837
-0.000178454
-0.00108078
0.000146649
-0.000534216
-0.000220452
0.00122371
-0.00125945
0.00142994
-0.00095169
0.0014406
-0.000771962
0.00147972
-0.000623155
0.00158007
-0.000488376
0.00142725
0.00137266
0.00134647
0.0013342
0.00133293
0.00134052
0.00135835
0.00139652
0.00150249
0.00124937
0.000552029
0.000932708
0.000811844
0.000510698
0.001014
0.00176295
-0.00099997
0.0080123
-0.00166654
0.00333683
-0.00208323
0.00251606
-0.00238202
0.00191812
-0.00260572
0.0013983
-0.00274637
0.00085024
-0.00276133
0.00019965
-0.00260025
-0.000574327
-0.00227719
-0.00135025
-0.00185246
-0.00198526
-0.00138917
-0.00240425
-0.000937499
-0.00258974
-0.000536424
-0.00255414
-0.000201492
-0.00233539
0.00010277
-0.00195261
0.000460102
-0.00143809
0.00087938
-0.000953474
0.00133427
-0.000675324
0.0019623
-0.00062098
0.00153854
-0.000835669
0.00144974
-0.000862874
0.00139939
-0.000721591
0.00135735
-0.000581102
0.00129056
-0.000421573
0.0014933
-0.000202884
0.00162825
-0.000135085
0.00174528
-0.000117171
0.00184898
-0.000103842
0.00192552
-7.66777e-05
0.00194929
-2.39052e-05
0.0018885
6.06437e-05
0.00170688
0.000181486
0.00134829
0.000358444
0.00119315
0.000707186
0.000896746
0.00110826
0.000445833
0.00146494
0.00222665
-0.00071316
0.00907653
-0.00123823
0.00386193
-0.00130101
0.00257886
-0.00133377
0.00195091
-0.0013666
0.00143115
-0.00136949
0.000853152
-0.00126547
9.56627e-05
-0.00101855
-0.000821225
-0.000689816
-0.00167895
-0.00034508
-0.00232996
-2.93781e-05
-0.00271991
0.000231326
-0.00285041
0.000430349
-0.00275313
0.000579736
-0.00248475
0.00071663
-0.00208948
0.000898897
-0.00162034
0.00112626
-0.00118082
0.00133053
-0.00087958
0.00144988
-0.000740309
0.00135534
-0.000741112
0.00121296
-0.000720478
0.00111447
-0.000623088
0.00104576
-0.000512376
0.00102175
-0.000397547
0.00110405
-0.000285177
0.00120092
-0.00023194
0.00130123
-0.000217475
0.00140255
-0.000205145
0.00149465
-0.000168768
0.00155783
-8.70806e-05
0.00156516
5.33325e-05
0.00149804
0.000248615
0.00136211
0.00049438
0.00123515
0.000834161
0.00110191
0.00124152
0.000838447
0.00172842
0.00102582
0.0020393
-0.000949774
0.0019918
-0.0016152
0.000680088
-0.00155352
-0.000634718
0.0101097
-0.00101231
0.00423954
-0.000580923
0.0021475
-0.000204011
0.00157402
4.79207e-05
0.00117924
0.000266984
0.000634108
0.00056448
-0.000201814
0.000900091
-0.00115681
0.0011841
-0.00196293
0.00137618
-0.002522
0.00146851
-0.00281221
0.00147325
-0.00285512
0.00141657
-0.00269641
0.00132483
-0.00239298
0.00123341
-0.00199803
0.0011793
-0.00156621
0.00116393
-0.00116543
0.00114776
-0.000863389
0.00109168
-0.000684213
0.000962712
-0.00061213
0.000804594
-0.000562347
0.000679941
-0.000498423
0.000600718
-0.000433141
0.000576132
-0.00037295
0.000615261
-0.000324295
0.000690531
-0.0003072
0.000783661
-0.000310596
0.000887877
-0.000309351
0.000998443
-0.000279324
0.00110685
-0.000195482
0.00119123
-3.10363e-05
0.00123357
0.000206283
0.00124813
0.000479832
0.00128384
0.000798457
0.00139065
0.00113472
0.00159573
0.00152335
0.00192689
0.00170816
0.00220274
0.00171596
0.00172367
0.00115918
0.000228144
-0.000681783
0.0112335
-0.000589445
0.00414722
0.000537945
0.00102013
0.0013027
0.000809277
0.00179999
0.000681969
0.00228581
0.000148303
0.00276625
-0.000682237
0.00309365
-0.00148418
0.00322792
-0.00209716
0.0031773
-0.00247134
0.00297341
-0.00260828
0.00266119
-0.00254285
0.00229051
-0.0023257
0.00190618
-0.00200862
0.00154699
-0.00163882
0.00124236
-0.00126156
0.000997377
-0.000920438
0.000794956
-0.000660954
0.000613837
-0.000503081
0.00043209
-0.00043037
0.000265497
-0.000395742
0.000138142
-0.000371057
5.81678e-05
-0.000353156
2.7762e-05
-0.000342535
4.50048e-05
-0.000341528
9.37768e-05
-0.000355963
0.000160383
-0.000377193
0.000241204
-0.000390164
0.000339703
-0.000377816
0.000462661
-0.000318432
0.000614825
-0.000183193
0.000771548
4.95675e-05
0.000923896
0.000327493
0.0011135
0.000608859
0.00138011
0.000868125
0.0017654
0.00113807
0.00227038
0.0012032
0.00295898
0.00102738
0.00308679
0.00103139
0.00337652
0.00249524
0.00923327
0.00319019
0.00345229
0.00374162
0.000468715
0.00424804
0.000302876
0.00473998
0.00019005
0.00525712
-0.000368826
0.00557766
-0.00100274
0.00560594
-0.00151242
0.00535099
-0.00184216
0.00486722
-0.00198752
0.0042277
-0.00196871
0.00350882
-0.00182393
0.00277911
-0.00159597
0.00209043
-0.00131992
0.00147789
-0.00102626
0.000964301
-0.000747955
0.000552553
-0.000508677
0.000235234
-0.000343623
-7.80791e-06
-0.000260027
-0.000200972
-0.000237195
-0.000352565
-0.000244139
-0.000465339
-0.000258272
-0.000542278
-0.000276209
-0.000587072
-0.000297733
-0.00060505
-0.000323542
-0.000607173
-0.000353832
-0.000601277
-0.000383082
-0.000588433
-0.000403
-0.0005625
-0.000403742
-0.000507531
-0.000373393
-0.000393277
-0.000297439
-0.00019096
-0.000152742
6.05647e-05
7.59765e-05
0.000343161
0.000326272
0.000667188
0.000544107
0.00105674
0.000748533
0.00148257
0.000777378
0.00187312
0.000636834
0.00123522
0.0016693
0.00485921
0.00977619
0.0132198
0.0126444
0.00104412
0.0117682
0.00117906
0.0110864
0.00087188
0.0103512
0.000366443
0.00940289
-5.43396e-05
0.00827179
-0.000381228
0.00704351
-0.000613805
0.00578715
-0.000731105
0.0045626
-0.000744108
0.00342129
-0.000682577
0.00240136
-0.000576018
0.00152228
-0.000440818
0.000789695
-0.000293658
0.000206548
-0.000164797
-0.000223227
-7.88922e-05
-0.000514311
-5.25297e-05
-0.000712535
-6.17947e-05
-0.000862925
-8.67968e-05
-0.000986913
-0.000120144
-0.00109046
-0.000154717
-0.00117799
-0.000188669
-0.00125437
-0.000221349
-0.0013251
-0.000252807
-0.0013983
-0.000280618
-0.00148173
-0.000299646
-0.00158244
-0.000302286
-0.00170811
-0.000278055
-0.00186851
-0.000212994
-0.00207382
-9.21131e-05
-0.00232225
9.56963e-05
-0.00260913
0.000362859
-0.0030005
0.00071766
-0.003615
0.00115861
-0.00452947
0.00166302
-0.00586977
0.00211769
-0.00747319
0.00224026
-0.00709624
0.00129236
-0.00196382
0.00330401
0.00238245
0.00353537
0.000948015
0.00440368
3.87611e-06
0.00447683
0.000293541
0.00415383
0.000268821
0.00368555
8.71344e-05
0.00310557
-3.37682e-05
0.0024427
-6.82056e-05
0.00174044
-4.1828e-05
0.00103849
1.93871e-05
0.000376795
8.56759e-05
-0.000199703
0.000135678
-0.00064815
0.000154793
-0.000959329
0.000146387
-0.00116183
0.000123612
-0.00129914
8.47865e-05
-0.00140376
4.28392e-05
-0.00149598
5.42341e-06
-0.00158633
-2.97872e-05
-0.00167786
-6.31785e-05
-0.00177348
-9.30396e-05
-0.00187645
-0.000118373
-0.00198822
-0.000141034
-0.00211071
-0.000158117
-0.00224488
-0.000165462
-0.00238999
-0.000157177
-0.00254253
-0.000125505
-0.00269509
-6.04191e-05
-0.00283785
5.06541e-05
-0.00295917
0.000217022
-0.00305948
0.000463185
-0.00314946
0.000807648
-0.00323145
0.00124061
-0.00327975
0.00171133
-0.00326141
0.00209936
-0.0030141
0.00199296
-0.00171219
-9.54199e-06
-0.00360431
-0.000537665
0.00298641
-0.00017401
0.000584496
-0.000455334
0.000285284
-0.000453637
0.000291889
-0.000464105
0.000279311
-0.000596308
0.000219347
-0.000799085
0.000169013
-0.00102791
0.000160622
-0.00124875
0.000179016
-0.0014308
0.00020145
-0.00156396
0.000218838
-0.00165168
0.000223398
-0.00170518
0.0002083
-0.00173771
0.000178918
-0.00175943
0.000145336
-0.00178503
0.000110393
-0.00182048
7.82944e-05
-0.00186587
5.08217e-05
-0.00192537
2.97199e-05
-0.00200012
1.15796e-05
-0.00208836
-4.79723e-06
-0.0021877
-1.90284e-05
-0.00229704
-3.16809e-05
-0.0024129
-4.22533e-05
-0.00252946
-4.88961e-05
-0.00263813
-4.84944e-05
-0.00272697
-3.66596e-05
-0.00277905
-8.33117e-06
-0.00277907
5.06852e-05
-0.00271502
0.000152979
-0.00255825
0.000306428
-0.00227888
0.000528286
-0.00185678
0.000818515
-0.00126614
0.00112069
-0.000325611
0.00115885
0.00106305
0.000604307
0.0016363
-0.00058278
-0.00188958
-0.00571137
-0.00857886
-0.00555346
-0.00495209
-0.00465624
-0.00435693
-0.00407269
-0.00385054
-0.00368049
-0.0035203
-0.00334297
-0.00314438
-0.00292954
-0.00271127
-0.00250919
-0.00233746
-0.0022001
-0.00209825
-0.00202891
-0.00198736
-0.00196715
-0.00196527
-0.00197991
-0.00200888
-0.00205055
-0.00210278
-0.0021616
-0.00221989
-0.00226618
-0.0022839
-0.00224231
-0.00209811
-0.00180013
-0.00127997
-0.000469275
0.000643862
0.00179518
0.00239174
0.00180078
)
;

boundaryField
{
    floor
    {
        type            calculated;
        value           nonuniform List<scalar> 
36
(
0
0
0
0
0
0
0
0
0
0
0
0
0
0
0
0
0
0
0
-3.59979e-06
-9.12142e-06
-1.38061e-05
-1.78541e-05
-1.61919e-05
-1.46439e-05
-1.36936e-05
-1.277e-06
-2.46965e-06
-2.98118e-06
-3.40872e-06
-2.64752e-06
-5.18956e-06
-7.12479e-06
-6.7022e-06
-7.46556e-06
-7.03195e-06
)
;
    }
    ceiling
    {
        type            calculated;
        value           nonuniform List<scalar> 
43
(
-4.21504e-05
-4.05751e-05
-3.89759e-05
-1.68769e-05
-1.05818e-05
-7.43127e-06
-4.94162e-06
-2.80207e-06
-1.02981e-06
4.32551e-07
1.69836e-06
2.86435e-06
3.99719e-06
5.13076e-06
6.22847e-06
7.19599e-06
7.96992e-06
8.54692e-06
8.96502e-06
9.27443e-06
9.51376e-06
9.70667e-06
9.85183e-06
9.94378e-06
9.9916e-06
9.98812e-06
9.928e-06
9.80923e-06
9.63248e-06
9.39885e-06
9.10544e-06
8.78408e-06
8.45603e-06
8.13313e-06
7.83392e-06
7.56759e-06
7.54012e-06
7.75742e-06
8.18752e-06
9.44889e-06
1.17904e-05
8.75311e-06
-6.61973e-05
)
;
    }
    sWall
    {
        type            calculated;
        value           uniform -0.000271832;
    }
    nWall
    {
        type            calculated;
        value           nonuniform List<scalar> 6(-4.79759e-05 -5.79835e-05 -6.15728e-05 -7.16898e-05 -7.84215e-05 -9.82401e-05);
    }
    sideWalls
    {
        type            empty;
        value           nonuniform 0();
    }
    glass1
    {
        type            calculated;
        value           nonuniform List<scalar> 9(-5.59598e-05 -0.000149947 -0.000228469 -0.000294873 -0.000351045 -0.000398476 -0.000441903 -0.000495035 -0.000554689);
    }
    glass2
    {
        type            calculated;
        value           nonuniform List<scalar> 2(-0.000247457 -0.000273202);
    }
    sun
    {
        type            calculated;
        value           uniform 0;
    }
    Table_master
    {
        type            calculated;
        value           nonuniform List<scalar> 9(-1.52888e-07 -1.52979e-07 -1.53012e-07 -1.53033e-07 -1.53048e-07 -1.53055e-07 -1.53058e-07 -1.53054e-07 -1.53026e-07);
    }
    Table_slave
    {
        type            calculated;
        value           nonuniform List<scalar> 9(1.5282e-07 1.52822e-07 1.52787e-07 1.52754e-07 1.52731e-07 1.52727e-07 1.52734e-07 1.52763e-07 1.52836e-07);
    }
    inlet
    {
        type            calculated;
        value           uniform -0.00464221;
    }
    outlet
    {
        type            calculated;
        value           nonuniform List<scalar> 2(0.00602535 0.00290807);
    }
}


// ************************************************************************* //
