/*--------------------------------*- C++ -*----------------------------------*\
  =========                 |
  \\      /  F ield         | OpenFOAM: The Open Source CFD Toolbox
   \\    /   O peration     | Website:  https://openfoam.org
    \\  /    A nd           | Version:  6
     \\/     M anipulation  |
\*---------------------------------------------------------------------------*/
FoamFile
{
    version     2.0;
    format      ascii;
    class       volScalarField;
    location    "1900";
    object      alphat;
}
// * * * * * * * * * * * * * * * * * * * * * * * * * * * * * * * * * * * * * //

dimensions      [1 -1 -1 0 0 0 0];

internalField   nonuniform List<scalar> 
458
(
0.000768959
0.00078432
0.000708719
0.000731558
0.000757342
0.000782176
0.000806092
0.000829662
0.000853806
0.000878179
0.000898912
0.000914813
0.000925395
0.00093133
0.000930804
0.000509478
0.000605474
0.000600724
0.000528368
0.000463122
0.000415068
0.000378749
0.000347881
0.000319469
0.000291326
0.000267153
0.000254296
0.00027846
0.000378966
0.000543403
0.000672472
0.000622481
0.00049074
0.00136017
0.00227412
0.00161771
0.00229129
0.00250738
0.00269836
0.00288617
0.00305692
0.00319109
0.00328442
0.00332122
0.00326551
0.00305795
0.0026005
0.00181089
0.000999861
0.000919831
0.000715368
0.000640315
0.00135427
0.00150215
0.00132791
0.0011211
0.000819293
0.000735253
0.000636413
0.000557945
0.000501545
0.00046334
0.000432801
0.000401322
0.000570896
0.00123951
0.0016431
0.00161405
0.00059958
0.00190421
0.00406646
0.00172187
0.00319889
0.0038134
0.00407154
0.00427951
0.00445571
0.00459457
0.00469014
0.00474522
0.00472381
0.00457631
0.00423172
0.00363499
0.00283353
0.00189547
0.000957248
0.000884555
0.00197525
0.00155738
0.00113503
0.000798696
0.000377688
0.00033383
0.000310121
0.000289256
0.000269985
0.000253305
0.000243958
0.00026442
0.000462598
0.00161929
0.00215376
0.00196119
0.000655918
0.00243184
0.00647351
0.00227545
0.00321711
0.00446936
0.00485374
0.0050901
0.00528444
0.00544537
0.00556922
0.00567364
0.00574693
0.00574659
0.00559447
0.00518077
0.00440104
0.00321867
0.00185594
0.000987445
0.00159529
0.00158359
0.0013345
0.00116207
0.000992858
0.000851663
0.000883738
0.000926066
0.000977462
0.00103683
0.00110188
0.00117333
0.00123955
0.00126512
0.00188835
0.00219698
0.00250044
0.00110185
0.00293212
0.00921555
0.00389147
0.00304551
0.00439604
0.00505741
0.00540859
0.00566113
0.00585899
0.00601683
0.00617626
0.00638368
0.00661976
0.00683014
0.00693066
0.0068371
0.00649548
0.00588971
0.00506441
0.00427851
0.00381173
0.00357133
0.00338697
0.0032556
0.00318005
0.00319931
0.00330529
0.00348516
0.00371187
0.00394265
0.00413599
0.0042514
0.00423212
0.00413809
0.00399622
0.00351461
0.00240929
0.0012386
0.00116038
0.00105201
0.00340774
0.011842
0.00715277
0.00431892
0.00399222
0.00449429
0.00507209
0.005515
0.00581554
0.00598044
0.00613196
0.00638883
0.00674795
0.00717641
0.00760299
0.00793171
0.00806066
0.00789101
0.00740494
0.00674593
0.00611112
0.0055906
0.00517464
0.00481465
0.00449435
0.00425302
0.00413929
0.00416798
0.00430483
0.00447539
0.00459792
0.00463496
0.0045923
0.00452569
0.00460312
0.00459198
0.00418492
0.0038145
0.00333769
0.00124397
0.00381662
0.0136258
0.0111975
0.00788207
0.00579591
0.00474326
0.00469198
0.00507325
0.0054865
0.00569251
0.00580986
0.00600281
0.0063027
0.00672775
0.007254
0.00779952
0.00823598
0.00842475
0.00830292
0.00794088
0.0074832
0.00703539
0.00661725
0.0061975
0.00575099
0.00529976
0.00492445
0.00473012
0.0047352
0.00483327
0.00486836
0.0047783
0.00462173
0.00451861
0.00459369
0.00484898
0.00495792
0.00447891
0.00406823
0.00139899
0.00385172
0.0122513
0.0111884
0.0106247
0.00886543
0.00722686
0.00622729
0.00575499
0.00562829
0.00564636
0.00564909
0.00568016
0.00577873
0.00598313
0.00632647
0.00680644
0.00734276
0.00778244
0.00799822
0.00797887
0.00780961
0.00758229
0.00733558
0.0070651
0.00675464
0.00639001
0.0059667
0.00558366
0.00540086
0.00540664
0.00534003
0.00507363
0.00466416
0.00423217
0.00386459
0.00356884
0.0032686
0.00290915
0.00260486
0.00141749
0.00369929
0.00428077
0.00838894
0.00923897
0.00885531
0.00803448
0.00719464
0.0065134
0.0060373
0.00572744
0.00551871
0.00539686
0.00534181
0.00535314
0.00545024
0.00566174
0.00599314
0.00638636
0.00673536
0.00696436
0.00707109
0.00709494
0.00707052
0.00701368
0.00693342
0.00684615
0.00675752
0.00659799
0.00622642
0.00619968
0.00620864
0.00596752
0.00545364
0.00477393
0.00404187
0.0033436
0.00276556
0.00242393
0.00226548
0.00157475
0.0178349
0.0178563
0.0114828
0.0091826
0.00790237
0.007046
0.00643189
0.00597582
0.00562393
0.00534467
0.00512132
0.00495175
0.00484107
0.0048029
0.00485441
0.0050009
0.00521866
0.00545987
0.00567931
0.00585498
0.00598472
0.00607595
0.00614171
0.00620321
0.00628437
0.00640621
0.00654785
0.00675598
0.00705401
0.00735232
0.00755576
0.00769465
0.00767548
0.00738989
0.00668413
0.00522414
0.0039932
0.00165228
0.00692008
0.0138566
0.0104637
0.00873314
0.00765047
0.00684313
0.00619991
0.00568257
0.00526546
0.00493031
0.00464141
0.00439961
0.00421267
0.00408639
0.00402595
0.00403451
0.00410915
0.00423482
0.00437666
0.00451809
0.0046473
0.0047577
0.00484763
0.0049222
0.00499781
0.0050981
0.00525884
0.00549892
0.00579471
0.00609665
0.00636933
0.00659581
0.00662848
0.00616672
0.00514696
0.00375005
0.00275593
0.00144689
0.00340306
0.00410796
0.00500067
0.0037994
0.00346386
0.003234
0.0028367
0.00252838
0.00227381
0.00206051
0.00187893
0.00172276
0.00159329
0.00148451
0.00139192
0.00131313
0.00124692
0.00119256
0.00114946
0.00111699
0.00109538
0.00108141
0.00107252
0.00106698
0.00106389
0.00106319
0.00106592
0.00107393
0.0010902
0.00111895
0.00116392
0.00122438
0.0012914
0.00134775
0.00137588
0.0013842
0.00134878
0.00126234
0.00118148
0.00135587
)
;

boundaryField
{
    floor
    {
        type            compressible::alphatWallFunction;
        Prt             0.85;
        value           nonuniform List<scalar> 
36
(
0.000132515
7.07114e-05
8.52277e-05
8.45099e-05
7.35927e-05
6.35928e-05
5.61137e-05
5.03869e-05
4.54619e-05
4.08772e-05
3.62826e-05
3.2285e-05
3.01296e-05
3.41135e-05
5.03363e-05
7.57997e-05
9.51103e-05
8.76843e-05
6.77853e-05
6.77845e-05
8.42662e-05
9.26526e-05
0.000156565
0.000175419
0.000164634
0.000149559
0.000132513
0.000142274
0.000130946
0.00010146
7.07105e-05
0.000101458
9.03933e-05
0.000136244
0.000125929
0.000140505
)
;
    }
    ceiling
    {
        type            compressible::alphatWallFunction;
        Prt             0.85;
        value           nonuniform List<scalar> 
43
(
0.000454503
0.000540466
0.000647238
0.000503113
0.000462089
0.000433719
0.000384194
0.000345261
0.000312735
0.000285182
0.000261483
0.0002409
0.000223681
0.000209092
0.000196579
0.000185858
0.000176791
0.000169305
0.00016334
0.000158829
0.000155816
0.000153863
0.000152618
0.000151841
0.000151405
0.000151304
0.000151682
0.000152798
0.000155064
0.000159061
0.000165294
0.000173634
0.000182827
0.000190519
0.000194347
0.000195473
0.000190648
0.000178826
0.00016769
0.000191602
0.000490997
0.000561467
0.000870853
)
;
    }
    sWall
    {
        type            compressible::alphatWallFunction;
        Prt             0.85;
        value           uniform 0.000453334;
    }
    nWall
    {
        type            compressible::alphatWallFunction;
        Prt             0.85;
        value           nonuniform List<scalar> 6(0.000149341 0.000175912 0.000197094 0.000231051 0.000203577 0.000191264);
    }
    sideWalls
    {
        type            empty;
    }
    glass1
    {
        type            compressible::alphatWallFunction;
        Prt             0.85;
        value           nonuniform List<scalar> 9(0.000106232 0.000187722 0.000259379 0.000326917 0.000389633 0.000448298 0.000498116 0.000502512 0.00048426);
    }
    glass2
    {
        type            compressible::alphatWallFunction;
        Prt             0.85;
        value           nonuniform List<scalar> 2(0.000198341 0.000219408);
    }
    sun
    {
        type            compressible::alphatWallFunction;
        Prt             0.85;
        value           nonuniform List<scalar> 
14
(
0.000109303
0.000111513
0.000100493
0.000103837
0.000107597
0.000111204
0.000114664
0.000118063
0.000121532
0.000125022
0.000127982
0.000130246
0.000131749
0.000132591
)
;
    }
    Table_master
    {
        type            compressible::alphatWallFunction;
        Prt             0.85;
        value           nonuniform List<scalar> 9(5.0306e-05 4.32931e-05 3.9448e-05 3.60305e-05 3.28441e-05 3.00611e-05 2.84899e-05 3.19106e-05 6.3555e-05);
    }
    Table_slave
    {
        type            compressible::alphatWallFunction;
        Prt             0.85;
        value           nonuniform List<scalar> 9(0.000121296 0.000125885 0.000131912 0.00013919 0.000147543 0.000156638 0.000166563 0.000175705 0.000179219);
    }
    inlet
    {
        type            fixedValue;
        value           uniform 1.94e-05;
    }
    outlet
    {
        type            zeroGradient;
    }
}


// ************************************************************************* //
