/*--------------------------------*- C++ -*----------------------------------*\
  =========                 |
  \\      /  F ield         | OpenFOAM: The Open Source CFD Toolbox
   \\    /   O peration     | Website:  https://openfoam.org
    \\  /    A nd           | Version:  6
     \\/     M anipulation  |
\*---------------------------------------------------------------------------*/
FoamFile
{
    version     2.0;
    format      ascii;
    class       volScalarField;
    location    "1900";
    object      k;
}
// * * * * * * * * * * * * * * * * * * * * * * * * * * * * * * * * * * * * * //

dimensions      [0 2 -2 0 0 0 0];

internalField   nonuniform List<scalar> 
458
(
0.000871745
0.000904985
0.000738897
0.00078729
0.000843761
0.000899996
0.000955864
0.00101257
0.00107234
0.00113441
0.00118857
0.00123094
0.00125951
0.00127562
0.00127407
0.000381392
0.000538697
0.000530184
0.000410159
0.00031517
0.000253191
0.000210836
0.00017787
0.000149998
0.000124728
0.000104865
9.49553e-05
0.000113685
0.00021038
0.000432815
0.000663116
0.000567972
0.000353074
0.00273177
0.00550026
0.00134144
0.00121727
0.0012893
0.00138319
0.00148437
0.00159189
0.00170497
0.00182359
0.00193295
0.00201565
0.00204055
0.00195332
0.00171051
0.00146982
0.00124364
0.00075231
0.000602207
0.00105056
0.000933125
0.000695203
0.000502819
0.000320953
0.000273859
0.00022028
0.000180423
0.000150537
0.000128903
0.000116152
0.000128318
0.000300416
0.000971049
0.00128489
0.00130279
0.000527014
0.00536197
0.013908
0.00237319
0.00162171
0.00166296
0.00177566
0.00190254
0.002037
0.00217674
0.00231927
0.0024539
0.00255706
0.00260243
0.00255557
0.00239459
0.00214786
0.00179243
0.00134658
0.00114916
0.00171308
0.00111768
0.000815631
0.000601532
0.000209463
0.000163669
0.000141242
0.000122866
0.000107028
9.41999e-05
8.7364e-05
0.000102606
0.000313644
0.00165295
0.00204767
0.00211495
0.000630797
0.00875679
0.0265094
0.00461963
0.00207393
0.00200027
0.00213097
0.00229706
0.00247583
0.00266019
0.00284403
0.00302161
0.00316504
0.0032521
0.00325265
0.00312614
0.00284275
0.00239593
0.00183732
0.00143234
0.00131766
0.00108085
0.000966516
0.000964956
0.000995089
0.00106538
0.0011471
0.00125959
0.00140326
0.00157893
0.00178338
0.00202243
0.00225744
0.00235157
0.00239049
0.00231872
0.00267247
0.00178306
0.0127457
0.0417021
0.00972249
0.00305523
0.00245842
0.00252084
0.00270635
0.00293399
0.00318078
0.00343635
0.00368526
0.00390167
0.00407976
0.00420784
0.00424926
0.00415728
0.00389709
0.00344225
0.00276993
0.00202385
0.0016878
0.00158725
0.0015777
0.00160896
0.00167161
0.00178932
0.00199064
0.0022836
0.00266296
0.00309662
0.00353632
0.00392791
0.004068
0.00391716
0.00363505
0.00313524
0.0025768
0.00225193
0.00197641
0.00162477
0.0172342
0.0555146
0.0201995
0.0069705
0.00406728
0.00342131
0.00340812
0.00358997
0.00383307
0.00411304
0.00437603
0.00458714
0.00477127
0.0049528
0.00511865
0.00521602
0.00515573
0.00482149
0.00419108
0.00345425
0.00286386
0.00250051
0.00229951
0.00217886
0.00211609
0.00214347
0.00230446
0.00262158
0.00308041
0.00360892
0.00409906
0.00447592
0.00470183
0.00480002
0.00503718
0.00498107
0.00447541
0.00422183
0.00395362
0.0022713
0.0216386
0.0628792
0.0364773
0.0190629
0.0113205
0.00726009
0.00574389
0.00532286
0.00522546
0.00528597
0.00535105
0.00534881
0.00533288
0.00536462
0.00546592
0.00560299
0.00567518
0.00553308
0.00510638
0.00450111
0.00391295
0.00346255
0.00314397
0.00290235
0.00271553
0.0026241
0.00270596
0.00302793
0.003578
0.00421689
0.00475154
0.0050848
0.00526771
0.00546249
0.00590616
0.00671571
0.00726158
0.00620526
0.00548992
0.0028744
0.0220707
0.0611426
0.046645
0.0396602
0.0283611
0.019354
0.0138832
0.0107141
0.0088941
0.00778065
0.00705965
0.00649249
0.00603344
0.0056977
0.00550732
0.00546098
0.00549778
0.0054812
0.00528456
0.00491034
0.00447585
0.0040896
0.00378266
0.00354
0.00334357
0.00322246
0.00326874
0.00361366
0.00429705
0.00509553
0.00568285
0.00590847
0.00583542
0.00563122
0.00545913
0.00538227
0.00529923
0.00509514
0.00499167
0.0029544
0.0203997
0.0272766
0.0560518
0.0524063
0.0413808
0.0310811
0.0231352
0.017483
0.0136461
0.0110462
0.00915434
0.00778332
0.0067698
0.00601965
0.00548464
0.00514068
0.00495716
0.0048645
0.00476671
0.00460555
0.00439185
0.00416892
0.0039695
0.00380627
0.0036861
0.00363445
0.00371629
0.0040725
0.00498813
0.00615872
0.00710623
0.00754646
0.00745242
0.00694219
0.0061911
0.00538335
0.00473164
0.004531
0.00467052
0.00364886
0.136342
0.144226
0.0657226
0.0403565
0.0277005
0.0202361
0.0154629
0.0122415
0.0099638
0.00827962
0.0070089
0.00604552
0.00531934
0.00478615
0.00441704
0.00418401
0.0040481
0.00396419
0.00389659
0.00383042
0.00376531
0.00370626
0.0036611
0.00364628
0.00369803
0.00388587
0.00436419
0.00525681
0.00661919
0.00840143
0.0104442
0.0123989
0.0137352
0.0142761
0.0133449
0.00977311
0.00700307
0.0040153
0.0699554
0.0853801
0.0464473
0.0316939
0.0232811
0.0177449
0.0139007
0.0111704
0.00919439
0.00774311
0.00664561
0.00580769
0.00517119
0.00469587
0.00435407
0.00412532
0.00399096
0.00392889
0.00390552
0.00390249
0.00390781
0.00391443
0.00391926
0.00392466
0.00393967
0.00398748
0.00413132
0.00446091
0.005054
0.00592697
0.00699152
0.00801511
0.00870398
0.00850895
0.00716054
0.0051087
0.00394787
0.00308067
0.0169729
0.0247239
0.0366349
0.0212945
0.0177334
0.0154675
0.0119032
0.00945679
0.00764837
0.00628063
0.00522231
0.00439009
0.00375491
0.00325952
0.00286541
0.00255005
0.00229917
0.00210289
0.00195342
0.0018444
0.00177347
0.00172828
0.00169976
0.00168202
0.00167205
0.0016696
0.00167793
0.00170297
0.00175465
0.00184804
0.00199917
0.0022118
0.0024601
0.00267907
0.00279162
0.00282477
0.00268107
0.00234738
0.00205488
0.00270544
)
;

boundaryField
{
    floor
    {
        type            kqRWallFunction;
        value           nonuniform List<scalar> 
36
(
0.00127407
0.000381392
0.000538697
0.000530184
0.000410159
0.00031517
0.000253191
0.000210836
0.00017787
0.000149998
0.000124728
0.000104865
9.49553e-05
0.000113685
0.00021038
0.000432815
0.000663116
0.000567972
0.000353074
0.000353074
0.000527014
0.000630797
0.00178306
0.00225193
0.00197641
0.00162477
0.00127407
0.00146982
0.00124364
0.00075231
0.000381392
0.00075231
0.000602207
0.00134658
0.00114916
0.00143234
)
;
    }
    ceiling
    {
        type            kqRWallFunction;
        value           nonuniform List<scalar> 
43
(
0.0169729
0.0247239
0.0366349
0.0212945
0.0177334
0.0154675
0.0119032
0.00945679
0.00764837
0.00628063
0.00522231
0.00439009
0.00375491
0.00325952
0.00286541
0.00255005
0.00229917
0.00210289
0.00195342
0.0018444
0.00177347
0.00172828
0.00169976
0.00168202
0.00167205
0.0016696
0.00167793
0.00170297
0.00175465
0.00184804
0.00199917
0.0022118
0.0024601
0.00267907
0.00279162
0.00282477
0.00268107
0.00234738
0.00205488
0.00270544
0.0203997
0.0272766
0.0699554
)
;
    }
    sWall
    {
        type            kqRWallFunction;
        value           uniform 0.0169729;
    }
    nWall
    {
        type            kqRWallFunction;
        value           nonuniform List<scalar> 6(0.00162477 0.0022713 0.0028744 0.0040153 0.00308067 0.00270544);
    }
    sideWalls
    {
        type            empty;
    }
    glass1
    {
        type            kqRWallFunction;
        value           nonuniform List<scalar> 9(0.000871745 0.00273177 0.00536197 0.00875679 0.0127457 0.0172342 0.0216386 0.0220707 0.0203997);
    }
    glass2
    {
        type            kqRWallFunction;
        value           nonuniform List<scalar> 2(0.0029544 0.00364886);
    }
    sun
    {
        type            kqRWallFunction;
        value           nonuniform List<scalar> 
14
(
0.000871745
0.000904985
0.000738897
0.00078729
0.000843761
0.000899996
0.000955864
0.00101257
0.00107234
0.00113441
0.00118857
0.00123094
0.00125951
0.00127562
)
;
    }
    Table_master
    {
        type            kqRWallFunction;
        value           nonuniform List<scalar> 9(0.000209463 0.000163669 0.000141242 0.000122866 0.000107028 9.41999e-05 8.7364e-05 0.000102606 0.000313644);
    }
    Table_slave
    {
        type            kqRWallFunction;
        value           nonuniform List<scalar> 9(0.00106538 0.0011471 0.00125959 0.00140326 0.00157893 0.00178338 0.00202243 0.00225744 0.00235157);
    }
    inlet
    {
        type            turbulentIntensityKineticEnergyInlet;
        intensity       0.05;
        value           uniform 0.0003375;
    }
    outlet
    {
        type            zeroGradient;
    }
}


// ************************************************************************* //
