/*--------------------------------*- C++ -*----------------------------------*\
  =========                 |
  \\      /  F ield         | OpenFOAM: The Open Source CFD Toolbox
   \\    /   O peration     | Website:  https://openfoam.org
    \\  /    A nd           | Version:  6
     \\/     M anipulation  |
\*---------------------------------------------------------------------------*/
FoamFile
{
    version     2.0;
    format      ascii;
    class       volScalarField;
    location    "1900";
    object      nut;
}
// * * * * * * * * * * * * * * * * * * * * * * * * * * * * * * * * * * * * * //

dimensions      [0 2 -1 0 0 0 0];

internalField   nonuniform List<scalar> 
458
(
0.000663072
0.000675598
0.000610454
0.000630126
0.000652335
0.000673724
0.000694322
0.000714621
0.000735414
0.000756402
0.000774251
0.000787932
0.000797026
0.000802114
0.000801634
0.000438432
0.000521013
0.000516918
0.000454653
0.000398509
0.000357155
0.000325896
0.000299325
0.000274868
0.000250641
0.00022983
0.000218755
0.00023953
0.000325979
0.000467445
0.000578455
0.000535423
0.000422116
0.00117379
0.00195929
0.00139359
0.00197388
0.00216007
0.00232463
0.00248645
0.00263357
0.00274916
0.00282955
0.0028612
0.00281309
0.00263414
0.00223991
0.00155962
0.000861042
0.000792042
0.000615983
0.000551032
0.00116538
0.00129258
0.00114261
0.000964602
0.000704878
0.000632542
0.00054749
0.000479968
0.000431431
0.000398548
0.000372262
0.000345177
0.000491048
0.00106645
0.00141358
0.0013884
0.000515745
0.00164447
0.00350447
0.00148358
0.00275626
0.00328587
0.00350844
0.00368777
0.00383971
0.00395943
0.0040418
0.00408919
0.00407055
0.00394312
0.00364576
0.00313115
0.00244036
0.0016322
0.00082421
0.000761225
0.00169979
0.00134018
0.000976717
0.000687241
0.000324906
0.000287159
0.000266755
0.0002488
0.000232216
0.000217861
0.000209816
0.000227411
0.00039789
0.00139356
0.00185326
0.00168716
0.000564239
0.00210151
0.00558072
0.00196094
0.00277247
0.0038519
0.00418348
0.00438751
0.0045553
0.00469424
0.00480113
0.00489114
0.00495412
0.00495337
0.00482154
0.00446411
0.00379135
0.00277206
0.00159801
0.00085007
0.00137322
0.00136322
0.00114885
0.00100043
0.000854767
0.000733219
0.00076084
0.00079729
0.000841545
0.000892659
0.000948655
0.00101015
0.00106713
0.00108911
0.00162556
0.00189109
0.00215196
0.000948196
0.00253535
0.0079477
0.00335448
0.00262509
0.00378946
0.00436001
0.00466324
0.00488148
0.00505253
0.00518899
0.00532666
0.00550548
0.00570869
0.00588936
0.00597494
0.00589297
0.00559717
0.00507399
0.00436218
0.00368483
0.00328271
0.00307567
0.00291688
0.00280371
0.00273862
0.00275517
0.0028464
0.00300124
0.00319636
0.00339493
0.00356124
0.00366043
0.00364368
0.00356255
0.00344017
0.00302524
0.00207359
0.00106601
0.00099867
0.000905446
0.00294815
0.0102177
0.00616859
0.00372391
0.00344217
0.00387536
0.00437408
0.00475663
0.00501647
0.00515928
0.00529041
0.00551219
0.00582186
0.00619096
0.00655798
0.00684017
0.00694982
0.00680203
0.00638179
0.00581301
0.00526551
0.00481673
0.00445814
0.00414784
0.00387176
0.00366372
0.00356558
0.00359006
0.00370762
0.00385416
0.00395935
0.003991
0.00395406
0.00389651
0.00396289
0.00395292
0.0036022
0.0032832
0.00287269
0.0010707
0.00330343
0.0117652
0.00966503
0.00680136
0.00500014
0.0040916
0.00404745
0.00437673
0.00473378
0.00491217
0.00501397
0.00518084
0.00543973
0.00580632
0.00625987
0.00672962
0.00710487
0.00726624
0.00715977
0.00684646
0.00645104
0.00606441
0.00570354
0.00534139
0.00495625
0.00456706
0.00424326
0.00407532
0.00407907
0.00416292
0.00419266
0.00411478
0.00397974
0.00389075
0.00395517
0.00417469
0.00426816
0.00385555
0.00350173
0.00120419
0.00333624
0.0105933
0.00967136
0.0091804
0.00765682
0.00623961
0.00537563
0.00496753
0.00485814
0.00487392
0.00487658
0.00490364
0.00498884
0.00516524
0.00546137
0.00587517
0.00633728
0.00671568
0.0069007
0.00688287
0.00673591
0.00653907
0.00632567
0.00609189
0.00582371
0.00550883
0.00514329
0.00481228
0.00465366
0.00465761
0.0045995
0.00436964
0.00401681
0.00364468
0.00332804
0.00307325
0.0028146
0.00250503
0.00224302
0.00122076
0.00320744
0.00370884
0.00725931
0.00799101
0.00765567
0.00694347
0.00621594
0.00562627
0.00521438
0.00494639
0.00476586
0.00466046
0.00461279
0.00462242
0.00470608
0.00488842
0.00517414
0.00551304
0.0058136
0.00601047
0.0061018
0.00612165
0.00609991
0.00605026
0.00598046
0.00590461
0.0058275
0.00568899
0.00536704
0.00534241
0.00534897
0.00514059
0.00469769
0.00411223
0.00348179
0.00288046
0.00238266
0.00208849
0.00195212
0.00135714
0.0152735
0.0154081
0.00991797
0.00793277
0.00682682
0.00608669
0.00555587
0.00516166
0.00485752
0.00461614
0.00442307
0.00427646
0.00418071
0.00414755
0.00419182
0.00431803
0.0045057
0.00471354
0.00490253
0.00505367
0.00516515
0.00524338
0.00529963
0.00535219
0.00542167
0.00552612
0.0056474
0.0058257
0.00608124
0.00633682
0.00651069
0.00662941
0.00661248
0.00636632
0.00575841
0.00450093
0.0034405
0.00142361
0.00593973
0.0119457
0.00903265
0.00754212
0.00660803
0.00591088
0.00535526
0.0049083
0.00454793
0.00425835
0.00400872
0.00379977
0.0036382
0.00352903
0.0034767
0.00348395
0.00354822
0.00365654
0.00377878
0.00390062
0.00401188
0.00410687
0.00418418
0.0042482
0.00431309
0.00439922
0.00453742
0.00474391
0.00499827
0.0052577
0.00549177
0.00568603
0.0057133
0.00531473
0.00443567
0.00323185
0.00237495
0.00124678
0.00292561
0.00353105
0.00429832
0.00327693
0.00299028
0.0027928
0.00244999
0.00218376
0.00196389
0.00177964
0.00162279
0.00148788
0.00137604
0.00128206
0.00120206
0.00113399
0.00107678
0.0010298
0.000992546
0.000964474
0.000945769
0.000933664
0.000925947
0.00092112
0.000918402
0.000917742
0.000920044
0.000926901
0.000940879
0.000965614
0.00100433
0.00105639
0.00111409
0.00116256
0.00118669
0.00119372
0.00116302
0.00108833
0.0010183
0.00116828
)
;

boundaryField
{
    floor
    {
        type            nutkWallFunction;
        Cmu             0.09;
        kappa           0.41;
        E               9.8;
        value           nonuniform List<scalar> 
36
(
9.70849e-05
5.17949e-05
6.24156e-05
6.18896e-05
5.39002e-05
4.65818e-05
4.11073e-05
3.69147e-05
3.33087e-05
2.99515e-05
2.65866e-05
2.36586e-05
2.20794e-05
2.49954e-05
3.68689e-05
5.55014e-05
6.9626e-05
6.4191e-05
4.96354e-05
4.96353e-05
6.16937e-05
6.78319e-05
0.000114617
0.000128423
0.00012053
0.000109505
9.70849e-05
0.000104224
9.59214e-05
7.43342e-05
5.17948e-05
7.43342e-05
6.62003e-05
9.97964e-05
9.22036e-05
0.0001029
)
;
    }
    ceiling
    {
        type            nutkWallFunction;
        Cmu             0.09;
        kappa           0.41;
        E               9.8;
        value           nonuniform List<scalar> 
43
(
0.000332155
0.000394912
0.000472918
0.000368818
0.00033904
0.000318326
0.000282003
0.000253428
0.00022955
0.000209321
0.00019192
0.000176807
0.000164163
0.000153451
0.000144262
0.000136389
0.00012973
0.000124232
0.000119851
0.000116536
0.00011432
0.000112882
0.000111964
0.000111389
0.000111064
0.000110983
0.000111255
0.000112067
0.000113723
0.000116647
0.000121209
0.000127314
0.000134042
0.000139667
0.000142459
0.000143269
0.000139716
0.000131034
0.000122839
0.000140322
0.000361751
0.00041339
0.000635412
)
;
    }
    sWall
    {
        type            nutkWallFunction;
        Cmu             0.09;
        kappa           0.41;
        E               9.8;
        value           uniform 0.000332227;
    }
    nWall
    {
        type            nutkWallFunction;
        Cmu             0.09;
        kappa           0.41;
        E               9.8;
        value           nonuniform List<scalar> 6(0.000109508 0.000128962 0.000144473 0.000169475 0.000149361 0.000140332);
    }
    sideWalls
    {
        type            empty;
    }
    glass1
    {
        type            nutkWallFunction;
        Cmu             0.09;
        kappa           0.41;
        E               9.8;
        value           nonuniform List<scalar> 9(8.0121e-05 0.000141114 0.000194565 0.000244847 0.000291489 0.000335089 0.000372109 0.00037552 0.000362182);
    }
    glass2
    {
        type            nutkWallFunction;
        Cmu             0.09;
        kappa           0.41;
        E               9.8;
        value           nonuniform List<scalar> 2(0.000146431 0.000161985);
    }
    sun
    {
        type            nutkWallFunction;
        Cmu             0.09;
        kappa           0.41;
        E               9.8;
        value           nonuniform List<scalar> 
14
(
8.01734e-05
8.17197e-05
7.3646e-05
7.60951e-05
7.88487e-05
8.149e-05
8.4024e-05
8.65124e-05
8.90525e-05
9.16079e-05
9.37744e-05
9.54309e-05
9.65299e-05
9.71436e-05
)
;
    }
    Table_master
    {
        type            nutkWallFunction;
        Cmu             0.09;
        kappa           0.41;
        E               9.8;
        value           nonuniform List<scalar> 9(3.67848e-05 3.16548e-05 2.88424e-05 2.63428e-05 2.40123e-05 2.19769e-05 2.08275e-05 2.33279e-05 4.64658e-05);
    }
    Table_slave
    {
        type            nutkWallFunction;
        Cmu             0.09;
        kappa           0.41;
        E               9.8;
        value           nonuniform List<scalar> 9(8.87619e-05 9.21209e-05 9.65326e-05 0.000101859 0.000107972 0.000114626 0.000121888 0.000128573 0.000131141);
    }
    inlet
    {
        type            calculated;
        value           uniform 0.000100623;
    }
    outlet
    {
        type            calculated;
        value           nonuniform List<scalar> 2(0.00292561 0.00353105);
    }
}


// ************************************************************************* //
