/*--------------------------------*- C++ -*----------------------------------*=========                 |
  \      /  F ield         | OpenFOAM: The Open Source CFD Toolbox
   \    /   O peration     | Website:  https://openfoam.org
    \  /    A nd           | Version:  6
     \/     M anipulation  |
\*---------------------------------------------------------------------------*/
FoamFile
{
    version     2.0;
    format      ascii;
    class       volScalarField;
    location    "1900";
    object      PMV;
}
// * * * * * * * * * * * * * * * * * * * * * * * * * * * * * * * * * * * * * //

dimensions      [0 0 0 0 0 0 0];

internalField   nonuniform List<scalar> 
458
(
1.925504922003256
1.7539873531657488
1.7689223649639756
1.7601349370821084
1.7515815291418484
1.7448523398435853
1.7393862582976383
1.735938496570009
1.7342926588297185
1.7354336091084828
1.7399452897760792
1.7489547597040564
1.7648982118643215
1.7799470963761268
1.762938466341657
1.7051751067590437
1.6965511378418476
1.6946346050186893
1.6936763257158896
1.6931971828491155
1.6912805899956127
1.6879264704898431
1.6831346913826482
1.6773842798856737
1.6697166011216924
1.6606105553927697
1.6519831089796684
1.644793083742569
1.6423963116297768
1.6486278184485168
1.644313733180222
1.6356850945793777
1.6390407499105015
1.9452784767569278
1.7623236418711952
1.7927841467473746
1.7797341134721973
1.7730933653654934
1.767836547666849
1.7639117149399082
1.7613221208001382
1.7596992767989814
1.7593006097163215
1.7594314290530695
1.7602651093512165
1.7604918086284507
1.7564368788354217
1.7473623799072355
1.7675363394634933
1.7894588979473074
1.7889802279045661
1.6470811069655467
1.6965511378418476
1.6908014364462451
1.68553060727437
1.676905065412488
1.6673203440810855
1.6601312697060806
1.6548589957269864
1.649107151532922
1.6428756699086204
1.6356850945793777
1.6289735057624661
1.6251381472906685
1.6313705441096213
1.6711543308981045
1.6610898390794586
1.6409582252559143
1.614391426428311
2.0227651095475223
1.771865467394684
1.829333160646435
1.811070713170957
1.8082487109232217
1.8070097020894547
1.806911366828574
1.806283287239106
1.8060925436445199
1.8054717859902216
1.8032491604525078
1.7970614201627024
1.7858867593763608
1.7668190006006121
1.7434968163941698
1.724097399716099
1.7032107528378422
1.6721514837370124
1.7018214248558723
1.6975093913281745
1.6951137414504454
1.6922388906954224
1.6816971166717831
1.6471898075036355
1.6380820007673165
1.6332881409727291
1.6284940924766387
1.6232204234941172
1.6179465310905545
1.6131518917140435
1.6112339852769229
1.6256175736092895
1.7061332818731578
1.68553060727437
1.6519831089796684
1.5444672246919988
2.1132388854696402
1.7972104169142902
1.8700313718341584
1.8468120369996905
1.8488144320089626
1.8538252090012215
1.8595437889037951
1.8647880364054645
1.8689031639608922
1.8708385989446408
1.8689324006213048
1.8612381493725592
1.8443785102707548
1.8174075436103938
1.7830997828938242
1.7428213154251133
1.69676874017144
1.6488991245526639
1.6259901236021335
1.6431195317201785
1.652493110479953
1.6636510416708445
1.6657312197075183
1.6654552479623421
1.6702352674188075
1.680660571546787
1.694328418138402
1.7131589989404188
1.739933764756787
1.7607341830339653
1.757861217033002
1.7535516034305558
1.7106938391719229
1.6877048277487283
1.679001418824247
1.6698252428092202
1.6951137414504454
2.2041471702148687
1.8403871865079413
1.9127429559255649
1.8864659405736681
1.8913918248718011
1.9030010400787638
1.9159322645252563
1.9294203144273263
1.9411959343107785
1.9495054286324198
1.9526569505443612
1.9476041471637697
1.932517495986732
1.907094181295347
1.8731680780435198
1.8324581089156602
1.7888176797059046
1.7494052112795992
1.724949280834936
1.7158217216529863
1.7202482614204024
1.7272908614551419
1.7285883486163585
1.7279842239950831
1.728966866755539
1.7332685510817574
1.74011265001834
1.7481653706201075
1.757813958235166
1.7657548501537343
1.768187808103171
1.7634355676604305
1.7526086094507127
1.7389929320469601
1.7200638178730105
1.6649850280403373
1.6308164150417617
1.593397033676648
1.58238645773247
1.595448547607291
2.2884183986787425
1.9056121419568957
1.9837099253180384
1.9517314194918833
1.9465282199075724
1.9595079066115457
1.9783815941836618
1.9992595907699213
2.01956914682783
2.0365947486119995
2.0459033168640883
2.0447199319432467
2.033078746398476
2.01175300673376
1.9824941370717661
1.9464455995020735
1.907561769309725
1.872132198891179
1.845925085433778
1.830912306319334
1.8237163767094917
1.8190355951549537
1.8132259888410325
1.8069638167211315
1.8015351613806476
1.7967734732258502
1.7909279066811814
1.782120637166554
1.7695186437072867
1.7546344629693336
1.7410342727301606
1.7328307172301385
1.7328920890923647
1.7427891137242109
1.7492417938126446
1.7358322619747992
1.676510915620086
1.6522401479173228
1.6238654942950128
1.593529064292267
2.366700638736308
2.0181339730381573
2.120871864268159
2.0664105275889235
2.027188989732492
2.0322280925023573
2.0355668942400884
2.047966363502456
2.0646533994801426
2.0832411767773595
2.0989638983150525
2.108490344736064
2.110395405918574
2.104203678152835
2.0894355761183556
2.064321375655181
2.034378961369143
2.0058560008551596
1.9818058217651224
1.9592029857017788
1.9410524964820526
1.9267196056863958
1.915728988130797
1.9061705023416857
1.897088734152572
1.88428983281745
1.8617940888400129
1.831839898942901
1.795683784350344
1.7596047844282845
1.7302279750931016
1.7105812865171932
1.698983622242259
1.6941147442963163
1.6986577450104512
1.719868361543406
1.7401426706999936
1.7305637279212271
1.6572418413919714
1.5639997353806356
2.491183870810871
2.3095672370566955
2.2693762149382493
2.1902915176593973
2.1306032960665053
2.100747828199815
2.0878062570183835
2.0864719463871806
2.0933200588416705
2.103747069316684
2.113588835561101
2.1223708338689424
2.128141411387909
2.131365871080588
2.131807017359652
2.123728671466941
2.1051563039913863
2.081811590444265
2.057025697884676
2.033182056574772
2.0126682284039425
1.9954881846028416
1.9806902475047132
1.9682762917352223
1.9558598599207937
1.9429633138736073
1.925763970373625
1.9009127785081823
1.8538797040731967
1.7925109302409794
1.742757235020456
1.706410614555174
1.6803717546601522
1.6619099298389552
1.6487218295059918
1.6403231222425683
1.6381840099990068
1.6363105538421991
1.602145668892109
1.5189749627133873
2.6706261474583926
2.5611926830382767
2.361691430444434
2.2740541724529204
2.2138861445016595
2.1719562906038896
2.141963931478431
2.122422450916612
2.113289935813287
2.110204398561956
2.1098886694662338
2.111455264931342
2.1143097796790893
2.117382398287726
2.119048229934366
2.1195759132974628
2.1175848578974614
2.112213625157358
2.1033663330060937
2.091847425994006
2.0775225867810705
2.060362954701414
2.044151445604978
2.0298431100660337
2.0160081982411
2.002169915523977
1.985464174186148
1.9615908247423817
1.9190741460600733
1.8760528690781517
1.8094380516047348
1.7486443343430709
1.7065999564543703
1.6802119962334405
1.664884987272815
1.658165745314209
1.6595199390747224
1.6689133912084433
1.6716723004518483
1.629837572236255
0.3662183310263309
1.9110474422556807
2.0958975297401894
2.133708835603454
2.1362591063959018
2.1308475054028144
2.1247918730871054
2.12055208572191
2.1174510048524775
2.1152021274470956
2.113648881185377
2.113198278146361
2.112710653622457
2.1115497761093764
2.1095468837114795
2.105958485785663
2.0994606612603364
2.0907656895022186
2.0803993260547147
2.0691135774333107
2.0576630814788195
2.0467305664068527
2.036468645343099
2.026114248371776
2.0153869212554656
2.00314614466963
1.9872680756982675
1.9699521215253217
1.9357974622593643
1.8994787859698345
1.8664891303424003
1.8454446865923717
1.8363555650929506
1.8334851017615452
1.8363555650929506
1.845923032586435
1.7610194475552476
1.715683778081057
0.9258941082486122
1.8043684632119783
2.0918309276486644
2.1280321284583548
2.136234739455423
2.133571510979013
2.126861305006112
2.1202013352525224
2.11552538701665
2.111418482142471
2.108698440534977
2.1070079111894664
2.1049248455785956
2.103111228437561
2.100777317143149
2.0972185515599735
2.092341249082064
2.086160337623195
2.0788125778196163
2.07083469119477
2.0612821952879314
2.0516882572230424
2.042068983740076
2.0314213781299353
2.0208032663461863
2.008139798231706
1.9927298260201802
1.9730850400021547
1.9493792350649228
1.9218374819314445
1.8935821640345898
1.8678312634386773
1.8471689356824528
1.8319194952002271
1.8201071257752979
1.8043750114133774
1.7544891412885644
1.7975118126572625
1.359027005224717
1.3277464154534608
1.2722392125825843
1.9950108890772529
2.0909479396041544
2.1405651042854945
2.1488192552338297
2.136798726281493
2.1229518317143485
2.1133262282205494
2.1062877799531243
2.1012400044638886
2.0976472238813857
2.094183778402462
2.0902691113477285
2.0855375348770395
2.080334600484812
2.0741815380210338
2.0672645426788896
2.0598537731057927
2.0523406274086216
2.044687922738948
2.036826781433323
2.028681940202007
2.020688257835291
2.0122587304716273
2.0033337853480937
1.9937859418408297
1.982923959203052
1.9700544718036257
1.9545501460320343
1.9364601524424605
1.9171637149755658
1.8973827925890108
1.8797885845421531
1.865668088289156
1.8583823625733327
1.8544407547579096
1.8018616377427963
1.5970329858358228
)
;

boundaryField
{
    ".*"
    {
        type            zeroGradient;
    }
}


// ************************************************************************* //
