/*--------------------------------*- C++ -*----------------------------------*\
  =========                 |
  \\      /  F ield         | OpenFOAM: The Open Source CFD Toolbox
   \\    /   O peration     | Website:  https://openfoam.org
    \\  /    A nd           | Version:  6
     \\/     M anipulation  |
\*---------------------------------------------------------------------------*/
FoamFile
{
    version     2.0;
    format      ascii;
    class       volScalarField;
    location    "2800";
    object      alphat;
}
// * * * * * * * * * * * * * * * * * * * * * * * * * * * * * * * * * * * * * //

dimensions      [1 -1 -1 0 0 0 0];

internalField   nonuniform List<scalar> 
458
(
0.00135319
0.00149152
0.00153163
0.00161085
0.00168642
0.00176084
0.00183626
0.00189146
0.00191912
0.00191407
0.00187383
0.00179662
0.00167557
0.001427
0.00116276
0.000612329
0.000736535
0.000862299
0.000914982
0.000907094
0.000850383
0.000786665
0.000729419
0.000679768
0.000636653
0.000599029
0.000565949
0.00053664
0.00050985
0.000484196
0.000457686
0.000430803
0.0003864
0.00180361
0.00465799
0.0045865
0.00536668
0.00614839
0.00686376
0.00738223
0.00784281
0.00821576
0.0084703
0.00858277
0.00852917
0.00827917
0.00767757
0.00586915
0.00155198
0.00129779
0.00103415
0.000604939
0.00163619
0.00251797
0.00317226
0.00331761
0.0023101
0.0019216
0.0016674
0.00148318
0.0013436
0.00123402
0.00114394
0.00105692
0.000965558
0.000879035
0.000804725
0.000852715
0.000449024
0.00217255
0.00635557
0.00576119
0.00696445
0.00759474
0.00806963
0.00842872
0.00880154
0.00917941
0.00953272
0.00982427
0.00999708
0.00999412
0.0096953
0.00891284
0.00721003
0.00530919
0.00132608
0.000989134
0.00192175
0.00299114
0.00394078
0.0040606
0.0011591
0.00100281
0.00087512
0.000773081
0.000691582
0.00062609
0.000573194
0.000531296
0.000500199
0.000562028
0.000659457
0.000957081
0.000494208
0.00252247
0.00796637
0.00590344
0.00730294
0.00770551
0.00790409
0.00811326
0.00841355
0.00878711
0.00920852
0.00962838
0.00994436
0.010086
0.0100327
0.0097374
0.00908654
0.00766009
0.00421077
0.001554
0.00207623
0.00312883
0.00440032
0.00542198
0.00531597
0.00130787
0.00118195
0.00109251
0.00102415
0.000966702
0.00091457
0.000865685
0.000815475
0.00075887
0.000707925
0.000694093
0.00104123
0.000548818
0.00287931
0.0100099
0.00656867
0.00730109
0.00769969
0.0077084
0.007831
0.00806529
0.00842593
0.00888311
0.00935028
0.00971356
0.00989613
0.00988946
0.00973472
0.00944561
0.00881056
0.00746154
0.00673212
0.00692636
0.00740205
0.00787508
0.00811494
0.00785541
0.00641558
0.00566546
0.00522355
0.0049096
0.00462405
0.00427069
0.00379787
0.00321423
0.00255298
0.00190974
0.00141585
0.00124438
0.000887346
0.000655631
0.00068736
0.000701707
0.00325851
0.0122694
0.00891307
0.00788535
0.00816096
0.00797183
0.00791804
0.00800872
0.00831952
0.00880445
0.00932429
0.00971698
0.00988008
0.009823
0.00965661
0.00951858
0.00945371
0.00938969
0.00962301
0.00996692
0.0101741
0.0101529
0.00988356
0.00936128
0.00857838
0.00790212
0.00736177
0.00689646
0.00645599
0.00599807
0.00544454
0.00478481
0.00401631
0.00318549
0.00243522
0.00184398
0.00137114
0.00132616
0.00179446
0.000941972
0.0035862
0.0137605
0.0120362
0.0100817
0.00929812
0.00853965
0.00811398
0.0080934
0.00844209
0.00902072
0.00961617
0.0100231
0.0101348
0.0100054
0.00983813
0.00989323
0.0102996
0.0108445
0.0113554
0.0116007
0.0115049
0.0111126
0.0104999
0.00974663
0.00894038
0.00821016
0.00757943
0.00702093
0.00650989
0.00603775
0.00560359
0.00516704
0.00461956
0.00395287
0.00327326
0.00264702
0.0021296
0.00192917
0.00218763
0.00116903
0.00363554
0.0116989
0.010797
0.00957323
0.0085731
0.00792854
0.00777413
0.00810688
0.00879805
0.00961522
0.0102892
0.0106274
0.0105933
0.0103711
0.0103038
0.0106988
0.0113373
0.0118036
0.0120324
0.0119413
0.0115017
0.0107909
0.00990579
0.0089479
0.0080261
0.00722722
0.00656002
0.00599692
0.00552253
0.00514061
0.00486421
0.00469944
0.00456684
0.00420155
0.00383844
0.00356848
0.00347032
0.00342088
0.00400362
0.00157944
0.00352858
0.00413363
0.0044524
0.0046437
0.00513651
0.00603889
0.00726709
0.00866224
0.00998344
0.0109589
0.0113921
0.0112928
0.0108842
0.0107665
0.0109417
0.0112276
0.0114478
0.0114889
0.0113059
0.0108546
0.0101415
0.00921664
0.00819346
0.00718982
0.00630951
0.0055913
0.0050107
0.00453299
0.00413903
0.00381752
0.00355329
0.00332466
0.00313242
0.00297719
0.00285099
0.00275799
0.00265916
0.00252026
0.00237292
0.00154013
0.00146394
0.00544696
0.00912846
0.0112901
0.0125552
0.01316
0.0131723
0.0127446
0.0120213
0.0111545
0.0104954
0.0102816
0.0102709
0.0101911
0.00998374
0.00963181
0.00909851
0.00837694
0.00753073
0.00665759
0.0058342
0.00512282
0.00454949
0.00408618
0.00369917
0.00337164
0.00310181
0.00289316
0.00274778
0.00266564
0.00262437
0.00260149
0.00258019
0.0025352
0.00242608
0.00222532
0.0019616
0.00128603
0.00245694
0.00978739
0.0117411
0.0122625
0.012202
0.0117324
0.0109658
0.0101104
0.00931181
0.00863649
0.0081501
0.0078097
0.00750201
0.00719092
0.00686596
0.00649537
0.00605796
0.00557596
0.00510358
0.00468623
0.00433796
0.00404669
0.00378703
0.0035428
0.00330918
0.00309188
0.00290231
0.0027519
0.00264744
0.00258905
0.00257307
0.00258968
0.00261803
0.00262256
0.00258368
0.00250382
0.00253432
0.00131644
0.00208801
0.00226341
0.00239056
0.00258847
0.00249252
0.00242507
0.00233773
0.00219965
0.00202544
0.00183347
0.00164756
0.00149469
0.0013839
0.00130823
0.0012561
0.00121738
0.00118433
0.00115171
0.00111739
0.00108228
0.00104869
0.00101833
0.000991765
0.000968954
0.000949892
0.000935715
0.000928219
0.000929233
0.00093995
0.000960673
0.000991038
0.0010301
0.00107751
0.00113309
0.00119596
0.00126182
0.00132419
0.00129936
0.00120307
0.00111741
)
;

boundaryField
{
    floor
    {
        type            compressible::alphatWallFunction;
        Prt             0.85;
        value           nonuniform List<scalar> 
36
(
0.000165026
8.62405e-05
0.000104574
0.000122761
0.000130285
0.000129162
0.000121054
0.000111866
0.000103536
9.62473e-05
8.98654e-05
8.42532e-05
7.9283e-05
7.48493e-05
7.07703e-05
6.68389e-05
6.27488e-05
5.85704e-05
5.15943e-05
5.15937e-05
6.14063e-05
6.83773e-05
7.66972e-05
9.2686e-05
9.73722e-05
9.94856e-05
0.000165024
0.000217978
0.000183595
0.00014711
8.62395e-05
0.000147108
8.51353e-05
0.000187456
0.000140783
0.000218252
)
;
    }
    ceiling
    {
        type            compressible::alphatWallFunction;
        Prt             0.85;
        value           nonuniform List<scalar> 
43
(
0.000288525
0.000311165
0.000327463
0.000352764
0.000340617
0.000332038
0.000320882
0.000303143
0.000280586
0.000255481
0.000230891
0.000210442
0.000195476
0.000185177
0.000178043
0.000172722
0.000168165
0.000163654
0.000158891
0.000154
0.000149303
0.000145044
0.000141304
0.000138083
0.000135385
0.000133373
0.000132308
0.000132452
0.000133972
0.000136908
0.000141196
0.00014669
0.000153328
0.000161064
0.000169765
0.000178824
0.000187353
0.000183964
0.000170748
0.00015889
0.000470083
0.000543708
0.000335647
)
;
    }
    sWall
    {
        type            compressible::alphatWallFunction;
        Prt             0.85;
        value           uniform 0.000287348;
    }
    nWall
    {
        type            compressible::alphatWallFunction;
        Prt             0.85;
        value           nonuniform List<scalar> 6(9.93017e-05 0.000133934 0.00016571 0.000181828 0.00018598 0.000158577);
    }
    sideWalls
    {
        type            empty;
    }
    glass1
    {
        type            compressible::alphatWallFunction;
        Prt             0.85;
        value           nonuniform List<scalar> 9(0.000186638 0.000246123 0.000293747 0.000338195 0.000382914 0.000429845 0.000469997 0.000476144 0.000463338);
    }
    glass2
    {
        type            compressible::alphatWallFunction;
        Prt             0.85;
        value           nonuniform List<scalar> 2(0.000220294 0.000215106);
    }
    sun
    {
        type            compressible::alphatWallFunction;
        Prt             0.85;
        value           nonuniform List<scalar> 
14
(
0.000191164
0.000209863
0.000215251
0.000225848
0.000235904
0.000245758
0.000255699
0.000262946
0.000266567
0.000265906
0.000260631
0.000250478
0.000234461
0.000201158
)
;
    }
    Table_master
    {
        type            compressible::alphatWallFunction;
        Prt             0.85;
        value           nonuniform List<scalar> 9(0.000164631 0.000142814 0.000124694 0.000109989 9.80771e-05 8.83814e-05 8.04597e-05 7.41206e-05 6.93756e-05);
    }
    Table_slave
    {
        type            compressible::alphatWallFunction;
        Prt             0.85;
        value           nonuniform List<scalar> 9(0.00018509 0.000167795 0.000155383 0.000145818 0.000137721 0.000130325 0.000123345 0.000116127 0.000107925);
    }
    inlet
    {
        type            fixedValue;
        value           uniform 1.94e-05;
    }
    outlet
    {
        type            zeroGradient;
    }
}


// ************************************************************************* //
