/*--------------------------------*- C++ -*----------------------------------*\
  =========                 |
  \\      /  F ield         | OpenFOAM: The Open Source CFD Toolbox
   \\    /   O peration     | Website:  https://openfoam.org
    \\  /    A nd           | Version:  6
     \\/     M anipulation  |
\*---------------------------------------------------------------------------*/
FoamFile
{
    version     2.0;
    format      ascii;
    class       volScalarField;
    location    "2800";
    object      epsilon;
}
// * * * * * * * * * * * * * * * * * * * * * * * * * * * * * * * * * * * * * //

dimensions      [0 2 -3 0 0 0 0];

internalField   nonuniform List<scalar> 
458
(
0.00056134
0.000749807
0.000811808
0.00094434
0.00108353
0.00123332
0.00139861
0.00152843
0.00159629
0.00158358
0.00148568
0.00130949
0.0010623
0.000656358
0.000355212
5.19956e-05
9.04592e-05
0.000145137
0.000173412
0.000168983
0.000139243
0.000110241
8.78919e-05
7.11449e-05
5.84539e-05
4.8696e-05
4.10702e-05
3.50179e-05
3.00342e-05
2.57276e-05
2.17318e-05
1.81259e-05
1.30829e-05
0.00133142
0.00179276
0.000703848
0.000696489
0.000748905
0.000836585
0.000959358
0.00107578
0.00114766
0.00115169
0.00108448
0.000960204
0.000801075
0.000618083
0.000503507
0.000844439
0.000493845
0.000249948
5.01419e-05
0.000109697
0.00013973
0.000145611
0.000143564
0.00014871
0.000117227
8.91661e-05
6.81628e-05
5.27741e-05
4.14897e-05
3.31178e-05
2.68263e-05
2.2068e-05
1.90381e-05
1.75755e-05
2.60104e-05
2.05297e-05
0.00233116
0.00409166
0.000847003
0.00068004
0.000749807
0.000891651
0.00107703
0.00123626
0.00131982
0.00131735
0.00123486
0.00109285
0.000911824
0.000735244
0.000585669
0.000492906
0.000432703
0.000526956
0.000219011
0.000209396
0.000195875
0.000178854
0.000172028
0.000352593
0.000228351
0.00015177
0.00010464
7.49199e-05
5.55931e-05
4.26641e-05
3.39791e-05
2.83581e-05
2.18005e-05
1.83726e-05
3.75499e-05
2.73727e-05
0.00365538
0.00822903
0.00130149
0.000727771
0.000804525
0.00103649
0.0013204
0.00150988
0.00157694
0.00154719
0.00143317
0.00125531
0.00105074
0.000847115
0.000669131
0.000539329
0.000462075
0.000474512
0.000848126
0.000527392
0.000362272
0.000276715
0.000226453
0.000206869
0.00050688
0.000374218
0.000295596
0.000243559
0.000204862
0.0001735
0.000147158
0.000123023
9.91515e-05
5.85211e-05
3.54778e-05
5.49433e-05
3.74899e-05
0.00544632
0.0144655
0.00253207
0.000958137
0.000996734
0.0014391
0.00180312
0.00195012
0.00195168
0.00186445
0.00170196
0.00147615
0.00121315
0.00095017
0.000724553
0.000557755
0.000450832
0.000411409
0.000421872
0.000375563
0.000327805
0.000284508
0.000242994
0.00020601
0.000193692
0.000173731
0.000157197
0.000142695
0.000128694
0.000114678
0.000100694
8.69792e-05
7.39526e-05
5.79762e-05
4.29703e-05
4.69933e-05
5.20404e-05
6.39297e-05
7.36794e-05
7.84355e-05
0.00790704
0.0214327
0.00570397
0.00202147
0.00189545
0.00254435
0.00268506
0.00262886
0.00249842
0.00231787
0.00207484
0.00176426
0.00141009
0.0010608
0.000768085
0.000558193
0.000432391
0.000381272
0.000372587
0.000361722
0.000336639
0.000298221
0.000252721
0.000207966
0.000175257
0.000155982
0.000144791
0.000135976
0.000126779
0.000115931
0.000102683
8.8339e-05
7.45729e-05
6.16998e-05
5.1064e-05
4.66593e-05
4.82816e-05
7.11194e-05
0.000298751
0.000189764
0.0105574
0.0255634
0.0116699
0.00626882
0.00542372
0.00469463
0.00409171
0.00362502
0.00326236
0.00293206
0.00256217
0.00212284
0.00163858
0.00117351
0.00080144
0.000552331
0.000419176
0.000374788
0.000370961
0.000362554
0.000334519
0.000291482
0.000243291
0.000199385
0.000168702
0.00015336
0.000147146
0.000144185
0.000141776
0.000138419
0.000132128
0.000120627
0.000108143
9.68355e-05
8.97864e-05
8.98989e-05
0.000100676
0.000143482
0.000506628
0.000362753
0.0110234
0.0259693
0.0157556
0.0115916
0.00884053
0.00688172
0.00558542
0.004763
0.00420577
0.00371804
0.00316909
0.00253091
0.00185247
0.00122638
0.00077367
0.000506822
0.000390684
0.000360865
0.000354831
0.000338078
0.000302978
0.000259098
0.000216647
0.00018322
0.000163041
0.000155175
0.000155171
0.000159863
0.000168377
0.00018084
0.000197298
0.000215587
0.000229516
0.000253118
0.000298644
0.000404306
0.000630999
0.000954914
0.00318355
0.000895736
0.0101107
0.016212
0.0132078
0.010212
0.00816016
0.00695731
0.00626942
0.00582331
0.00537163
0.00471446
0.00381613
0.00280799
0.00182697
0.000987226
0.000590446
0.000420365
0.000352169
0.000327486
0.000311403
0.000287882
0.000256259
0.000222099
0.000192351
0.000171204
0.000159837
0.00015693
0.000160473
0.000169751
0.00018551
0.00020941
0.000243693
0.000291071
0.000356444
0.000447732
0.000582737
0.000771257
0.00100426
0.00124456
0.00147164
0.000831583
0.00228033
0.00612685
0.00764318
0.00810661
0.00802411
0.00739528
0.00612176
0.00436749
0.00271346
0.00163905
0.000985271
0.000610424
0.00042891
0.000347102
0.000310225
0.000289697
0.000270505
0.000247944
0.000224032
0.000202116
0.000184533
0.000172065
0.000163572
0.000158071
0.000155444
0.000156695
0.000163605
0.000178427
0.000203768
0.000242702
0.00029949
0.000378975
0.000485762
0.000615512
0.000742099
0.000815644
0.000807289
0.000484414
0.00312614
0.0088369
0.00806513
0.00656321
0.00539847
0.00426286
0.00316563
0.00215799
0.00137468
0.000879623
0.000597456
0.000448138
0.000376077
0.000343805
0.000330769
0.000326151
0.000324235
0.000322242
0.00031909
0.000314315
0.000307432
0.000297974
0.000285965
0.00027171
0.000256622
0.000243118
0.000234119
0.000232458
0.000240763
0.000262247
0.00030043
0.000359349
0.000440776
0.000537262
0.000634646
0.000711416
0.000718397
0.000519538
0.00200661
0.00255374
0.00300859
0.00388605
0.00348928
0.00322196
0.00289139
0.00241207
0.00188522
0.00139956
0.00101619
0.000759119
0.000602729
0.000509302
0.000450903
0.000410539
0.000378052
0.000347707
0.000317564
0.000288574
0.000262536
0.000240391
0.000222061
0.000207085
0.000195098
0.000186487
0.000182035
0.000182626
0.000189011
0.000201783
0.00022152
0.000248751
0.000284699
0.000331053
0.000389274
0.0004572
0.000528446
0.000499317
0.00039636
0.000317715
)
;

boundaryField
{
    floor
    {
        Cmu             0.09;
        kappa           0.41;
        E               9.8;
        type            epsilonWallFunction;
        value           nonuniform List<scalar> 
36
(
0.000355212
5.19956e-05
9.04592e-05
0.000145137
0.000173412
0.000168983
0.000139243
0.000110241
8.78919e-05
7.11449e-05
5.84539e-05
4.8696e-05
4.10702e-05
3.50179e-05
3.00342e-05
2.57276e-05
2.17318e-05
1.81259e-05
1.30829e-05
1.30829e-05
2.05297e-05
2.73727e-05
3.74899e-05
6.39297e-05
7.36794e-05
7.84355e-05
0.000355212
0.000844439
0.000493845
0.000249948
5.19956e-05
0.000249948
5.01419e-05
0.000526956
0.000219011
0.000848126
)
;
    }
    ceiling
    {
        Cmu             0.09;
        kappa           0.41;
        E               9.8;
        type            epsilonWallFunction;
        value           nonuniform List<scalar> 
43
(
0.00200661
0.00255374
0.00300859
0.00388605
0.00348928
0.00322196
0.00289139
0.00241207
0.00188522
0.00139956
0.00101619
0.000759119
0.000602729
0.000509302
0.000450903
0.000410539
0.000378052
0.000347707
0.000317564
0.000288574
0.000262536
0.000240391
0.000222061
0.000207085
0.000195098
0.000186487
0.000182035
0.000182626
0.000189011
0.000201783
0.00022152
0.000248751
0.000284699
0.000331053
0.000389274
0.0004572
0.000528446
0.000499317
0.00039636
0.000317715
0.0101107
0.016212
0.00312614
)
;
    }
    sWall
    {
        Cmu             0.09;
        kappa           0.41;
        E               9.8;
        type            epsilonWallFunction;
        value           uniform 0.00200661;
    }
    nWall
    {
        Cmu             0.09;
        kappa           0.41;
        E               9.8;
        type            epsilonWallFunction;
        value           nonuniform List<scalar> 6(7.84355e-05 0.000189764 0.000362753 0.000484414 0.000519538 0.000317715);
    }
    sideWalls
    {
        type            empty;
    }
    glass1
    {
        Cmu             0.09;
        kappa           0.41;
        E               9.8;
        type            epsilonWallFunction;
        value           nonuniform List<scalar> 9(0.00056134 0.00133142 0.00233116 0.00365538 0.00544632 0.00790704 0.0105574 0.0110234 0.0101107);
    }
    glass2
    {
        Cmu             0.09;
        kappa           0.41;
        E               9.8;
        type            epsilonWallFunction;
        value           nonuniform List<scalar> 2(0.000895736 0.000831583);
    }
    sun
    {
        Cmu             0.09;
        kappa           0.41;
        E               9.8;
        type            epsilonWallFunction;
        value           nonuniform List<scalar> 
14
(
0.00056134
0.000749807
0.000811808
0.00094434
0.00108353
0.00123332
0.00139861
0.00152843
0.00159629
0.00158358
0.00148568
0.00130949
0.0010623
0.000656358
)
;
    }
    Table_master
    {
        Cmu             0.09;
        kappa           0.41;
        E               9.8;
        type            epsilonWallFunction;
        value           nonuniform List<scalar> 9(0.000352593 0.000228351 0.00015177 0.00010464 7.49199e-05 5.55931e-05 4.26641e-05 3.39791e-05 2.83581e-05);
    }
    Table_slave
    {
        Cmu             0.09;
        kappa           0.41;
        E               9.8;
        type            epsilonWallFunction;
        value           nonuniform List<scalar> 9(0.00050688 0.000374218 0.000295596 0.000243559 0.000204862 0.0001735 0.000147158 0.000123023 9.91515e-05);
    }
    inlet
    {
        type            turbulentMixingLengthDissipationRateInlet;
        mixingLength    0.01;
        phi             phi;
        k               k;
        value           uniform 0.000101881;
    }
    outlet
    {
        type            zeroGradient;
    }
}


// ************************************************************************* //
