/*--------------------------------*- C++ -*----------------------------------*\
  =========                 |
  \\      /  F ield         | OpenFOAM: The Open Source CFD Toolbox
   \\    /   O peration     | Website:  https://openfoam.org
    \\  /    A nd           | Version:  6
     \\/     M anipulation  |
\*---------------------------------------------------------------------------*/
FoamFile
{
    version     2.0;
    format      ascii;
    class       volVectorField;
    location    "2800";
    object      U;
}
// * * * * * * * * * * * * * * * * * * * * * * * * * * * * * * * * * * * * * //

dimensions      [0 1 -1 0 0 0 0];

internalField   nonuniform List<vector> 
458
(
(0.0236579 0.0877733 0)
(-0.171898 0.0276996 0)
(-0.20041 0.0169041 0)
(-0.230017 0.00916446 0)
(-0.247779 0.000930655 0)
(-0.252263 -0.0076072 0)
(-0.241943 -0.0163898 0)
(-0.218243 -0.0248656 0)
(-0.183388 -0.0316258 0)
(-0.141436 -0.0357385 0)
(-0.0970466 -0.0368216 0)
(-0.0549718 -0.0346027 0)
(-0.019558 -0.0282819 0)
(0.0094138 -0.00983554 0)
(0.00188948 0.0133503 0)
(-0.0170203 0.0098966 0)
(-0.0317921 -0.0161744 0)
(-0.00897082 -0.0296601 0)
(0.0208881 -0.0268007 0)
(0.042628 -0.0198493 0)
(0.0591206 -0.0110363 0)
(0.0691004 -0.00625822 0)
(0.0736595 -0.00449956 0)
(0.0755627 -0.00381485 0)
(0.0766215 -0.00336873 0)
(0.0772802 -0.00299301 0)
(0.0774639 -0.0025968 0)
(0.0768967 -0.00195102 0)
(0.0749384 -0.000635373 0)
(0.0702213 0.00194328 0)
(0.0611153 0.00534063 0)
(0.047985 0.00984034 0)
(0.00604653 0.0236599 0)
(0.190795 0.179332 0)
(-0.155747 0.0736719 0)
(-0.159441 0.0533661 0)
(-0.189636 0.0370688 0)
(-0.207284 0.0187741 0)
(-0.212116 -0.00138075 0)
(-0.202451 -0.0226763 0)
(-0.180533 -0.0421592 0)
(-0.149286 -0.0565822 0)
(-0.112875 -0.0643683 0)
(-0.0753963 -0.0653798 0)
(-0.040609 -0.0598326 0)
(-0.0108639 -0.047323 0)
(0.0150379 -0.0254633 0)
(0.0324397 -0.00194541 0)
(0.050524 0.0113436 0)
(0.0520669 0.030596 0)
(-0.00485264 0.0585505 0)
(0.0364889 0.0388772 0)
(0.0203614 -0.023614 0)
(0.0334462 -0.0394679 0)
(0.0484573 -0.0382692 0)
(0.0621212 -0.0302308 0)
(0.0695588 -0.0137065 0)
(0.0715163 -0.00354349 0)
(0.0715403 0.000222633 0)
(0.0716832 0.00155283 0)
(0.0720431 0.0022741 0)
(0.0723096 0.00280823 0)
(0.0724044 0.0034136 0)
(0.0722598 0.00448167 0)
(0.0713523 0.00697353 0)
(0.0673116 0.0133972 0)
(0.0573052 0.0202914 0)
(0.0457848 0.0280826 0)
(-0.0236815 0.0500061 0)
(0.344405 0.267423 0)
(-0.166242 0.115151 0)
(-0.118866 0.0850147 0)
(-0.147351 0.0571948 0)
(-0.162817 0.0271595 0)
(-0.166031 -0.00563837 0)
(-0.154584 -0.0394547 0)
(-0.132456 -0.0691244 0)
(-0.103845 -0.0894416 0)
(-0.0727823 -0.0988922 0)
(-0.0424179 -0.0981097 0)
(-0.015447 -0.0882304 0)
(0.00791405 -0.0694101 0)
(0.0268466 -0.0449075 0)
(0.0423877 -0.0208116 0)
(0.051616 -0.00258707 0)
(0.0517355 0.0209056 0)
(0.00483549 0.0625885 0)
(0.0953776 -0.0165653 0)
(0.0706037 -0.0404823 0)
(0.0694898 -0.0486519 0)
(0.0741853 -0.0473615 0)
(0.0798952 -0.043169 0)
(0.0821041 -0.0317685 0)
(0.0715664 -0.0201588 0)
(0.0633018 -0.0139627 0)
(0.0600205 -0.0105464 0)
(0.0589317 -0.00835736 0)
(0.0583624 -0.00686 0)
(0.0581444 -0.00568187 0)
(0.0589444 -0.00419364 0)
(0.0620523 -3.90625e-05 0)
(0.0618261 0.0180351 0)
(0.0517384 0.0321626 0)
(0.0471125 0.0462569 0)
(-0.0500507 0.0785626 0)
(0.483795 0.337806 0)
(-0.194744 0.150847 0)
(-0.0772429 0.111666 0)
(-0.10255 0.074247 0)
(-0.112536 0.0343994 0)
(-0.109371 -0.0105171 0)
(-0.0927799 -0.056978 0)
(-0.0696769 -0.0951671 0)
(-0.0450926 -0.118724 0)
(-0.0213896 -0.127871 0)
(0.000110617 -0.124212 0)
(0.0178727 -0.10981 0)
(0.032245 -0.0877036 0)
(0.0446137 -0.0604602 0)
(0.0553572 -0.0324207 0)
(0.0641717 -0.00619655 0)
(0.0749522 0.0216043 0)
(0.0811127 0.0548524 0)
(0.119574 0.0459079 0)
(0.116955 -0.00859069 0)
(0.101727 -0.0343237 0)
(0.0914283 -0.0431081 0)
(0.0834228 -0.0433651 0)
(0.0746334 -0.0381998 0)
(0.0724645 -0.0223222 0)
(0.0828401 -0.0140434 0)
(0.0910419 -0.00971216 0)
(0.0950023 -0.00717972 0)
(0.0967139 -0.00525008 0)
(0.0968397 -0.00333294 0)
(0.0945029 -0.000964187 0)
(0.0883403 0.00236442 0)
(0.0762172 0.00730794 0)
(0.0621866 0.0263009 0)
(0.0513321 0.0447584 0)
(0.055623 0.0645654 0)
(-0.0601382 0.108215 0)
(0.604449 0.39174 0)
(-0.23209 0.178963 0)
(-0.0376208 0.126328 0)
(-0.0560584 0.0832584 0)
(-0.0567348 0.0358524 0)
(-0.0379845 -0.0210149 0)
(-0.0142964 -0.0772482 0)
(0.00781044 -0.11891 0)
(0.0247975 -0.140296 0)
(0.0378647 -0.145829 0)
(0.0472907 -0.138661 0)
(0.0536807 -0.12155 0)
(0.0581755 -0.0973688 0)
(0.0619496 -0.0691084 0)
(0.0658846 -0.0402814 0)
(0.070902 -0.0133715 0)
(0.0796471 0.0105984 0)
(0.0929237 0.0224615 0)
(0.105388 0.000201685 0)
(0.103495 -0.0210228 0)
(0.0946364 -0.0313304 0)
(0.0839215 -0.0349126 0)
(0.0736137 -0.0339383 0)
(0.0645726 -0.0280083 0)
(0.0608948 -0.0149538 0)
(0.0628848 -0.00720911 0)
(0.0655696 -0.00395914 0)
(0.0674499 -0.00233978 0)
(0.0689854 -0.000644052 0)
(0.0703817 0.00202389 0)
(0.0707155 0.00611509 0)
(0.0693062 0.0121358 0)
(0.0656873 0.020907 0)
(0.0610318 0.0358744 0)
(0.0566355 0.0534324 0)
(0.0758006 0.074624 0)
(0.0369492 0.107358 0)
(0.0915408 0.116808 0)
(0.118127 0.121988 0)
(-0.192787 0.147308 0)
(0.693082 0.435767 0)
(-0.269441 0.19634 0)
(-0.0069775 0.119689 0)
(-0.00609286 0.0789856 0)
(0.0114898 0.0221144 0)
(0.0524774 -0.0465031 0)
(0.0776706 -0.0990521 0)
(0.0928237 -0.133122 0)
(0.0992799 -0.149465 0)
(0.0993275 -0.150816 0)
(0.0948438 -0.140261 0)
(0.0876882 -0.120994 0)
(0.0797504 -0.0960597 0)
(0.0725747 -0.0682515 0)
(0.0673711 -0.0408142 0)
(0.065153 -0.0165067 0)
(0.0674037 0.00228761 0)
(0.0739493 0.00995287 0)
(0.0783884 0.000930199 0)
(0.0758822 -0.0109237 0)
(0.0681494 -0.0196484 0)
(0.058484 -0.0239534 0)
(0.0490203 -0.0241936 0)
(0.0409794 -0.0205187 0)
(0.0363799 -0.0134852 0)
(0.0356481 -0.00867518 0)
(0.0367767 -0.00655394 0)
(0.0386468 -0.00547183 0)
(0.0411055 -0.00405742 0)
(0.0440717 -0.00124098 0)
(0.0476197 0.00383339 0)
(0.0505306 0.0113833 0)
(0.0529143 0.0216086 0)
(0.0558684 0.0353176 0)
(0.0594719 0.0511585 0)
(0.0770469 0.0695007 0)
(0.0761925 0.0784203 0)
(0.0890252 0.0383264 0)
(0.120185 0.00649371 0)
(-0.202731 0.0788757 0)
(0.755014 0.475619 0)
(-0.286172 0.178554 0)
(0.0296768 0.0577969 0)
(0.0702254 0.0314022 0)
(0.124843 -0.0244959 0)
(0.1604 -0.0783279 0)
(0.178885 -0.11715 0)
(0.182282 -0.139205 0)
(0.173464 -0.146212 0)
(0.156245 -0.140955 0)
(0.134305 -0.126483 0)
(0.110851 -0.105885 0)
(0.0885259 -0.0817533 0)
(0.0691005 -0.0560799 0)
(0.0539373 -0.0318046 0)
(0.04379 -0.0116253 0)
(0.0390882 0.00232865 0)
(0.0398493 0.00740608 0)
(0.0404534 0.00264103 0)
(0.0379469 -0.00536007 0)
(0.0320198 -0.012014 0)
(0.024429 -0.0156731 0)
(0.0167075 -0.0163778 0)
(0.0100887 -0.0145596 0)
(0.00600933 -0.0111503 0)
(0.00487305 -0.00879314 0)
(0.00563729 -0.00799973 0)
(0.00749243 -0.00785673 0)
(0.0102433 -0.00734392 0)
(0.0139669 -0.00546593 0)
(0.0192023 -0.00103654 0)
(0.0262097 0.00662014 0)
(0.0333096 0.016431 0)
(0.0416633 0.0281429 0)
(0.0511847 0.0408273 0)
(0.0676171 0.054871 0)
(0.0810839 0.0597095 0)
(0.0942173 0.0422672 0)
(0.145788 0.0500284 0)
(-0.130669 0.136457 0)
(0.862836 0.470643 0)
(-0.0411626 0.152457 0)
(0.128509 -0.0451416 0)
(0.243943 -0.0923818 0)
(0.286154 -0.1079 0)
(0.29715 -0.120852 0)
(0.289944 -0.129272 0)
(0.267552 -0.130449 0)
(0.233441 -0.124264 0)
(0.192604 -0.111711 0)
(0.149882 -0.0944739 0)
(0.109127 -0.0746307 0)
(0.0730001 -0.0537708 0)
(0.0428153 -0.0326498 0)
(0.020506 -0.0140206 0)
(0.00569426 -0.000410802 0)
(-0.000639943 0.00678128 0)
(-0.00119758 0.00797107 0)
(-0.00140091 0.0040469 0)
(-0.00327321 -0.00164058 0)
(-0.00753271 -0.0063759 0)
(-0.0131867 -0.00921969 0)
(-0.0190362 -0.0102644 0)
(-0.0240147 -0.0100075 0)
(-0.0272012 -0.0092191 0)
(-0.0284919 -0.00899393 0)
(-0.0285405 -0.00951732 0)
(-0.0278974 -0.0103561 0)
(-0.0267212 -0.0109743 0)
(-0.0248412 -0.0108183 0)
(-0.0216903 -0.00919332 0)
(-0.01569 -0.00523674 0)
(-0.00518714 0.00134267 0)
(0.0057549 0.00926761 0)
(0.017744 0.0155045 0)
(0.0335619 0.0208346 0)
(0.0490524 0.0169507 0)
(0.0622876 0.000263814 0)
(0.140558 0.0559991 0)
(-0.410306 0.223635 0)
(1.01454 0.4179 0)
(0.476453 0.272814 0)
(0.503579 0.164933 0)
(0.531032 0.0726685 0)
(0.501938 0.00882904 0)
(0.443701 -0.0336278 0)
(0.378308 -0.0575709 0)
(0.309904 -0.0667231 0)
(0.240291 -0.0652367 0)
(0.173399 -0.056562 0)
(0.113065 -0.0436376 0)
(0.0617046 -0.0290932 0)
(0.0194858 -0.0146274 0)
(-0.0142536 -0.00150266 0)
(-0.0318137 0.00553558 0)
(-0.0400044 0.00876066 0)
(-0.0425372 0.00953884 0)
(-0.0425872 0.00823219 0)
(-0.0427384 0.00506729 0)
(-0.0442708 0.00127814 0)
(-0.0470095 -0.00198119 0)
(-0.0510434 -0.00425674 0)
(-0.0553764 -0.00571893 0)
(-0.0593138 -0.00666413 0)
(-0.0623979 -0.00744775 0)
(-0.064733 -0.00841986 0)
(-0.0668292 -0.00956121 0)
(-0.0692192 -0.0105947 0)
(-0.0723514 -0.0110947 0)
(-0.0766619 -0.0104445 0)
(-0.0826818 -0.00778806 0)
(-0.0911976 -0.0021001 0)
(-0.101559 0.00699432 0)
(-0.113407 0.0195466 0)
(-0.132451 0.0363687 0)
(-0.16169 0.0581441 0)
(-0.203395 0.0835674 0)
(-0.252643 0.110416 0)
(-0.320768 0.135267 0)
(-0.605437 0.155679 0)
(-0.195751 -0.11071 0)
(0.0949747 -0.100716 0)
(0.156133 -0.0834812 0)
(0.136595 -0.0597636 0)
(0.109897 -0.0375901 0)
(0.0790946 -0.0199042 0)
(0.0413695 -0.00620838 0)
(0.00204436 0.00365912 0)
(-0.0312355 0.00975119 0)
(-0.0544309 0.0131631 0)
(-0.069302 0.0149085 0)
(-0.0771015 0.0149946 0)
(-0.0805489 0.0140744 0)
(-0.0816132 0.013256 0)
(-0.0813488 0.0124861 0)
(-0.0807863 0.0114717 0)
(-0.0809379 0.010114 0)
(-0.0823276 0.00881869 0)
(-0.084755 0.00804413 0)
(-0.0877613 0.00784543 0)
(-0.0911244 0.00797411 0)
(-0.0945882 0.00806157 0)
(-0.0979938 0.00806746 0)
(-0.101475 0.00792931 0)
(-0.105277 0.00773901 0)
(-0.109609 0.00768516 0)
(-0.114593 0.00800789 0)
(-0.120242 0.008977 0)
(-0.126291 0.0109729 0)
(-0.131736 0.015107 0)
(-0.136396 0.0225826 0)
(-0.140403 0.0345302 0)
(-0.144363 0.0511256 0)
(-0.148585 0.070603 0)
(-0.150384 0.0858967 0)
(-0.140148 0.0778981 0)
(-0.124108 0.00624665 0)
(-0.260747 -0.186098 0)
(0.0855169 0.125124 0)
(0.00104911 0.0254461 0)
(-0.0379549 -0.0134515 0)
(-0.0716061 -0.00828934 0)
(-0.0957898 0.000628163 0)
(-0.111694 0.00621916 0)
(-0.119537 0.0087884 0)
(-0.124292 0.00854594 0)
(-0.126426 0.0056741 0)
(-0.126245 0.0016774 0)
(-0.124313 -0.00217221 0)
(-0.121192 -0.00588417 0)
(-0.117783 -0.00967399 0)
(-0.114582 -0.013246 0)
(-0.111762 -0.0167643 0)
(-0.109571 -0.0207028 0)
(-0.108347 -0.025417 0)
(-0.108274 -0.0307814 0)
(-0.10924 -0.036301 0)
(-0.110978 -0.0414612 0)
(-0.113247 -0.0459145 0)
(-0.115935 -0.0494319 0)
(-0.119074 -0.0520146 0)
(-0.122567 -0.0534446 0)
(-0.126225 -0.0534315 0)
(-0.129722 -0.0516478 0)
(-0.132645 -0.047775 0)
(-0.134575 -0.0415047 0)
(-0.135138 -0.0325743 0)
(-0.133824 -0.0212466 0)
(-0.129429 -0.00718528 0)
(-0.120435 0.010187 0)
(-0.105708 0.0312892 0)
(-0.0851258 0.0546735 0)
(-0.0596088 0.0732853 0)
(-0.0316588 0.073405 0)
(0.126705 -0.00469045 0)
(-0.20568 -0.0977868 0)
(0.0774224 -0.252602 0)
(-0.34916 -0.119555 0)
(-0.275772 0.022818 0)
(-0.268058 -0.0011628 0)
(-0.251812 0.00531119 0)
(-0.249878 0.0161246 0)
(-0.24481 0.0253902 0)
(-0.235978 0.033628 0)
(-0.223671 0.0415226 0)
(-0.209481 0.0489816 0)
(-0.195112 0.0557955 0)
(-0.181917 0.062181 0)
(-0.170424 0.0682579 0)
(-0.160643 0.0740326 0)
(-0.152408 0.0797211 0)
(-0.145353 0.0856488 0)
(-0.139105 0.0920848 0)
(-0.13349 0.0992158 0)
(-0.128551 0.107016 0)
(-0.124394 0.115146 0)
(-0.121052 0.123045 0)
(-0.11847 0.130164 0)
(-0.116534 0.136102 0)
(-0.115111 0.140623 0)
(-0.114124 0.143645 0)
(-0.113538 0.144873 0)
(-0.113318 0.143955 0)
(-0.113381 0.140622 0)
(-0.113532 0.134863 0)
(-0.113349 0.127047 0)
(-0.111983 0.11802 0)
(-0.107949 0.10928 0)
(-0.098954 0.102187 0)
(-0.0822773 0.0982088 0)
(-0.0568939 0.0988195 0)
(-0.0259844 0.104665 0)
(0.0272605 0.11148 0)
(0.0657731 0.10476 0)
(0.15081 0.0911753 0)
(-0.243729 0.0460853 0)
)
;

boundaryField
{
    floor
    {
        type            noSlip;
    }
    ceiling
    {
        type            noSlip;
    }
    sWall
    {
        type            noSlip;
    }
    nWall
    {
        type            noSlip;
    }
    sideWalls
    {
        type            empty;
    }
    glass1
    {
        type            noSlip;
    }
    glass2
    {
        type            noSlip;
    }
    sun
    {
        type            noSlip;
    }
    Table_master
    {
        type            noSlip;
    }
    Table_slave
    {
        type            noSlip;
    }
    inlet
    {
        type            fixedValue;
        value           uniform (0.212132 -0.212132 0);
    }
    outlet
    {
        type            zeroGradient;
    }
}


// ************************************************************************* //
