/*--------------------------------*- C++ -*----------------------------------*\
  =========                 |
  \\      /  F ield         | OpenFOAM: The Open Source CFD Toolbox
   \\    /   O peration     | Website:  https://openfoam.org
    \\  /    A nd           | Version:  6
     \\/     M anipulation  |
\*---------------------------------------------------------------------------*/
FoamFile
{
    version     2.0;
    format      ascii;
    class       volScalarField;
    location    "2000";
    object      alphat;
}
// * * * * * * * * * * * * * * * * * * * * * * * * * * * * * * * * * * * * * //

dimensions      [1 -1 -1 0 0 0 0];

internalField   nonuniform List<scalar> 
458
(
0.00119575
0.00130705
0.00132921
0.00139426
0.00145441
0.00151011
0.00156362
0.00161794
0.00166331
0.0016921
0.00169948
0.00168184
0.00163896
0.00157617
0.0015024
0.000518161
0.000653532
0.000731513
0.000718742
0.000688582
0.000643794
0.000598333
0.000557543
0.000521818
0.00049052
0.000462964
0.000438688
0.000417002
0.000397052
0.000377786
0.000357601
0.000339671
0.000305606
0.00164517
0.00401158
0.00385164
0.00450774
0.00513903
0.00577323
0.00635786
0.0068145
0.00719346
0.00750518
0.00770917
0.00774484
0.00750992
0.00675674
0.00479891
0.00157241
0.00122773
0.000877665
0.000577647
0.00123173
0.00166827
0.00194856
0.00201696
0.00161202
0.001394
0.00123695
0.00111638
0.00102102
0.000943784
0.000876229
0.000812406
0.00074958
0.000694177
0.000648171
0.000737122
0.000384809
0.00202358
0.0055198
0.00480572
0.00620763
0.00694829
0.00750892
0.00794076
0.00826271
0.00854965
0.00883486
0.00909752
0.00929469
0.00937554
0.00927517
0.0088584
0.00780886
0.00629493
0.00136776
0.00120202
0.00171024
0.0021601
0.00250732
0.00254629
0.00092368
0.000809639
0.00071746
0.000643339
0.000583415
0.00053456
0.000494461
0.000461582
0.000435164
0.000466248
0.000532519
0.000819517
0.000437152
0.00239145
0.00715712
0.00486773
0.00668679
0.00751347
0.00788076
0.00807988
0.00821067
0.00839111
0.00864432
0.00894951
0.00926018
0.00953092
0.00971876
0.00976726
0.00950489
0.00873408
0.00662383
0.00168922
0.00212235
0.00273924
0.00327416
0.00361782
0.00349332
0.00103137
0.000930883
0.000859474
0.000805625
0.000761095
0.000721273
0.00068418
0.000646271
0.000603242
0.00056286
0.00055904
0.000897489
0.000483553
0.00276979
0.00926634
0.00553698
0.00643708
0.00752809
0.00786254
0.00791683
0.00787721
0.00801651
0.00825883
0.00859787
0.00897653
0.00933289
0.00959324
0.00969043
0.00956242
0.00914973
0.00832013
0.00671901
0.0061561
0.00589293
0.00570526
0.00551438
0.00521586
0.00438831
0.00397051
0.00373478
0.00356636
0.0033989
0.00316035
0.00282633
0.00240738
0.00192876
0.00143764
0.00105826
0.000987563
0.000749689
0.000631671
0.000725639
0.000797948
0.00317031
0.0115564
0.00788034
0.00661321
0.00721152
0.00765973
0.00770238
0.00774586
0.00786881
0.00808298
0.00841462
0.00883287
0.00924383
0.00953174
0.00960304
0.00942564
0.00904962
0.0085742
0.00803786
0.00763715
0.00727661
0.00690207
0.00652283
0.0061425
0.00572432
0.00539962
0.00514167
0.00490441
0.00465885
0.00438206
0.00401652
0.00355096
0.0029841
0.00234522
0.0017643
0.00132725
0.00101815
0.000837511
0.00109946
0.000817856
0.0035254
0.0131414
0.0110743
0.00889176
0.00841294
0.00831129
0.00813607
0.00797688
0.00795072
0.00811999
0.00848467
0.008968
0.00943258
0.0097277
0.00974972
0.00948958
0.00905528
0.00862796
0.00830643
0.00803344
0.00767325
0.00720769
0.006703
0.00622277
0.00580485
0.00547484
0.00519747
0.0049352
0.0046746
0.00442115
0.00418006
0.0038675
0.00343143
0.00288974
0.00234761
0.00186486
0.00150698
0.0013197
0.00124445
0.000933341
0.00358437
0.0115605
0.0105123
0.00989911
0.00935822
0.00873245
0.00819194
0.00790973
0.00795165
0.00830065
0.00886257
0.00948304
0.00998172
0.0102034
0.0100819
0.00966597
0.0091228
0.00866478
0.00833782
0.00796204
0.00738842
0.00671412
0.0060726
0.00554519
0.00514853
0.00484705
0.0045867
0.00433917
0.00410893
0.00391864
0.00379243
0.00372267
0.00352347
0.00317504
0.00284684
0.00262951
0.00259277
0.00265884
0.00318032
0.00147893
0.0034784
0.00409955
0.00450432
0.00463982
0.00487971
0.00531263
0.0059811
0.00688436
0.00794882
0.00903555
0.00998607
0.0106579
0.010944
0.0107961
0.0102926
0.00960509
0.00897606
0.0084331
0.00782382
0.00709299
0.00630212
0.005581
0.00501841
0.00461212
0.00430996
0.00405305
0.00379934
0.00353457
0.00326906
0.00302255
0.00280642
0.00261867
0.00247113
0.00235242
0.00227886
0.00224952
0.00221846
0.00214214
0.0020277
0.00143977
0.00155311
0.00493018
0.00784162
0.00978245
0.0111582
0.0120888
0.012591
0.0127112
0.0125295
0.0121146
0.0114942
0.010697
0.00973186
0.00876735
0.0078776
0.00701031
0.00619256
0.0055011
0.00496151
0.0045517
0.00424653
0.00399613
0.00376138
0.00352044
0.00326625
0.00300383
0.00274929
0.00252842
0.00236727
0.00227235
0.00222249
0.00220548
0.00220916
0.00220968
0.00216776
0.00206056
0.00190481
0.00128398
0.00223991
0.00804641
0.0105143
0.0113779
0.0118778
0.0120396
0.0118731
0.0114334
0.0108044
0.0100596
0.00925273
0.00841942
0.00755719
0.00669954
0.00592188
0.0053233
0.004935
0.0047082
0.00457594
0.0044819
0.00438447
0.00425784
0.00408844
0.00387369
0.00362163
0.00334957
0.00308
0.00283417
0.00262972
0.00248023
0.00238874
0.00235043
0.0023465
0.00234519
0.00231351
0.00232445
0.00257804
0.00133023
0.00199162
0.00215885
0.00227689
0.0025099
0.00252108
0.00251986
0.00249867
0.00243229
0.00232314
0.0021797
0.00201331
0.00183546
0.00165791
0.00149352
0.00135755
0.00125683
0.00118877
0.00114582
0.00111916
0.00110124
0.00108677
0.00107259
0.00105621
0.00103693
0.00101533
0.000993221
0.000973444
0.000959184
0.000953079
0.000956699
0.000970234
0.000993043
0.00102506
0.00106613
0.00111528
0.00117049
0.00120406
0.00118127
0.00112255
0.00107358
)
;

boundaryField
{
    floor
    {
        type            compressible::alphatWallFunction;
        Prt             0.85;
        value           nonuniform List<scalar> 
36
(
0.000211356
7.20537e-05
9.23864e-05
0.000103858
0.00010199
9.75616e-05
9.09421e-05
8.4165e-05
7.80302e-05
7.26113e-05
6.78258e-05
6.35804e-05
5.98138e-05
5.64265e-05
5.32904e-05
5.02423e-05
4.70272e-05
4.41515e-05
3.86318e-05
3.86312e-05
5.13562e-05
5.95758e-05
6.67573e-05
8.91495e-05
0.000103013
0.000113531
0.000211354
0.000220742
0.000174022
0.000124988
7.20528e-05
0.000124987
8.10606e-05
0.000193153
0.000170477
0.000236301
)
;
    }
    ceiling
    {
        type            compressible::alphatWallFunction;
        Prt             0.85;
        value           nonuniform List<scalar> 
43
(
0.000275964
0.000297656
0.000312862
0.000342758
0.00034422
0.00034408
0.0003414
0.000332957
0.000319011
0.000300571
0.000279014
0.000255752
0.00023228
0.000210295
0.000191904
0.000178147
0.00016878
0.000162838
0.000159138
0.000156645
0.000154628
0.000152649
0.000150359
0.000147658
0.000144624
0.000141512
0.000138721
0.000136705
0.00013584
0.000136353
0.000138268
0.000141488
0.000145993
0.000151749
0.000158603
0.000166261
0.000170896
0.000167751
0.000159615
0.000152794
0.000463959
0.000539632
0.000307845
)
;
    }
    sWall
    {
        type            compressible::alphatWallFunction;
        Prt             0.85;
        value           uniform 0.00027478;
    }
    nWall
    {
        type            compressible::alphatWallFunction;
        Prt             0.85;
        value           nonuniform List<scalar> 6(0.000113348 0.000116219 0.000132733 0.000181563 0.000187877 0.000152488);
    }
    sideWalls
    {
        type            empty;
    }
    glass1
    {
        type            compressible::alphatWallFunction;
        Prt             0.85;
        value           nonuniform List<scalar> 9(0.000165643 0.0002257 0.000274976 0.000322013 0.000369654 0.000419394 0.000462997 0.000470319 0.000457593);
    }
    glass2
    {
        type            compressible::alphatWallFunction;
        Prt             0.85;
        value           nonuniform List<scalar> 2(0.000206976 0.000201759);
    }
    sun
    {
        type            compressible::alphatWallFunction;
        Prt             0.85;
        value           nonuniform List<scalar> 
14
(
0.000169629
0.000184889
0.00018791
0.000196752
0.000204887
0.000212386
0.000219561
0.000226817
0.000232858
0.000236682
0.000237663
0.000235324
0.000229623
0.000221246
)
;
    }
    Table_master
    {
        type            compressible::alphatWallFunction;
        Prt             0.85;
        value           nonuniform List<scalar> 9(0.00013161 0.000115275 0.000101872 9.09423e-05 8.19938e-05 7.46139e-05 6.84937e-05 6.34287e-05 5.93258e-05);
    }
    Table_slave
    {
        type            compressible::alphatWallFunction;
        Prt             0.85;
        value           nonuniform List<scalar> 9(0.00014682 0.000132636 0.000122448 0.000114699 0.000108244 0.000102433 9.69856e-05 9.13809e-05 8.49698e-05);
    }
    inlet
    {
        type            fixedValue;
        value           uniform 1.94e-05;
    }
    outlet
    {
        type            zeroGradient;
    }
}


// ************************************************************************* //
