/*--------------------------------*- C++ -*----------------------------------*\
  =========                 |
  \\      /  F ield         | OpenFOAM: The Open Source CFD Toolbox
   \\    /   O peration     | Website:  https://openfoam.org
    \\  /    A nd           | Version:  6
     \\/     M anipulation  |
\*---------------------------------------------------------------------------*/
FoamFile
{
    version     2.0;
    format      ascii;
    class       volScalarField;
    location    "2000";
    object      epsilon;
}
// * * * * * * * * * * * * * * * * * * * * * * * * * * * * * * * * * * * * * //

dimensions      [0 2 -3 0 0 0 0];

internalField   nonuniform List<scalar> 
458
(
0.000389683
0.000507688
0.000533869
0.000616115
0.000699314
0.00078274
0.000868871
0.000962554
0.00104578
0.00110095
0.00111535
0.00108091
0.00100026
0.000889628
0.000770479
3.16339e-05
6.34558e-05
8.89803e-05
8.44024e-05
7.42196e-05
6.06621e-05
4.87001e-05
3.94058e-05
3.23076e-05
2.68374e-05
2.25648e-05
1.91989e-05
1.64907e-05
1.4236e-05
1.2263e-05
1.04009e-05
8.91404e-06
6.49299e-06
0.0010167
0.00149044
0.000486068
0.000472359
0.000497631
0.000532855
0.000579173
0.000641208
0.000708387
0.000763089
0.000788765
0.000774328
0.00072073
0.000649797
0.000633691
0.000883238
0.000420534
0.000153702
4.38305e-05
0.000114643
0.000114052
9.95638e-05
8.33493e-05
7.37504e-05
5.75272e-05
4.40909e-05
3.40028e-05
2.65341e-05
2.09835e-05
1.68421e-05
1.37335e-05
1.14691e-05
1.01159e-05
9.51092e-06
1.77805e-05
1.29623e-05
0.00189544
0.00376863
0.000630249
0.000457327
0.000479719
0.000535712
0.000613239
0.000712825
0.000817286
0.000899722
0.000939892
0.000928748
0.000871087
0.00078525
0.000703067
0.000635245
0.000480088
0.00058136
0.000394717
0.000260048
0.000186691
0.00013901
0.000110491
0.000179152
0.000120658
8.39645e-05
6.05396e-05
4.51513e-05
3.47329e-05
2.74891e-05
2.23626e-05
1.87389e-05
1.41811e-05
1.16268e-05
2.84512e-05
1.90043e-05
0.00313419
0.00794273
0.0010668
0.000482967
0.00048123
0.000560588
0.00068123
0.00084364
0.000995988
0.0010981
0.00113699
0.00111417
0.00104057
0.000932442
0.000806837
0.000686039
0.000570717
0.000567479
0.00109513
0.000583053
0.000339633
0.000221576
0.000156251
0.000123281
0.000249473
0.00018345
0.000144402
0.000118936
0.000100291
8.53631e-05
7.28623e-05
6.14122e-05
4.99456e-05
2.98434e-05
1.88194e-05
3.963e-05
2.57225e-05
0.00487801
0.0141872
0.00223829
0.000648454
0.000545641
0.000641872
0.000838027
0.00110975
0.00129993
0.00139089
0.00140015
0.00134628
0.00124027
0.00109291
0.000919092
0.00073905
0.000574178
0.000454259
0.000393685
0.000311545
0.00023802
0.000180306
0.000137622
0.00010828
9.71077e-05
8.62278e-05
7.76403e-05
7.03426e-05
6.34388e-05
5.65542e-05
4.99006e-05
4.363e-05
3.78649e-05
3.02152e-05
2.26867e-05
3.15557e-05
3.88061e-05
5.73712e-05
8.70234e-05
0.000115721
0.00732635
0.0209811
0.00516744
0.00147726
0.00102159
0.00109938
0.00145759
0.00172557
0.00183424
0.00183417
0.00177068
0.00166124
0.00150465
0.00130166
0.00106509
0.000821473
0.000604309
0.00044105
0.000335155
0.000262904
0.000206127
0.000160002
0.00012478
0.000100215
8.63824e-05
7.95972e-05
7.58423e-05
7.25643e-05
6.8457e-05
6.26876e-05
5.49797e-05
4.6833e-05
3.9245e-05
3.23975e-05
2.71395e-05
2.83181e-05
3.57928e-05
4.71719e-05
0.000128812
0.000124566
0.0100889
0.0249705
0.0105968
0.00492275
0.00353316
0.00322521
0.00314793
0.00296189
0.0027322
0.00250883
0.00230256
0.00209306
0.0018517
0.00156454
0.00124464
0.000926586
0.000651471
0.000449635
0.000320642
0.000240062
0.000184653
0.000143869
0.000115154
9.71535e-05
8.8401e-05
8.58599e-05
8.58743e-05
8.63761e-05
8.62963e-05
8.4467e-05
7.87647e-05
6.96339e-05
6.03735e-05
5.23053e-05
4.7743e-05
4.90072e-05
6.01297e-05
8.64553e-05
0.000176469
0.000185102
0.0106257
0.0264646
0.0153246
0.0113502
0.00903607
0.0071806
0.00569269
0.00461337
0.00387322
0.00337182
0.00300074
0.00266287
0.00229287
0.00187127
0.00142742
0.0010108
0.000667065
0.000430797
0.0002906
0.000209237
0.000161924
0.000132077
0.000113592
0.00010355
9.96749e-05
9.98323e-05
0.000102409
0.00010693
0.000113539
0.000122283
0.000132594
0.000139991
0.00014539
0.000157503
0.000183551
0.000254141
0.000415181
0.000696786
0.00227173
0.00073733
0.00973918
0.0159041
0.0130482
0.00997791
0.00780595
0.0063858
0.00548436
0.00493082
0.00457303
0.00426572
0.00389562
0.00340372
0.0027928
0.00211819
0.00148427
0.000958033
0.000562059
0.000347629
0.000243694
0.000189061
0.000158533
0.000140947
0.00013085
0.000125107
0.000121941
0.000120682
0.000121596
0.000125742
0.000134559
0.000149561
0.000172406
0.000205247
0.000251715
0.000321774
0.000427093
0.000575109
0.000755981
0.000935361
0.00108685
0.000681067
0.0025766
0.00651802
0.00741279
0.00778542
0.00789043
0.00761657
0.00694372
0.00594461
0.00476918
0.00357423
0.00247726
0.00151512
0.00092325
0.00057007
0.000373075
0.000277546
0.000233902
0.000213458
0.000203762
0.000199561
0.000195588
0.000189263
0.000179704
0.000167498
0.000154588
0.000143947
0.000138963
0.000142858
0.000157436
0.000184076
0.000225858
0.000287386
0.00037286
0.000479368
0.000586594
0.000658173
0.000676455
0.000482988
0.00236288
0.00694347
0.00727329
0.00656594
0.00623363
0.00569747
0.0048636
0.00389896
0.00295902
0.00213542
0.00147175
0.000979491
0.000676995
0.000511694
0.000435356
0.000411613
0.000413784
0.000426366
0.000440904
0.000451558
0.000455353
0.000449111
0.00043126
0.00040239
0.000365608
0.000326162
0.000289992
0.000261891
0.000245571
0.000244236
0.000259957
0.000295165
0.000350093
0.000418573
0.00048312
0.000558426
0.00070775
0.000537035
0.00173391
0.00220603
0.00258785
0.00353187
0.00360106
0.00360687
0.00352482
0.00325758
0.00284302
0.00235136
0.00185493
0.00140667
0.00103733
0.000758685
0.000569921
0.000452322
0.000382785
0.000342804
0.00031945
0.000304365
0.000292535
0.000281241
0.000268562
0.000254129
0.000238582
0.000223341
0.000210269
0.00020117
0.00019736
0.000199625
0.000208226
0.000223268
0.000245576
0.000276306
0.000316327
0.000365693
0.000398099
0.000375935
0.000322618
0.000282317
)
;

boundaryField
{
    floor
    {
        Cmu             0.09;
        kappa           0.41;
        E               9.8;
        type            epsilonWallFunction;
        value           nonuniform List<scalar> 
36
(
0.000770479
3.16339e-05
6.34558e-05
8.89803e-05
8.44024e-05
7.42196e-05
6.06621e-05
4.87001e-05
3.94058e-05
3.23076e-05
2.68374e-05
2.25648e-05
1.91989e-05
1.64907e-05
1.4236e-05
1.2263e-05
1.04009e-05
8.91404e-06
6.49299e-06
6.49299e-06
1.29623e-05
1.90043e-05
2.57225e-05
5.73712e-05
8.70234e-05
0.000115721
0.000770479
0.000883238
0.000420534
0.000153702
3.16339e-05
0.000153702
4.38305e-05
0.00058136
0.000394717
0.00109513
)
;
    }
    ceiling
    {
        Cmu             0.09;
        kappa           0.41;
        E               9.8;
        type            epsilonWallFunction;
        value           nonuniform List<scalar> 
43
(
0.00173391
0.00220603
0.00258785
0.00353187
0.00360106
0.00360687
0.00352482
0.00325758
0.00284302
0.00235136
0.00185493
0.00140667
0.00103733
0.000758685
0.000569921
0.000452322
0.000382785
0.000342804
0.00031945
0.000304365
0.000292535
0.000281241
0.000268562
0.000254129
0.000238582
0.000223341
0.000210269
0.00020117
0.00019736
0.000199625
0.000208226
0.000223268
0.000245576
0.000276306
0.000316327
0.000365693
0.000398099
0.000375935
0.000322618
0.000282317
0.00973918
0.0159041
0.00236288
)
;
    }
    sWall
    {
        Cmu             0.09;
        kappa           0.41;
        E               9.8;
        type            epsilonWallFunction;
        value           uniform 0.00173391;
    }
    nWall
    {
        Cmu             0.09;
        kappa           0.41;
        E               9.8;
        type            epsilonWallFunction;
        value           nonuniform List<scalar> 6(0.000115721 0.000124566 0.000185102 0.000482988 0.000537035 0.000282317);
    }
    sideWalls
    {
        type            empty;
    }
    glass1
    {
        Cmu             0.09;
        kappa           0.41;
        E               9.8;
        type            epsilonWallFunction;
        value           nonuniform List<scalar> 9(0.000389683 0.0010167 0.00189544 0.00313419 0.00487801 0.00732635 0.0100889 0.0106257 0.00973918);
    }
    glass2
    {
        Cmu             0.09;
        kappa           0.41;
        E               9.8;
        type            epsilonWallFunction;
        value           nonuniform List<scalar> 2(0.00073733 0.000681067);
    }
    sun
    {
        Cmu             0.09;
        kappa           0.41;
        E               9.8;
        type            epsilonWallFunction;
        value           nonuniform List<scalar> 
14
(
0.000389683
0.000507688
0.000533869
0.000616115
0.000699314
0.00078274
0.000868871
0.000962554
0.00104578
0.00110095
0.00111535
0.00108091
0.00100026
0.000889628
)
;
    }
    Table_master
    {
        Cmu             0.09;
        kappa           0.41;
        E               9.8;
        type            epsilonWallFunction;
        value           nonuniform List<scalar> 9(0.000179152 0.000120658 8.39645e-05 6.05396e-05 4.51513e-05 3.47329e-05 2.74891e-05 2.23626e-05 1.87389e-05);
    }
    Table_slave
    {
        Cmu             0.09;
        kappa           0.41;
        E               9.8;
        type            epsilonWallFunction;
        value           nonuniform List<scalar> 9(0.000249473 0.00018345 0.000144402 0.000118936 0.000100291 8.53631e-05 7.28623e-05 6.14122e-05 4.99456e-05);
    }
    inlet
    {
        type            turbulentMixingLengthDissipationRateInlet;
        mixingLength    0.01;
        phi             phi;
        k               k;
        value           uniform 0.000101881;
    }
    outlet
    {
        type            zeroGradient;
    }
}


// ************************************************************************* //
