/*--------------------------------*- C++ -*----------------------------------*\
  =========                 |
  \\      /  F ield         | OpenFOAM: The Open Source CFD Toolbox
   \\    /   O peration     | Website:  https://openfoam.org
    \\  /    A nd           | Version:  6
     \\/     M anipulation  |
\*---------------------------------------------------------------------------*/
FoamFile
{
    version     2.0;
    format      ascii;
    class       volScalarField;
    location    "1900";
    object      epsilon;
}
// * * * * * * * * * * * * * * * * * * * * * * * * * * * * * * * * * * * * * //

dimensions      [0 2 -3 0 0 0 0];

internalField   nonuniform List<scalar> 
458
(
0.00104317
0.00142434
0.00163776
0.00193918
0.00227018
0.00266393
0.00309532
0.00351081
0.00382225
0.00387383
0.00318572
0.00251814
0.00186284
0.00136494
0.000946239
0.000119413
0.000188106
0.000302152
0.000397781
0.000406479
0.000336434
0.000266779
0.000213726
0.000174383
0.000144786
0.000122165
0.000104526
9.04289e-05
7.88707e-05
6.88509e-05
5.94711e-05
5.06837e-05
3.82473e-05
0.00202854
0.00261937
0.00129666
0.0013172
0.00143348
0.00166703
0.00200415
0.00236089
0.00260773
0.00263582
0.00223559
0.00175368
0.00136817
0.0011145
0.000898872
0.00139076
0.000977116
0.000594143
0.00010726
0.000150307
0.000251511
0.000298371
0.000319558
0.000348065
0.000276037
0.000210425
0.00016165
0.000126194
0.000100447
8.14949e-05
6.7153e-05
5.60395e-05
4.87485e-05
4.53314e-05
6.4219e-05
5.32408e-05
0.00318054
0.0050991
0.00128783
0.00114114
0.001259
0.00152232
0.00189468
0.00225536
0.00250665
0.00256989
0.00227683
0.00180864
0.0014032
0.00110355
0.000880078
0.000830812
0.000749281
0.000789206
0.000164572
0.000253271
0.000304261
0.000330455
0.000355161
0.000757935
0.000499455
0.000333339
0.000228834
0.000162231
0.000118802
8.97721e-05
7.03286e-05
5.89457e-05
4.55794e-05
4.00939e-05
8.86394e-05
6.59988e-05
0.00460235
0.00967701
0.00160101
0.00105843
0.00116806
0.00149576
0.00194821
0.00231908
0.00260059
0.00268971
0.00240347
0.00187635
0.00139401
0.00105609
0.000826981
0.00069719
0.000622686
0.000647413
0.000927065
0.000663854
0.000525527
0.000468334
0.000440968
0.000444466
0.00115117
0.000880757
0.000703301
0.000576097
0.000479395
0.000398624
0.000326908
0.000260902
0.000197947
0.000108869
6.32373e-05
0.00013508
8.27407e-05
0.0064314
0.0170482
0.00266649
0.00109165
0.00114766
0.00168146
0.00226205
0.00263843
0.00295369
0.00302823
0.00265589
0.00197882
0.00136343
0.000963413
0.000738104
0.000617676
0.000561861
0.000592011
0.000714572
0.000667579
0.000624274
0.000594198
0.000552446
0.000495854
0.000474845
0.000434687
0.000401015
0.000367795
0.000331254
0.000289735
0.000244656
0.000198727
0.000154524
0.000107311
7.17814e-05
0.000105221
0.000128508
0.000143052
0.000169291
0.000215661
0.00892415
0.0259606
0.0056798
0.00162516
0.00135346
0.00235626
0.00291183
0.0032505
0.00355351
0.00357315
0.00302886
0.00210787
0.00130639
0.00083384
0.000626017
0.000557904
0.000564218
0.000640654
0.000738261
0.000778293
0.000777519
0.00073289
0.000649039
0.000544391
0.000455192
0.000398972
0.000362438
0.000328646
0.000291423
0.000250524
0.000208261
0.000167793
0.000131893
0.00010033
7.89434e-05
8.67853e-05
0.000114545
0.000134893
0.00024645
0.00024256
0.0118024
0.0316494
0.011391
0.00466817
0.00342232
0.00390498
0.00404194
0.00422194
0.00445943
0.00433252
0.0034865
0.00220494
0.00118755
0.000684972
0.000543529
0.000550007
0.000619454
0.000734606
0.000845411
0.000893966
0.000861052
0.000769983
0.000646758
0.000519858
0.00042037
0.00036192
0.000326935
0.000297064
0.000265869
0.000232896
0.000200809
0.000171473
0.000146009
0.000124368
0.000113325
0.000119982
0.000153422
0.000219654
0.000392187
0.000405755
0.0126131
0.033332
0.0189386
0.0117956
0.0085837
0.00666902
0.00579732
0.00564822
0.00572639
0.00527931
0.00390284
0.0020991
0.000945828
0.000604645
0.000550584
0.000594544
0.000682875
0.000791584
0.000869044
0.000865579
0.00078302
0.000658985
0.00053122
0.00042521
0.000353854
0.000313544
0.000291172
0.00027565
0.000264104
0.000257339
0.000256669
0.000262644
0.000275599
0.000299361
0.00034906
0.000500224
0.000851844
0.00154404
0.00518122
0.00150262
0.0118839
0.0206952
0.0161765
0.0123422
0.00966851
0.0080247
0.00742102
0.00741667
0.0073312
0.00618545
0.00381432
0.00153114
0.00076668
0.000582855
0.000570189
0.000612532
0.000671468
0.000719186
0.000721394
0.00066442
0.000569634
0.000465395
0.000374782
0.000309913
0.000271638
0.000253046
0.00024554
0.000245365
0.000253506
0.000273463
0.000310383
0.000371414
0.000467231
0.000613633
0.000828811
0.0011243
0.00147587
0.00181081
0.00206997
0.00118994
0.00430868
0.00624384
0.00809469
0.00951173
0.010205
0.0100524
0.00890718
0.00542305
0.00218279
0.000963755
0.000623938
0.000537392
0.000526537
0.000537084
0.00054607
0.000537195
0.00049934
0.000436084
0.000363676
0.000297638
0.000246743
0.000212741
0.000193077
0.000184007
0.000182982
0.000189744
0.000205597
0.000232781
0.000274723
0.000336767
0.000426789
0.000554032
0.000722234
0.000912876
0.00106806
0.00110465
0.000985606
0.000571917
0.00562093
0.0317485
0.028052
0.0193273
0.0113834
0.00642445
0.00342639
0.00171063
0.000941393
0.000633211
0.000521301
0.000477359
0.00045412
0.000433125
0.00040562
0.000367885
0.00032179
0.000274897
0.000235524
0.000207892
0.000191748
0.000184676
0.0001842
0.000188775
0.000197988
0.000212333
0.000233061
0.000262335
0.000303585
0.000361905
0.000444242
0.000558321
0.000707258
0.00087771
0.00102686
0.00118781
0.000755864
0.000592634
0.00888535
0.00941455
0.0100204
0.0155283
0.0110749
0.00599039
0.0031224
0.00199197
0.00140636
0.00105817
0.000851562
0.000734636
0.000664704
0.000615646
0.000571278
0.000521999
0.00046373
0.000398127
0.000332091
0.000274438
0.000230891
0.000202278
0.000186234
0.000179653
0.000180052
0.000185945
0.000196725
0.000212421
0.00023355
0.000261079
0.00029644
0.000341627
0.000399341
0.000473024
0.000565928
0.000682724
0.000780324
0.000742057
0.000586021
0.000458659
)
;

boundaryField
{
    floor
    {
        Cmu             0.09;
        kappa           0.41;
        E               9.8;
        type            epsilonWallFunction;
        value           nonuniform List<scalar> 
36
(
0.000946239
0.000119413
0.000188106
0.000302152
0.000397781
0.000406479
0.000336434
0.000266779
0.000213726
0.000174383
0.000144786
0.000122165
0.000104526
9.04289e-05
7.88707e-05
6.88509e-05
5.94711e-05
5.06837e-05
3.82473e-05
3.82473e-05
5.32408e-05
6.59988e-05
8.27407e-05
0.000143052
0.000169291
0.000215661
0.000946239
0.00139076
0.000977116
0.000594143
0.000119413
0.000594143
0.00010726
0.000789206
0.000164572
0.000927065
)
;
    }
    ceiling
    {
        Cmu             0.09;
        kappa           0.41;
        E               9.8;
        type            epsilonWallFunction;
        value           nonuniform List<scalar> 
43
(
0.00888535
0.00941455
0.0100204
0.0155283
0.0110749
0.00599039
0.0031224
0.00199197
0.00140636
0.00105817
0.000851562
0.000734636
0.000664704
0.000615646
0.000571278
0.000521999
0.00046373
0.000398127
0.000332091
0.000274438
0.000230891
0.000202278
0.000186234
0.000179653
0.000180052
0.000185945
0.000196725
0.000212421
0.00023355
0.000261079
0.00029644
0.000341627
0.000399341
0.000473024
0.000565928
0.000682724
0.000780324
0.000742057
0.000586021
0.000458659
0.0118839
0.0206952
0.00562093
)
;
    }
    sWall
    {
        Cmu             0.09;
        kappa           0.41;
        E               9.8;
        type            epsilonWallFunction;
        value           uniform 0.00888535;
    }
    nWall
    {
        Cmu             0.09;
        kappa           0.41;
        E               9.8;
        type            epsilonWallFunction;
        value           nonuniform List<scalar> 6(0.000215661 0.00024256 0.000405755 0.000571917 0.000592634 0.000458659);
    }
    sideWalls
    {
        type            empty;
    }
    glass1
    {
        Cmu             0.09;
        kappa           0.41;
        E               9.8;
        type            epsilonWallFunction;
        value           nonuniform List<scalar> 9(0.00104317 0.00202854 0.00318054 0.00460235 0.0064314 0.00892415 0.0118024 0.0126131 0.0118839);
    }
    glass2
    {
        Cmu             0.09;
        kappa           0.41;
        E               9.8;
        type            epsilonWallFunction;
        value           nonuniform List<scalar> 2(0.00150262 0.00118994);
    }
    sun
    {
        Cmu             0.09;
        kappa           0.41;
        E               9.8;
        type            epsilonWallFunction;
        value           nonuniform List<scalar> 
14
(
0.00104317
0.00142434
0.00163776
0.00193918
0.00227018
0.00266393
0.00309532
0.00351081
0.00382225
0.00387383
0.00318572
0.00251814
0.00186284
0.00136494
)
;
    }
    Table_master
    {
        Cmu             0.09;
        kappa           0.41;
        E               9.8;
        type            epsilonWallFunction;
        value           nonuniform List<scalar> 9(0.000757935 0.000499455 0.000333339 0.000228834 0.000162231 0.000118802 8.97721e-05 7.03286e-05 5.89457e-05);
    }
    Table_slave
    {
        Cmu             0.09;
        kappa           0.41;
        E               9.8;
        type            epsilonWallFunction;
        value           nonuniform List<scalar> 9(0.00115117 0.000880757 0.000703301 0.000576097 0.000479395 0.000398624 0.000326908 0.000260902 0.000197947);
    }
    inlet
    {
        type            turbulentMixingLengthDissipationRateInlet;
        mixingLength    0.01;
        phi             phi;
        k               k;
        value           uniform 0.00129426;
    }
    outlet
    {
        type            zeroGradient;
    }
}


// ************************************************************************* //
