/*--------------------------------*- C++ -*----------------------------------*\
  =========                 |
  \\      /  F ield         | OpenFOAM: The Open Source CFD Toolbox
   \\    /   O peration     | Website:  https://openfoam.org
    \\  /    A nd           | Version:  6
     \\/     M anipulation  |
\*---------------------------------------------------------------------------*/
FoamFile
{
    version     2.0;
    format      ascii;
    class       volScalarField;
    location    "1900";
    object      T;
}
// * * * * * * * * * * * * * * * * * * * * * * * * * * * * * * * * * * * * * //

dimensions      [0 0 0 1 0 0 0];

internalField   nonuniform List<scalar> 
458
(
299.998
299.679
299.654
299.642
299.632
299.623
299.613
299.606
299.613
299.666
299.79
299.852
299.888
299.916
299.952
300.965
300.88
300.816
300.812
300.842
300.872
300.904
300.936
300.968
301
301.033
301.066
301.1
301.135
301.172
301.214
301.266
301.355
300.193
299.702
299.657
299.643
299.63
299.617
299.594
299.562
299.554
299.634
299.808
299.91
299.96
299.974
299.979
300
300.028
300.08
300.994
300.806
300.727
300.74
300.782
300.813
300.845
300.878
300.911
300.946
300.981
301.017
301.055
301.094
301.137
301.188
301.251
301.355
300.412
299.752
299.692
299.687
299.685
299.673
299.631
299.546
299.497
299.602
299.827
299.983
300.061
300.072
300.064
300.065
300.07
300.095
300.909
300.693
300.645
300.697
300.777
300.799
300.829
300.863
300.901
300.941
300.985
301.031
301.079
301.125
301.172
301.218
301.275
301.372
300.646
299.824
299.744
299.761
299.788
299.793
299.721
299.553
299.442
299.567
299.842
300.07
300.189
300.211
300.188
300.163
300.141
300.129
300.158
300.235
300.364
300.53
300.703
300.853
300.968
301.048
301.112
301.168
301.221
301.27
301.317
301.361
301.402
301.364
301.331
301.331
301.398
300.888
299.921
299.805
299.839
299.91
299.955
299.836
299.565
299.394
299.532
299.863
300.175
300.349
300.389
300.352
300.302
300.258
300.235
300.273
300.372
300.534
300.725
300.914
301.079
301.213
301.308
301.381
301.442
301.488
301.522
301.545
301.555
301.551
301.506
301.44
301.398
301.424
301.737
302.003
301.966
301.118
300.048
299.889
299.91
300.009
300.1
299.904
299.553
299.351
299.502
299.907
300.314
300.548
300.605
300.559
300.492
300.442
300.436
300.513
300.662
300.85
301.046
301.225
301.374
301.489
301.571
301.633
301.676
301.706
301.723
301.727
301.716
301.688
301.631
301.552
301.481
301.47
301.634
301.757
301.855
301.336
300.254
300.073
300.07
300.151
300.187
299.898
299.476
299.269
299.487
300.003
300.516
300.801
300.864
300.813
300.748
300.72
300.757
300.882
301.058
301.244
301.418
301.567
301.682
301.765
301.822
301.858
301.88
301.892
301.894
301.883
301.858
301.816
301.753
301.673
301.593
301.555
301.618
301.686
301.754
301.626
300.83
300.606
300.498
300.509
300.278
299.748
299.245
299.119
299.516
300.205
300.825
301.114
301.159
301.12
301.089
301.101
301.178
301.326
301.501
301.654
301.784
301.884
301.956
302.002
302.03
302.044
302.048
302.045
302.034
302.013
301.983
301.94
301.88
301.807
301.738
301.706
301.741
301.802
302.016
302.052
301.662
301.347
301.072
300.808
299.972
299.113
298.707
298.921
299.712
300.638
301.267
301.45
301.484
301.481
301.495
301.545
301.639
301.767
301.898
302.004
302.083
302.138
302.173
302.191
302.197
302.194
302.185
302.17
302.149
302.124
302.097
302.074
302.059
302.062
302.09
302.148
302.214
302.26
302.365
292.731
294.226
294.754
295.43
296.473
297.709
299.022
300.559
301.416
301.714
301.801
301.833
301.86
301.901
301.963
302.043
302.131
302.211
302.271
302.31
302.332
302.34
302.338
302.329
302.315
302.297
302.276
302.254
302.231
302.211
302.197
302.192
302.202
302.235
302.292
302.372
302.473
302.594
293.153
294.751
296.514
298.434
299.642
300.576
301.279
301.754
301.982
302.084
302.135
302.172
302.211
302.254
302.304
302.356
302.405
302.443
302.467
302.477
302.478
302.47
302.458
302.441
302.422
302.401
302.379
302.356
302.333
302.312
302.296
302.285
302.286
302.303
302.34
302.407
302.479
302.562
296.146
296.114
296.108
298.233
299.957
301.182
301.806
302.096
302.259
302.361
302.425
302.468
302.501
302.529
302.555
302.579
302.602
302.622
302.636
302.644
302.644
302.637
302.626
302.61
302.592
302.571
302.548
302.524
302.499
302.474
302.449
302.425
302.403
302.384
302.37
302.366
302.389
302.425
302.463
302.545
)
;

boundaryField
{
    floor
    {
        type            wallHeatTransfer;
        Tinf            uniform 305.2;
        alphaWall       uniform 0.24;
        value           nonuniform List<scalar> 
36
(
300.405
301.579
301.442
301.323
301.286
301.31
301.36
301.417
301.474
301.529
301.582
301.634
301.685
301.735
301.785
301.837
301.894
301.961
302.079
302.079
302.028
302.01
301.999
302.219
302.431
302.374
300.405
300.406
300.471
300.579
301.579
300.579
301.62
300.557
301.486
300.596
)
;
    }
    ceiling
    {
        type            wallHeatTransfer;
        Tinf            uniform 303.2;
        alphaWall       uniform 0.24;
        value           nonuniform List<scalar> 
43
(
296.476
296.44
296.428
298.433
300.101
301.289
301.894
302.175
302.333
302.432
302.495
302.536
302.568
302.595
302.619
302.642
302.665
302.685
302.7
302.71
302.713
302.71
302.701
302.688
302.672
302.653
302.632
302.61
302.586
302.561
302.537
302.513
302.49
302.469
302.453
302.445
302.463
302.497
302.535
302.614
302.102
301.719
293.682
)
;
    }
    sWall
    {
        type            wallHeatTransfer;
        Tinf            uniform 315.2;
        alphaWall       uniform 0.36;
        value           uniform 297.455;
    }
    nWall
    {
        type            wallHeatTransfer;
        Tinf            uniform 307.2;
        alphaWall       uniform 0.36;
        value           nonuniform List<scalar> 6(302.899 302.782 302.59 303.246 303.214 303.241);
    }
    sideWalls
    {
        type            empty;
    }
    glass1
    {
        type            wallHeatTransfer;
        Tinf            uniform 315.2;
        alphaWall       uniform 4.3;
        value           nonuniform List<scalar> 9(309.549 308.935 308.553 308.269 308.036 307.814 307.646 307.74 308.033);
    }
    glass2
    {
        type            wallHeatTransfer;
        Tinf            uniform 307.2;
        alphaWall       uniform 4.3;
        value           nonuniform List<scalar> 2(305.13 305.347);
    }
    sun
    {
        type            wallHeatTransfer;
        Tinf            uniform 305.2;
        alphaWall       uniform 0.24;
        value           nonuniform List<scalar> 
14
(
300.436
300.107
300.068
300.039
300.014
299.989
299.965
299.946
299.945
299.994
300.128
300.209
300.272
300.33
)
;
    }
    Table_master
    {
        type            zeroGradient;
    }
    Table_slave
    {
        type            zeroGradient;
    }
    inlet
    {
        type            fixedValue;
        value           uniform 290.15;
    }
    outlet
    {
        type            zeroGradient;
    }
}


// ************************************************************************* //
