/*--------------------------------*- C++ -*----------------------------------*\
  =========                 |
  \\      /  F ield         | OpenFOAM: The Open Source CFD Toolbox
   \\    /   O peration     | Website:  https://openfoam.org
    \\  /    A nd           | Version:  6
     \\/     M anipulation  |
\*---------------------------------------------------------------------------*/
FoamFile
{
    version     2.0;
    format      ascii;
    class       surfaceScalarField;
    location    "300";
    object      phi;
}
// * * * * * * * * * * * * * * * * * * * * * * * * * * * * * * * * * * * * * //

dimensions      [1 0 -1 0 0 0 0];

internalField   nonuniform List<scalar> 
850
(
-0.00240847
0.00246878
-0.0026471
0.000238687
-0.00301928
0.000372229
-0.00342889
0.000409675
-0.00381144
0.000382602
-0.00413788
0.000326503
-0.00438765
0.000249824
-0.00454096
0.000153366
-0.00457651
3.56042e-05
-0.00446881
-0.00010764
-0.00419105
-0.000277707
-0.00372156
-0.000469433
-0.00301909
-0.000702416
-0.00191595
-0.00110308
-0.00191443
-0.000458187
0.000461509
-0.00034644
-0.000111702
-0.000142538
-0.000203852
-0.000105085
-3.73965e-05
-0.000224707
0.000119682
-0.00042845
0.000203803
-0.000522237
9.3848e-05
-0.000497723
-2.44523e-05
-0.000402871
-9.47915e-05
-0.000281462
-0.000121346
-0.000125022
-0.000156378
0.000115601
-0.000240561
0.000339839
-0.000224177
0.000473682
-0.000133784
0.000512882
-3.91405e-05
0.000608284
-9.53435e-05
0.00064169
-3.3344e-05
0.000645802
-0.00179144
0.00441799
-0.00239877
0.000846078
-0.00294454
0.000918055
-0.00341231
0.000877501
-0.00382541
0.000795761
-0.00417725
0.000678402
-0.00445487
0.000527498
-0.00464262
0.000341171
-0.00472389
0.000116935
-0.00468498
-0.0001465
-0.00451463
-0.000447997
-0.00419793
-0.000786075
-0.00372614
-0.00117415
-0.00320888
-0.00162029
-0.0032194
-0.00190386
-0.00151495
-0.00170163
0.000260025
-0.00177203
0.00026944
0.000555559
-8.58381e-05
0.000341514
0.000102389
0.000196313
-5.86017e-05
0.000402257
-0.000243289
0.000514868
7.12388e-06
0.00035103
0.000367696
0.000242891
0.000202042
0.000164354
5.41414e-05
0.000105473
-3.58528e-05
7.96257e-05
-9.54394e-05
8.82472e-05
-0.000164939
0.00014244
-0.000294693
0.000236254
-0.00031793
0.000100915
1.61255e-06
7.96093e-05
-1.77792e-05
0.000286227
-0.000301898
0.000295958
-4.30113e-05
0.000951503
-0.00135222
0.00600606
-0.00209919
0.00159311
-0.00268916
0.00150808
-0.00315589
0.00134429
-0.003564
0.00120393
-0.00391597
0.00103043
-0.00420318
0.000814762
-0.00441313
0.000551185
-0.00453211
0.000235966
-0.00454919
-0.00012936
-0.00445822
-0.00053891
-0.00426374
-0.000980504
-0.00400185
-0.00143598
-0.00376614
-0.00185594
-0.00355587
-0.00211408
-0.00305027
-0.00220718
-0.00253842
-0.00228382
-0.00226185
-0.000953539
0.000876634
-0.00101062
0.000159519
-0.00089531
-0.000173853
-0.000653417
-0.000485128
0.00016907
-0.000815309
0.000536975
0.000739225
0.000793576
0.000757932
0.000662703
0.000497974
0.000203491
-0.000114221
-0.000112397
0.000173845
-0.000303961
-0.000357986
0.000230001
-0.00086771
0.000466779
9.8571e-05
-0.00103088
0.0073367
-0.00180591
0.0023682
-0.00231436
0.00201658
-0.00272061
0.0017506
-0.00308127
0.00156464
-0.00339829
0.00134752
-0.00366661
0.00108313
-0.00387663
0.000761262
-0.00401467
0.000374071
-0.00406668
-7.73007e-05
-0.0040303
-0.000575232
-0.00392989
-0.00108086
-0.00381535
-0.00155046
-0.00374145
-0.00192978
-0.00369348
-0.00216199
-0.0036437
-0.0022569
-0.00371868
-0.00220878
-0.00426611
-0.00171436
-0.00343847
-0.000819309
-0.00241304
-0.000148743
-0.00211595
-0.000137511
-0.00195157
-0.000338178
-0.00190254
-0.000534103
-0.00213099
-0.00058681
-0.00172413
-0.000406956
-0.00136355
-0.000360678
-0.000983929
-0.000379721
-0.000552442
-0.000431586
-4.59085e-05
-0.000506632
0.000523126
-0.000569133
0.00111201
-0.000588987
0.00167691
-0.000564997
0.0021303
-0.000453485
0.00202462
-0.000198227
0.00189664
0.000358035
0.00150874
0.000854739
0.00161938
-0.000774873
0.0084652
-0.00152801
0.00312139
-0.00185597
0.0023446
-0.00215917
0.00205386
-0.00243205
0.00183757
-0.00266956
0.00158508
-0.00287193
0.00128555
-0.00303556
0.000924954
-0.00314962
0.00048819
-0.00319528
-3.15894e-05
-0.00316742
-0.000603034
-0.00310321
-0.00114501
-0.0030492
-0.00160442
-0.00303474
-0.00194419
-0.00305289
-0.00214379
-0.00310507
-0.00220467
-0.00322724
-0.00208656
-0.00327158
-0.00166997
-0.0029952
-0.00109563
-0.0024836
-0.000660296
-0.00209495
-0.000526102
-0.00186858
-0.000564492
-0.0017666
-0.000636029
-0.00170657
-0.000646792
-0.00150897
-0.000604496
-0.00126294
-0.000606652
-0.000985203
-0.000657407
-0.000671196
-0.000745539
-0.000317503
-0.000860272
8.66453e-05
-0.000973228
0.000538984
-0.00104127
0.00100953
-0.00103549
0.00146092
-0.000904822
0.00182982
-0.000567075
0.00214795
3.996e-05
0.00234388
0.000658868
0.00309413
0.000869192
0.00265783
0.000447809
0.00195567
0.000714186
0.00201135
-0.000684534
0.00955004
-0.00136242
0.00379934
-0.00134962
0.00233185
-0.00150607
0.00221037
-0.00167199
0.00200355
-0.00179592
0.00170907
-0.00188499
0.00137468
-0.0019484
0.000988421
-0.0019863
0.000526145
-0.00197917
-3.86689e-05
-0.00192437
-0.000657773
-0.00187048
-0.00119885
-0.00185377
-0.00162108
-0.00188672
-0.00191118
-0.00196226
-0.00206819
-0.00207341
-0.00209347
-0.00219642
-0.0019635
-0.00221318
-0.00165315
-0.00205767
-0.00125109
-0.00179384
-0.000924071
-0.00156653
-0.000753357
-0.00143013
-0.000700841
-0.00136847
-0.000697633
-0.00132122
-0.000693983
-0.00123453
-0.00069114
-0.00111628
-0.000724844
-0.000974933
-0.0007987
-0.000813944
-0.000906474
-0.000634711
-0.00103945
-0.000429855
-0.00117803
-0.00017965
-0.00129142
0.000127209
-0.00134229
0.000491286
-0.00126884
0.000932751
-0.00100849
0.00149459
-0.000521826
0.0020581
9.54175e-05
0.00246427
0.000463072
0.00232284
0.000589295
0.00156871
0.00146838
0.00362564
-0.000952041
0.0109436
-0.00114914
0.00399649
-0.000625807
0.00180857
-0.000647587
0.00223221
-0.000758223
0.00211424
-0.000782786
0.00173369
-0.000736752
0.0013287
-0.00065318
0.000904905
-0.000544275
0.000417296
-0.000426491
-0.000156398
-0.000332059
-0.000752149
-0.000297163
-0.00123369
-0.000333531
-0.00158466
-0.00043427
-0.00181039
-0.00058306
-0.00191935
-0.000759168
-0.00191731
-0.000922368
-0.00180025
-0.0010054
-0.00157007
-0.000979372
-0.00127707
-0.000891556
-0.00101184
-0.000815208
-0.000829652
-0.000788218
-0.000727779
-0.00080633
-0.000679469
-0.000840546
-0.000659714
-0.000868047
-0.000663586
-0.000889918
-0.000702919
-0.000912152
-0.000776414
-0.000941261
-0.000877312
-0.000978167
-0.00100249
-0.00101301
-0.00114313
-0.00102567
-0.00127871
-0.000993061
-0.00137485
-0.000881405
-0.00138045
-0.000646209
-0.00124363
-0.000228519
-0.000939461
0.000385384
-0.000518431
0.00107378
-0.000225269
0.00163003
3.30981e-05
0.00148733
0.00161113
0.00516159
0.00171398
0.00972071
0.00207382
0.00363671
0.00168049
0.00220195
0.00127252
0.00264025
0.000956497
0.00243031
0.00084768
0.00184256
0.000921231
0.00125521
0.0010877
0.000738492
0.0013156
0.000189455
0.00152725
-0.000367997
0.00160388
-0.000828726
0.00155897
-0.00118872
0.0014215
-0.00144714
0.00121853
-0.00160737
0.000973566
-0.00167434
0.00071016
-0.00165385
0.000461848
-0.00155189
0.000271051
-0.00137923
0.000158723
-0.00116469
0.000100534
-0.000953598
5.17372e-05
-0.000780806
-1.89924e-05
-0.000657
-0.000118504
-0.000579907
-0.000237425
-0.000540742
-0.000368889
-0.000532071
-0.000519107
-0.000552649
-0.000700165
-0.000595303
-0.000927418
-0.000650007
-0.00120859
-0.00072127
-0.00153896
-0.000812709
-0.00190006
-0.000917551
-0.00226041
-0.00101446
-0.00257459
-0.00106621
-0.00278954
-0.00102863
-0.00286505
-0.000863898
-0.00281646
-0.00056697
-0.00283715
-0.000204519
-0.00299707
0.000193065
-0.0024792
0.00109332
0.00294204
0.0102558
0.0138831
0.0106161
0.005469
0.00854817
0.00470821
0.00696712
0.00401141
0.00587873
0.00293101
0.00520543
0.00192857
0.00481993
0.00112404
0.00453672
0.000472717
0.00424333
-7.45537e-05
0.00393749
-0.000522832
0.00361132
-0.000862493
0.00326204
-0.0010978
0.00289424
-0.00123952
0.00251816
-0.00129821
0.00214826
-0.0012839
0.00180366
-0.00120724
0.00150617
-0.00108169
0.00126866
-0.000927133
0.00108357
-0.000768456
0.000929012
-0.000626206
0.000782987
-0.000510927
0.000629735
-0.000426607
0.000461761
-0.000372721
0.000274403
-0.000344663
5.42981e-05
-0.000332495
-0.000218851
-0.000322103
-0.000568953
-0.000299853
-0.00102455
-0.000265621
-0.00160818
-0.000229022
-0.00232846
-0.000197224
-0.00317489
-0.000167978
-0.0041142
-0.000126841
-0.00508812
-5.46585e-05
-0.00602841
7.64449e-05
-0.00691015
0.000314819
-0.00781525
0.000700637
-0.00866699
0.00104485
-0.00725686
-0.000316756
-0.00403786
0.00638482
0.00561946
0.00569895
0.00539411
0.0058828
0.0038276
0.006029
0.00278485
0.00605105
0.00190656
0.00601831
0.00115683
0.0059266
0.000564477
0.00573802
0.000114076
0.00544557
-0.000230336
0.00507168
-0.000488553
0.00464425
-0.000670328
0.00418802
-0.000783243
0.00372508
-0.000835217
0.00327559
-0.000834369
0.00285772
-0.000789327
0.00248638
-0.000710308
0.00216953
-0.000610233
0.00190488
-0.000503764
0.00168229
-0.000403575
0.00148906
-0.000317652
0.0013125
-0.000250003
0.0011413
-0.000201473
0.000966237
-0.00016955
0.000779446
-0.000145656
0.000571931
-0.000114539
0.000343387
-7.12595e-05
9.57433e-05
-1.79271e-05
-0.000164186
3.09585e-05
-0.000430704
6.93452e-05
-0.000701977
0.000103346
-0.000977784
0.000149018
-0.00126933
0.000236941
-0.00158068
0.000387847
-0.00183092
0.000565113
-0.00170234
0.000572109
-0.0005633
-9.41415e-05
0.000599767
-0.00147977
-0.00337748
0.000202794
0.00542873
0.00230491
0.00329202
0.00358183
0.00255072
0.00452937
0.00183735
0.00521845
0.00121752
0.00563561
0.000739716
0.00581819
0.000381933
0.00581702
0.00011529
0.00566255
-7.58182e-05
0.00538546
-0.000211416
0.00502109
-0.000305919
0.00460263
-0.000364743
0.0041602
-0.000392743
0.00372039
-0.000394516
0.00330563
-0.000374519
0.00293288
-0.000337513
0.00261164
-0.000288949
0.00234262
-0.0002347
0.00211914
-0.000180057
0.00193055
-0.000129011
0.00176493
-8.43399e-05
0.0016111
-4.76045e-05
0.00146027
-1.86732e-05
0.00130967
4.99394e-06
0.00116847
2.67024e-05
0.00104995
4.73099e-05
0.000963536
6.85335e-05
0.000903963
9.05805e-05
0.00086297
0.000110387
0.00083516
0.000131207
0.000821402
0.000162828
0.00083905
0.000219344
0.000928104
0.000298845
0.00115177
0.000341494
0.00153052
0.000193414
0.00168925
-0.000252819
0.00111324
-0.000903712
-0.0021945
-0.00834498
-0.0103057
-0.00486867
-0.00157535
0.00097351
0.00280717
0.00402004
0.00475444
0.00513055
0.00523961
0.0051572
0.00493882
0.00462559
0.00425315
0.00385233
0.00344933
0.0030659
0.00271903
0.00242028
0.00217537
0.00198473
0.00184486
0.00174951
0.00169088
0.00166135
0.00165583
0.00167257
0.00171061
0.00177065
0.00185356
0.00195704
0.00208204
0.00223931
0.00245366
0.00274799
0.00308528
0.00327455
0.00301748
0.00210942
)
;

boundaryField
{
    floor
    {
        type            calculated;
        value           nonuniform List<scalar> 
36
(
0
0
0
0
0
0
0
0
0
0
0
0
0
0
0
0
0
0
0
-4.04969e-06
-9.67967e-06
-1.47142e-05
-1.20123e-05
-1.1459e-05
-1.19666e-05
-1.27633e-05
-1.46207e-06
-2.76246e-06
-2.89147e-06
-3.71351e-06
-3.28177e-06
-5.64669e-06
-8.16649e-06
-7.07551e-06
-8.8805e-06
-8.28004e-06
)
;
    }
    ceiling
    {
        type            calculated;
        value           nonuniform List<scalar> 
43
(
-8.33826e-06
-8.52638e-06
-8.28401e-06
-1.26593e-06
1.89258e-06
3.72796e-06
4.68254e-06
5.35154e-06
5.86145e-06
6.27211e-06
6.63771e-06
6.99594e-06
7.35807e-06
7.7313e-06
8.12079e-06
8.52942e-06
8.95673e-06
9.39712e-06
9.83763e-06
1.02563e-05
1.06228e-05
1.09015e-05
1.10577e-05
1.10636e-05
1.09013e-05
1.05563e-05
1.00104e-05
9.31736e-06
8.53447e-06
7.72379e-06
6.95234e-06
6.24971e-06
5.6126e-06
5.03814e-06
4.56046e-06
4.25407e-06
4.19334e-06
4.30551e-06
4.40088e-06
5.27733e-06
1.31404e-05
9.47961e-06
-1.20448e-05
)
;
    }
    sWall
    {
        type            calculated;
        value           uniform -0.000213594;
    }
    nWall
    {
        type            calculated;
        value           nonuniform List<scalar> 6(-4.28577e-05 -4.55347e-05 -4.85572e-05 -6.05615e-05 -6.9687e-05 -9.03106e-05);
    }
    sideWalls
    {
        type            empty;
        value           nonuniform 0();
    }
    glass1
    {
        type            calculated;
        value           nonuniform List<scalar> 9(-6.02481e-05 -0.000157729 -0.000235798 -0.00029971 -0.00035358 -0.000400256 -0.000441469 -0.000491044 -0.000548186);
    }
    glass2
    {
        type            calculated;
        value           nonuniform List<scalar> 2(-0.000259602 -0.000276905);
    }
    sun
    {
        type            calculated;
        value           uniform 0;
    }
    Table_master
    {
        type            calculated;
        value           nonuniform List<scalar> 9(-1.53562e-07 -1.53606e-07 -1.53638e-07 -1.53674e-07 -1.53723e-07 -1.53791e-07 -1.53883e-07 -1.53917e-07 -1.53794e-07);
    }
    Table_slave
    {
        type            calculated;
        value           nonuniform List<scalar> 9(1.52646e-07 1.52787e-07 1.529e-07 1.53016e-07 1.53147e-07 1.5313e-07 1.52943e-07 1.52754e-07 1.52602e-07);
    }
    inlet
    {
        type            calculated;
        value           uniform -0.00653527;
    }
    outlet
    {
        type            calculated;
        value           nonuniform List<scalar> 2(0.00856694 0.00196927);
    }
}


// ************************************************************************* //
