/*--------------------------------*- C++ -*----------------------------------*\
  =========                 |
  \\      /  F ield         | OpenFOAM: The Open Source CFD Toolbox
   \\    /   O peration     | Website:  https://openfoam.org
    \\  /    A nd           | Version:  6
     \\/     M anipulation  |
\*---------------------------------------------------------------------------*/
FoamFile
{
    version     2.0;
    format      ascii;
    class       volScalarField;
    location    "100";
    object      T;
}
// * * * * * * * * * * * * * * * * * * * * * * * * * * * * * * * * * * * * * //

dimensions      [0 0 0 1 0 0 0];

internalField   nonuniform List<scalar> 
458
(
302.879
302.629
302.609
302.599
302.59
302.582
302.574
302.565
302.56
302.57
302.613
302.691
302.733
302.762
302.793
303.795
303.711
303.644
303.628
303.659
303.693
303.73
303.767
303.804
303.841
303.878
303.915
303.953
303.99
304.03
304.073
304.126
304.207
303.032
302.657
302.624
302.615
302.605
302.594
302.578
302.55
302.521
302.522
302.584
302.684
302.749
302.783
302.804
302.823
302.848
302.884
303.822
303.676
303.551
303.552
303.591
303.627
303.668
303.711
303.755
303.8
303.845
303.891
303.936
303.981
304.027
304.077
304.136
304.219
303.204
302.703
302.661
302.661
302.663
302.657
302.635
302.574
302.498
302.476
302.558
302.686
302.784
302.838
302.857
302.872
302.884
302.899
303.774
303.507
303.448
303.491
303.566
303.596
303.638
303.686
303.738
303.795
303.854
303.913
303.972
304.027
304.077
304.122
304.17
304.241
303.388
302.766
302.707
302.724
302.753
302.769
302.742
302.63
302.485
302.433
302.531
302.696
302.839
302.923
302.949
302.956
302.952
302.942
302.969
303.056
303.164
303.313
303.475
303.619
303.735
303.823
303.896
303.966
304.033
304.097
304.161
304.224
304.286
304.267
304.241
304.233
304.267
303.578
302.847
302.76
302.786
302.844
302.899
302.864
302.685
302.471
302.397
302.507
302.722
302.925
303.051
303.094
303.097
303.082
303.071
303.11
303.2
303.338
303.506
303.681
303.839
303.975
304.081
304.171
304.244
304.304
304.353
304.392
304.422
304.439
304.412
304.356
304.309
304.302
304.388
305.194
305.689
303.758
302.954
302.838
302.855
302.923
303
302.927
302.694
302.443
302.352
302.495
302.78
303.058
303.238
303.31
303.315
303.299
303.301
303.369
303.496
303.653
303.825
303.991
304.136
304.257
304.356
304.429
304.485
304.528
304.56
304.581
304.589
304.581
304.54
304.473
304.407
304.373
304.42
304.661
304.78
303.933
303.124
303.003
303.008
303.058
303.093
302.934
302.624
302.342
302.28
302.507
302.896
303.267
303.503
303.605
303.612
303.603
303.63
303.728
303.878
304.039
304.199
304.343
304.462
304.558
304.626
304.672
304.706
304.73
304.744
304.748
304.741
304.718
304.67
304.605
304.537
304.489
304.505
304.595
304.712
304.165
303.568
303.425
303.364
303.355
303.192
302.825
302.396
302.125
302.183
302.585
303.127
303.591
303.859
303.958
303.964
303.974
304.029
304.148
304.301
304.457
304.59
304.698
304.78
304.833
304.867
304.889
304.903
304.91
304.91
304.902
304.885
304.859
304.821
304.766
304.706
304.666
304.68
304.725
304.835
304.503
304.21
304.006
303.821
303.534
302.914
302.242
301.798
301.751
302.137
302.865
303.577
304.073
304.267
304.326
304.35
304.39
304.467
304.582
304.712
304.833
304.93
304.999
305.044
305.069
305.082
305.087
305.087
305.082
305.072
305.058
305.042
305.024
305.006
304.991
304.986
305.003
305.039
305.074
305.167
297.21
297.857
298.221
298.752
299.488
300.411
301.438
302.539
303.768
304.315
304.562
304.656
304.704
304.747
304.805
304.884
304.979
305.075
305.156
305.216
305.255
305.275
305.283
305.284
305.278
305.269
305.257
305.24
305.22
305.198
305.173
305.148
305.127
305.118
305.13
305.171
305.257
305.64
298.049
299.212
300.433
301.578
302.414
303.089
303.707
304.239
304.631
304.853
304.967
305.032
305.081
305.131
305.188
305.253
305.32
305.38
305.428
305.459
305.476
305.482
305.481
305.474
305.463
305.449
305.431
305.409
305.383
305.354
305.323
305.29
305.26
305.238
305.231
305.269
305.395
305.615
300.895
300.862
300.85
302.176
303.156
303.911
304.405
304.729
304.964
305.139
305.265
305.351
305.41
305.456
305.496
305.534
305.572
305.608
305.639
305.664
305.681
305.689
305.69
305.685
305.677
305.665
305.65
305.633
305.614
305.591
305.566
305.538
305.509
305.478
305.449
305.425
305.422
305.509
305.733
306.024
)
;

boundaryField
{
    floor
    {
        type            wallHeatTransfer;
        Tinf            uniform 305.2;
        alphaWall       uniform 0.24;
        value           nonuniform List<scalar> 
36
(
302.999
303.994
303.898
303.818
303.791
303.817
303.857
303.901
303.945
303.988
304.029
304.069
304.109
304.147
304.185
304.224
304.267
304.318
304.396
304.396
304.4
304.416
304.434
304.528
305.196
305.618
302.999
302.996
303.038
303.101
303.994
303.101
304.02
303.089
303.969
303.14
)
;
    }
    ceiling
    {
        type            wallHeatTransfer;
        Tinf            uniform 303.2;
        alphaWall       uniform 0.24;
        value           nonuniform List<scalar> 
43
(
300.998
300.963
300.948
302.215
303.158
303.879
304.345
304.646
304.86
305.016
305.125
305.197
305.247
305.287
305.323
305.357
305.391
305.422
305.449
305.468
305.479
305.482
305.479
305.471
305.459
305.445
305.429
305.409
305.388
305.363
305.335
305.305
305.273
305.242
305.213
305.191
305.187
305.264
305.467
305.726
304.443
304.169
298.281
)
;
    }
    sWall
    {
        type            wallHeatTransfer;
        Tinf            uniform 315.2;
        alphaWall       uniform 0.36;
        value           uniform 301.828;
    }
    nWall
    {
        type            wallHeatTransfer;
        Tinf            uniform 307.2;
        alphaWall       uniform 0.36;
        value           nonuniform List<scalar> 6(306.002 305.258 305.166 305.861 305.823 306.201);
    }
    sideWalls
    {
        type            empty;
    }
    glass1
    {
        type            wallHeatTransfer;
        Tinf            uniform 315.2;
        alphaWall       uniform 4.3;
        value           nonuniform List<scalar> 9(310.729 310.27 309.978 309.755 309.562 309.371 309.234 309.309 309.543);
    }
    glass2
    {
        type            wallHeatTransfer;
        Tinf            uniform 307.2;
        alphaWall       uniform 4.3;
        value           nonuniform List<scalar> 2(306.462 306.545);
    }
    sun
    {
        type            wallHeatTransfer;
        Tinf            uniform 305.2;
        alphaWall       uniform 0.24;
        value           nonuniform List<scalar> 
14
(
303.082
302.836
302.809
302.791
302.776
302.761
302.746
302.732
302.722
302.729
302.771
302.853
302.905
302.95
)
;
    }
    Table_master
    {
        type            zeroGradient;
    }
    Table_slave
    {
        type            zeroGradient;
    }
    inlet
    {
        type            fixedValue;
        value           uniform 296.15;
    }
    outlet
    {
        type            zeroGradient;
    }
}


// ************************************************************************* //
