/*--------------------------------*- C++ -*----------------------------------*\
  =========                 |
  \\      /  F ield         | OpenFOAM: The Open Source CFD Toolbox
   \\    /   O peration     | Website:  https://openfoam.org
    \\  /    A nd           | Version:  6
     \\/     M anipulation  |
\*---------------------------------------------------------------------------*/
FoamFile
{
    version     2.0;
    format      ascii;
    class       volScalarField;
    location    "2700";
    object      k;
}
// * * * * * * * * * * * * * * * * * * * * * * * * * * * * * * * * * * * * * //

dimensions      [0 2 -2 0 0 0 0];

internalField   nonuniform List<scalar> 
458
(
0.00280412
0.00337268
0.00358443
0.00396501
0.00434539
0.00474345
0.00518511
0.00558205
0.00587531
0.00598442
0.00582313
0.0051119
0.0040527
0.00298089
0.00218168
0.000617046
0.000859536
0.0011452
0.00128148
0.00126126
0.00112119
0.000972253
0.000846276
0.000742974
0.000657826
0.000587058
0.000528041
0.000477745
0.000433529
0.00039294
0.000353156
0.000320797
0.000264121
0.00485659
0.00882974
0.00528016
0.00562061
0.00615018
0.00682416
0.00761179
0.00849011
0.0092544
0.00967506
0.00960577
0.00890812
0.00757989
0.00615159
0.00432535
0.00332099
0.00250973
0.00176166
0.000585376
0.00127875
0.00180923
0.00209002
0.0021368
0.00184044
0.00151308
0.00124979
0.00104737
0.000890182
0.000766405
0.000665453
0.000580255
0.00050685
0.000453674
0.000422121
0.000640687
0.000395909
0.00696032
0.0153311
0.0060945
0.00592825
0.00629046
0.0068946
0.0076991
0.008614
0.00940626
0.00992695
0.0100617
0.00963061
0.00857697
0.00730787
0.00584522
0.00460398
0.00372425
0.00223473
0.00121128
0.00176611
0.00218272
0.00245263
0.00247898
0.00193943
0.00148232
0.00114989
0.000912806
0.000742354
0.000617789
0.000526004
0.000458463
0.000411523
0.000386515
0.000393625
0.000912298
0.000512003
0.00929956
0.0242411
0.00713107
0.00582847
0.00597649
0.00654742
0.00749092
0.00846901
0.00926053
0.00986494
0.0101396
0.00978348
0.00878018
0.00751854
0.00626314
0.00512803
0.00420774
0.00314903
0.00268815
0.00274609
0.00291406
0.00311226
0.00318684
0.00304771
0.00240032
0.00200067
0.00174848
0.00157218
0.00143009
0.00129814
0.00117777
0.00105642
0.00092289
0.000690384
0.000549094
0.00119584
0.000648904
0.0120125
0.0363247
0.00974171
0.00584955
0.00568293
0.00638255
0.00783817
0.00888449
0.00964321
0.0102835
0.0105522
0.0100845
0.0088852
0.00741328
0.00612476
0.00514289
0.00440923
0.00392274
0.00415999
0.00419355
0.00422643
0.00420069
0.00401321
0.00365702
0.00322523
0.00293148
0.00275798
0.00262099
0.00247115
0.00228004
0.00202983
0.00174369
0.00143989
0.00110841
0.000839104
0.00101672
0.00106359
0.000990919
0.00113903
0.00111486
0.0153061
0.0495345
0.0165167
0.00713461
0.0060623
0.00703237
0.00915565
0.0100061
0.0106312
0.0111911
0.0113588
0.0106795
0.00911185
0.00725757
0.0057772
0.00489835
0.0045337
0.00457758
0.00497101
0.00525694
0.00527603
0.00501864
0.00455255
0.00399148
0.00351846
0.00326896
0.00314896
0.00305112
0.00292646
0.00274953
0.00248873
0.0021703
0.00182872
0.00148211
0.00119745
0.00108165
0.00106734
0.00139738
0.00319172
0.00179543
0.0188925
0.0581125
0.0286159
0.0138213
0.0103999
0.0111444
0.0116782
0.0118599
0.0121682
0.0125584
0.0125281
0.0114993
0.00942036
0.0071047
0.00546932
0.00477894
0.00479319
0.0051918
0.00568603
0.00588603
0.00567787
0.00517201
0.00452506
0.00389813
0.00345836
0.00327386
0.00321738
0.0031925
0.00316087
0.00310272
0.00299124
0.00276423
0.00247778
0.00216899
0.00192283
0.00178824
0.00178702
0.00214938
0.00481337
0.00281214
0.0198369
0.0586823
0.0396837
0.0277404
0.021299
0.0176638
0.0153647
0.0143486
0.0141939
0.0143275
0.0139434
0.012337
0.00950991
0.00671112
0.00524297
0.0049031
0.00509197
0.00548404
0.00577454
0.00569675
0.00524337
0.00459905
0.00395268
0.00344752
0.00315891
0.00306468
0.00307951
0.00314951
0.00325853
0.00340634
0.00359454
0.0038017
0.00391931
0.00398558
0.00420985
0.0048571
0.00617451
0.00788481
0.0171466
0.00464062
0.0190631
0.0276945
0.0257929
0.0228179
0.0198723
0.0176704
0.0165108
0.0162077
0.0163157
0.0162865
0.0152419
0.0125638
0.00847746
0.00600301
0.00508624
0.00491243
0.00501679
0.00514233
0.0050842
0.00475506
0.00422555
0.00364349
0.00315579
0.00284118
0.00270119
0.00268775
0.00275132
0.00286813
0.00303378
0.00325192
0.0035274
0.0038618
0.00426003
0.00475125
0.00540222
0.00619304
0.00697853
0.00755696
0.00790683
0.00435026
0.00828685
0.012613
0.0158059
0.0179904
0.019234
0.0193974
0.0188331
0.0175375
0.0144062
0.00987246
0.00671028
0.00528102
0.00474246
0.00457074
0.00450768
0.00440621
0.00417317
0.00379822
0.00335763
0.00294334
0.00263777
0.00246513
0.00239825
0.00240132
0.0024507
0.00253717
0.00266149
0.00283177
0.00306351
0.0033815
0.00380323
0.00432465
0.00493991
0.00558384
0.00611265
0.00634998
0.00607403
0.00314041
0.00920109
0.0245196
0.0276757
0.0272492
0.0235798
0.0184776
0.013928
0.010137
0.00736448
0.00568618
0.00484846
0.00442943
0.00423558
0.0041273
0.00401734
0.00385027
0.00360684
0.00331176
0.00301312
0.00274995
0.00254906
0.00241961
0.00235006
0.00233074
0.0023588
0.0024359
0.00256572
0.00275268
0.00300082
0.00333443
0.00376258
0.00429106
0.00490615
0.00555096
0.0062177
0.00751557
0.00429776
0.00342091
0.01018
0.0106424
0.0110922
0.0139669
0.0113721
0.00789442
0.00547181
0.00438118
0.00356037
0.00299368
0.0025514
0.00224134
0.00203972
0.0019085
0.00181207
0.00172345
0.00162548
0.00151315
0.00139557
0.00129153
0.00121792
0.0011823
0.00117872
0.00119771
0.00123546
0.00129016
0.0013617
0.00145136
0.00156196
0.00169884
0.00187193
0.00207881
0.00232476
0.00261421
0.00295167
0.00333569
0.00374882
0.00312158
0.00262461
0.00309811
)
;

boundaryField
{
    floor
    {
        type            kqRWallFunction;
        value           nonuniform List<scalar> 
36
(
0.00218168
0.000617046
0.000859536
0.0011452
0.00128148
0.00126126
0.00112119
0.000972253
0.000846276
0.000742974
0.000657826
0.000587058
0.000528041
0.000477745
0.000433529
0.00039294
0.000353156
0.000320797
0.000264121
0.000264121
0.000395909
0.000512003
0.000648904
0.000990919
0.00113903
0.00111486
0.00218168
0.00332099
0.00250973
0.00176166
0.000617046
0.00176166
0.000585376
0.00223473
0.00121128
0.00268815
)
;
    }
    ceiling
    {
        type            kqRWallFunction;
        value           nonuniform List<scalar> 
43
(
0.01018
0.0106424
0.0110922
0.0139669
0.0113721
0.00789442
0.00547181
0.00438118
0.00356037
0.00299368
0.0025514
0.00224134
0.00203972
0.0019085
0.00181207
0.00172345
0.00162548
0.00151315
0.00139557
0.00129153
0.00121792
0.0011823
0.00117872
0.00119771
0.00123546
0.00129016
0.0013617
0.00145136
0.00156196
0.00169884
0.00187193
0.00207881
0.00232476
0.00261421
0.00295167
0.00333569
0.00374882
0.00312158
0.00262461
0.00309811
0.0190631
0.0276945
0.00920109
)
;
    }
    sWall
    {
        type            kqRWallFunction;
        value           uniform 0.01018;
    }
    nWall
    {
        type            kqRWallFunction;
        value           nonuniform List<scalar> 6(0.00111486 0.00179543 0.00281214 0.00314041 0.00342091 0.00309811);
    }
    sideWalls
    {
        type            empty;
    }
    glass1
    {
        type            kqRWallFunction;
        value           nonuniform List<scalar> 9(0.00280412 0.00485659 0.00696032 0.00929956 0.0120125 0.0153061 0.0188925 0.0198369 0.0190631);
    }
    glass2
    {
        type            kqRWallFunction;
        value           nonuniform List<scalar> 2(0.00464062 0.00435026);
    }
    sun
    {
        type            kqRWallFunction;
        value           nonuniform List<scalar> 
14
(
0.00280412
0.00337268
0.00358443
0.00396501
0.00434539
0.00474345
0.00518511
0.00558205
0.00587531
0.00598442
0.00582313
0.0051119
0.0040527
0.00298089
)
;
    }
    Table_master
    {
        type            kqRWallFunction;
        value           nonuniform List<scalar> 9(0.00193943 0.00148232 0.00114989 0.000912806 0.000742354 0.000617789 0.000526004 0.000458463 0.000411523);
    }
    Table_slave
    {
        type            kqRWallFunction;
        value           nonuniform List<scalar> 9(0.00240032 0.00200067 0.00174848 0.00157218 0.00143009 0.00129814 0.00117777 0.00105642 0.00092289);
    }
    inlet
    {
        type            turbulentIntensityKineticEnergyInlet;
        intensity       0.05;
        value           uniform 0.0009375;
    }
    outlet
    {
        type            zeroGradient;
    }
}


// ************************************************************************* //
