/*--------------------------------*- C++ -*----------------------------------*\
  =========                 |
  \\      /  F ield         | OpenFOAM: The Open Source CFD Toolbox
   \\    /   O peration     | Website:  https://openfoam.org
    \\  /    A nd           | Version:  6
     \\/     M anipulation  |
\*---------------------------------------------------------------------------*/
FoamFile
{
    version     2.0;
    format      ascii;
    class       surfaceScalarField;
    location    "2700";
    object      phi;
}
// * * * * * * * * * * * * * * * * * * * * * * * * * * * * * * * * * * * * * //

dimensions      [1 0 -1 0 0 0 0];

internalField   nonuniform List<scalar> 
850
(
-0.00324181
0.00330488
-0.00449707
0.00125525
-0.00542474
0.000927658
-0.00608093
0.000656179
-0.00641693
0.000335988
-0.00638028
-3.66627e-05
-0.00590929
-0.000470993
-0.00497895
-0.000930351
-0.00365111
-0.00132785
-0.00207726
-0.00157387
-0.000488985
-0.00158828
0.000723252
-0.00121225
0.00130218
-0.000578945
0.00120849
9.36744e-05
0.00121139
-0.00101616
0.00102031
-0.000693627
-0.000322558
0.000104791
-0.000798441
0.000859254
-0.000754486
0.00143049
-0.00057126
0.00174292
-0.000312453
0.00187184
-0.000128942
0.00193367
-6.18607e-05
0.00196832
-3.46755e-05
0.00198402
-1.57211e-05
0.00198506
-1.06778e-06
0.00197186
1.31733e-05
0.0019352
3.66273e-05
0.00184845
8.67254e-05
0.00166645
0.000181968
0.00136651
0.000299916
0.000954723
0.000411754
0.000959938
-0.00234523
0.00582108
-0.00355345
0.00246347
-0.00452007
0.00189426
-0.00519789
0.00133399
-0.00556447
0.000702552
-0.00557096
-3.01829e-05
-0.00516574
-0.000876215
-0.00434296
-0.00175314
-0.00319969
-0.00247113
-0.00191712
-0.00285645
-0.000708874
-0.00279654
0.000291019
-0.00221216
0.00100296
-0.0012909
0.0014849
-0.000388285
0.00231527
0.000381005
0.00189912
0.000421024
0.00125808
0.000646467
0.0012736
6.24266e-05
0.000970581
0.00054316
-0.000803313
0.000991715
-0.00124702
0.00139817
-0.00116096
0.00172731
-0.00090042
0.00180453
-0.000389697
0.00181511
-0.000139542
0.00182734
-7.41165e-05
0.00183757
-4.4934e-05
0.00184337
-2.15452e-05
0.00184553
-3.24927e-06
0.00184374
1.49294e-05
0.00183423
4.61147e-05
0.00178379
0.00013713
0.0015815
0.000384233
0.00123092
0.000650464
0.00077778
0.000864864
0.00175157
-0.00165536
0.0077393
-0.00268879
0.00349689
-0.00357644
0.00278189
-0.00419904
0.00195658
-0.00456255
0.00106605
-0.00460722
1.44852e-05
-0.00424624
-0.0012372
-0.00349989
-0.0024995
-0.00250892
-0.00346211
-0.00145582
-0.00390956
-0.000503352
-0.00374902
0.000275687
-0.00299122
0.000909377
-0.0019246
0.00140493
-0.000883852
0.00178402
1.90224e-06
0.00164788
0.00055715
0.00114619
0.00114814
0.00243399
0.00153123
-0.000543872
0.00177068
-0.00104278
0.00176934
-0.0012457
0.00186232
-0.00125397
0.00215624
-0.00119436
0.00176667
0.00162726
0.00155328
0.00150847
0.00148706
0.00148394
0.00149899
0.00154523
0.00168249
0.00141369
0.000653
0.00107597
0.000988153
0.000616819
0.00132398
0.00238961
-0.00114585
0.00922705
-0.00194699
0.00429803
-0.0025858
0.00342069
-0.00304799
0.00241877
-0.00334385
0.0013619
-0.0033927
6.33258e-05
-0.0030337
-0.00159621
-0.00235362
-0.00317958
-0.00153866
-0.00427707
-0.000740589
-0.00470764
-6.09675e-05
-0.00442866
0.000498141
-0.00355034
0.000959358
-0.00238584
0.00131212
-0.00123663
0.00157514
-0.000261132
0.00166272
0.000469555
0.00174383
0.00106702
0.00279832
0.00137948
0.00243884
0.000375103
0.00227468
-0.000379732
0.00215888
-0.000927003
0.00202182
-0.00110865
0.00186679
-0.00109896
0.0015778
-0.000905398
0.00199173
-0.000414104
0.0022013
-0.000209755
0.00234532
-0.000144195
0.00245098
-0.000105845
0.00251
-5.92023e-05
0.00249938
1.04373e-05
0.00238819
0.000110997
0.0021338
0.000254202
0.00166355
0.000470067
0.00144383
0.000872682
0.00109783
0.00133412
0.000613068
0.00180872
0.00302999
-0.000770884
0.0104076
-0.00134558
0.00487272
-0.00156757
0.00364266
-0.00176127
0.00261246
-0.00190492
0.00150553
-0.00187652
3.49179e-05
-0.00144777
-0.00202497
-0.000866142
-0.00376121
-0.000294344
-0.00484887
0.000183554
-0.00518555
0.000542001
-0.00478712
0.000828288
-0.00383665
0.00105343
-0.002611
0.00122493
-0.00140815
0.00138502
-0.00042124
0.00156137
0.000293189
0.00186176
0.000766617
0.0023431
0.000898123
0.00237366
0.000344521
0.00229189
-0.000297974
0.00206685
-0.000701984
0.00182357
-0.000865393
0.00158976
-0.000865176
0.0014118
-0.000727458
0.00146997
-0.000472309
0.00156048
-0.000300291
0.00164347
-0.000227226
0.00172461
-0.000187018
0.00179813
-0.000132751
0.00184311
-3.45848e-05
0.00183263
0.000121436
0.00174988
0.000336916
0.00160536
0.000614549
0.00148764
0.00099037
0.00139704
0.00142468
0.00127143
0.00193429
0.00223552
0.00206587
0.00161458
0.000647452
0.00173257
-9.29377e-05
0.00182264
-0.000629795
0.0115043
-0.000974003
0.00521691
-0.000597963
0.00326661
-0.000398846
0.00241333
-0.000279772
0.00138644
2.70123e-05
-0.000271885
0.000498334
-0.0024963
0.00089721
-0.00416008
0.00114376
-0.00509542
0.00123649
-0.00527828
0.00122609
-0.00477672
0.001163
-0.00377358
0.00107539
-0.00252341
0.000998073
-0.00133085
0.000991482
-0.00041467
0.00109126
0.000193389
0.00131739
0.000540469
0.00163593
0.000579567
0.00175584
0.000224591
0.00165191
-0.000194065
0.00143409
-0.000484189
0.00119125
-0.000622578
0.000966111
-0.000640063
0.00080386
-0.000565239
0.000764044
-0.000432527
0.000803655
-0.000339939
0.000879091
-0.0003027
0.000975382
-0.000283349
0.00108603
-0.000243438
0.00120253
-0.000151131
0.00130121
2.27164e-05
0.00136673
0.000271356
0.00141946
0.00056178
0.00151252
0.000897274
0.00170701
0.00123015
0.00203618
0.00160509
0.00239649
0.00170551
0.0019671
0.00107681
0.0011094
0.00076473
0.0029995
-0.000712856
0.0127347
-0.000512237
0.00501628
0.000634111
0.00212025
0.00116916
0.00187827
0.00165424
0.00090135
0.00229083
-0.00090849
0.00269403
-0.00289951
0.00282291
-0.00428895
0.00267593
-0.00494844
0.00231925
-0.0049216
0.00184739
-0.00430489
0.0013505
-0.00327671
0.000886359
-0.00205929
0.000528325
-0.000972844
0.000352639
-0.000239008
0.000368803
0.000177201
0.000532826
0.000376423
0.000745263
0.000367107
0.000821399
0.00014843
0.000736913
-0.000109605
0.00055902
-0.000306325
0.000349479
-0.000413069
0.000153314
-0.000443934
1.15431e-05
-0.000423506
-4.00738e-05
-0.000380951
-1.80438e-05
-0.000362011
4.64248e-05
-0.000367212
0.000137935
-0.000374903
0.000255577
-0.000361125
0.000406263
-0.000301862
0.000595484
-0.000166549
0.000800225
6.65703e-05
0.00101386
0.000348102
0.00127303
0.000638057
0.00160588
0.000897269
0.00203378
0.00117715
0.00250454
0.00123471
0.00269889
0.000882418
0.0020706
0.00139299
0.00513746
0.00300414
0.0103078
0.00375068
0.00426973
0.00367801
0.00219291
0.00388134
0.00167492
0.00449467
0.000288002
0.00511548
-0.00152932
0.00522789
-0.00301191
0.0048523
-0.00391336
0.00410919
-0.00420532
0.00315152
-0.00396393
0.00211743
-0.00327082
0.00114227
-0.00230159
0.000301039
-0.00121809
-0.000236323
-0.000435515
-0.000461153
-1.42082e-05
-0.000468164
0.000184184
-0.000356114
0.000264344
-0.000227765
0.000238729
-0.000192132
0.000112765
-0.000264247
-3.75252e-05
-0.000407258
-0.000163351
-0.000574576
-0.000245791
-0.00072799
-0.000290562
-0.000839096
-0.000312443
-0.000892382
-0.00032771
-0.000902386
-0.000352053
-0.000887538
-0.000382106
-0.000856311
-0.000406177
-0.000805707
-0.000411777
-0.000720474
-0.000387141
-0.000567569
-0.000319501
-0.000312316
-0.000188729
7.54552e-06
2.81964e-05
0.000359837
0.000285721
0.000735315
0.000521749
0.00114112
0.000771296
0.00148736
0.000888429
0.0015136
0.00085614
0.000523568
0.00238298
0.00598227
0.0109494
0.0152191
0.0127679
0.00464414
0.0115724
0.00287042
0.0106338
0.00122659
0.0094814
-0.000376907
0.00805725
-0.00158773
0.00646134
-0.00231743
0.00477371
-0.00251768
0.00310335
-0.00229359
0.00152644
-0.00169394
0.000162806
-0.000937996
-0.000761789
-0.000293543
-0.00119594
-1.39849e-06
-0.00133387
0.000123684
-0.00132563
0.000175903
-0.00125667
0.000195353
-0.00119115
0.000173171
-0.00118463
0.000106209
-0.00124451
2.23094e-05
-0.0013509
-5.7003e-05
-0.00147602
-0.000120716
-0.00159581
-0.000170819
-0.00169704
-0.000211269
-0.00177849
-0.000246307
-0.00185214
-0.000278453
-0.0019307
-0.000303588
-0.0020236
-0.000313331
-0.00213917
-0.000296248
-0.0022879
-0.000238455
-0.00248388
-0.000123571
-0.00273751
6.48593e-05
-0.00304265
0.000333288
-0.00346047
0.000703507
-0.00413128
0.00119251
-0.00514791
0.00178788
-0.00665288
0.00239337
-0.00860724
0.00281045
-0.00853321
0.00230891
-0.00220034
0.00924919
0.00696531
0.0073381
0.00478156
0.00673279
0.00183199
0.00612554
0.000230416
0.00514738
-0.000609532
0.00385794
-0.001028
0.00233863
-0.000998389
0.000750135
-0.000705144
-0.000648971
-0.000294893
-0.00159073
3.70983e-06
-0.00200906
0.000124742
-0.00215373
0.000143233
-0.00217242
0.000142326
-0.00213955
0.000142991
-0.0020873
0.00014306
-0.00204532
0.000131152
-0.00204028
0.000101123
-0.00207735
5.93318e-05
-0.00214901
1.46138e-05
-0.00223781
-3.197e-05
-0.00233104
-7.76338e-05
-0.00242753
-0.000114834
-0.0025317
-0.000142185
-0.00265041
-0.000159791
-0.00278789
-0.000166157
-0.00294382
-0.000157448
-0.00311284
-0.000127275
-0.00328351
-6.78348e-05
-0.00343457
2.74462e-05
-0.00355711
0.000187362
-0.00365922
0.000435352
-0.00375348
0.000797721
-0.00385296
0.00129195
-0.00394818
0.00188306
-0.00394528
0.00239042
-0.00348186
0.002347
-0.00107361
-9.93852e-05
-0.00318741
-0.000685829
0.00771696
0.000817831
0.00327794
0.00109406
0.00155579
0.000859831
0.000464621
0.000305583
-5.53459e-05
-0.000584225
-0.00013829
-0.00156544
-1.72447e-05
-0.00235752
8.6879e-05
-0.00280461
0.000152142
-0.00296728
0.000166336
-0.00298043
0.000137844
-0.00294907
0.000111824
-0.00290252
9.57311e-05
-0.00284857
8.89865e-05
-0.00279054
8.49856e-05
-0.00273576
7.63188e-05
-0.00269421
5.95242e-05
-0.00267182
3.68871e-05
-0.00266972
1.24639e-05
-0.00268487
-1.68734e-05
-0.00271623
-4.63233e-05
-0.00276313
-6.79821e-05
-0.00282413
-8.12406e-05
-0.00289725
-8.67146e-05
-0.00297935
-8.41082e-05
-0.00306509
-7.175e-05
-0.00314604
-4.63749e-05
-0.00321179
-2.13424e-06
-0.00324511
6.07266e-05
-0.00321386
0.000156065
-0.00308567
0.000307122
-0.00282069
0.000532689
-0.00239264
0.000863862
-0.00181077
0.00130115
-0.000913076
0.00149269
0.00133309
0.000100794
0.00360437
-0.00237071
0.000510066
-0.0131794
-0.017075
-0.00930674
-0.0059948
-0.00441211
-0.00392619
-0.00396396
-0.00408679
-0.00408974
-0.00398912
-0.00382342
-0.00364353
-0.00349209
-0.00336664
-0.00325728
-0.00315461
-0.00305582
-0.00296546
-0.00289156
-0.00283989
-0.00281226
-0.0028137
-0.00284443
-0.00289676
-0.00296235
-0.00303351
-0.00310222
-0.00315878
-0.00319023
-0.00317777
-0.00310283
-0.00293299
-0.00261256
-0.00206706
-0.00119092
0.000121958
0.0016257
0.00173804
-0.000621589
)
;

boundaryField
{
    floor
    {
        type            calculated;
        value           nonuniform List<scalar> 
36
(
0
0
0
0
0
0
0
0
0
0
0
0
0
0
0
0
0
0
0
-5.24701e-06
-1.38855e-05
-2.12506e-05
-2.73472e-05
-2.6543e-05
-2.50844e-05
-2.47366e-05
-2.91053e-06
-4.88862e-06
-5.4375e-06
-6.18206e-06
-4.17711e-06
-9.35017e-06
-1.2717e-05
-1.42173e-05
-1.6801e-05
-1.56334e-05
)
;
    }
    ceiling
    {
        type            calculated;
        value           nonuniform List<scalar> 
43
(
-5.30776e-05
-5.21433e-05
-5.12893e-05
-3.40502e-05
-2.69708e-05
-2.13814e-05
-1.76412e-05
-1.5525e-05
-1.43444e-05
-1.38014e-05
-1.36109e-05
-1.36046e-05
-1.36479e-05
-1.36724e-05
-1.36884e-05
-1.37356e-05
-1.38589e-05
-1.40915e-05
-1.44338e-05
-1.48352e-05
-1.52112e-05
-1.54864e-05
-1.5646e-05
-1.57109e-05
-1.56933e-05
-1.5604e-05
-1.54506e-05
-1.52387e-05
-1.49711e-05
-1.46469e-05
-1.42567e-05
-1.38238e-05
-1.3353e-05
-1.28514e-05
-1.23238e-05
-1.17733e-05
-1.10909e-05
-1.15948e-05
-1.11253e-05
-8.11955e-06
2.15417e-06
1.70548e-08
-6.58012e-05
)
;
    }
    sWall
    {
        type            calculated;
        value           uniform -0.000248093;
    }
    nWall
    {
        type            calculated;
        value           nonuniform List<scalar> 6(-6.53754e-05 -6.74957e-05 -6.74003e-05 -8.65889e-05 -9.31551e-05 -0.00010345);
    }
    sideWalls
    {
        type            empty;
        value           nonuniform 0();
    }
    glass1
    {
        type            calculated;
        value           nonuniform List<scalar> 9(-6.3078e-05 -0.00017099 -0.00026286 -0.000341911 -0.000409654 -0.00046696 -0.000517501 -0.000577303 -0.000643755);
    }
    glass2
    {
        type            calculated;
        value           nonuniform List<scalar> 2(-0.000321277 -0.000350629);
    }
    sun
    {
        type            calculated;
        value           uniform 0;
    }
    Table_master
    {
        type            calculated;
        value           nonuniform List<scalar> 9(-1.54143e-07 -1.54332e-07 -1.54389e-07 -1.54421e-07 -1.5444e-07 -1.54449e-07 -1.54446e-07 -1.5443e-07 -1.54382e-07);
    }
    Table_slave
    {
        type            calculated;
        value           nonuniform List<scalar> 9(1.53995e-07 1.53971e-07 1.53906e-07 1.53855e-07 1.53823e-07 1.53815e-07 1.53816e-07 1.53855e-07 1.53947e-07);
    }
    inlet
    {
        type            calculated;
        value           uniform -0.0115703;
    }
    outlet
    {
        type            calculated;
        value           nonuniform List<scalar> 2(0.0134805 0.00394771);
    }
}


// ************************************************************************* //
