/*--------------------------------*- C++ -*----------------------------------*=========                 |
  \      /  F ield         | OpenFOAM: The Open Source CFD Toolbox
   \    /   O peration     | Website:  https://openfoam.org
    \  /    A nd           | Version:  6
     \/     M anipulation  |
\*---------------------------------------------------------------------------*/
FoamFile
{
    version     2.0;
    format      ascii;
    class       volScalarField;
    location    "2700";
    object      PMV;
}
// * * * * * * * * * * * * * * * * * * * * * * * * * * * * * * * * * * * * * //

dimensions      [0 0 0 0 0 0 0];

internalField   nonuniform List<scalar> 
458
(
1.3345423438952322
1.0883007052669083
1.0531750729656708
1.024865203643286
1.0077028093030655
1.0012791622946946
1.0067452526646976
1.025786498214492
1.06156665524309
1.1183756851593638
1.197767998047004
1.249584990627005
1.2624812918080333
1.2706008907227475
1.2815858554506483
1.4319803950422196
1.4162299509694287
1.4119341403259311
1.421002956887326
1.4286395064974615
1.4204802098038414
1.4078260583943702
1.4055433228832495
1.4074497956205871
1.4106997079497343
1.4145579279621547
1.4196703973985947
1.425488130721786
1.433553021275705
1.446735397487204
1.4684417841510358
1.4868570413313325
1.503077845092988
1.2663142334759845
1.1020590270831097
1.0874356881295886
1.059596963472393
1.0436951894435478
1.036946786018235
1.0408811226567363
1.0503373939897769
1.067340007672272
1.096409494454972
1.143661436472853
1.2196934495695215
1.2624812918080333
1.2720337369161518
1.2397831606143381
1.2112056384970875
1.2259601904714217
1.262446703238924
1.4013852844562755
1.398568770123665
1.399523470394827
1.3998923294788317
1.398478288586108
1.3994526586292826
1.4017241772194684
1.404812354079919
1.407472722834445
1.4096520053074701
1.411984152766213
1.4151673021256304
1.4182274328514837
1.4233264375224253
1.433823145214413
1.4560814733788467
1.473974606812444
1.4704572008297245
1.2939439801712544
1.0950504736456812
1.1220374306676146
1.1087923621269062
1.1025357380947485
1.0996845922562026
1.100601346271294
1.092162169589801
1.073360242497322
1.0637329519452403
1.0877360721660974
1.157905068790022
1.2476964379645619
1.2820634526235017
1.2760411235304838
1.2600010399047024
1.2615858009085341
1.2621463920068081
1.2969563148407737
1.3385841713574267
1.345068457410333
1.3599635847358027
1.376756115155804
1.381951297263479
1.4065603241642834
1.4263179813606728
1.4353184919978705
1.4395930070878034
1.4425226547027066
1.4449961619034628
1.445046235310837
1.4411267595196644
1.441818488701561
1.457554734811487
1.4481975331927661
1.4010280048920933
1.3654935038321856
1.0904845683326054
1.14779465333784
1.1624992965219765
1.1825241347836484
1.1947757188659043
1.192738441234353
1.1497064880917647
1.0805634496263852
1.0324466123965785
1.0433267100326231
1.1164653015275934
1.2120217088379774
1.2902177693101577
1.3054646562269256
1.285368097886427
1.2484794402888213
1.2227692569759412
1.1877233716557078
1.2482529126454265
1.2922010869070135
1.330723515304099
1.3742744740436659
1.420350435657905
1.4586009116802972
1.460142038277509
1.4605213540284492
1.4654324397589689
1.4718125148091
1.4782642190393132
1.4879213970732568
1.5023764454306028
1.5258724012726081
1.5147186333034737
1.4892677634275364
1.4349531390801042
1.3678223881075904
1.4569090720603344
1.1005768519535726
1.167270371724272
1.2119159032131646
1.2746577082157113
1.3229605228701646
1.3080637085397473
1.2009881830572418
1.0815181600107497
1.0063275822635505
1.0132719345731807
1.0896595280798627
1.1964117883169334
1.2944062677693116
1.3326837153410862
1.3292455710893043
1.2887880218869017
1.261677318265278
1.266629896524888
1.290385854512201
1.33221472705574
1.384626459111179
1.439681478158583
1.4928789056633498
1.5369223003749357
1.5545846008522441
1.5630142136713736
1.5694137205346752
1.5729565152444505
1.5740701143669114
1.5733686896029184
1.572318513334066
1.5689946788800118
1.5471346159014256
1.508352300286815
1.4316811769004512
1.4232318897710392
1.3702935202990192
1.361134570964153
1.356604308717387
1.553038560522771
1.1321443658605868
1.2018325049055016
1.2476439437945095
1.347132099004898
1.4109795023039782
1.3602411078593362
1.206659501507919
1.066227873933064
0.9835125697505015
0.9920218056886424
1.0799170398343252
1.2055162530093553
1.326156461654971
1.3708804623526505
1.3727901220457503
1.3689707851723505
1.3554819844169645
1.3653730127523256
1.3956449328128206
1.4414492415425129
1.4948316257102856
1.5412373954237426
1.573664710586291
1.5989318753281556
1.617045734766316
1.6299144027185253
1.6389692584704285
1.6442112072968362
1.646117308715288
1.6432581441929233
1.6346335947926678
1.6136461115888134
1.5800802352604217
1.5357844254632296
1.4662155540216895
1.4488435988595592
1.4618918573487436
1.4394989862295047
1.3792419802863118
1.6471503694715117
1.2203281769424332
1.326792768264947
1.3161043574564908
1.382123071510765
1.4105642980799133
1.3110937624159444
1.1678635940296451
1.025345062201569
0.9498116341205748
0.9786519243615015
1.0938033838062222
1.2495840037095227
1.3942725608363902
1.4238667007121033
1.4295940524570236
1.4281622316111213
1.4362757308533212
1.4610911376784081
1.4963988995771682
1.5350371664512825
1.5722342629734891
1.6046523393850542
1.6299144027185253
1.6484998888406548
1.6604120033174063
1.6680350585923656
1.672322783879253
1.6732755877230072
1.6718463786765285
1.6670822068534168
1.6585061537979524
1.6470703469973476
1.627531959326902
1.579054917840344
1.5186271365154869
1.4837086334843013
1.472891079441604
1.4210475123814066
1.4016448065079785
1.786515216423182
1.586981021871012
1.5316249301434266
1.4233770567470256
1.4006331744096914
1.3632845077752258
1.244261588545984
1.0725219649959217
0.9348147587050839
0.8983667541538874
0.9826460894708811
1.150605706062049
1.3531627000981261
1.459659578613481
1.489719660849508
1.4973530527087087
1.5016466673944553
1.5159578236328375
1.5431451020431943
1.5765255577364297
1.608465830234912
1.6365864726089385
1.6585061537979524
1.6742283828036872
1.6837558479054509
1.688519245876493
1.6899482213114778
1.6894718984292907
1.6866139136776863
1.682803141390527
1.6775630963323358
1.670417149970168
1.6599355441336217
1.646117308715288
1.6303909922313264
1.6127558608085102
1.5975166742033868
1.5808781134527925
1.465113465522556
1.357059615311491
1.995318115981258
1.852274053075404
1.695914867763369
1.5605285949867216
1.4674778519484122
1.3233432246446026
1.0627927234149752
0.8474538129505828
0.7734139693012687
0.8515446967719151
1.0533199913832547
1.3056133599390394
1.4777917337385011
1.537898845132847
1.5603132502586243
1.5693733199201167
1.579384936064259
1.597024993723306
1.6208588234357986
1.6456407864644031
1.6666057777377716
1.6764355806250097
1.6777496328123673
1.6761715449903325
1.6721999619171992
1.6664686711651242
1.659502044087646
1.6507857329535156
1.6409915272496196
1.629809076577938
1.6171324054996812
1.6020216402932739
1.585973805085818
1.5698928999238313
1.548719699215163
1.5257652032642286
1.5056998754285895
1.4916076223579766
1.4754201250758252
1.4431016277699928
-1.7671172050162032
-0.9543745253560891
-0.48940486598217064
-0.2917778358964084
-0.048730362886918975
0.2702492539509256
0.6284293305368938
0.9948593654495489
1.318835805294904
1.5021237281438022
1.5443761457739151
1.5615471152930613
1.5723637469102278
1.5838327445423055
1.5986022494489176
1.6169170703479379
1.6344677333257498
1.64792356143462
1.6550355779168444
1.6565102038051955
1.6543896583364592
1.6491017807975588
1.6423888145014753
1.634393278469142
1.625366507615529
1.615794381902794
1.6058657488595995
1.5969090457044763
1.5884178537456117
1.5813573276255333
1.5760039725574546
1.5714102393218365
1.5669121849522845
1.5633667055223943
1.5661937387225242
1.586614657063628
1.6423526423495978
1.5964568074219956
-1.7663238771543401
-0.710692723384332
-0.06915576357301903
0.2606499231483739
0.5911148127508871
0.9681557389348356
1.2624812918080333
1.402735435617016
1.4842102753680793
1.535204587666161
1.561704933045307
1.57829083736214
1.590794881366421
1.6019334189267316
1.6130552831893208
1.6239464007639233
1.633268621896689
1.6388864282877926
1.6415261730066173
1.6412343066506647
1.639381165197237
1.6365322998583534
1.6321155523747617
1.6271404397540907
1.621698500914517
1.6164452629327464
1.6111231943568893
1.6060485406953973
1.6028155679493694
1.601067965143409
1.6024135136766515
1.6081147171019028
1.6177726921496585
1.6274816022904262
1.6398656836916081
1.6841743420646187
1.6272087509802875
1.7276608890130278
-1.0814582001580928
-1.085676556344638
-0.9615250136213928
-0.09999222547355324
0.549194626191334
1.0102096257202753
1.2790216707127438
1.4059654236137822
1.482188255457221
1.5297231178986506
1.5622901980057344
1.5844942815730931
1.5987337858966169
1.608841721612199
1.6166495891594947
1.6227997062097086
1.6265959338714546
1.6286798029400575
1.6279152402897623
1.624787333942214
1.6202445154636054
1.6156176048163622
1.6114150597232522
1.6077587313833834
1.6045700046482698
1.6012986783145617
1.5990071537528814
1.5973541137978557
1.5971737926857
1.5979765928572838
1.6015405095845612
1.6084030037491948
1.620838744397725
1.6447790345290179
1.6906024665944581
1.7156662349718854
1.7213804170138478
1.6480273485732824
1.6259075770179823
1.5654517366136167
)
;

boundaryField
{
    ".*"
    {
        type            zeroGradient;
    }
}


// ************************************************************************* //
