/*--------------------------------*- C++ -*----------------------------------*=========                 |
  \      /  F ield         | OpenFOAM: The Open Source CFD Toolbox
   \    /   O peration     | Website:  https://openfoam.org
    \  /    A nd           | Version:  6
     \/     M anipulation  |
\*---------------------------------------------------------------------------*/
FoamFile
{
    version     2.0;
    format      ascii;
    class       volScalarField;
    location    "2700";
    object      PPD;
}
// * * * * * * * * * * * * * * * * * * * * * * * * * * * * * * * * * * * * * //

dimensions      [0 0 0 0 0 0 0];

internalField   nonuniform List<scalar> 
458
(
42.052629341927066
29.978475531411505
28.408751235160878
27.175850150688646
26.442830898013767
26.171315185150092
26.40225798319935
27.2155096663233
28.77978915114059
31.35642005431947
35.13443884142258
37.70036090827455
38.350071896666066
38.761270518443425
39.32013108599399
47.21661825720101
46.37220963477491
46.14245876341167
46.6277678547541
47.03725012557717
46.59976432139252
45.922982429847984
45.80112735568717
45.902892063849364
46.07648424195547
46.28275623479723
46.55638965372513
46.86818095847304
47.30109662729259
48.010335497363364
49.1820916991581
50.17941300288903
51.05986362734757
38.543979878857854
30.605036469323565
29.93929948467597
28.692471824025276
27.992644145720817
27.69842114214265
27.869751936964832
28.28385425899812
29.036520505749678
30.34697007130478
32.53819968617351
36.21115372921047
38.350071896666066
38.834001675625345
37.20940859164041
35.792721837924304
36.52137243331834
38.34832372776124
45.579356192713455
45.4292776477967
45.4801360750188
45.49978936817575
45.424458244011646
45.476363359273556
45.59742193514015
45.76212289513825
45.90411619467788
46.02050588772172
46.145132127013916
46.31535351008733
46.47912351840767
46.75227877166606
47.31561007897397
48.51429849564701
49.48145249208339
49.29110870310636
39.952255465857625
30.285053514083515
31.526264291777693
30.91402390543915
30.626861927389854
30.496441678546844
30.53834671988416
30.15367348453549
29.30548796208369
28.875981828232767
29.952900745396846
33.212942385060344
37.605572889371125
39.344494216557095
39.03768042683376
38.224791262018684
38.30482178379675
38.333146708562694
40.10687013136626
42.26360275555649
42.60272940952714
43.38473022231407
44.271075353144475
44.546247533397434
45.855407038007385
46.9126900233374
47.395968761098
47.62581934526336
47.7834719020334
47.91665148702695
47.91934824213342
47.70834301527028
47.745570095370915
48.59381984793643
48.08911827605524
45.56031208338186
43.67607415908682
30.07749616056924
32.73333607865635
33.431934693146516
34.394013322927094
34.988560259199446
34.88938881612829
32.82378060560413
29.628982070737933
27.50314462835952
27.976535996012984
31.267986343682452
35.83286482770072
39.76128562413546
40.54467846424886
39.513217479542526
37.64486123629869
36.36327874545453
34.645781675238766
37.63349323223143
39.86289189063595
41.85359294150752
44.13978713724439
46.592812871065995
48.65030140061508
48.733523516975005
48.754010313303546
49.019377156379264
49.36443909677194
49.713719990366904
50.23713336310719
51.02175967840865
52.29947149469903
51.69262470854892
50.31015838345691
47.37633260147432
43.79893142049348
48.55896670949746
30.53722670722695
33.66004792250631
35.827659127850325
38.96732338267918
41.449894985413565
40.678735085208466
35.29171796422381
29.6719940219796
26.38457156941766
26.679485351710866
30.040067885890352
35.06828912774404
39.975970014930965
41.955721761579326
41.77664123528598
39.68809517692997
38.30944533509563
38.5599654369171
39.76989319969224
41.93127990562238
44.68811217646414
47.63057882508766
50.5060814187289
52.901075903003665
53.86321283912663
54.322505054586
54.67117813457179
54.864191760926005
54.924858436805295
54.88664638358308
54.82943400499588
54.6483477008906
53.45732907796189
51.34648545022234
47.20054816259266
46.747210801163604
43.92939481117564
43.44637861001123
43.20801202829902
53.77897878205391
31.997346859031722
35.33300549909376
37.60293948129101
42.71082588024963
46.09143609347472
43.39933865217279
35.56943899975968
28.986973695962206
25.42851797625211
25.7827746368025
29.599877833394586
35.51338082588717
41.61594418199937
43.960397719115136
44.061308340502634
43.859548032485044
43.14901635304682
43.66972036665708
45.2736037754896
47.7256975086982
50.61206163334386
53.13609107172525
54.902773020933694
56.27860836815453
57.263559432544156
57.9622335955803
58.45318337912883
58.737115468995874
58.84030490368597
58.685508836643336
58.2181800746748
57.07882347189101
55.252246679732906
52.83911001801172
49.06171229195019
48.12393670835603
48.828042203072705
47.62076139951224
44.402688846922445
58.89621835060925
36.2425250592851
41.6490293098857
41.094389115266594
44.55535333546083
46.06924849672587
40.835207827574045
33.688459831192716
27.196502984205267
24.052994998765882
25.22740713975891
30.228292141935853
37.70031135001874
45.20057850277756
46.7812402446484
47.08848480545978
47.01163683094785
47.44742357857853
48.78478678386112
50.69713970402667
52.79841779376018
54.82484408809045
56.58982191803585
57.9622335955803
58.96924611995795
59.61314642240697
60.024483190234776
60.2555792776664
60.30690542798658
60.22991226781911
59.97310048612533
59.510216575470395
58.891887532295755
57.83296304928446
55.19639898348023
51.90522060313816
50.00872043346877
49.42280668796426
46.63015485224646
45.593190681416
66.31104502052196
55.62806665008769
52.61262145394857
46.75499212141973
45.53926854620321
43.55962859885897
37.43341208967133
29.267959421009152
23.455214725611057
22.039860538403346
25.392600453075985
32.86636052655339
43.027174418107485
48.70746788233889
50.334671416635786
50.74894240531467
50.98211694783195
51.76002122406733
53.2400029943932
55.058620241435236
56.79721234690837
58.324048102097734
59.510216575470395
60.35822101340196
60.870776688084895
61.12662794656463
61.20332554192733
61.177762683364946
61.024322697815165
60.81957152883278
60.537741109493794
60.15289562985426
59.58741745538246
58.84030490368597
57.988088586654904
57.03043706709305
56.20159683001812
55.29570469239441
49.00213498166245
43.231952007449394
76.53865369624614
69.67585703613352
61.523288896343026
54.18707379277562
49.12996347704543
41.469767682386866
28.83421119946337
20.15339977307589
17.602976221291186
20.30102332576209
28.415137429984938
40.55234447244237
49.688129444618994
52.95425850237535
54.17534051629051
54.66897701477348
55.21437485370508
56.174839166273436
57.47068701807726
58.814510550908615
59.947405378608764
60.47705690511687
60.54777930828029
60.46284409514956
60.24896230817789
59.94001041115151
59.564006366513965
59.09290602096945
58.56274616251966
57.95651944149402
57.268268313369134
56.44671890551487
55.57322000432436
54.69728483907674
53.543681526042135
52.29363695516821
51.2023305331551
50.43709800211121
49.55970587390085
47.814639252979816
65.29887401188721
24.23663598189762
10.004086172258184
6.768716666714454
5.049161627689671
6.516593655908238
13.28748111278233
25.90152339569677
41.23590220414052
51.008031328712356
53.30706069316485
54.24256889969635
54.83189830397329
55.45662323335298
56.260671649309316
57.25656892930152
58.209187222939384
58.9380607032987
59.32269053327171
59.40238309723084
59.287776995633074
59.001811782870305
58.63842977704008
58.205150286187354
57.715434043775566
57.19556797499722
56.65581823906417
56.168529052521265
55.706302889564384
55.321805441416195
55.03020729223768
54.77995128672264
54.534886280263784
54.3417108241631
54.49574220963431
55.60811703892883
58.63647072081104
56.14391692418601
65.25731074895117
15.624854713920001
5.099021696711944
6.410472207085988
12.323938393302384
24.796238040688394
38.350071896666066
45.65134008220098
50.035912467280724
52.807534650597596
54.25116775392185
55.154779293945765
55.83572088491674
56.441919404037485
57.04671155677769
57.63834210102813
58.14416662962884
58.44869511612349
58.59170691463436
58.57589734552769
58.47550230432831
58.321111707719325
58.08163293702634
57.81171573437921
57.51628709731144
57.230934246937494
56.9416888560507
56.66575957380148
56.48990947937247
56.39483452316723
56.46803758771339
56.77812039502152
57.30305423771233
57.830230287340584
58.50175397423619
60.89326602764011
57.815422977896404
63.21716281400831
29.669291754557932
29.859709429517665
24.526063140679767
5.207064973881998
11.313516191247302
26.549211390701828
39.18941955562771
45.823654068591765
49.9263179177298
52.509081567285
54.283056461613484
55.492650023388975
56.26782930407812
56.81765098928371
57.24203604077897
57.57608347429209
57.7821643679074
57.89524937582832
57.85376228990386
57.68399454249021
57.437323365226945
57.18596221899297
56.95755500356605
56.75876290983903
56.58534356963898
56.40738672953485
56.28270461575527
56.19275025214913
56.18293702153413
56.22662520188489
56.42054360165953
56.79379616759883
57.46959654141668
58.76785873577931
61.238432247879615
62.57894968884584
62.88327631258969
58.94367689793998
57.74480319317713
54.45531442294792
)
;

boundaryField
{
    ".*"
    {
        type            zeroGradient;
    }
}


// ************************************************************************* //
