/*--------------------------------*- C++ -*----------------------------------*\
  =========                 |
  \\      /  F ield         | OpenFOAM: The Open Source CFD Toolbox
   \\    /   O peration     | Website:  https://openfoam.org
    \\  /    A nd           | Version:  6
     \\/     M anipulation  |
\*---------------------------------------------------------------------------*/
FoamFile
{
    version     2.0;
    format      ascii;
    class       volScalarField;
    location    "600";
    object      nut;
}
// * * * * * * * * * * * * * * * * * * * * * * * * * * * * * * * * * * * * * //

dimensions      [0 2 -1 0 0 0 0];

internalField   nonuniform List<scalar> 
458
(
0.00069443
0.000721623
0.000708024
0.000733196
0.000754812
0.000772867
0.000788053
0.00080112
0.000812817
0.000823982
0.000833902
0.000840869
0.000844954
0.000847567
0.000849005
0.000543959
0.000511172
0.000492069
0.000482351
0.000473578
0.000458386
0.000441396
0.0004254
0.000410142
0.000395607
0.000381779
0.000368575
0.00035581
0.000343136
0.000330019
0.000315432
0.000303301
0.000277527
0.00107946
0.00165567
0.00133856
0.00153887
0.00162297
0.00171524
0.00180909
0.00189733
0.00196964
0.00201224
0.0020247
0.00198754
0.00187065
0.00163089
0.00124321
0.000871197
0.000824401
0.000777421
0.000638261
0.0010371
0.00135934
0.00153569
0.00153588
0.00127539
0.00116165
0.00106699
0.000984556
0.000909828
0.000841322
0.000776939
0.000712752
0.00064524
0.000585913
0.000537657
0.000629284
0.000348023
0.00142322
0.00249251
0.001486
0.00219203
0.00234066
0.00245581
0.0025523
0.00263129
0.00269376
0.00273695
0.00275849
0.00274756
0.00268481
0.0025518
0.00233705
0.00201986
0.0015199
0.000899411
0.000725494
0.00169361
0.00199025
0.00198818
0.00175097
0.000538337
0.0004792
0.000433691
0.000398873
0.000371887
0.000350494
0.00033333
0.000319962
0.000311324
0.000365234
0.000436924
0.000711957
0.000400805
0.00177485
0.00376661
0.00147661
0.00253952
0.00280734
0.00292039
0.002989
0.00302964
0.00305339
0.00306758
0.00307533
0.00306964
0.00303813
0.00296624
0.00282926
0.00258085
0.0021581
0.00152744
0.000873908
0.00199759
0.0019682
0.00197245
0.00189674
0.00166928
0.000498203
0.000493172
0.000501104
0.00051051
0.000515597
0.000512275
0.000498496
0.000483127
0.000462968
0.000442448
0.000449676
0.000806489
0.000452989
0.00213401
0.00548561
0.00179921
0.00251051
0.00306401
0.00320061
0.00325412
0.00326798
0.00325985
0.00324643
0.00323575
0.00322638
0.00321341
0.00317976
0.00310156
0.00296039
0.00277
0.00256621
0.0023119
0.00203221
0.0018636
0.0018186
0.00177299
0.00175312
0.00170828
0.00180065
0.00189218
0.00195788
0.0019845
0.0019618
0.00187443
0.00165652
0.00136618
0.00105094
0.000797132
0.000795842
0.000699977
0.000620011
0.000686369
0.000743336
0.00250286
0.00738122
0.00311349
0.00221591
0.00297178
0.00328498
0.00340628
0.00344915
0.00343373
0.00337703
0.00330684
0.00327964
0.00327238
0.00325406
0.00319543
0.0030717
0.00287442
0.00260316
0.00226758
0.00193893
0.00177393
0.0017397
0.00170808
0.0017418
0.00185739
0.00200647
0.0021394
0.00224172
0.00230363
0.00231989
0.00228666
0.00214816
0.00190144
0.00155828
0.00121302
0.000930481
0.000808105
0.000743509
0.00100275
0.00076174
0.002881
0.00900958
0.00595318
0.00307016
0.00236244
0.00258416
0.00299848
0.00331846
0.00351758
0.00357426
0.00331258
0.0032737
0.00326357
0.00324897
0.00320358
0.00309827
0.00290723
0.00261358
0.00223966
0.00190341
0.00174788
0.00172393
0.00169313
0.00173653
0.00184869
0.00198873
0.0021238
0.00223942
0.00232672
0.00238222
0.00241287
0.00240571
0.00222598
0.00191478
0.00158046
0.00127395
0.00108826
0.00103578
0.00103004
0.000850192
0.00298566
0.00921766
0.00754047
0.00592558
0.00429428
0.00322005
0.00282922
0.00290809
0.00316786
0.00331808
0.00327206
0.0032267
0.00319976
0.00317526
0.00312807
0.00303039
0.0028548
0.00257627
0.00220714
0.00187584
0.00174053
0.00173048
0.00169562
0.00173514
0.00182868
0.00193977
0.00204711
0.00214274
0.0022274
0.00230871
0.00240236
0.00251918
0.00256942
0.00230292
0.00207398
0.00196702
0.00205609
0.00228192
0.00291981
0.00139208
0.00293544
0.00357541
0.00387227
0.00408976
0.00402128
0.00370885
0.00337147
0.00314695
0.00305834
0.00303956
0.00303808
0.0030449
0.0030485
0.00303381
0.00298354
0.00287933
0.00270205
0.00243244
0.00207841
0.00178152
0.0017105
0.00171806
0.00167155
0.00169497
0.00176023
0.00183516
0.00190292
0.00195594
0.00199147
0.00200905
0.00200898
0.00199125
0.00195689
0.00192046
0.00191853
0.00195061
0.00196705
0.00191905
0.00182038
0.00132645
0.00119324
0.00215108
0.00286838
0.00318236
0.00322792
0.00317161
0.00310293
0.00304535
0.00300376
0.0029703
0.00292839
0.00286375
0.0027649
0.00262184
0.00242294
0.00215143
0.0018085
0.00157888
0.0016369
0.00165248
0.00158624
0.00158387
0.00162024
0.00166908
0.00171661
0.00175664
0.00178736
0.00181033
0.00182987
0.00185231
0.00188332
0.00191268
0.00194213
0.00195445
0.00191344
0.00180083
0.00164221
0.00111296
0.0019385
0.00320611
0.00358853
0.00368386
0.00360982
0.00348896
0.00335111
0.00321963
0.0030853
0.00291214
0.00272224
0.00252646
0.00232851
0.0021262
0.00191025
0.00165952
0.00135676
0.00126165
0.00157357
0.00162974
0.00153969
0.00148588
0.00147896
0.0015024
0.00154434
0.00159875
0.00166237
0.00173235
0.00180389
0.00186666
0.00193596
0.00201175
0.00208315
0.00213308
0.00213073
0.00216982
0.00218249
0.00113156
0.00207914
0.00211812
0.00215916
0.0023668
0.00228801
0.00216372
0.00196891
0.00183508
0.00171575
0.00160542
0.00150234
0.00141149
0.00132573
0.00124069
0.00115317
0.0010602
0.000958169
0.000840754
0.000687103
0.0004574
0.000457223
0.000470274
0.000487026
0.000511608
0.000541493
0.000574638
0.000609944
0.000647026
0.000686043
0.000727717
0.00077358
0.000826682
0.000883879
0.000944673
0.00100972
0.00108445
0.00112027
0.00110106
0.00103248
0.000964699
)
;

boundaryField
{
    floor
    {
        type            nutkWallFunction;
        Cmu             0.09;
        kappa           0.41;
        E               9.8;
        value           nonuniform List<scalar> 
36
(
0.000102793
6.52941e-05
6.11317e-05
5.86913e-05
5.74455e-05
5.63182e-05
5.4359e-05
5.21582e-05
5.00766e-05
4.80818e-05
4.6173e-05
4.43488e-05
4.25991e-05
4.08999e-05
3.9205e-05
3.7442e-05
3.54708e-05
3.38224e-05
3.02903e-05
3.02902e-05
3.98602e-05
4.6859e-05
5.3664e-05
7.4842e-05
8.30512e-05
9.00239e-05
0.000102793
0.00010545
9.98373e-05
9.41631e-05
6.52941e-05
9.41631e-05
7.71062e-05
0.000108819
8.78451e-05
0.000105776
)
;
    }
    ceiling
    {
        type            nutkWallFunction;
        Cmu             0.09;
        kappa           0.41;
        E               9.8;
        value           nonuniform List<scalar> 
43
(
0.000241978
0.0002462
0.000250639
0.000272998
0.000264571
0.000251194
0.000230047
0.000215386
0.000202215
0.000189949
0.000178404
0.000168157
0.000158417
0.000148689
0.000138599
0.000127786
0.000115794
0.000101809
8.31624e-05
5.42377e-05
5.42031e-05
5.58901e-05
5.80449e-05
6.11886e-05
6.4985e-05
6.91651e-05
7.35855e-05
7.81948e-05
8.30104e-05
8.81179e-05
9.36988e-05
0.000100112
0.000106966
0.000114195
0.00012187
0.000130619
0.000134787
0.000132553
0.000124543
0.000116565
0.000333389
0.000399706
0.000226618
)
;
    }
    sWall
    {
        type            nutkWallFunction;
        Cmu             0.09;
        kappa           0.41;
        E               9.8;
        value           uniform 0.00024204;
    }
    nWall
    {
        type            nutkWallFunction;
        Cmu             0.09;
        kappa           0.41;
        E               9.8;
        value           nonuniform List<scalar> 6(9.0023e-05 9.22625e-05 0.00010294 0.000133945 0.000136106 0.00011657);
    }
    sideWalls
    {
        type            empty;
    }
    glass1
    {
        type            nutkWallFunction;
        Cmu             0.09;
        kappa           0.41;
        E               9.8;
        value           nonuniform List<scalar> 9(8.40004e-05 0.000130141 0.000169699 0.000209061 0.000248389 0.000288043 0.000328059 0.000339043 0.000333794);
    }
    glass2
    {
        type            nutkWallFunction;
        Cmu             0.09;
        kappa           0.41;
        E               9.8;
        value           nonuniform List<scalar> 2(0.000166029 0.000158564);
    }
    sun
    {
        type            nutkWallFunction;
        Cmu             0.09;
        kappa           0.41;
        E               9.8;
        value           nonuniform List<scalar> 
14
(
8.40394e-05
8.73723e-05
8.57074e-05
8.87853e-05
9.14185e-05
9.36109e-05
9.54504e-05
9.70298e-05
9.84412e-05
9.97861e-05
0.000100979
0.000101816
0.000102306
0.00010262
)
;
    }
    Table_master
    {
        type            nutkWallFunction;
        Cmu             0.09;
        kappa           0.41;
        E               9.8;
        value           nonuniform List<scalar> 9(6.45903e-05 5.70477e-05 5.11644e-05 4.66109e-05 4.3047e-05 4.01984e-05 3.78969e-05 3.60938e-05 3.49236e-05);
    }
    Table_slave
    {
        type            nutkWallFunction;
        Cmu             0.09;
        kappa           0.41;
        E               9.8;
        value           nonuniform List<scalar> 9(5.94813e-05 5.88387e-05 5.98538e-05 6.10547e-05 6.17033e-05 6.12807e-05 5.95221e-05 5.75535e-05 5.49595e-05);
    }
    inlet
    {
        type            calculated;
        value           uniform 0.000234787;
    }
    outlet
    {
        type            calculated;
        value           nonuniform List<scalar> 2(0.00207914 0.00211812);
    }
}


// ************************************************************************* //
