/*--------------------------------*- C++ -*----------------------------------*=========                 |
  \      /  F ield         | OpenFOAM: The Open Source CFD Toolbox
   \    /   O peration     | Website:  https://openfoam.org
    \  /    A nd           | Version:  6
     \/     M anipulation  |
\*---------------------------------------------------------------------------*/
FoamFile
{
    version     2.0;
    format      ascii;
    class       volScalarField;
    location    "600";
    object      PPD;
}
// * * * * * * * * * * * * * * * * * * * * * * * * * * * * * * * * * * * * * //

dimensions      [0 0 0 0 0 0 0];

internalField   nonuniform List<scalar> 
458
(
75.35891649487316
66.76638280483596
66.54896260640926
65.58452553325753
64.8081367788611
64.15385711816577
63.645776704122106
63.31071701950701
63.09853688095719
63.05766271410678
63.21943505762257
63.73431050275944
64.65038567348236
65.4846807820665
64.54629840826595
67.59457302129495
69.01087241288181
68.7841986771069
67.68612574032262
66.97747704842419
66.55584747659202
66.41714185282567
66.41763639681119
66.48595174894317
66.52727615621464
66.56922137126995
66.60021943878846
66.68935931709873
66.85817514860562
67.1817684955852
67.82672401727234
67.8162843618759
67.9143460358733
75.72765145152422
66.46232877367929
66.98219201174346
65.90453760749337
65.16077618503655
64.60570160542645
64.1680398658041
63.839260868710404
63.6477336283079
63.55074971230797
63.628556022361586
63.78665462630725
63.95303789690484
63.863436383622215
63.44008670692145
64.47461131639973
66.84879222358803
66.80938939700468
67.03176793667095
68.69538143625834
68.57375700604382
68.52506387847313
68.04070313058446
67.43855212948107
67.21794715486261
67.13748524580987
67.03422174109751
66.87663523475095
66.74367163429916
66.59731499516684
66.48603589269322
66.41497081100282
66.56372894035337
67.14069971332812
67.17662493832438
66.67494041680168
78.88767356441862
65.92798369606852
67.78560640712791
66.79970008719772
66.3795703503294
66.0712433467412
65.85084394334328
65.71321421241385
65.63002176638261
65.58204170750537
65.62117991708269
65.54984487540361
65.32731395484535
64.8149877501298
64.27257249482963
64.44869687326332
64.64892708861156
63.56840779889224
68.56194980187864
68.69538143625834
68.69538143625834
68.74398764024191
68.74398764024191
68.57375700604382
68.33004565190737
68.11018514551891
67.88983945361528
67.69357534308563
67.47233361225766
67.27528494670197
67.1025711196728
66.65742305103365
66.3516568275362
66.70855052823138
66.07961007644246
63.71491004972817
82.56187502792571
65.84837201775716
68.46125085559443
67.76612870531159
67.80830324128911
67.88496850093725
67.99048130193512
68.13078759283299
68.2559594383132
68.32110400079664
68.3363326991811
68.1436104388623
67.58551245959164
66.73035886063144
65.78209557292402
65.06547272574261
64.28812519018435
63.64446883318153
65.49684298681257
67.42552543071446
68.52559734095581
68.91391181247438
69.01087241288181
69.0593145624648
69.01087241288181
68.96240480275821
68.78727118270466
67.80956572099161
67.06715347117881
66.53470421650559
66.25404109246396
66.37184439571652
66.96545100200548
67.05242446349808
66.62159696502638
64.82703444852741
61.93893415000693
86.01018431380025
66.60646318172982
69.01630398300954
68.64547623334032
69.1589630442262
69.70088545964754
70.25019462634856
70.80362323927955
71.26395203513071
71.5430850838263
71.59095640688034
71.22197841228898
70.35726697403433
69.10658215106591
67.74143575146424
66.45251519845598
65.25547755564986
64.60427239024874
65.4018984908349
66.13816389332796
67.30446455454043
68.77167044672237
69.25282695083297
69.34942829831853
69.34942829831853
69.34942829831853
69.32528769430238
69.27698701058384
68.63440566538112
68.02933021046454
67.58268094231269
67.34508247437017
67.30712587953363
66.89294159342806
66.08336188447704
63.75580486118541
63.69329455328688
63.26962474047213
66.3835727012591
60.70925951191915
88.79584060921403
68.337584576971
70.23236571350678
69.47771018263944
70.17767234215363
71.1131565542569
72.20604260003893
73.37120031308321
74.4532107573387
75.19938543305207
75.31503126459799
74.48078769073042
73.05942423734848
71.34411763785842
69.5651048107957
67.88425366531314
66.44726222166355
65.545681874937
65.35520413980774
65.60672894253574
66.73147783886
68.30937797439644
69.44592556292835
69.566399806847
69.63860529696059
69.63860529696059
69.6145434114077
69.566399806847
69.49413496503412
69.37356239714839
69.20448744547255
68.71328476504809
68.0524049023895
67.09747895385694
65.90519743944816
63.64380254207946
63.27235512553168
62.90218546790423
63.58517363318328
63.67559268738788
90.76274113780528
72.39710824567769
75.42258252150285
71.57622679586184
70.83164962934951
71.85054983644204
73.34800645195385
75.15131074409265
76.34225355270328
77.03288543028941
77.73496737147055
76.3013778355084
74.4270666036129
72.49796590795991
70.57836218181248
68.78142316020471
67.24243103474285
66.12999336998772
65.4818528314984
65.4767144356103
66.62461428490701
68.32239698864434
69.48633173438083
69.78283715287911
69.85486298526243
69.8788581828365
69.8788581828365
69.830861074512
69.73478649677253
69.566399806847
69.34942829831853
69.0593145624648
68.76828136576488
68.12294601869107
66.59446186851815
64.49091603793647
63.455151690617775
62.67953686713885
61.48424610359244
65.45802748633204
93.63731775192416
85.21505433589441
83.78518272543188
78.61992342863238
75.67629261662171
74.52075616392814
74.53504031772884
75.05691553364328
75.65162741853636
75.66051569858311
75.33201575816187
74.59315553427119
73.35702920576009
71.8275946625024
70.25222563840742
68.76709473796986
67.49004799212636
66.444831238805
65.73559021874487
65.68645565503496
67.0250916929107
68.83776169346372
69.75881516170313
69.95080339814487
70.04663577118498
70.09451124656867
70.09451124656867
70.04663577118498
69.97477164468462
69.830861074512
69.63860529696059
69.37356239714839
68.98664178536653
68.6710689780108
68.37883690337787
68.08572611417968
67.03336364146446
65.80622173445258
62.7843072150626
59.870533627442015
96.53404996518847
94.0212030062251
91.47918933665332
87.5353513405145
83.14942026940625
79.59718226286716
77.16692353477957
75.7389394189199
74.98232605293978
74.53112738104171
73.55458025314749
72.26211332085767
70.89506052857658
69.59323413332132
68.48163144720873
67.56058329756223
66.83561224833349
66.2972316491018
65.93239672781293
66.24790670941906
67.92053666457213
69.47003354144917
69.8788581828365
70.09451124656867
69.79020228452188
69.42187432494725
69.06128512016068
68.67970144023272
68.26863371792855
67.85835834001558
67.38786013764197
66.89162142319076
66.43166860223988
66.04579671349289
65.43878807248778
64.79061644053434
64.26286286665848
63.91615650318581
63.313000795174325
61.55327390887356
5.254892505198157
18.998678028410083
40.42143228479629
54.688010156841656
61.69761541667909
64.82599136219585
66.07368867566029
66.32158950291681
66.40033703452508
66.21388846963507
65.96242675190516
65.71104971499196
65.54681898123624
65.54352363932735
65.67170424094101
65.85868727083906
66.12038540023815
67.1431087341926
68.81685001338155
69.54231810765616
69.95080339814487
69.97300371655864
69.38334786378667
68.81935175626903
68.30353570604984
67.84537830897119
67.41438963433008
67.03521680624958
66.71055222638626
66.48003526506429
66.34685892355722
66.32863024224511
66.31436002872354
66.41244385970614
66.77431791561429
68.13455013458267
70.41046880665773
63.94550489271065
6.66264068214295
22.53603838063276
40.26833266816945
51.070147549916335
56.81246056715508
59.409677336699225
60.44826454207812
60.78249811608107
61.01122944869443
61.30138891476563
61.71804644011546
62.22536450869461
62.88045102003529
63.71714126032957
64.73559619597307
65.84629361924844
66.9253455917202
68.15908522803184
68.88965582491511
69.566399806847
69.97477164468462
69.7530535137754
69.16667812735372
68.67900508802396
68.22441464795602
67.82474390743096
67.51471081953387
67.28792359715597
67.22319974436911
67.30059754424349
67.57571346524745
68.0670760406387
68.68657976691321
69.24815916959173
69.79951675102375
71.3048532426032
67.73959242571235
65.71412313056967
14.497002515036726
14.475755761356325
15.7603829714309
30.100175368764667
43.75758565660825
54.59570857808741
60.3004180487496
59.69291402869987
58.87696632178602
58.49692979299891
58.51580351462031
58.916749094687184
59.55845907561007
60.486438562886015
61.61627560552126
63.05880354742821
64.81164491717288
67.06017754334997
67.39848299487608
68.37883690337787
68.4994581993561
68.36188613369073
68.44557681772477
68.53306558495129
68.51940686028902
68.410691088131
68.23239903539967
68.02261085808556
67.84524076020587
67.7178673313887
67.72191381087626
67.94009969697603
68.47768169751193
69.4326302242366
70.53115663662282
70.7782792987175
69.76610903192488
68.74764102843857
66.54949469014596
65.68736562168411
)
;

boundaryField
{
    ".*"
    {
        type            zeroGradient;
    }
}


// ************************************************************************* //
