// -*- C++ -*-
// File generated by PyFoam - sorry for the ugliness

FoamFile
{
 version 2.0;
 format ascii;
 class volVectorField;
 location "600";
 object U;
}

dimensions [ 0 1 -1 0 0 0 0 ];

internalField nonuniform List<vector> 458
(
  (0.0824881 0.0711166 0)
  (-0.141018 0.00852789 0)
  (-0.139719 0.0118141 0)
  (-0.164909 0.0107938 0)
  (-0.18833 0.00831747 0)
  (-0.209063 0.00514824 0)
  (-0.22612 0.0014034 0)
  (-0.238614 -0.00298142 0)
  (-0.245614 -0.00814945 0)
  (-0.245835 -0.0143276 0)
  (-0.236827 -0.0221335 0)
  (-0.214564 -0.0324871 0)
  (-0.177086 -0.0474978 0)
  (-0.138193 -0.0714899 0)
  (-0.144271 -0.104852 0)
  (0.0678389 -0.0334611 0)
  (0.0412322 -0.0210953 0)
  (0.0537462 -0.0131615 0)
  (0.0680385 -0.0093901 0)
  (0.0776482 -0.0069093 0)
  (0.0832869 -0.00376099 0)
  (0.0847788 -0.00188233 0)
  (0.0835913 -0.0011415 0)
  (0.0817337 -0.000892 0)
  (0.0799434 -0.000780403 0)
  (0.078177 -0.00070101 0)
  (0.0762423 -0.000564837 0)
  (0.0738644 -0.000186677 0)
  (0.0704211 0.000818217 0)
  (0.0646629 0.00296861 0)
  (0.0552316 0.00552167 0)
  (0.0450979 0.00789286 0)
  (-0.00731538 0.0221928 0)
  (0.277794 0.1542 0)
  (-0.16073 0.0343912 0)
  (-0.128472 0.0402211 0)
  (-0.159804 0.0388329 0)
  (-0.185041 0.0357344 0)
  (-0.20721 0.0315146 0)
  (-0.225762 0.0261035 0)
  (-0.240046 0.019258 0)
  (-0.249263 0.010669 0)
  (-0.252272 -1.95352e-05 0)
  (-0.247688 -0.0128609 0)
  (-0.234783 -0.0276773 0)
  (-0.215201 -0.0457605 0)
  (-0.198151 -0.0685536 0)
  (-0.190482 -0.0840072 0)
  (-0.156863 -0.0535075 0)
  (-0.0910065 -0.0497005 0)
  (-0.0930034 -0.0419667 0)
  (0.0674444 -0.044008 0)
  (0.0244212 -0.0239824 0)
  (0.0354353 -0.0144657 0)
  (0.0488136 -0.0127441 0)
  (0.0588192 -0.0110224 0)
  (0.0660807 -0.002442 0)
  (0.0674228 0.00268116 0)
  (0.0667833 0.00439078 0)
  (0.0665144 0.00482006 0)
  (0.0666693 0.00494422 0)
  (0.0668192 0.00502827 0)
  (0.0668092 0.00526193 0)
  (0.0666082 0.00601481 0)
  (0.0657097 0.00814476 0)
  (0.0617746 0.0140462 0)
  (0.0519827 0.0193663 0)
  (0.0459561 0.0231548 0)
  (-0.0453957 0.0470115 0)
  (0.449382 0.236708 0)
  (-0.203055 0.0672764 0)
  (-0.103878 0.0699158 0)
  (-0.140591 0.0631752 0)
  (-0.163669 0.0562317 0)
  (-0.184193 0.0478751 0)
  (-0.201582 0.0376009 0)
  (-0.215339 0.0250975 0)
  (-0.224765 0.0102147 0)
  (-0.228822 -0.006942 0)
  (-0.225915 -0.0261361 0)
  (-0.216747 -0.0472688 0)
  (-0.203338 -0.0697751 0)
  (-0.189925 -0.0916242 0)
  (-0.174667 -0.103952 0)
  (-0.145977 -0.0977183 0)
  (-0.110985 -0.106588 0)
  (-0.12048 -0.121031 0)
  (0.0337181 -0.0476303 0)
  (-0.00279113 -0.0353435 0)
  (0.0134332 -0.0278652 0)
  (0.027455 -0.0262634 0)
  (0.037574 -0.0267252 0)
  (0.0499547 -0.0171253 0)
  (0.0475266 -0.0103693 0)
  (0.044492 -0.00707172 0)
  (0.0447598 -0.0054417 0)
  (0.0465991 -0.00445313 0)
  (0.0486226 -0.0037598 0)
  (0.0506815 -0.00311723 0)
  (0.0533742 -0.00208892 0)
  (0.0580395 0.0013577 0)
  (0.0581328 0.0190214 0)
  (0.0470047 0.0310419 0)
  (0.0506082 0.039101 0)
  (-0.080629 0.0724651 0)
  (0.595828 0.306228 0)
  (-0.253515 0.102854 0)
  (-0.0704921 0.0972528 0)
  (-0.113396 0.0856875 0)
  (-0.131354 0.0767388 0)
  (-0.148408 0.0664106 0)
  (-0.16348 0.0537266 0)
  (-0.17608 0.0381364 0)
  (-0.185498 0.0192204 0)
  (-0.190545 -0.00318147 0)
  (-0.188807 -0.0285699 0)
  (-0.182095 -0.0554107 0)
  (-0.172221 -0.0813365 0)
  (-0.16159 -0.102794 0)
  (-0.149207 -0.114993 0)
  (-0.132946 -0.118509 0)
  (-0.120567 -0.122317 0)
  (-0.122699 -0.111353 0)
  (-0.10104 -0.0478228 0)
  (-0.0406849 -0.0607277 0)
  (-0.021041 -0.0536556 0)
  (-0.0038237 -0.0440719 0)
  (0.00829777 -0.0374985 0)
  (0.0128524 -0.0340123 0)
  (0.0218092 -0.0214401 0)
  (0.0389126 -0.0165103 0)
  (0.0541324 -0.0138096 0)
  (0.0669393 -0.011801 0)
  (0.07748 -0.00969475 0)
  (0.0850151 -0.00706317 0)
  (0.0882026 -0.00374863 0)
  (0.0847265 0.000671845 0)
  (0.0731004 0.00671657 0)
  (0.0581213 0.0273019 0)
  (0.0443715 0.0446165 0)
  (0.0581822 0.0582845 0)
  (-0.107861 0.0950898 0)
  (0.717138 0.363256 0)
  (-0.302502 0.137484 0)
  (-0.0326561 0.115515 0)
  (-0.0811498 0.101746 0)
  (-0.0925037 0.0921291 0)
  (-0.10463 0.0806518 0)
  (-0.115845 0.066202 0)
  (-0.125695 0.0480968 0)
  (-0.13375 0.0257349 0)
  (-0.138751 -0.00119372 0)
  (-0.137296 -0.0317585 0)
  (-0.131621 -0.0630054 0)
  (-0.12388 -0.0911559 0)
  (-0.115695 -0.112848 0)
  (-0.106981 -0.126032 0)
  (-0.0977388 -0.132504 0)
  (-0.0907157 -0.134906 0)
  (-0.0839208 -0.126256 0)
  (-0.066316 -0.0962143 0)
  (-0.0404383 -0.0859395 0)
  (-0.0230058 -0.0716386 0)
  (-0.0106434 -0.0568102 0)
  (-0.00185883 -0.0463448 0)
  (0.00458761 -0.0381872 0)
  (0.0144641 -0.0272174 0)
  (0.0269372 -0.0219993 0)
  (0.0389013 -0.0192486 0)
  (0.0498644 -0.0167306 0)
  (0.0596208 -0.0131542 0)
  (0.0675062 -0.0075463 0)
  (0.0725724 0.000717044 0)
  (0.0727894 0.0106289 0)
  (0.0678075 0.0220363 0)
  (0.0598009 0.0388377 0)
  (0.0484901 0.0569689 0)
  (0.0695432 0.0765251 0)
  (-0.00277102 0.104962 0)
  (0.0445195 0.13616 0)
  (-0.086855 0.054352 0)
  (-0.268536 -0.0122509 0)
  (0.800702 0.413455 0)
  (-0.344273 0.166286 0)
  (-0.000188137 0.11715 0)
  (-0.0438611 0.111436 0)
  (-0.0494657 0.102533 0)
  (-0.0566651 0.0901404 0)
  (-0.0630588 0.0746886 0)
  (-0.0684618 0.0553624 0)
  (-0.0732854 0.031185 0)
  (-0.0764111 0.00110241 0)
  (-0.0725804 -0.0342866 0)
  (-0.0671385 -0.0690527 0)
  (-0.0618927 -0.0981939 0)
  (-0.0575877 -0.119489 0)
  (-0.054162 -0.132488 0)
  (-0.0515695 -0.138625 0)
  (-0.0502293 -0.138666 0)
  (-0.0475787 -0.13021 0)
  (-0.0391806 -0.11458 0)
  (-0.0272742 -0.101067 0)
  (-0.0186635 -0.0824434 0)
  (-0.0127444 -0.064131 0)
  (-0.00837619 -0.0521859 0)
  (-0.00440513 -0.0442029 0)
  (0.00196591 -0.0369226 0)
  (0.010234 -0.0328241 0)
  (0.0188191 -0.0302365 0)
  (0.0273969 -0.0274859 0)
  (0.0358315 -0.023222 0)
  (0.0437952 -0.0160846 0)
  (0.0509393 -0.00474368 0)
  (0.0562112 0.00981359 0)
  (0.0571332 0.025196 0)
  (0.0568896 0.0421865 0)
  (0.0546383 0.059978 0)
  (0.0748732 0.0809026 0)
  (0.0617145 0.0950873 0)
  (0.0923763 0.0971204 0)
  (0.114556 0.0552774 0)
  (-0.140896 -0.0341941 0)
  (0.823988 0.458146 0)
  (-0.364169 0.159826 0)
  (0.0209089 0.0743552 0)
  (0.00903378 0.112703 0)
  (0.00335136 0.116278 0)
  (-0.0036176 0.0991992 0)
  (-0.00690315 0.0796588 0)
  (-0.00771841 0.0587707 0)
  (-0.00799531 0.034064 0)
  (-0.0066339 0.00181143 0)
  (0.00585112 -0.0401736 0)
  (0.0102349 -0.0747283 0)
  (0.0113388 -0.101789 0)
  (0.00975112 -0.120932 0)
  (0.00603367 -0.132502 0)
  (0.000800136 -0.137637 0)
  (-0.00526895 -0.136998 0)
  (-0.0102055 -0.130528 0)
  (-0.0117431 -0.120022 0)
  (-0.0109181 -0.106113 0)
  (-0.0119216 -0.0850341 0)
  (-0.0132463 -0.0651877 0)
  (-0.0142095 -0.0534694 0)
  (-0.0145384 -0.0466572 0)
  (-0.0129857 -0.0421063 0)
  (-0.00981637 -0.0392702 0)
  (-0.00574796 -0.0372744 0)
  (-0.00103128 -0.0350494 0)
  (0.00442684 -0.0312808 0)
  (0.0105353 -0.0246454 0)
  (0.0177317 -0.0132021 0)
  (0.0297385 0.00451764 0)
  (0.0371055 0.0219591 0)
  (0.0440011 0.0381323 0)
  (0.0508921 0.0529855 0)
  (0.0709352 0.0696997 0)
  (0.084095 0.0759948 0)
  (0.114686 0.06641 0)
  (0.158006 0.0495578 0)
  (-0.0240872 0.0905167 0)
  (0.921772 0.475692 0)
  (-0.136282 0.139001 0)
  (0.0850307 -0.00393579 0)
  (0.127391 0.036621 0)
  (0.10323 0.0730155 0)
  (0.0802668 0.0741039 0)
  (0.0712311 0.0590467 0)
  (0.0709701 0.0390296 0)
  (0.0741214 0.0134883 0)
  (0.0870546 -0.0185108 0)
  (0.0972786 -0.0492182 0)
  (0.0980617 -0.0763233 0)
  (0.0923992 -0.0981155 0)
  (0.0824564 -0.113736 0)
  (0.0696267 -0.123213 0)
  (0.0551733 -0.127232 0)
  (0.0402911 -0.12663 0)
  (0.0263191 -0.12209 0)
  (0.0148146 -0.114313 0)
  (0.00545529 -0.101149 0)
  (-0.00529929 -0.0789294 0)
  (-0.0142273 -0.0591852 0)
  (-0.0208572 -0.0491598 0)
  (-0.0263046 -0.0441636 0)
  (-0.0298691 -0.0414646 0)
  (-0.0320777 -0.0399686 0)
  (-0.0334191 -0.0389037 0)
  (-0.0341459 -0.0375288 0)
  (-0.0341959 -0.0350447 0)
  (-0.0332392 -0.0306346 0)
  (-0.0304268 -0.0234504 0)
  (-0.0232785 -0.0126111 0)
  (-0.00419968 0.00295895 0)
  (0.00872452 0.018016 0)
  (0.021264 0.0258832 0)
  (0.0412683 0.0325672 0)
  (0.0600532 0.0267287 0)
  (0.0856076 0.00591577 0)
  (0.151285 0.0399985 0)
  (-0.402495 0.199475 0)
  (1.04848 0.443308 0)
  (0.49897 0.302283 0)
  (0.518688 0.298044 0)
  (0.493042 0.256163 0)
  (0.411391 0.211404 0)
  (0.334292 0.163035 0)
  (0.28358 0.115081 0)
  (0.254476 0.0719281 0)
  (0.2393 0.0334176 0)
  (0.227865 -0.00274562 0)
  (0.213418 -0.0354392 0)
  (0.196132 -0.0621633 0)
  (0.17603 -0.0820887 0)
  (0.153492 -0.0956487 0)
  (0.129275 -0.103709 0)
  (0.104411 -0.107255 0)
  (0.0800092 -0.107241 0)
  (0.0571745 -0.104482 0)
  (0.0371253 -0.099018 0)
  (0.0190708 -0.0867278 0)
  (-0.00051193 -0.0654616 0)
  (-0.017178 -0.046746 0)
  (-0.0288182 -0.039341 0)
  (-0.0390606 -0.036368 0)
  (-0.0475947 -0.0351497 0)
  (-0.0551735 -0.0345823 0)
  (-0.0623445 -0.0339997 0)
  (-0.0695158 -0.0327727 0)
  (-0.077001 -0.0301787 0)
  (-0.085132 -0.0253653 0)
  (-0.0943178 -0.0173654 0)
  (-0.104679 -0.00543796 0)
  (-0.115242 0.0102384 0)
  (-0.125127 0.0274212 0)
  (-0.145564 0.0458003 0)
  (-0.178255 0.0655439 0)
  (-0.225544 0.0836558 0)
  (-0.279136 0.0975226 0)
  (-0.351315 0.106125 0)
  (-0.621986 0.108855 0)
  (0.35872 -0.0871068 0)
  (0.374725 0.12259 0)
  (0.357817 0.185329 0)
  (0.328385 0.173853 0)
  (0.311215 0.134303 0)
  (0.303903 0.0895575 0)
  (0.299407 0.0489089 0)
  (0.293277 0.0147585 0)
  (0.278597 -0.0139647 0)
  (0.25694 -0.0369368 0)
  (0.230297 -0.0542149 0)
  (0.200281 -0.0662763 0)
  (0.168428 -0.0738714 0)
  (0.136136 -0.0779074 0)
  (0.104651 -0.0793521 0)
  (0.0752411 -0.0791001 0)
  (0.0493118 -0.0769232 0)
  (0.0252203 -0.0662274 0)
  (-0.000994947 -0.0469161 0)
  (-0.0223235 -0.0321176 0)
  (-0.0369088 -0.0276544 0)
  (-0.0500606 -0.0262149 0)
  (-0.0619196 -0.0255989 0)
  (-0.0731792 -0.0249503 0)
  (-0.0842115 -0.023755 0)
  (-0.0951626 -0.021531 0)
  (-0.105962 -0.0177709 0)
  (-0.116335 -0.0119773 0)
  (-0.125804 -0.00369034 0)
  (-0.133448 0.00747246 0)
  (-0.1377 0.0218937 0)
  (-0.140118 0.0403763 0)
  (-0.142536 0.0614826 0)
  (-0.145936 0.0819174 0)
  (-0.147312 0.092479 0)
  (-0.131993 0.0717517 0)
  (-0.101551 -0.021569 0)
  (-0.280256 -0.199761 0)
  (0.107478 0.331621 0)
  (0.0182445 0.255557 0)
  (0.0891211 0.218769 0)
  (0.144267 0.175754 0)
  (0.192177 0.126257 0)
  (0.228953 0.0791422 0)
  (0.252045 0.0415254 0)
  (0.260935 0.0135859 0)
  (0.257798 -0.0064937 0)
  (0.244726 -0.0208911 0)
  (0.224192 -0.0311923 0)
  (0.198264 -0.0383352 0)
  (0.168734 -0.0430161 0)
  (0.137145 -0.0459051 0)
  (0.104821 -0.0477524 0)
  (0.0732656 -0.0494848 0)
  (0.0441051 -0.0510999 0)
  (0.015708 -0.0412375 0)
  (-0.0101786 -0.0293814 0)
  (-0.0277267 -0.0257864 0)
  (-0.0413775 -0.0257829 0)
  (-0.0539647 -0.0261441 0)
  (-0.0657594 -0.0264111 0)
  (-0.0771464 -0.0264311 0)
  (-0.088185 -0.0260252 0)
  (-0.0986792 -0.0249194 0)
  (-0.108188 -0.0227126 0)
  (-0.116009 -0.0188457 0)
  (-0.121133 -0.0125041 0)
  (-0.122305 -0.00240597 0)
  (-0.118457 0.0114713 0)
  (-0.108254 0.0293165 0)
  (-0.0913998 0.0505049 0)
  (-0.0690893 0.0717001 0)
  (-0.0438541 0.0858481 0)
  (-0.00794712 0.0751288 0)
  (0.147631 0.000434201 0)
  (-0.209081 -0.113189 0)
  (-0.472939 -0.538339 0)
  (-0.653645 -0.121018 0)
  (-0.483211 0.240214 0)
  (-0.372804 0.174552 0)
  (-0.189806 0.150946 0)
  (-0.0513975 0.125097 0)
  (0.074166 0.0796525 0)
  (0.143318 0.0490575 0)
  (0.190516 0.0275455 0)
  (0.214473 0.0130763 0)
  (0.219638 0.00338484 0)
  (0.212244 -0.00358734 0)
  (0.195944 -0.00883678 0)
  (0.173455 -0.0127977 0)
  (0.146728 -0.0157156 0)
  (0.117216 -0.0178445 0)
  (0.085869 -0.0195978 0)
  (0.053213 -0.0218921 0)
  (0.018144 -0.0235376 0)
  (-0.0294396 0.0253957 0)
  (-0.03301 0.0508847 0)
  (-0.0390939 0.0564352 0)
  (-0.0453176 0.055909 0)
  (-0.0523373 0.0532145 0)
  (-0.0602227 0.0499504 0)
  (-0.0687284 0.0468514 0)
  (-0.0774495 0.0441927 0)
  (-0.0859077 0.0420437 0)
  (-0.0935181 0.0403803 0)
  (-0.0994741 0.0391181 0)
  (-0.102509 0.038153 0)
  (-0.100714 0.0374923 0)
  (-0.0910736 0.0393686 0)
  (-0.0713287 0.0450477 0)
  (-0.041478 0.0549429 0)
  (0.0032284 0.0689241 0)
  (0.0523261 0.0733358 0)
  (0.0961953 0.0584974 0)
  (0.16488 0.0277975 0)
  (-0.228387 -0.028429 0)
)
;

boundaryField
{
  floor
  {
    type noSlip;
  }
  ceiling
  {
    type noSlip;
  }
  sWall
  {
    type noSlip;
  }
  nWall
  {
    type noSlip;
  }
  sideWalls
  {
    type empty;
  }
  glass1
  {
    type noSlip;
  }
  glass2
  {
    type noSlip;
  }
  sun
  {
    type noSlip;
  }
  Table_master
  {
    type noSlip;
  }
  Table_slave
  {
    type noSlip;
  }
  inlet
  {
    type fixedValue;
    value uniform (0.7 0 0);
  }
  outlet
  {
    type zeroGradient;
  }
} 	// ************************************************************************* //

