/*--------------------------------*- C++ -*----------------------------------*\
  =========                 |
  \\      /  F ield         | OpenFOAM: The Open Source CFD Toolbox
   \\    /   O peration     | Website:  https://openfoam.org
    \\  /    A nd           | Version:  6
     \\/     M anipulation  |
\*---------------------------------------------------------------------------*/
FoamFile
{
    version     2.0;
    format      ascii;
    class       volScalarField;
    location    "500";
    object      nut;
}
// * * * * * * * * * * * * * * * * * * * * * * * * * * * * * * * * * * * * * //

dimensions      [0 2 -1 0 0 0 0];

internalField   nonuniform List<scalar> 
458
(
0.000832828
0.000886818
0.000884625
0.000920249
0.000952197
0.000980643
0.00100665
0.00103134
0.00105604
0.00107879
0.00109511
0.00110265
0.00110048
0.00109178
0.00108113
0.00042969
0.000541337
0.000533495
0.000520128
0.000505245
0.000486222
0.0004666
0.000448264
0.000431434
0.000416058
0.000401914
0.000388671
0.000375962
0.000363302
0.000350005
0.000334748
0.000318366
0.000286857
0.00121629
0.00236708
0.00211029
0.00244989
0.00269832
0.0029554
0.00321011
0.00344394
0.00362533
0.0037562
0.0038397
0.00382857
0.00364656
0.0031737
0.00224897
0.00112093
0.000978564
0.000841614
0.000690997
0.000927445
0.00111914
0.00126187
0.00132148
0.00112648
0.00102714
0.000958577
0.000905662
0.000858969
0.000813133
0.000766112
0.00071436
0.000655479
0.000602345
0.000560238
0.00061943
0.000345273
0.00155488
0.00337266
0.00244881
0.003422
0.0037626
0.00400051
0.00417948
0.00431669
0.00442594
0.00452425
0.00462528
0.00470659
0.0047439
0.00473076
0.00466316
0.00439962
0.00353272
0.00107686
0.000841049
0.0012298
0.00149867
0.00170957
0.00174854
0.000615384
0.000556209
0.000506303
0.000465053
0.000431199
0.000403512
0.000380919
0.000362858
0.000349627
0.000391492
0.000461861
0.000683482
0.000386026
0.00189876
0.00477951
0.00243338
0.00374204
0.0042272
0.00438325
0.00442707
0.00442629
0.00443293
0.00447413
0.00455284
0.00464226
0.00471991
0.00479187
0.00487608
0.00490916
0.004688
0.0038355
0.00104581
0.0014129
0.00181717
0.00211
0.00231103
0.00223529
0.000637457
0.000600171
0.000585887
0.000581781
0.000578984
0.000571284
0.000555724
0.000538111
0.00051479
0.00048232
0.00047912
0.000738089
0.000427485
0.0022572
0.0066898
0.00302757
0.00351269
0.00433047
0.00451868
0.00449102
0.0043857
0.0043065
0.00431142
0.00439539
0.00449199
0.00456076
0.00460247
0.00464427
0.00467291
0.00458571
0.00428676
0.0035737
0.00326227
0.0031138
0.00303238
0.00298908
0.00289818
0.00257826
0.00254096
0.00257205
0.0025946
0.00258209
0.00252048
0.00237994
0.00209938
0.00172435
0.00129963
0.000955407
0.000844914
0.000643016
0.000508503
0.00054551
0.000570548
0.00263667
0.0088266
0.00518515
0.00355482
0.00386227
0.00422955
0.00438727
0.00436309
0.00423827
0.00421908
0.00433627
0.00444281
0.0044936
0.00449437
0.00448359
0.0044733
0.00440489
0.00421731
0.00390354
0.00365957
0.00348188
0.00330966
0.00315922
0.00305461
0.00301619
0.00306044
0.00311195
0.00313593
0.00312636
0.0030807
0.00299453
0.00280059
0.00247739
0.00202701
0.00156012
0.00117785
0.000896144
0.000893251
0.00130226
0.00076887
0.00299369
0.0105011
0.00848571
0.00583603
0.00456481
0.00402193
0.00396948
0.00413575
0.00422487
0.00430309
0.00440999
0.00448518
0.00449651
0.00445667
0.00441514
0.00440001
0.00435378
0.00419348
0.00393536
0.00370759
0.00348255
0.00321944
0.00304217
0.00297558
0.00298992
0.0030429
0.00309045
0.00311434
0.00311768
0.00310566
0.003085
0.00304596
0.00284329
0.00248499
0.00206177
0.00165599
0.00132664
0.00122212
0.00150842
0.000939767
0.00306593
0.00971658
0.00888592
0.00837489
0.00714903
0.00591494
0.00514394
0.00483625
0.00472262
0.00463079
0.00460087
0.00458889
0.00452788
0.00443232
0.00437152
0.00437796
0.00436284
0.00420986
0.00394035
0.00362998
0.00327382
0.00300561
0.00287672
0.00283678
0.00284016
0.002858
0.00287273
0.00288113
0.00288928
0.00290946
0.0029556
0.00303629
0.0030825
0.00283493
0.00254364
0.00233758
0.00229372
0.00235822
0.00297677
0.00130646
0.00299029
0.00354847
0.00394948
0.00436085
0.0047592
0.00486436
0.00478404
0.00468142
0.00461865
0.00462592
0.00466315
0.00463997
0.0044968
0.00433626
0.00427924
0.00434325
0.00435714
0.00416354
0.00381626
0.00337322
0.00301569
0.00281407
0.00271618
0.00266475
0.00263099
0.00260062
0.00256616
0.00252609
0.00248243
0.00243676
0.0023862
0.00232225
0.00223432
0.0021415
0.0020703
0.00204265
0.00202396
0.00196776
0.00188058
0.00128521
0.00206208
0.00451457
0.00475049
0.00493837
0.0050357
0.00508338
0.00511327
0.00508928
0.0049678
0.00469654
0.00429655
0.00405931
0.00407418
0.00425979
0.00425793
0.00391534
0.00345783
0.00309096
0.00286516
0.0027279
0.00262671
0.00253703
0.00245092
0.00236646
0.00228332
0.00220211
0.00212508
0.00205683
0.00200368
0.00197194
0.00196493
0.00196114
0.00195747
0.00194341
0.00188715
0.00175869
0.00157631
0.00108887
0.002333
0.00541892
0.0054607
0.00548261
0.00548554
0.00538279
0.00523331
0.00501302
0.00455966
0.00394263
0.0033377
0.00335418
0.00371787
0.00421464
0.00428077
0.00396479
0.003604
0.00336636
0.00320461
0.00308377
0.00297005
0.00284722
0.00271241
0.00257088
0.0024317
0.00230435
0.00219639
0.00211213
0.00205178
0.00200981
0.00199916
0.00201705
0.00204671
0.00206218
0.00205212
0.00201907
0.00206049
0.00111043
0.00177186
0.00194696
0.00208497
0.00223109
0.00228954
0.00226061
0.00216288
0.00193204
0.00172888
0.00151052
0.00134246
0.00118274
0.00098172
0.000904063
0.000936378
0.000941895
0.000901858
0.000853568
0.00082016
0.000797886
0.00078565
0.000775416
0.000765261
0.000755532
0.000747868
0.000744326
0.000746624
0.00075573
0.000771925
0.000795216
0.000825913
0.000865337
0.0009101
0.000958954
0.00101212
0.00106714
0.00112511
0.00110858
0.00102846
0.000957194
)
;

boundaryField
{
    floor
    {
        type            nutkWallFunction;
        Cmu             0.09;
        kappa           0.41;
        E               9.8;
        value           nonuniform List<scalar> 
36
(
0.000130229
5.0648e-05
6.49546e-05
6.39619e-05
6.22652e-05
6.03692e-05
5.79354e-05
5.54122e-05
5.30422e-05
5.08561e-05
4.88495e-05
4.69952e-05
4.52514e-05
4.35708e-05
4.18893e-05
4.01151e-05
3.80683e-05
3.58575e-05
3.1562e-05
3.15619e-05
3.94819e-05
4.49029e-05
5.03435e-05
6.07912e-05
6.54923e-05
6.86499e-05
0.000130229
0.000134862
0.000118202
0.000101911
5.0648e-05
0.000101911
8.36218e-05
0.000129736
0.000101832
0.000126095
)
;
    }
    ceiling
    {
        type            nutkWallFunction;
        Cmu             0.09;
        kappa           0.41;
        E               9.8;
        value           nonuniform List<scalar> 
43
(
0.000208356
0.000227574
0.000242592
0.000258421
0.000264725
0.000261632
0.000251107
0.00022602
0.000203674
0.000179333
0.000160333
0.000142031
0.000118596
0.000109357
0.000113199
0.00011386
0.00010911
0.00010334
9.93269e-05
9.664e-05
9.51606e-05
9.39214e-05
9.26898e-05
9.15079e-05
9.05753e-05
9.01438e-05
9.04233e-05
9.15312e-05
9.3498e-05
9.63182e-05
0.00010002
0.000104752
0.000110094
0.00011589
0.000122158
0.000128606
0.000135357
0.000133436
0.000124076
0.000115681
0.000339146
0.000396964
0.000269177
)
;
    }
    sWall
    {
        type            nutkWallFunction;
        Cmu             0.09;
        kappa           0.41;
        E               9.8;
        value           uniform 0.000208411;
    }
    nWall
    {
        type            nutkWallFunction;
        Cmu             0.09;
        kappa           0.41;
        E               9.8;
        value           nonuniform List<scalar> 6(6.86441e-05 9.31302e-05 0.000113625 0.000131148 0.000133658 0.000115686);
    }
    sideWalls
    {
        type            empty;
    }
    glass1
    {
        type            nutkWallFunction;
        Cmu             0.09;
        kappa           0.41;
        E               9.8;
        value           nonuniform List<scalar> 9(0.000100864 0.000146034 0.000184549 0.000222717 0.000261708 0.000302274 0.00033988 0.000347441 0.000339549);
    }
    glass2
    {
        type            nutkWallFunction;
        Cmu             0.09;
        kappa           0.41;
        E               9.8;
        value           nonuniform List<scalar> 2(0.000156288 0.000153858);
    }
    sun
    {
        type            nutkWallFunction;
        Cmu             0.09;
        kappa           0.41;
        E               9.8;
        value           nonuniform List<scalar> 
14
(
0.000100849
0.000107314
0.000107051
0.000111294
0.000115082
0.000118443
0.000121505
0.000124405
0.000127297
0.000129954
0.000131856
0.000132734
0.000132483
0.00013147
)
;
    }
    Table_master
    {
        type            nutkWallFunction;
        Cmu             0.09;
        kappa           0.41;
        E               9.8;
        value           nonuniform List<scalar> 9(7.42579e-05 6.68391e-05 6.05074e-05 5.52156e-05 5.0829e-05 4.72093e-05 4.42323e-05 4.18363e-05 4.00713e-05);
    }
    Table_slave
    {
        type            nutkWallFunction;
        Cmu             0.09;
        kappa           0.41;
        E               9.8;
        value           nonuniform List<scalar> 9(7.70007e-05 7.23584e-05 7.05723e-05 7.00593e-05 6.97101e-05 6.87441e-05 6.67845e-05 6.45583e-05 6.15966e-05);
    }
    inlet
    {
        type            calculated;
        value           uniform 0.000268328;
    }
    outlet
    {
        type            calculated;
        value           nonuniform List<scalar> 2(0.00177186 0.00194696);
    }
}


// ************************************************************************* //
