/*--------------------------------*- C++ -*----------------------------------*\
  =========                 |
  \\      /  F ield         | OpenFOAM: The Open Source CFD Toolbox
   \\    /   O peration     | Website:  https://openfoam.org
    \\  /    A nd           | Version:  6
     \\/     M anipulation  |
\*---------------------------------------------------------------------------*/
FoamFile
{
    version     2.0;
    format      ascii;
    class       volScalarField;
    location    "2600";
    object      nut;
}
// * * * * * * * * * * * * * * * * * * * * * * * * * * * * * * * * * * * * * //

dimensions      [0 2 -1 0 0 0 0];

internalField   nonuniform List<scalar> 
458
(
0.000671266
0.000683996
0.000597404
0.000610733
0.00062891
0.000646855
0.000664524
0.000682417
0.000701395
0.000719988
0.000736832
0.000751663
0.000764923
0.000777797
0.00078848
0.000287357
0.000315343
0.000330048
0.000286387
0.000233171
0.000192461
0.000197866
0.000214829
0.000236232
0.000257799
0.000274845
0.000278142
0.000275181
0.000277347
0.000291486
0.000323903
0.000312645
0.00028512
0.00120108
0.00221658
0.00153487
0.00226904
0.00251199
0.00266993
0.00280645
0.00291451
0.00297982
0.00301112
0.00298995
0.00288907
0.00266285
0.00223252
0.00153628
0.000867388
0.00082561
0.000571017
0.000413401
0.000781285
0.000881637
0.000823719
0.000523295
0.00030657
0.000354926
0.00048844
0.000646206
0.000787988
0.000887146
0.000908325
0.00091796
0.000974786
0.00115901
0.000979549
0.000770234
0.000353803
0.00169258
0.00408302
0.00180261
0.00297545
0.00383449
0.00414204
0.00433574
0.00447708
0.00456806
0.00461713
0.0046223
0.00456236
0.00439747
0.00406038
0.00348609
0.00271149
0.00179922
0.000899016
0.00066557
0.00171423
0.00145366
0.00108806
0.000672707
0.000269488
0.000282529
0.000309848
0.000337905
0.000367551
0.000401041
0.000443202
0.000502819
0.000601533
0.00193017
0.00204155
0.00176951
0.000601501
0.00216366
0.00649203
0.00282127
0.00294319
0.00420545
0.0047642
0.00507122
0.00528535
0.00543448
0.00553459
0.00562155
0.00568471
0.00568926
0.00556308
0.00519158
0.00445605
0.0032919
0.00188301
0.000943011
0.00233973
0.00223369
0.00173984
0.00126113
0.000904005
0.000636032
0.000638175
0.000642601
0.000650008
0.000662409
0.000682106
0.000711952
0.000756749
0.000830866
0.00262047
0.00283185
0.00245105
0.000812391
0.0025995
0.00909238
0.00501263
0.00361546
0.0040977
0.00465743
0.00509341
0.005426
0.00566048
0.00582392
0.00600902
0.00622963
0.00647334
0.00669689
0.00682481
0.0067864
0.00654496
0.00609482
0.00552624
0.00527972
0.00482002
0.00438656
0.00406507
0.0038069
0.00360567
0.00348108
0.00336469
0.00325278
0.00315554
0.00309001
0.00307263
0.0031109
0.00320267
0.00336688
0.00335597
0.00323595
0.00271054
0.0011678
0.00102765
0.000898615
0.00299841
0.0113762
0.0082341
0.00590812
0.00499945
0.00478026
0.0049426
0.00522327
0.0054712
0.0056416
0.00584982
0.00613933
0.00652357
0.0069753
0.00741282
0.00774261
0.0078987
0.00782209
0.00750618
0.00706274
0.00658239
0.00615613
0.00581514
0.00554472
0.00532017
0.00511651
0.00491007
0.00468591
0.0044424
0.0041984
0.00398785
0.00383434
0.00372812
0.0036342
0.0035207
0.00337405
0.00311945
0.00257628
0.00190662
0.000934744
0.00331548
0.0124949
0.0108729
0.00875132
0.00721806
0.00617611
0.00565206
0.00546261
0.00543839
0.005452
0.00552358
0.00570358
0.00603533
0.00654459
0.00715774
0.00772385
0.00813719
0.00830942
0.00821464
0.00792056
0.00753555
0.00715014
0.00681165
0.00653167
0.00630343
0.00611237
0.00593877
0.0057532
0.00551976
0.00521694
0.00486663
0.00452366
0.00421791
0.00393705
0.00365085
0.00332361
0.00290279
0.00237561
0.00181221
0.000929487
0.00331259
0.0105586
0.00974764
0.00972319
0.00879398
0.00768718
0.00681482
0.00619551
0.00577758
0.00550573
0.00536215
0.00534297
0.00547798
0.00580941
0.00633843
0.00697462
0.0075659
0.00796848
0.0081142
0.00802776
0.00779837
0.00751249
0.00722764
0.00697527
0.00676994
0.00661801
0.0065205
0.00646601
0.00641839
0.00631288
0.00609241
0.00576685
0.00536917
0.00492423
0.00443534
0.00391914
0.0033717
0.00286273
0.00247771
0.00136321
0.0031579
0.00360994
0.00952044
0.0102802
0.00931388
0.00820653
0.0072434
0.00648656
0.00592545
0.00552691
0.0052627
0.00512428
0.00512334
0.00527828
0.00559987
0.00606206
0.00657734
0.00702418
0.00731041
0.00741354
0.0073709
0.00723883
0.00706718
0.00689192
0.00673709
0.00662037
0.00655798
0.00656497
0.0066479
0.00678448
0.00690448
0.00696634
0.00695598
0.00691867
0.00690435
0.00674838
0.00622667
0.00520427
0.00493984
0.00158041
0.0213812
0.0186396
0.0111136
0.00886449
0.00764621
0.00681221
0.00621257
0.0057864
0.00550032
0.00533325
0.00526851
0.00529193
0.00539419
0.00556421
0.00578265
0.00602148
0.0062403
0.00640302
0.0064944
0.00651987
0.00649637
0.00644392
0.00638102
0.00632383
0.00628756
0.00628815
0.00634112
0.00644624
0.00660217
0.00679867
0.00699764
0.00715342
0.00721566
0.00705236
0.00656789
0.00576107
0.00478325
0.00159321
0.00695202
0.0131354
0.00918272
0.00759415
0.00674149
0.00616556
0.00576069
0.00549013
0.00533321
0.0052695
0.00527538
0.00532756
0.00540776
0.00550527
0.0056146
0.00573019
0.0058427
0.00594111
0.00601702
0.00606733
0.00609402
0.00610192
0.00609641
0.00608194
0.00606162
0.00603761
0.00601236
0.00598994
0.00597643
0.00598141
0.00601421
0.00606996
0.00608541
0.00591335
0.00552711
0.00487445
0.00441374
0.00157186
0.00197661
0.00313168
0.00495906
0.00387733
0.00284362
0.00229037
0.00204326
0.00186248
0.00171652
0.00159953
0.0015083
0.00143998
0.00139159
0.00135985
0.00134129
0.00133258
0.00133075
0.00133314
0.00133755
0.00134214
0.00134554
0.00134705
0.00134653
0.00134432
0.00134092
0.00133688
0.00133263
0.00132845
0.0013245
0.00132109
0.00131794
0.00131399
0.00130738
0.0012951
0.00127572
0.00125759
0.00123303
0.00119501
0.00120183
0.00112233
)
;

boundaryField
{
    floor
    {
        type            nutkWallFunction;
        Cmu             0.09;
        kappa           0.41;
        E               9.8;
        value           nonuniform List<scalar> 
36
(
9.5505e-05
3.16457e-05
3.54622e-05
3.74494e-05
3.15125e-05
2.41088e-05
1.82902e-05
1.90723e-05
2.15072e-05
2.45418e-05
2.75621e-05
2.9925e-05
3.03795e-05
2.99716e-05
3.02702e-05
3.22116e-05
3.66207e-05
3.50982e-05
3.13404e-05
3.13403e-05
4.06333e-05
7.25282e-05
9.8395e-05
0.000140319
0.000123992
0.000108733
9.5505e-05
0.000105001
9.99864e-05
6.8703e-05
3.16456e-05
6.8703e-05
4.85111e-05
0.000108778
8.04877e-05
0.000114006
)
;
    }
    ceiling
    {
        type            nutkWallFunction;
        Cmu             0.09;
        kappa           0.41;
        E               9.8;
        value           nonuniform List<scalar> 
43
(
0.000231032
0.000353932
0.000539401
0.00043063
0.000323773
0.000264998
0.000238273
0.000218503
0.00020239
0.000189367
0.00017914
0.000171435
0.000165955
0.000162348
0.000160234
0.000159242
0.000159033
0.000159305
0.000159807
0.000160329
0.000160716
0.000160887
0.000160828
0.000160575
0.000160188
0.000159727
0.000159242
0.000158764
0.000158313
0.000157924
0.000157564
0.000157112
0.000156356
0.000154953
0.000152735
0.000150655
0.000147834
0.000143455
0.000144244
0.00013504
0.000356698
0.000403375
0.000734091
)
;
    }
    sWall
    {
        type            nutkWallFunction;
        Cmu             0.09;
        kappa           0.41;
        E               9.8;
        value           uniform 0.000231085;
    }
    nWall
    {
        type            nutkWallFunction;
        Cmu             0.09;
        kappa           0.41;
        E               9.8;
        value           nonuniform List<scalar> 6(0.000108735 0.000113032 0.000112407 0.00018865 0.00018626 0.000135048);
    }
    sideWalls
    {
        type            empty;
    }
    glass1
    {
        type            nutkWallFunction;
        Cmu             0.09;
        kappa           0.41;
        E               9.8;
        value           nonuniform List<scalar> 9(8.11383e-05 0.000144285 0.000199946 0.00025162 0.000298353 0.000340406 0.000373419 0.000373132 0.000357085);
    }
    glass2
    {
        type            nutkWallFunction;
        Cmu             0.09;
        kappa           0.41;
        E               9.8;
        value           nonuniform List<scalar> 2(0.000162757 0.000187259);
    }
    sun
    {
        type            nutkWallFunction;
        Cmu             0.09;
        kappa           0.41;
        E               9.8;
        value           nonuniform List<scalar> 
14
(
8.11837e-05
8.27535e-05
7.20105e-05
7.3676e-05
7.59402e-05
7.81676e-05
8.03536e-05
8.25603e-05
8.4893e-05
8.71713e-05
8.92293e-05
9.10366e-05
9.26488e-05
9.42111e-05
)
;
    }
    Table_master
    {
        type            nutkWallFunction;
        Cmu             0.09;
        kappa           0.41;
        E               9.8;
        value           nonuniform List<scalar> 9(2.91909e-05 3.09892e-05 3.47211e-05 3.85094e-05 4.24682e-05 4.68914e-05 5.23941e-05 6.00655e-05 7.25301e-05);
    }
    Table_slave
    {
        type            nutkWallFunction;
        Cmu             0.09;
        kappa           0.41;
        E               9.8;
        value           nonuniform List<scalar> 9(7.68243e-05 7.70903e-05 7.76393e-05 7.85571e-05 8.0091e-05 8.25204e-05 8.61858e-05 9.16533e-05 0.000100617);
    }
    inlet
    {
        type            calculated;
        value           uniform 3.3541e-05;
    }
    outlet
    {
        type            calculated;
        value           nonuniform List<scalar> 2(0.00197661 0.00313168);
    }
}


// ************************************************************************* //
