/*--------------------------------*- C++ -*----------------------------------*\
  =========                 |
  \\      /  F ield         | OpenFOAM: The Open Source CFD Toolbox
   \\    /   O peration     | Website:  https://openfoam.org
    \\  /    A nd           | Version:  6
     \\/     M anipulation  |
\*---------------------------------------------------------------------------*/
FoamFile
{
    version     2.0;
    format      ascii;
    class       surfaceScalarField;
    location    "1700";
    object      phi;
}
// * * * * * * * * * * * * * * * * * * * * * * * * * * * * * * * * * * * * * //

dimensions      [1 0 -1 0 0 0 0];

internalField   nonuniform List<scalar> 
850
(
-0.00235961
0.00241912
-0.00254071
0.000181216
-0.00282525
0.000284648
-0.00315628
0.000331141
-0.0034695
0.000313322
-0.00373549
0.000266088
-0.00393446
0.000199078
-0.00404835
0.000113988
-0.00405864
1.03891e-05
-0.00394416
-0.000114388
-0.00368423
-0.000259834
-0.00326247
-0.000421674
-0.00264272
-0.000619661
-0.00167613
-0.0009665
-0.00167474
-0.000724992
0.000729565
-0.000770266
4.53336e-05
-0.000661758
-0.00010844
-0.000625379
-3.62916e-05
-0.000575267
-5.00173e-05
-0.000380923
-0.000194261
-0.000123382
-0.000257466
3.88084e-05
-0.000162115
0.000161411
-0.000122526
0.000262944
-0.000101452
0.000340896
-7.78696e-05
0.000370058
-2.90809e-05
0.000341427
2.87153e-05
0.000311648
2.9873e-05
0.000350502
-3.8744e-05
0.000518233
-0.000167591
0.00065455
-0.00013617
0.000658634
-0.00172899
0.00430247
-0.0022721
0.000724448
-0.00271438
0.000727032
-0.00308943
0.000706302
-0.00342205
0.000646052
-0.00370411
0.000548251
-0.00392294
0.000418013
-0.00406441
0.000255556
-0.004114
6.00862e-05
-0.00406129
-0.000167004
-0.00389952
-0.000421508
-0.00362008
-0.000701016
-0.00321709
-0.00102257
-0.00278235
-0.00140115
-0.00280608
-0.00165093
-0.00131838
-0.00148517
0.000230301
-0.00154599
0.000239142
0.000735894
5.21099e-06
0.000504083
0.000277155
0.000128686
0.000266972
-7.29041e-05
0.000165326
-0.000317523
0.000194641
-0.000338963
-0.00017275
-0.000252049
-0.000344307
-0.000225216
-0.000188875
-0.000230463
-0.000117199
-0.000257274
-7.45515e-05
-0.000306097
-2.89447e-05
-0.000369283
3.42193e-05
-0.000433466
9.30162e-05
-0.000464299
6.08363e-05
-0.00031627
-0.000186628
-8.01299e-05
-0.00040358
-2.50035e-05
-0.000191149
0.000644565
-0.00129096
0.00582275
-0.00197399
0.0014076
-0.00245967
0.00121282
-0.00283348
0.00108023
-0.00315734
0.000970019
-0.00343316
0.00082418
-0.00365321
0.000638173
-0.00380683
0.000409288
-0.00388258
0.000135935
-0.00387226
-0.000177221
-0.00377595
-0.000517715
-0.00360468
-0.000872184
-0.0033924
-0.00123475
-0.00321715
-0.0015763
-0.00307255
-0.00179545
-0.00267331
-0.00188433
-0.00224174
-0.00197749
-0.001996
-0.000740039
0.000755853
-0.00077792
0.000315043
-0.000669694
0.000158754
-0.0004964
-7.96019e-06
-6.859e-05
-0.000233149
-0.00024118
-0.000585248
-0.000773879
-0.000890828
-0.000965119
-0.000993791
-0.000959287
-0.000865971
-0.000804822
-0.000555207
-0.000436076
-0.000848397
-0.000110202
-0.00102851
-1.08547e-05
-0.00037118
-0.000975699
0.00708886
-0.00169726
0.00212928
-0.00212938
0.00164505
-0.00246316
0.00141412
-0.00274972
0.0012567
-0.00299333
0.0010679
-0.00319112
0.000836076
-0.00333559
0.000553866
-0.00341567
0.000216128
-0.00342142
-0.000171361
-0.00336058
-0.000578446
-0.00326474
-0.000967914
-0.00318118
-0.0013182
-0.00315537
-0.00160201
-0.0031698
-0.00178092
-0.00319057
-0.00186347
-0.00332206
-0.00184592
-0.00386707
-0.00145092
-0.00316492
-0.000694104
-0.00233646
-7.25613e-05
-0.00210132
7.9958e-05
-0.00195886
1.63551e-05
-0.00186825
-9.84904e-05
-0.0019059
-0.00019542
-0.00171522
-0.000190749
-0.00151429
-0.000200998
-0.00130104
-0.000213311
-0.00107995
-0.00022116
-0.000853014
-0.000227002
-0.0006168
-0.000236279
-0.000358728
-0.000258136
-5.78733e-05
-0.000300917
0.000307253
-0.000365182
0.000356169
-0.000484882
0.000647346
-0.000401251
0.000802979
-0.000166343
0.000442154
-0.000732703
0.00816372
-0.00145408
0.00285077
-0.00175825
0.00194933
-0.00202213
0.00167812
-0.00224413
0.00147882
-0.00242397
0.00124786
-0.0025647
0.000976917
-0.00266354
0.000652831
-0.00271045
0.00026315
-0.0026906
-0.000191089
-0.00262024
-0.000648691
-0.00254558
-0.00104246
-0.00251095
-0.00135272
-0.00253989
-0.00157297
-0.0026214
-0.00169931
-0.00274874
-0.00173602
-0.00294865
-0.00164591
-0.00308663
-0.00131286
-0.0029519
-0.000828747
-0.00259946
-0.000424924
-0.00228335
-0.000236077
-0.00206028
-0.000206639
-0.00191444
-0.000244246
-0.00182043
-0.000289344
-0.00169883
-0.000312265
-0.00156777
-0.000331964
-0.0014323
-0.0003487
-0.00129251
-0.000360859
-0.00114874
-0.000370686
-0.000998637
-0.000386286
-0.00083561
-0.000421068
-0.000646876
-0.000489552
-0.000412768
-0.000599187
-0.00014916
-0.000748382
0.000313035
-0.000863327
0.00102339
-0.000876565
0.00224984
-0.000784159
0.0028569
-0.000599282
0.0023627
0.000502645
0.00240732
-0.000666172
0.00921725
-0.00134296
0.00352768
-0.00136755
0.00197403
-0.00151386
0.00182455
-0.00165743
0.00162251
-0.00174623
0.00133677
-0.00179122
0.00102203
-0.00180082
0.000662551
-0.00176919
0.00023164
-0.00168213
-0.000278022
-0.00157691
-0.000753793
-0.00150384
-0.00111541
-0.00149409
-0.00136234
-0.00155608
-0.00151086
-0.00167967
-0.00157561
-0.00185271
-0.00156287
-0.00204954
-0.00144897
-0.00216395
-0.00119835
-0.00212738
-0.000865224
-0.00197302
-0.000579191
-0.00179994
-0.000409069
-0.0016648
-0.000341687
-0.00157556
-0.000333389
-0.00151778
-0.000347034
-0.00146814
-0.000361815
-0.00142345
-0.000376571
-0.00138464
-0.000387413
-0.00135336
-0.000392052
-0.00133117
-0.000392777
-0.00131808
-0.000399278
-0.00131025
-0.000428799
-0.00129763
-0.000502072
-0.00126168
-0.000635032
-0.00117713
-0.000832824
-0.000959133
-0.00108121
-0.000457703
-0.00137788
0.000420437
-0.00166218
0.00131325
-0.00149197
0.00152408
0.000291942
0.00397314
-0.000923505
0.0105688
-0.00115942
0.00376371
-0.00071961
0.00153435
-0.000750919
0.00185598
-0.000873812
0.00174553
-0.000882164
0.00134525
-0.000804728
0.000944712
-0.000685601
0.000543545
-0.000518294
6.44561e-05
-0.000340531
-0.000455663
-0.000219388
-0.000874812
-0.000175454
-0.00115922
-0.000211293
-0.00132637
-0.000319574
-0.00140245
-0.000487048
-0.00140801
-0.000695241
-0.00135456
-0.000906878
-0.00123722
-0.00105821
-0.0010469
-0.00111122
-0.000812108
-0.0010899
-0.000600414
-0.00104215
-0.000456718
-0.00100435
-0.000379381
-0.000989593
-0.000348051
-0.000995841
-0.000340688
-0.00101653
-0.000341027
-0.00105201
-0.000340999
-0.00110666
-0.000332665
-0.00118798
-0.00031063
-0.00130483
-0.000275832
-0.00146484
-0.000239172
-0.00166985
-0.000223683
-0.00191093
-0.000260894
-0.00217042
-0.000375433
-0.00242293
-0.000580212
-0.00262355
-0.000880473
-0.00269976
-0.00130155
-0.00251686
-0.00184496
-0.0017975
-0.00221121
-0.000335774
-0.00116966
0.00368765
0.00159954
0.00944636
0.00198115
0.00338221
0.0016173
0.00189832
0.00120141
0.00227199
0.000863734
0.00208332
0.000767841
0.00144126
0.000863507
0.000849169
0.00106952
0.000337657
0.00130826
-0.000174161
0.00145206
-0.000599346
0.00147547
-0.000898095
0.00140423
-0.00108786
0.00126622
-0.00118824
0.00107992
-0.00121603
0.00085703
-0.001185
0.000609376
-0.00110678
0.000361567
-0.000989284
0.000153158
-0.00083837
1.23073e-05
-0.00067114
-6.89895e-05
-0.000519003
-0.000118722
-0.000406874
-0.000162477
-0.000335518
-0.000213527
-0.000296894
-0.000275241
-0.000278867
-0.000347023
-0.000269138
-0.000430852
-0.000257063
-0.000532332
-0.000231079
-0.000662689
-0.000180167
-0.000839708
-9.87084e-05
-0.00108756
8.77652e-06
-0.00144083
0.000129694
-0.00193164
0.000230013
-0.0025567
0.000249728
-0.00327069
0.000133887
-0.00401895
-0.000132112
-0.00483628
-0.00048411
-0.00585415
-0.000826981
-0.00687364
-0.00119161
-0.00616283
-0.00188034
-0.00224462
0.0099667
0.0133387
0.0102187
0.00501846
0.00800457
0.00448618
0.00650697
0.00358104
0.00555656
0.0023918
0.00496559
0.00144025
0.0045671
0.000736271
0.00420157
0.00019149
0.00383286
-0.000230515
0.00347767
-0.000542785
0.00313795
-0.000748016
0.00281131
-0.000861484
0.00249533
-0.00089992
0.00218857
-0.000878119
0.00189188
-0.000809969
0.00161208
-0.000709359
0.00136435
-0.000590514
0.00116299
-0.000469657
0.00100824
-0.000364128
0.00088651
-0.000285026
0.000781464
-0.000230353
0.000681617
-0.00019693
0.000581703
-0.000178837
0.000480835
-0.000168155
0.000380102
-0.000156215
0.000282257
-0.000133117
0.000191009
-8.88041e-05
0.000111053
-1.86372e-05
3.60459e-05
8.38959e-05
-4.61872e-05
0.000212037
-0.000148609
0.000332541
-0.000301759
0.000402982
-0.000565508
0.000397739
-0.000985425
0.000287903
-0.00152598
5.65434e-05
-0.00214966
-0.000203212
-0.00280868
-0.000532479
-0.00273532
-0.00195361
-0.00473666
0.00271646
0.00398911
0.00346762
0.00373512
0.00455811
0.00249066
0.00504284
0.00190718
0.00517198
0.00131123
0.00515745
0.000750911
0.00504426
0.000304795
0.00484501
-3.1147e-05
0.00457395
-0.000271606
0.00425653
-0.000430471
0.00391622
-0.000521059
0.0035705
-0.00055407
0.00323284
-0.000540342
0.00291404
-0.000491043
0.00262303
-0.000418223
0.00236755
-0.000334909
0.0021522
-0.000254186
0.00197509
-0.000186893
0.0018285
-0.000138313
0.00169982
-0.000101542
0.00158092
-7.7908e-05
0.00146717
-6.49687e-05
0.0013572
-5.80616e-05
0.00125275
-5.16425e-05
0.00115922
-3.94559e-05
0.00108519
-1.46516e-05
0.00103642
3.02564e-05
0.00102105
9.93893e-05
0.00104357
0.000189633
0.00109722
0.00027901
0.00116446
0.000335854
0.00123313
0.000329178
0.00129855
0.000222593
0.0013567
-1.49587e-06
0.00147931
-0.000325715
0.00175485
-0.000807916
0.00163332
-0.00183198
-0.00304878
-8.88954e-05
0.00407308
0.00211792
0.0015284
0.00331244
0.00129625
0.00412115
0.00109858
0.00465779
0.000774705
0.0049526
0.000456207
0.00505824
0.000199275
0.00501756
9.64232e-06
0.00485411
-0.000108039
0.00460897
-0.000185209
0.0043154
-0.000227374
0.00400148
-0.000240034
0.00368992
-0.000228654
0.00339781
-0.000198817
0.00313649
-0.000156775
0.00291135
-0.000109645
0.00272197
-6.46877e-05
0.00256296
-2.77529e-05
0.00242615
-1.37598e-06
0.00230896
1.57712e-05
0.00220754
2.36404e-05
0.00211718
2.55181e-05
0.00203478
2.44655e-05
0.00196002
2.32433e-05
0.00189618
2.45129e-05
0.00185053
3.11328e-05
0.00183202
4.88995e-05
0.00185176
7.97746e-05
0.00192139
0.000120129
0.00204044
0.000160089
0.00219326
0.000183151
0.00235379
0.000168772
0.0024845
9.20008e-05
0.00254202
-5.89001e-05
0.00247406
-0.000257642
0.0021938
-0.000527537
0.00132434
-0.000962406
-0.00165941
-0.00378123
-0.00486804
-0.000801674
0.000716289
0.00199993
0.00308461
0.00384434
0.00428459
0.00446697
0.00445879
0.00433206
0.00412736
0.00387972
0.00361868
0.00336836
0.00314732
0.00296788
0.00283532
0.00274768
0.00269714
0.00267333
0.0026672
0.00266953
0.00267435
0.0026787
0.0026824
0.00268795
0.00270072
0.0027319
0.00279466
0.00289855
0.00304317
0.00321156
0.00336613
0.00344428
0.00337166
0.00310035
0.00255908
0.00158343
)
;

boundaryField
{
    floor
    {
        type            calculated;
        value           nonuniform List<scalar> 
36
(
0
0
0
0
0
0
0
0
0
0
0
0
0
0
0
0
0
0
0
-3.95609e-06
-1.0824e-05
-1.25749e-05
-1.02065e-05
-7.63123e-06
-8.3074e-06
-9.0703e-06
-1.29742e-06
-2.45198e-06
-2.61811e-06
-3.47104e-06
-4.51845e-06
-5.28294e-06
-1.15197e-05
-6.52553e-06
-1.05954e-05
-7.99687e-06
)
;
    }
    ceiling
    {
        type            calculated;
        value           nonuniform List<scalar> 
43
(
9.21655e-06
7.54818e-06
6.78445e-06
1.05399e-05
1.27084e-05
1.40095e-05
1.50822e-05
1.60662e-05
1.70101e-05
1.79373e-05
1.87967e-05
1.96108e-05
2.03864e-05
2.11167e-05
2.1782e-05
2.23503e-05
2.27812e-05
2.30333e-05
2.30778e-05
2.29106e-05
2.25577e-05
2.20319e-05
2.14362e-05
2.08326e-05
2.02437e-05
1.96679e-05
1.9092e-05
1.8496e-05
1.78507e-05
1.71387e-05
1.63732e-05
1.56014e-05
1.48929e-05
1.43243e-05
1.3976e-05
1.38443e-05
1.37921e-05
1.38561e-05
1.33568e-05
1.43067e-05
1.3841e-05
1.0315e-05
5.00443e-06
)
;
    }
    sWall
    {
        type            calculated;
        value           uniform -0.000187885;
    }
    nWall
    {
        type            calculated;
        value           nonuniform List<scalar> 6(-3.54122e-05 -4.16061e-05 -5.01467e-05 -5.44428e-05 -6.49224e-05 -9.01755e-05);
    }
    sideWalls
    {
        type            empty;
        value           nonuniform 0();
    }
    glass1
    {
        type            calculated;
        value           nonuniform List<scalar> 9(-5.93973e-05 -0.000154258 -0.000229215 -0.000290308 -0.000342046 -0.000387261 -0.000427899 -0.000477038 -0.000534073);
    }
    glass2
    {
        type            calculated;
        value           nonuniform List<scalar> 2(-0.000230431 -0.000243181);
    }
    sun
    {
        type            calculated;
        value           uniform 0;
    }
    Table_master
    {
        type            calculated;
        value           nonuniform List<scalar> 9(-1.53916e-07 -1.53887e-07 -1.53781e-07 -1.53696e-07 -1.53623e-07 -1.5356e-07 -1.53498e-07 -1.5343e-07 -1.53328e-07);
    }
    Table_slave
    {
        type            calculated;
        value           nonuniform List<scalar> 9(1.52491e-07 1.5256e-07 1.52625e-07 1.52692e-07 1.5276e-07 1.52827e-07 1.52894e-07 1.52965e-07 1.52932e-07);
    }
    inlet
    {
        type            calculated;
        value           uniform -0.00168704;
    }
    outlet
    {
        type            calculated;
        value           nonuniform List<scalar> 2(0.00395998 0.00107934);
    }
}


// ************************************************************************* //
