/*--------------------------------*- C++ -*----------------------------------*\
  =========                 |
  \\      /  F ield         | OpenFOAM: The Open Source CFD Toolbox
   \\    /   O peration     | Website:  https://openfoam.org
    \\  /    A nd           | Version:  6
     \\/     M anipulation  |
\*---------------------------------------------------------------------------*/
FoamFile
{
    version     2.0;
    format      ascii;
    class       volScalarField;
    location    "900";
    object      epsilon;
}
// * * * * * * * * * * * * * * * * * * * * * * * * * * * * * * * * * * * * * //

dimensions      [0 2 -3 0 0 0 0];

internalField   nonuniform List<scalar> 
458
(
0.00052425
0.000682842
0.000752547
0.000866602
0.000980679
0.00110024
0.00123586
0.00137608
0.00150372
0.00159148
0.00160701
0.00144678
0.00105944
0.00070149
0.000453512
4.67118e-05
7.58034e-05
0.000114325
0.000132569
0.000130265
0.000111671
9.23133e-05
7.65807e-05
6.41944e-05
5.43756e-05
4.65325e-05
4.02133e-05
3.49917e-05
3.05329e-05
2.65547e-05
2.27649e-05
1.97662e-05
1.47807e-05
0.00115774
0.00168
0.000638607
0.000626363
0.000645043
0.000698065
0.000797097
0.000931628
0.00107061
0.00115926
0.00115655
0.00107909
0.000843147
0.000614374
0.000451352
0.000649403
0.000439159
0.000266127
4.33728e-05
7.81319e-05
9.87908e-05
0.000103866
0.000103282
0.000108528
8.88381e-05
7.05872e-05
5.63288e-05
4.5359e-05
3.69404e-05
3.04728e-05
2.53967e-05
2.14674e-05
1.91583e-05
1.83652e-05
3.74869e-05
2.7366e-05
0.00194673
0.00364332
0.000664728
0.000560084
0.000569107
0.000627938
0.000733776
0.000876179
0.00101698
0.00109881
0.00110208
0.00105647
0.000889931
0.000643795
0.000467094
0.000393245
0.000327929
0.000319827
0.000127844
0.00013134
0.000123878
0.000115606
0.000112635
0.000239618
0.000166588
0.000117783
8.57854e-05
6.45286e-05
5.00837e-05
4.0133e-05
3.3215e-05
2.86259e-05
2.25883e-05
1.98634e-05
6.47438e-05
4.02407e-05
0.0029448
0.00708529
0.000828581
0.000523235
0.000521481
0.000584951
0.000704208
0.000875917
0.00103705
0.00112118
0.00112921
0.00108437
0.000904509
0.00061526
0.000426914
0.000323488
0.000267763
0.000273363
0.000361075
0.00028741
0.000208828
0.000166563
0.000140987
0.00012968
0.000317499
0.000250444
0.00021202
0.000186954
0.000167119
0.000147861
0.000130632
0.000113423
9.47171e-05
5.82865e-05
3.71444e-05
9.69694e-05
5.72347e-05
0.00422405
0.0125647
0.00132668
0.000505807
0.000472366
0.000546404
0.000705685
0.000961104
0.00116778
0.00125583
0.00125183
0.00118144
0.000939134
0.000586189
0.000371701
0.000275679
0.000231391
0.000235354
0.000283093
0.000246352
0.00021068
0.000183304
0.000157247
0.000132726
0.000124427
0.000117998
0.00011567
0.00011346
0.000108939
0.000101206
9.18768e-05
8.2133e-05
7.25485e-05
5.87951e-05
4.50531e-05
6.86526e-05
9.12553e-05
0.00010452
0.000128597
0.000127373
0.00593995
0.019278
0.00284211
0.000629057
0.000444794
0.00049326
0.000731779
0.00115808
0.00141424
0.00149226
0.00145158
0.00132855
0.000999104
0.000560713
0.000303327
0.000214721
0.000197391
0.000215732
0.000239265
0.000239313
0.000225464
0.000199594
0.00016759
0.000137436
0.000120282
0.000118167
0.000122597
0.000126314
0.000126036
0.000119923
0.000106927
9.18304e-05
7.74812e-05
6.42038e-05
5.3931e-05
5.74714e-05
7.01341e-05
0.000112218
0.000435565
0.000267964
0.00824587
0.0235441
0.0067666
0.00204449
0.000906374
0.00063769
0.00101992
0.00156574
0.00181141
0.00183264
0.00171376
0.0015116
0.0010803
0.000532149
0.000235359
0.000159027
0.000168881
0.000202167
0.000231857
0.000238674
0.000222515
0.00019197
0.000159053
0.000133878
0.00012458
0.000130555
0.000142584
0.000154383
0.000163397
0.000167141
0.000161712
0.000143871
0.00012573
0.000110519
0.000102622
0.000108113
0.000132475
0.000208035
0.000828806
0.00052333
0.00904965
0.0282451
0.0151722
0.00825166
0.0042059
0.00246803
0.00228405
0.00242336
0.00244822
0.00229052
0.00202137
0.00170915
0.00113977
0.000460279
0.000186164
0.000141356
0.000158045
0.000189328
0.000211536
0.000209228
0.000187485
0.000159833
0.000138355
0.000128917
0.000132441
0.000145827
0.000164707
0.000186893
0.000211966
0.000239812
0.00026961
0.000295242
0.00030991
0.000342396
0.000411152
0.000585578
0.000983404
0.00157963
0.00533637
0.00125893
0.00878941
0.0161732
0.0143096
0.0110035
0.00790457
0.00581344
0.00454347
0.00383205
0.00333744
0.00280628
0.00229128
0.00185141
0.00108008
0.000333311
0.000160129
0.000137593
0.000148039
0.000161831
0.000165522
0.000156208
0.000139724
0.000125311
0.00011901
0.000122022
0.000133051
0.00015041
0.000173205
0.000201868
0.00023801
0.000284273
0.000344283
0.000422366
0.000524885
0.000669312
0.0008828
0.00117386
0.00151542
0.00184071
0.00213332
0.00110953
0.00603232
0.00690198
0.00665715
0.00595643
0.005383
0.00489444
0.00404926
0.00305803
0.00227825
0.00177008
0.000706556
0.000245313
0.000151175
0.00013349
0.000132122
0.000131761
0.000127282
0.000119388
0.000111258
0.000107066
0.000108396
0.000114822
0.000125518
0.000140015
0.000158346
0.000181146
0.000209758
0.000246499
0.000295143
0.000361898
0.000453932
0.000577706
0.00073767
0.00091878
0.00106932
0.00111211
0.00101601
0.000550265
0.00374575
0.0237248
0.0150278
0.0113272
0.00932772
0.00626604
0.00372259
0.00212749
0.000972751
0.000429894
0.000224262
0.000165231
0.000147425
0.000141244
0.000136792
0.000130627
0.000122383
0.000113836
0.000107168
0.000104178
0.000105092
0.000109603
0.000117567
0.000129189
0.000145066
0.000166212
0.000194157
0.00023113
0.000280374
0.000346232
0.000434028
0.000549835
0.000695625
0.000857794
0.00100257
0.00112344
0.000727589
0.000565771
0.00802987
0.00800951
0.00816816
0.0129727
0.00965435
0.00736706
0.00431636
0.00208066
0.000533793
0.000283145
0.000218078
0.000192685
0.000173652
0.000153413
0.000138931
0.000127871
0.000117952
0.000108778
0.000101559
9.80195e-05
9.89799e-05
0.000103352
0.00011067
0.000120624
0.000133147
0.000148395
0.000166722
0.000188716
0.00021533
0.000248177
0.000290176
0.000341732
0.000404875
0.000481983
0.000575674
0.00069017
0.000791591
0.000747948
0.000579772
0.000448456
)
;

boundaryField
{
    floor
    {
        Cmu             0.09;
        kappa           0.41;
        E               9.8;
        type            epsilonWallFunction;
        value           nonuniform List<scalar> 
36
(
0.000453512
4.67118e-05
7.58034e-05
0.000114325
0.000132569
0.000130265
0.000111671
9.23133e-05
7.65807e-05
6.41944e-05
5.43756e-05
4.65325e-05
4.02133e-05
3.49917e-05
3.05329e-05
2.65547e-05
2.27649e-05
1.97662e-05
1.47807e-05
1.47807e-05
2.7366e-05
4.02407e-05
5.72347e-05
0.00010452
0.000128597
0.000127373
0.000453512
0.000649403
0.000439159
0.000266127
4.67118e-05
0.000266127
4.33728e-05
0.000319827
0.000127844
0.000361075
)
;
    }
    ceiling
    {
        Cmu             0.09;
        kappa           0.41;
        E               9.8;
        type            epsilonWallFunction;
        value           nonuniform List<scalar> 
43
(
0.00802987
0.00800951
0.00816816
0.0129727
0.00965435
0.00736706
0.00431636
0.00208066
0.000533793
0.000283145
0.000218078
0.000192685
0.000173652
0.000153413
0.000138931
0.000127871
0.000117952
0.000108778
0.000101559
9.80195e-05
9.89799e-05
0.000103352
0.00011067
0.000120624
0.000133147
0.000148395
0.000166722
0.000188716
0.00021533
0.000248177
0.000290176
0.000341732
0.000404875
0.000481983
0.000575674
0.00069017
0.000791591
0.000747948
0.000579772
0.000448456
0.00878941
0.0161732
0.00374575
)
;
    }
    sWall
    {
        Cmu             0.09;
        kappa           0.41;
        E               9.8;
        type            epsilonWallFunction;
        value           uniform 0.00802987;
    }
    nWall
    {
        Cmu             0.09;
        kappa           0.41;
        E               9.8;
        type            epsilonWallFunction;
        value           nonuniform List<scalar> 6(0.000127373 0.000267964 0.00052333 0.000550265 0.000565771 0.000448456);
    }
    sideWalls
    {
        type            empty;
    }
    glass1
    {
        Cmu             0.09;
        kappa           0.41;
        E               9.8;
        type            epsilonWallFunction;
        value           nonuniform List<scalar> 9(0.00052425 0.00115774 0.00194673 0.0029448 0.00422405 0.00593995 0.00824587 0.00904965 0.00878941);
    }
    glass2
    {
        Cmu             0.09;
        kappa           0.41;
        E               9.8;
        type            epsilonWallFunction;
        value           nonuniform List<scalar> 2(0.00125893 0.00110953);
    }
    sun
    {
        Cmu             0.09;
        kappa           0.41;
        E               9.8;
        type            epsilonWallFunction;
        value           nonuniform List<scalar> 
14
(
0.00052425
0.000682842
0.000752547
0.000866602
0.000980679
0.00110024
0.00123586
0.00137608
0.00150372
0.00159148
0.00160701
0.00144678
0.00105944
0.00070149
)
;
    }
    Table_master
    {
        Cmu             0.09;
        kappa           0.41;
        E               9.8;
        type            epsilonWallFunction;
        value           nonuniform List<scalar> 9(0.000239618 0.000166588 0.000117783 8.57854e-05 6.45286e-05 5.00837e-05 4.0133e-05 3.3215e-05 2.86259e-05);
    }
    Table_slave
    {
        Cmu             0.09;
        kappa           0.41;
        E               9.8;
        type            epsilonWallFunction;
        value           nonuniform List<scalar> 9(0.000317499 0.000250444 0.00021202 0.000186954 0.000167119 0.000147861 0.000130632 0.000113423 9.47171e-05);
    }
    inlet
    {
        type            turbulentMixingLengthDissipationRateInlet;
        mixingLength    0.01;
        phi             phi;
        k               k;
        value           uniform 0.00377336;
    }
    outlet
    {
        type            zeroGradient;
    }
}


// ************************************************************************* //
