/*--------------------------------*- C++ -*----------------------------------*\
  =========                 |
  \\      /  F ield         | OpenFOAM: The Open Source CFD Toolbox
   \\    /   O peration     | Website:  https://openfoam.org
    \\  /    A nd           | Version:  6
     \\/     M anipulation  |
\*---------------------------------------------------------------------------*/
FoamFile
{
    version     2.0;
    format      ascii;
    class       volScalarField;
    location    "100";
    object      alphat;
}
// * * * * * * * * * * * * * * * * * * * * * * * * * * * * * * * * * * * * * //

dimensions      [1 -1 -1 0 0 0 0];

internalField   nonuniform List<scalar> 
458
(
0.00212781
0.00261562
0.00272652
0.00262526
0.00250793
0.00239931
0.00230054
0.00220923
0.00212535
0.00204681
0.00196998
0.00189125
0.00180572
0.0017041
0.00157981
0.000692471
0.000785952
0.000875219
0.000975338
0.00105727
0.000984607
0.00090816
0.000846353
0.000797539
0.000758681
0.00072753
0.000702165
0.000680149
0.000659931
0.000639053
0.000615114
0.000583703
0.000540319
0.00205136
0.0040977
0.00468523
0.00477481
0.00464906
0.00449948
0.00436877
0.00424959
0.00411551
0.00394637
0.00374027
0.00348956
0.00317695
0.00277324
0.00222096
0.00158883
0.00146703
0.00127245
0.000671901
0.00125487
0.00192802
0.0026449
0.00306696
0.00205776
0.00172728
0.00152999
0.00140517
0.00132024
0.00126424
0.00125583
0.00126707
0.00122372
0.00113921
0.00102744
0.000877207
0.000548217
0.00299655
0.00483927
0.00510461
0.00495164
0.00478018
0.00471413
0.00472872
0.00476164
0.00478852
0.004763
0.00465299
0.00443461
0.00409101
0.00361361
0.00302528
0.00246738
0.00213944
0.00135412
0.000651026
0.00119855
0.0017327
0.00263837
0.00334375
0.00119614
0.00103209
0.000882664
0.000760276
0.000662204
0.000581724
0.000516224
0.000501769
0.000534452
0.00081566
0.000951836
0.000939446
0.0005496
0.00343218
0.00641359
0.00578294
0.00507564
0.00488897
0.00508853
0.0054849
0.00585642
0.00602663
0.00597901
0.00575245
0.00538867
0.00491519
0.00434735
0.00371478
0.00310105
0.00259316
0.00183386
0.00132331
0.00107821
0.00118186
0.00185519
0.00310606
0.00412809
0.00144523
0.0013795
0.00132045
0.00126525
0.00121297
0.00116295
0.00110978
0.00104956
0.000978407
0.000953324
0.000941636
0.000974544
0.000584111
0.00354046
0.00779337
0.00565892
0.00473959
0.00542199
0.00665751
0.00772384
0.00822062
0.00796489
0.00745559
0.00686671
0.00624984
0.00560916
0.00494246
0.00426692
0.00362821
0.00306683
0.00245919
0.00208961
0.00194104
0.00221039
0.00323577
0.00475829
0.00613077
0.00644232
0.00638562
0.0062316
0.0060516
0.00575024
0.00524949
0.00460474
0.00384887
0.00301911
0.00223749
0.00163633
0.0012868
0.000809445
0.000612986
0.000737836
0.000781382
0.00358428
0.00775824
0.00469779
0.00523992
0.00782192
0.00914212
0.00965699
0.00962744
0.00907854
0.0082801
0.00750323
0.00678986
0.00609556
0.0054114
0.00475332
0.00415646
0.00365504
0.00322918
0.00310135
0.0034514
0.00452016
0.00614024
0.00767127
0.00870285
0.00911644
0.00917156
0.00905219
0.00873315
0.00817021
0.00740019
0.00646325
0.00539934
0.00426186
0.00316972
0.00227686
0.00168298
0.00116737
0.00088722
0.00127157
0.000960401
0.0036183
0.0064234
0.00373858
0.00546964
0.00859478
0.00979329
0.0099824
0.00972285
0.00919746
0.00850822
0.00782863
0.00718422
0.00656144
0.00596092
0.00538977
0.00490992
0.00462175
0.00461678
0.00524634
0.00663019
0.00844044
0.00985755
0.0107538
0.0110994
0.0110258
0.0107592
0.0103532
0.00976841
0.00900736
0.00808785
0.0070402
0.00590322
0.00473257
0.00362852
0.00271673
0.00207738
0.00160181
0.00135384
0.00128703
0.000896166
0.00365885
0.00502558
0.00365183
0.00471152
0.00771119
0.00921346
0.00951247
0.00940969
0.00909867
0.00866894
0.00820411
0.00774777
0.00731486
0.00692819
0.00662741
0.00648847
0.00665672
0.00737869
0.0087463
0.0103774
0.0117453
0.0124385
0.0125559
0.0122681
0.011716
0.0110431
0.010321
0.00953959
0.00867592
0.00772867
0.00671438
0.00566417
0.00462648
0.00367616
0.00289783
0.00232834
0.00203195
0.00184332
0.00244678
0.0010094
0.00372596
0.00418714
0.00448761
0.00492017
0.00642823
0.00823506
0.00883856
0.00908707
0.00913399
0.00903991
0.00886834
0.00870121
0.00857434
0.00852718
0.00861351
0.00890473
0.00948885
0.0104247
0.0115623
0.0125216
0.0130025
0.012919
0.0123873
0.0115876
0.0106872
0.0097983
0.00894774
0.00811145
0.00726406
0.00639789
0.00551899
0.00463798
0.00375805
0.00288011
0.00210823
0.00169639
0.00165249
0.00170925
0.00167559
0.00106641
0.00551055
0.00574792
0.0061586
0.00733308
0.0079925
0.00849977
0.00888203
0.00914424
0.00929297
0.00943411
0.00961215
0.00985457
0.0101856
0.0106187
0.0111428
0.0116856
0.0120763
0.0121364
0.0117948
0.0111189
0.0102665
0.00939249
0.00858953
0.00787724
0.00722824
0.00660524
0.00598068
0.00533855
0.00467268
0.00398909
0.0033105
0.00267687
0.0021526
0.00184377
0.00177412
0.00180146
0.0018032
0.00120294
0.00268274
0.0057956
0.0062511
0.00635153
0.00662573
0.00694624
0.00724924
0.00750774
0.00770698
0.00790783
0.00814586
0.00842051
0.0087245
0.0090387
0.00932499
0.00951902
0.00954041
0.00934756
0.00897021
0.00849456
0.00801334
0.00758241
0.00721376
0.00689116
0.00658843
0.00628002
0.00594359
0.00555984
0.00511507
0.00460784
0.0040567
0.00350344
0.00300607
0.00262021
0.00237305
0.0022589
0.00266916
0.00141694
0.00159325
0.00171496
0.00182997
0.00169554
0.00169093
0.00170851
0.00173725
0.0017671
0.00179712
0.00182841
0.00186266
0.00189463
0.00192269
0.00194636
0.00196426
0.00197428
0.00197393
0.00196089
0.00193437
0.00189694
0.00185381
0.00181104
0.00177311
0.0017413
0.00171404
0.00168845
0.00166148
0.0016305
0.00159348
0.00154926
0.00149792
0.00144114
0.00138225
0.0013259
0.0012775
0.00124237
0.00122454
0.00122849
0.00133991
0.00136507
)
;

boundaryField
{
    floor
    {
        type            compressible::alphatWallFunction;
        Prt             0.85;
        value           nonuniform List<scalar> 
36
(
0.00022177
9.82128e-05
0.000111861
0.000124713
0.000138944
0.000150466
0.000140258
0.000129422
0.000120582
0.000113547
0.000107911
0.000103368
9.9651e-05
9.6412e-05
9.34264e-05
9.03315e-05
8.67672e-05
8.20643e-05
7.55168e-05
7.55159e-05
7.67164e-05
7.69281e-05
8.21319e-05
8.64572e-05
0.000104946
0.000111271
0.000221767
0.000222975
0.000206631
0.000180197
9.82117e-05
0.000180195
9.51804e-05
0.000191342
9.20907e-05
0.000187151
)
;
    }
    ceiling
    {
        type            compressible::alphatWallFunction;
        Prt             0.85;
        value           nonuniform List<scalar> 
43
(
0.000223764
0.000239953
0.000255141
0.000237412
0.000236805
0.000239139
0.000242947
0.000246895
0.000250858
0.000254981
0.000259484
0.000263681
0.000267359
0.000270457
0.0002728
0.000274111
0.000274067
0.000272366
0.000268902
0.000264001
0.00025834
0.000252712
0.000247709
0.000243503
0.000239893
0.000236496
0.00023291
0.000228784
0.000223843
0.000217923
0.000211027
0.000203371
0.000195394
0.000187724
0.000181106
0.000176282
0.000173829
0.000174377
0.000189646
0.000193112
0.000494132
0.000550043
0.00036486
)
;
    }
    sWall
    {
        type            compressible::alphatWallFunction;
        Prt             0.85;
        value           uniform 0.000222781;
    }
    nWall
    {
        type            compressible::alphatWallFunction;
        Prt             0.85;
        value           nonuniform List<scalar> 6(0.000111145 0.00013672 0.000127569 0.000170565 0.000199796 0.000192862);
    }
    sideWalls
    {
        type            empty;
    }
    glass1
    {
        type            compressible::alphatWallFunction;
        Prt             0.85;
        value           nonuniform List<scalar> 9(0.00028842 0.00027877 0.000397686 0.000450996 0.000464086 0.000469308 0.000473308 0.00047806 0.000485968);
    }
    glass2
    {
        type            compressible::alphatWallFunction;
        Prt             0.85;
        value           nonuniform List<scalar> 2(0.000143234 0.000151279);
    }
    sun
    {
        type            compressible::alphatWallFunction;
        Prt             0.85;
        value           nonuniform List<scalar> 
14
(
0.000293809
0.000356216
0.000370211
0.000357421
0.000342537
0.000328693
0.000316047
0.000304304
0.00029347
0.000283285
0.000273281
0.000262985
0.000251745
0.000238316
)
;
    }
    Table_master
    {
        type            compressible::alphatWallFunction;
        Prt             0.85;
        value           nonuniform List<scalar> 9(0.000169789 0.000146969 0.000125813 0.000108167 9.37789e-05 8.17748e-05 7.18521e-05 6.96418e-05 7.46265e-05);
    }
    Table_slave
    {
        type            compressible::alphatWallFunction;
        Prt             0.85;
        value           nonuniform List<scalar> 9(0.000203782 0.00019488 0.000186842 0.00017929 0.000172105 0.000165197 0.000157815 0.000149406 0.000139399);
    }
    inlet
    {
        type            fixedValue;
        value           uniform 1.94e-05;
    }
    outlet
    {
        type            zeroGradient;
    }
}


// ************************************************************************* //
