/*--------------------------------*- C++ -*----------------------------------*\
  =========                 |
  \\      /  F ield         | OpenFOAM: The Open Source CFD Toolbox
   \\    /   O peration     | Website:  https://openfoam.org
    \\  /    A nd           | Version:  6
     \\/     M anipulation  |
\*---------------------------------------------------------------------------*/
FoamFile
{
    version     2.0;
    format      ascii;
    class       volScalarField;
    location    "100";
    object      nut;
}
// * * * * * * * * * * * * * * * * * * * * * * * * * * * * * * * * * * * * * //

dimensions      [0 2 -1 0 0 0 0];

internalField   nonuniform List<scalar> 
458
(
0.00184042
0.00226042
0.00235525
0.00226761
0.00216622
0.00207239
0.0019871
0.00190825
0.00183582
0.001768
0.00170166
0.00163368
0.00155982
0.00147206
0.00136473
0.000599354
0.000680116
0.000757249
0.00084377
0.000914642
0.000851841
0.000785769
0.000732355
0.000690176
0.000656608
0.000629707
0.000607812
0.000588812
0.000571369
0.000553356
0.000532697
0.00050558
0.000468126
0.0017761
0.00354105
0.0040468
0.00412361
0.00401494
0.00388584
0.00377306
0.00367022
0.00355452
0.00340853
0.00323061
0.00301416
0.00274422
0.00239558
0.00191858
0.00137253
0.00126735
0.00109932
0.000581632
0.00108601
0.00166798
0.00228775
0.00265286
0.00178005
0.00149432
0.0013238
0.00121594
0.00114261
0.00109433
0.00108727
0.00109719
0.00105982
0.000986779
0.000890074
0.000760014
0.000475059
0.00259144
0.00417992
0.00440725
0.00427515
0.00412763
0.00407113
0.00408412
0.00411279
0.00413621
0.00411432
0.00401939
0.00383081
0.00353404
0.00312167
0.00261348
0.00213155
0.00184829
0.00116988
0.000563612
0.00103715
0.00149871
0.00228178
0.00289204
0.00103463
0.000892847
0.000763701
0.000657932
0.000573204
0.000503729
0.000447277
0.000434971
0.000463342
0.000707047
0.000825004
0.000814212
0.000476351
0.00296473
0.0055335
0.00498969
0.00438178
0.00422273
0.00439653
0.00473985
0.00506125
0.00520832
0.00516691
0.00497079
0.00465614
0.00424678
0.003756
0.00320939
0.00267914
0.00224036
0.00158439
0.00114334
0.000932175
0.00102181
0.00160394
0.00268574
0.00357039
0.00125036
0.00119374
0.00114284
0.00109522
0.00105012
0.00100696
0.000961051
0.000909019
0.000847515
0.000826008
0.000816092
0.000844737
0.000506339
0.0030566
0.00671762
0.00488233
0.00409479
0.0046879
0.00575772
0.00668014
0.00710925
0.00688697
0.0064455
0.00593545
0.0054015
0.00484724
0.00427073
0.00368679
0.00313481
0.00264974
0.00212475
0.00180548
0.00167739
0.00191029
0.00279703
0.00411461
0.0053038
0.00557567
0.00552839
0.00539644
0.0052417
0.0049816
0.00454846
0.00399025
0.0033355
0.00261654
0.00193926
0.00141839
0.00111553
0.000701754
0.000531602
0.000641836
0.000680096
0.0030928
0.00668295
0.00405436
0.00453233
0.00676863
0.00791065
0.0083549
0.00832785
0.0078515
0.00715955
0.00648662
0.00586901
0.00526819
0.00467643
0.00410743
0.00359152
0.00315819
0.00279022
0.00267985
0.00298268
0.00390714
0.00530977
0.00663738
0.00753412
0.00789588
0.00794643
0.00784512
0.00757016
0.00708316
0.00641617
0.00560411
0.00468169
0.00369534
0.00274829
0.00197414
0.00145926
0.00101223
0.000769466
0.00110324
0.000833643
0.00312009
0.00553117
0.00322657
0.00473375
0.00743998
0.008476
0.00863765
0.00841109
0.00795485
0.00735732
0.00676853
0.00621048
0.00567142
0.00515185
0.00465788
0.00424302
0.00399397
0.00398985
0.0045346
0.0057326
0.0073016
0.00853276
0.00931438
0.00961902
0.00955925
0.0093308
0.00898046
0.00847406
0.00781427
0.00701669
0.00610773
0.00512114
0.00410531
0.00314733
0.00235629
0.00180172
0.00138925
0.00117436
0.0011167
0.000777869
0.00315244
0.00432438
0.00314831
0.00407925
0.00667762
0.00797656
0.00823305
0.00814187
0.00787084
0.00749758
0.00709444
0.00669896
0.00632399
0.00598923
0.00572897
0.00560889
0.00575478
0.00638037
0.00756622
0.00898291
0.0101744
0.0107818
0.0108894
0.0106444
0.0101683
0.00958569
0.0089594
0.00828114
0.00753129
0.00670876
0.00582799
0.00491605
0.00401504
0.00318999
0.00251436
0.00202011
0.00176297
0.00159959
0.00212378
0.000876451
0.00320671
0.00359611
0.00385351
0.00426165
0.00556993
0.00713336
0.00765372
0.0078667
0.00790539
0.00782239
0.00767282
0.00752743
0.0074172
0.00737628
0.00745131
0.0077043
0.00821185
0.00902575
0.0100171
0.010856
0.0112806
0.0112141
0.0107565
0.0100643
0.00928321
0.00851136
0.0077724
0.00704567
0.00630927
0.00555655
0.00479282
0.00402736
0.003263
0.00250055
0.00183039
0.00147298
0.00143515
0.00148478
0.00145576
0.000926733
0.0046939
0.00498061
0.00534021
0.00635692
0.00692667
0.00736459
0.00769432
0.00792026
0.00804827
0.00817012
0.00832439
0.00853501
0.00882321
0.00920088
0.00965877
0.0101345
0.0104795
0.0105378
0.010246
0.00966202
0.00892305
0.00816411
0.00746633
0.00684704
0.00628264
0.00574081
0.00519763
0.00463921
0.00406024
0.00346596
0.00287614
0.00232553
0.00187005
0.00160185
0.00154153
0.00156558
0.00156755
0.00104695
0.00232117
0.00502903
0.00542483
0.00551107
0.00574808
0.00602537
0.0062876
0.0065114
0.00668401
0.00685839
0.00706543
0.00730476
0.00757018
0.00784518
0.00809667
0.00826856
0.00829055
0.00812584
0.00779984
0.00738744
0.0069695
0.00659484
0.00627412
0.00599335
0.0057298
0.00546131
0.00516845
0.00483445
0.00444742
0.00400612
0.00352671
0.00304554
0.00261306
0.00227761
0.00206282
0.00196382
0.00232136
0.00123301
0.00138339
0.00148861
0.00158833
0.00147284
0.00146889
0.00148418
0.00150916
0.00153513
0.00156126
0.00158851
0.00161834
0.00164624
0.00167082
0.00169164
0.00170751
0.00171658
0.00171664
0.00170566
0.00168289
0.00165055
0.00161315
0.001576
0.00154301
0.0015153
0.00149155
0.00146923
0.00144572
0.00141872
0.00138647
0.00134794
0.00130322
0.00125378
0.00120249
0.00115342
0.00111128
0.00108069
0.0010652
0.00106878
0.00116648
0.00118908
)
;

boundaryField
{
    floor
    {
        type            nutkWallFunction;
        Cmu             0.09;
        kappa           0.41;
        E               9.8;
        value           nonuniform List<scalar> 
36
(
0.000162885
7.22687e-05
8.22948e-05
9.17367e-05
0.000102192
0.000110664
0.000103164
9.52018e-05
8.87071e-05
8.35388e-05
7.93984e-05
7.6062e-05
7.33336e-05
7.09561e-05
6.8765e-05
6.64935e-05
6.3877e-05
6.04234e-05
5.56147e-05
5.56146e-05
5.65076e-05
5.66728e-05
6.05142e-05
6.37236e-05
7.75522e-05
8.22673e-05
0.000162885
0.000163771
0.000151773
0.000132368
7.22686e-05
0.000132368
7.00468e-05
0.000140556
6.77786e-05
0.000137484
)
;
    }
    ceiling
    {
        type            nutkWallFunction;
        Cmu             0.09;
        kappa           0.41;
        E               9.8;
        value           nonuniform List<scalar> 
43
(
0.000165028
0.000176926
0.000188118
0.00017517
0.000174728
0.000176452
0.000179266
0.000182184
0.000185116
0.000188167
0.000191501
0.000194614
0.000197352
0.000199668
0.000201432
0.000202439
0.000202448
0.00020123
0.000198701
0.000195102
0.00019093
0.000186774
0.000183076
0.000179963
0.000177289
0.000174772
0.000172115
0.000169059
0.0001654
0.000161018
0.000155914
0.000150247
0.000144344
0.000138668
0.000133771
0.000130202
0.000128391
0.000128812
0.000140182
0.000142823
0.000361491
0.000401588
0.000268259
)
;
    }
    sWall
    {
        type            nutkWallFunction;
        Cmu             0.09;
        kappa           0.41;
        E               9.8;
        value           uniform 0.000165065;
    }
    nWall
    {
        type            nutkWallFunction;
        Cmu             0.09;
        kappa           0.41;
        E               9.8;
        value           nonuniform List<scalar> 6(8.22655e-05 0.000100965 9.42102e-05 0.000126228 0.000147835 0.00014283);
    }
    sideWalls
    {
        type            empty;
    }
    glass1
    {
        type            nutkWallFunction;
        Cmu             0.09;
        kappa           0.41;
        E               9.8;
        value           nonuniform List<scalar> 9(0.0002163 0.000209207 0.000297478 0.000336814 0.000346412 0.000350182 0.000353021 0.000356381 0.000362012);
    }
    glass2
    {
        type            nutkWallFunction;
        Cmu             0.09;
        kappa           0.41;
        E               9.8;
        value           nonuniform List<scalar> 2(0.000106072 0.000112054);
    }
    sun
    {
        type            nutkWallFunction;
        Cmu             0.09;
        kappa           0.41;
        E               9.8;
        value           nonuniform List<scalar> 
14
(
0.000216034
0.000261705
0.000271876
0.000262467
0.000251533
0.000241369
0.000232085
0.000223466
0.000215514
0.000208039
0.000200696
0.000193138
0.000184888
0.00017503
)
;
    }
    Table_master
    {
        type            nutkWallFunction;
        Cmu             0.09;
        kappa           0.41;
        E               9.8;
        value           nonuniform List<scalar> 9(0.000124835 0.000108071 9.25288e-05 7.95663e-05 6.89995e-05 6.01899e-05 5.29178e-05 5.13157e-05 5.49933e-05);
    }
    Table_slave
    {
        type            nutkWallFunction;
        Cmu             0.09;
        kappa           0.41;
        E               9.8;
        value           nonuniform List<scalar> 9(0.000149857 0.00014334 0.000137452 0.000131916 0.000126647 0.000121581 0.000116164 0.000109989 0.000102637);
    }
    inlet
    {
        type            calculated;
        value           uniform 0.000100623;
    }
    outlet
    {
        type            calculated;
        value           nonuniform List<scalar> 2(0.00138339 0.00148861);
    }
}


// ************************************************************************* //
