/*--------------------------------*- C++ -*----------------------------------*\
  =========                 |
  \\      /  F ield         | OpenFOAM: The Open Source CFD Toolbox
   \\    /   O peration     | Website:  https://openfoam.org
    \\  /    A nd           | Version:  6
     \\/     M anipulation  |
\*---------------------------------------------------------------------------*/
FoamFile
{
    version     2.0;
    format      ascii;
    class       volScalarField;
    location    "1100";
    object      T;
}
// * * * * * * * * * * * * * * * * * * * * * * * * * * * * * * * * * * * * * //

dimensions      [0 0 0 1 0 0 0];

internalField   nonuniform List<scalar> 
458
(
302.407
302.051
302.044
302.049
302.054
302.058
302.061
302.064
302.066
302.068
302.069
302.068
302.066
302.063
302.059
301.726
301.726
301.73
301.721
301.691
301.65
301.52
301.359
301.316
301.297
301.283
301.27
301.256
301.262
301.295
301.331
301.354
301.389
302.653
302.093
302.061
302.07
302.08
302.089
302.096
302.102
302.107
302.11
302.111
302.106
302.096
302.08
302.059
302.041
302.023
302.016
301.786
301.774
301.776
301.783
301.736
301.663
301.566
301.48
301.421
301.373
301.332
301.301
301.278
301.276
301.379
301.453
301.443
301.423
302.885
302.155
302.091
302.103
302.12
302.136
302.151
302.163
302.172
302.178
302.179
302.172
302.156
302.131
302.098
302.062
302.03
302.008
301.851
301.854
301.872
301.884
301.88
301.636
301.568
301.519
301.48
301.444
301.411
301.375
301.336
301.322
301.592
301.603
301.523
301.459
303.099
302.234
302.125
302.136
302.16
302.185
302.209
302.23
302.247
302.258
302.262
302.255
302.236
302.205
302.163
302.114
302.062
302.009
301.972
301.945
301.952
301.958
301.962
301.963
301.965
301.967
301.97
301.975
301.981
301.988
301.992
301.992
301.987
301.96
301.891
301.779
301.671
303.294
302.327
302.166
302.164
302.194
302.226
302.259
302.29
302.317
302.337
302.348
302.345
302.326
302.294
302.25
302.2
302.148
302.099
302.06
302.033
302.02
302.013
302.008
302.003
302.001
302
302.002
302.005
302.009
302.014
302.018
302.018
302.012
301.995
301.955
301.88
301.785
301.789
301.834
301.964
303.461
302.439
302.239
302.198
302.22
302.255
302.293
302.332
302.37
302.402
302.422
302.425
302.41
302.378
302.335
302.285
302.231
302.181
302.137
302.104
302.08
302.063
302.05
302.04
302.032
302.028
302.026
302.027
302.029
302.033
302.038
302.038
302.032
302.014
301.979
301.928
301.867
301.84
301.835
301.862
303.597
302.623
302.426
302.317
302.28
302.293
302.323
302.36
302.401
302.445
302.476
302.485
302.473
302.445
302.406
302.359
302.309
302.258
302.212
302.173
302.142
302.117
302.097
302.08
302.067
302.057
302.049
302.046
302.046
302.049
302.054
302.056
302.05
302.033
301.993
301.948
301.907
301.88
301.863
301.879
303.831
303.093
302.895
302.705
302.554
302.468
302.437
302.439
302.461
302.498
302.523
302.526
302.511
302.484
302.449
302.409
302.366
302.322
302.277
302.236
302.202
302.172
302.146
302.125
302.105
302.088
302.074
302.064
302.06
302.062
302.068
302.073
302.071
302.058
302.03
301.988
301.962
301.96
301.98
302.119
304.158
303.841
303.558
303.304
303.077
302.902
302.782
302.704
302.66
302.629
302.596
302.561
302.525
302.49
302.455
302.421
302.386
302.352
302.317
302.283
302.251
302.221
302.194
302.17
302.147
302.125
302.105
302.087
302.076
302.073
302.08
302.092
302.105
302.119
302.132
302.145
302.159
302.181
302.208
302.271
297.479
300.908
302.016
302.355
302.473
302.511
302.518
302.511
302.499
302.481
302.459
302.436
302.412
302.388
302.365
302.343
302.32
302.297
302.273
302.25
302.227
302.206
302.185
302.164
302.143
302.121
302.099
302.084
302.08
302.083
302.089
302.1
302.114
302.128
302.138
302.143
302.129
302.13
298.308
300.801
301.67
302.054
302.229
302.306
302.339
302.35
302.352
302.349
302.344
302.337
302.329
302.32
302.31
302.3
302.29
302.278
302.266
302.253
302.239
302.225
302.211
302.195
302.178
302.159
302.136
302.114
302.098
302.092
302.089
302.081
302.087
302.1
302.11
302.109
302.094
302.113
299.846
299.79
299.787
301.263
301.751
302.028
302.147
302.196
302.221
302.234
302.24
302.244
302.247
302.25
302.252
302.253
302.254
302.254
302.254
302.254
302.253
302.25
302.247
302.243
302.237
302.229
302.218
302.205
302.187
302.165
302.146
302.134
302.121
302.091
302.079
302.08
302.082
302.081
302.077
302.104
)
;

boundaryField
{
    floor
    {
        type            wallHeatTransfer;
        Tinf            uniform 305.2;
        alphaWall       uniform 0.24;
        value           nonuniform List<scalar> 
36
(
302.434
302.389
302.294
302.296
302.32
302.356
302.401
302.503
302.7
302.674
302.614
302.569
302.565
302.563
302.473
302.326
302.222
302.166
302.225
302.225
302.056
302.026
302.075
302.142
302.21
302.323
302.434
302.398
302.394
302.473
302.389
302.473
302.289
302.357
302.254
302.307
)
;
    }
    ceiling
    {
        type            wallHeatTransfer;
        Tinf            uniform 303.2;
        alphaWall       uniform 0.24;
        value           nonuniform List<scalar> 
43
(
300.047
299.983
299.97
301.363
301.831
302.098
302.214
302.265
302.292
302.308
302.318
302.326
302.333
302.34
302.346
302.351
302.357
302.361
302.365
302.367
302.368
302.367
302.364
302.359
302.352
302.344
302.333
302.318
302.299
302.275
302.255
302.246
302.232
302.192
302.172
302.167
302.168
302.17
302.171
302.203
304.116
303.817
298.552
)
;
    }
    sWall
    {
        type            wallHeatTransfer;
        Tinf            uniform 315.2;
        alphaWall       uniform 0.36;
        value           uniform 301.193;
    }
    nWall
    {
        type            wallHeatTransfer;
        Tinf            uniform 307.2;
        alphaWall       uniform 0.36;
        value           nonuniform List<scalar> 6(302.791 302.668 302.589 302.757 302.728 302.768);
    }
    sideWalls
    {
        type            empty;
    }
    glass1
    {
        type            wallHeatTransfer;
        Tinf            uniform 315.2;
        alphaWall       uniform 4.3;
        value           nonuniform List<scalar> 9(312.003 310.91 310.227 309.73 309.362 309.073 308.845 308.919 309.172);
    }
    glass2
    {
        type            wallHeatTransfer;
        Tinf            uniform 307.2;
        alphaWall       uniform 4.3;
        value           nonuniform List<scalar> 2(305.35 305.377);
    }
    sun
    {
        type            wallHeatTransfer;
        Tinf            uniform 305.2;
        alphaWall       uniform 0.24;
        value           nonuniform List<scalar> 
14
(
302.799
302.485
302.502
302.495
302.488
302.481
302.476
302.47
302.465
302.46
302.454
302.449
302.444
302.439
)
;
    }
    Table_master
    {
        type            zeroGradient;
    }
    Table_slave
    {
        type            zeroGradient;
    }
    inlet
    {
        type            fixedValue;
        value           uniform 292.15;
    }
    outlet
    {
        type            zeroGradient;
    }
}


// ************************************************************************* //
