/*--------------------------------*- C++ -*----------------------------------*\
  =========                 |
  \\      /  F ield         | OpenFOAM: The Open Source CFD Toolbox
   \\    /   O peration     | Website:  https://openfoam.org
    \\  /    A nd           | Version:  6
     \\/     M anipulation  |
\*---------------------------------------------------------------------------*/
FoamFile
{
    version     2.0;
    format      ascii;
    class       surfaceScalarField;
    location    "1200";
    object      phi;
}
// * * * * * * * * * * * * * * * * * * * * * * * * * * * * * * * * * * * * * //

dimensions      [1 0 -1 0 0 0 0];

internalField   nonuniform List<scalar> 
850
(
-0.00251589
0.00257702
-0.00287156
0.000355703
-0.0033182
0.000446673
-0.00376807
0.000449899
-0.00417188
0.000403843
-0.00450837
0.000336522
-0.0047604
0.000252062
-0.00490919
0.000148829
-0.00493307
2.39107e-05
-0.00480509
-0.000127951
-0.00449785
-0.000307201
-0.0039903
-0.00050752
-0.00323897
-0.0007513
-0.00206039
-0.00117854
-0.00205869
-0.000486139
0.000488909
-0.000197025
-0.000289076
0.000291287
-0.000488274
0.000942769
-0.000651444
0.0015811
-0.000638296
0.00184436
-0.000263223
0.00189578
-5.13748e-05
0.00188246
1.33574e-05
0.00183746
4.50376e-05
0.00177439
6.31112e-05
0.00170536
6.90638e-05
0.00163431
7.10935e-05
0.00155521
7.91297e-05
0.00144891
0.000106343
0.00128813
0.000160813
0.00106398
0.000224194
0.000779413
0.000284605
0.000783314
-0.00185206
0.00459019
-0.00250983
0.00101351
-0.00309759
0.00103446
-0.00359038
0.000942726
-0.00401705
0.000830542
-0.00437559
0.000695094
-0.00465497
0.000531476
-0.00483969
0.00033358
-0.00491212
9.63744e-05
-0.00485848
-0.000181554
-0.00466893
-0.000496718
-0.00433229
-0.000844134
-0.00384492
-0.00123863
-0.00333296
-0.00169048
-0.00344635
-0.00194526
-0.00176588
-0.00167723
6.66992e-05
-0.0018292
7.78811e-05
-2.08639e-05
0.000517481
-4.67656e-05
-0.000263135
0.000184123
-0.000719125
0.00062802
-0.0010953
0.00112733
-0.00113757
0.00128203
-0.000417883
0.00128579
-5.50988e-05
0.0012622
3.69908e-05
0.0012292
7.80741e-05
0.00120087
9.14813e-05
0.00118219
8.77824e-05
0.00117134
8.19772e-05
0.00116414
8.63672e-05
0.00113095
0.000139568
0.001011
0.000280804
0.000801949
0.000433285
0.000545835
0.000540758
0.0013395
-0.00137561
0.00620701
-0.00212452
0.00176245
-0.00270283
0.0016128
-0.00315905
0.00139898
-0.00355648
0.00122801
-0.00389808
0.00103672
-0.00417439
0.000807825
-0.00437129
0.000530507
-0.00447279
0.000197908
-0.0044652
-0.000189114
-0.00434126
-0.000620624
-0.00410836
-0.001077
-0.00381124
-0.00153572
-0.00356023
-0.00194146
-0.00335124
-0.00215422
-0.00282761
-0.00220082
-0.00236947
-0.00228731
-0.00228344
-9.2904e-05
0.000621271
-0.000274494
-8.15085e-05
-0.000235726
-0.000757857
2.04137e-05
-0.00135141
0.000742139
-0.00185926
0.000324449
0.000269543
0.000306727
0.000384993
0.000476665
0.000564638
0.000646806
0.000733363
0.000873121
0.000808928
0.000345033
0.000642026
0.000600225
0.000353644
0.000829177
0.00170857
-0.00103079
0.00754383
-0.00177436
0.00250606
-0.00220293
0.00204141
-0.00256143
0.00175751
-0.00288729
0.00155391
-0.00317845
0.00132791
-0.00342599
0.0010554
-0.00361645
0.000721004
-0.00373142
0.000312902
-0.00375084
-0.000169658
-0.00366885
-0.000702582
-0.00351096
-0.00123486
-0.0033332
-0.00171345
-0.00319397
-0.00208066
-0.0030648
-0.00228335
-0.00291077
-0.00235482
-0.00288221
-0.00231584
-0.00331137
-0.00185424
-0.00228733
-0.00101445
-0.00133082
-0.000335205
-0.000952413
-0.00045988
-0.000749777
-0.000960457
-0.00070792
-0.00139323
-0.00110325
-0.00146389
-0.000167131
-0.000936235
0.000478311
-0.000645555
0.00100546
-0.000527261
0.00148105
-0.000475702
0.00190873
-0.000427792
0.00226633
-0.000357717
0.00250217
-0.00023595
0.00253278
-3.07169e-05
0.00227035
0.000262317
0.00195242
0.000663005
0.00147385
0.00107884
0.000793923
0.00150914
0.00252111
-0.00077011
0.00867355
-0.00146151
0.00319749
-0.00163571
0.00221564
-0.00185421
0.00197603
-0.00207898
0.00177872
-0.00228685
0.00153581
-0.00246887
0.00123745
-0.00261672
0.000868887
-0.00271307
0.000409287
-0.00272939
-0.000153315
-0.00265817
-0.00077377
-0.00254036
-0.00135264
-0.00242839
-0.00182538
-0.00235397
-0.00215506
-0.00230755
-0.00232974
-0.00229436
-0.00236798
-0.00236049
-0.00224969
-0.00235585
-0.00185885
-0.0020491
-0.00132117
-0.00146629
-0.00091799
-0.00101767
-0.000908468
-0.000797603
-0.00118049
-0.000715638
-0.00147516
-0.000635172
-0.00154432
-0.000239427
-0.00133194
0.000227086
-0.00111203
0.000662269
-0.000962403
0.00106609
-0.000879477
0.00144489
-0.000806556
0.00178705
-0.000699831
0.00206322
-0.000512078
0.00222375
-0.0001912
0.00222743
0.000258672
0.00212522
0.00076526
0.00194172
0.00126238
0.00170836
0.00174254
0.0023937
0.00183581
0.00169493
0.000717082
0.00152505
0.000188098
0.00159949
-0.000698831
0.00977716
-0.00129231
0.00379101
-0.00104936
0.00197272
-0.00103105
0.00195776
-0.00115599
0.00190369
-0.00127564
0.00165549
-0.00136263
0.00132447
-0.00142515
0.000931443
-0.00145612
0.000440284
-0.0014258
-0.000183596
-0.00134079
-0.00085875
-0.00125282
-0.00144059
-0.00120057
-0.00187759
-0.0011971
-0.0021585
-0.00123469
-0.00229212
-0.00130913
-0.00229351
-0.00140366
-0.00215513
-0.00140333
-0.00185915
-0.00124015
-0.00148432
-0.000957858
-0.00120026
-0.000733804
-0.00113249
-0.000636905
-0.00127736
-0.000600222
-0.00151181
-0.000511514
-0.00163299
-0.000310774
-0.00153264
-4.55158e-05
-0.00137725
0.000247793
-0.00125567
0.0005454
-0.00117704
0.000845208
-0.00110632
0.00114601
-0.00100059
0.00144229
-0.000808318
0.0017159
-0.000464761
0.00190431
7.02995e-05
0.0020087
0.000660921
0.00211456
0.00115656
0.00230077
0.00155638
0.00248559
0.00165103
0.00199912
0.00120359
0.00113478
0.00105248
0.00279296
-0.000905534
0.0111273
-0.00101169
0.00389719
-0.000158415
0.00111948
0.000145537
0.00165384
5.42549e-05
0.001995
-4.85634e-05
0.00175834
-6.35359e-05
0.00133947
-2.23532e-05
0.000890292
6.38116e-05
0.000354151
0.000175662
-0.000295415
0.000265859
-0.000948917
0.00029669
-0.00147139
0.000256527
-0.0018374
0.000153194
-0.00205514
3.28869e-06
-0.00214219
-0.000173021
-0.00211718
-0.00033937
-0.00198876
-0.000433083
-0.00176541
-0.000423769
-0.00149361
-0.000359505
-0.0012645
-0.000332165
-0.00115981
-0.000385034
-0.00122446
-0.000459751
-0.00143707
-0.000476559
-0.00161615
-0.000429516
-0.00157965
-0.000344121
-0.0014626
-0.000224451
-0.0013753
-7.91034e-05
-0.00132235
8.97324e-05
-0.00127512
0.000285911
-0.00119673
0.000522673
-0.00104504
0.000817489
-0.000759533
0.00114583
-0.000257993
0.00144873
0.000358063
0.0017268
0.000878532
0.00204422
0.001239
0.00235754
0.00133775
0.0024599
0.00110128
0.00190937
0.00160306
0.00476229
0.00206362
0.00955922
0.0025429
0.00341794
0.00276441
0.000897999
0.00257977
0.00183851
0.00224328
0.00233152
0.00202043
0.00198122
0.00193192
0.00142802
0.00194857
0.000873677
0.00205495
0.0002478
0.00216529
-0.000405723
0.00216845
-0.000952044
0.00205617
-0.00135908
0.00185254
-0.00163374
0.00158852
-0.0017911
0.00129254
-0.00184619
0.000989214
-0.00181382
0.000707207
-0.00170673
0.000480519
-0.0015387
0.000324901
-0.00133797
0.000212156
-0.00115174
8.37608e-05
-0.00103139
-0.000105279
-0.0010354
-0.000320393
-0.00122193
-0.000476863
-0.00145964
-0.0005855
-0.00147097
-0.00066712
-0.00138094
-0.000724785
-0.0013176
-0.000764617
-0.00128247
-0.00078842
-0.00125127
-0.000788758
-0.00119635
-0.000745002
-0.00108875
-0.000607106
-0.000897386
-0.000271958
-0.000593097
0.000182971
-9.68212e-05
0.000609606
0.000451941
0.0010186
0.000830047
0.0013876
0.000968794
0.00158981
0.000899114
0.000954196
0.00223872
0.00598353
0.0101005
0.0135094
0.0122225
0.00218502
0.0099032
0.00415779
0.00821914
0.00401561
0.0070361
0.00316429
0.00620371
0.00226044
0.00566344
0.00141397
0.00524858
0.000662683
0.00481681
2.60831e-05
0.00435344
-0.000488643
0.0038731
-0.000878714
0.00338641
-0.00114702
0.00290287
-0.00130754
0.00243353
-0.00137682
0.00199045
-0.00137073
0.00158733
-0.00130358
0.00123805
-0.00118941
0.000946776
-0.00104668
0.000696425
-0.000901366
0.000450988
-0.000785936
0.000163304
-0.000747697
-0.000180704
-0.000877897
-0.000483542
-0.00115678
-0.000737106
-0.00121737
-0.000977397
-0.00114061
-0.0012126
-0.00108235
-0.00145048
-0.00104455
-0.0016992
-0.00100252
-0.00196697
-0.000928535
-0.00226296
-0.000792714
-0.00259766
-0.000562647
-0.00298472
-0.000205997
-0.0033773
0.000295807
-0.00385271
0.000927392
-0.00465379
0.00163116
-0.00597307
0.00228812
-0.00773048
0.00265656
-0.00756037
0.00206864
-0.00128265
0.00302944
0.00350664
0.00406755
0.00311968
0.00534655
0.00273663
0.0057364
0.00277446
0.0057652
0.00223166
0.00570881
0.00147039
0.00558729
0.000784226
0.0053633
0.000250101
0.00502534
-0.000150658
0.00459385
-0.000447205
0.00410354
-0.000656695
0.00358628
-0.000790256
0.00306819
-0.000858717
0.00257026
-0.000872777
0.0021089
-0.000842197
0.00169539
-0.000775877
0.00133209
-0.000683363
0.00100778
-0.000577038
0.000697981
-0.000476114
0.000367325
-0.000417023
-3.93998e-05
-0.000471154
-0.000463668
-0.000732481
-0.000808981
-0.000872022
-0.0011632
-0.000786352
-0.00152602
-0.000719489
-0.00189642
-0.00067411
-0.00227449
-0.000624403
-0.00265527
-0.000547712
-0.00302433
-0.000423615
-0.0033554
-0.000231537
-0.00361747
5.61127e-05
-0.00379766
0.000476039
-0.00391978
0.00104956
-0.00401595
0.00172738
-0.00410419
0.0023764
-0.00406298
0.00261539
-0.00255295
0.000558653
-0.00375657
-0.000438973
0.00398839
0.00123417
0.00144654
0.0022906
0.00168021
0.00318662
0.00187845
0.0039141
0.0015042
0.00440961
0.000974892
0.00465389
0.000539963
0.00468538
0.000218641
0.00454623
-1.14912e-05
0.00427291
-0.000173869
0.00390396
-0.00028772
0.00347542
-0.000361697
0.00301859
-0.000401865
0.00255969
-0.00041386
0.00212009
-0.00040258
0.00171595
-0.000371713
0.00135616
-0.000323555
0.00103854
-0.000259401
0.000746302
-0.000183854
0.000447181
-0.000117883
9.19803e-05
-0.000115936
-0.00035983
-0.000280648
-0.000712391
-0.000519426
-0.0011067
-0.000392006
-0.00149021
-0.000335938
-0.00185611
-0.000308166
-0.00219976
-0.000280713
-0.00250853
-0.000238906
-0.00276057
-0.000171535
-0.00292557
-6.64954e-05
-0.00296692
9.75069e-05
-0.00284189
0.000351051
-0.00251466
0.000722364
-0.00197956
0.00119232
-0.00111827
0.00151515
0.00045706
0.00104009
0.00138591
-0.000370153
-0.00228353
-0.00639217
-0.00858188
-0.00456236
-0.00310389
-0.00141673
0.000465443
0.00197117
0.00294669
0.00348676
0.00370518
0.00369325
0.00351873
0.00323015
0.00286738
0.00246421
0.00204882
0.00164447
0.00127073
0.000944892
0.000682962
0.000496409
0.000375817
0.000257424
-2.51145e-05
-0.000545759
-0.00093924
-0.00127684
-0.00158676
-0.00186929
-0.00211004
-0.00228342
-0.00235176
-0.00225607
-0.0019068
-0.0011862
4.35703e-06
0.00151764
0.00255575
0.00218348
)
;

boundaryField
{
    floor
    {
        type            calculated;
        value           nonuniform List<scalar> 
36
(
0
0
0
0
0
0
0
0
0
0
0
0
0
0
0
0
0
0
0
-3.86233e-06
-1.03133e-05
-1.53862e-05
-1.85853e-05
-1.82681e-05
-1.81754e-05
-1.78614e-05
-1.6708e-06
-3.20756e-06
-3.34614e-06
-4.42867e-06
-2.73259e-06
-6.7195e-06
-7.67094e-06
-8.11978e-06
-1.08502e-05
-9.55586e-06
)
;
    }
    ceiling
    {
        type            calculated;
        value           nonuniform List<scalar> 
43
(
-3.43677e-05
-3.27786e-05
-3.11226e-05
-1.1923e-05
-6.92885e-06
-3.71204e-06
-1.50787e-06
-6.1141e-07
-8.42581e-08
2.42822e-07
4.57182e-07
6.68786e-07
8.80735e-07
1.09609e-06
1.31799e-06
1.54939e-06
1.79254e-06
2.04728e-06
2.30701e-06
2.54907e-06
2.71923e-06
2.72717e-06
2.4732e-06
1.90437e-06
1.25051e-06
1.51162e-06
1.69645e-06
1.79952e-06
1.85513e-06
1.88151e-06
1.88813e-06
1.87924e-06
1.85415e-06
1.82243e-06
1.80172e-06
1.80656e-06
1.91175e-06
2.0187e-06
2.15624e-06
2.98942e-06
1.2398e-05
9.05776e-06
-4.27938e-05
)
;
    }
    sWall
    {
        type            calculated;
        value           uniform -0.000239117;
    }
    nWall
    {
        type            calculated;
        value           nonuniform List<scalar> 6(-5.65475e-05 -5.86495e-05 -5.99187e-05 -7.89945e-05 -8.70906e-05 -0.000103003);
    }
    sideWalls
    {
        type            empty;
        value           nonuniform 0();
    }
    glass1
    {
        type            calculated;
        value           nonuniform List<scalar> 9(-6.10992e-05 -0.00016108 -0.000241177 -0.000306011 -0.00035958 -0.000404747 -0.000444598 -0.00049549 -0.000553696);
    }
    glass2
    {
        type            calculated;
        value           nonuniform List<scalar> 2(-0.000267012 -0.000294148);
    }
    sun
    {
        type            calculated;
        value           uniform 0;
    }
    Table_master
    {
        type            calculated;
        value           nonuniform List<scalar> 9(-1.53407e-07 -1.53596e-07 -1.53634e-07 -1.53627e-07 -1.53609e-07 -1.5359e-07 -1.53573e-07 -1.53553e-07 -1.5351e-07);
    }
    Table_slave
    {
        type            calculated;
        value           nonuniform List<scalar> 9(1.53262e-07 1.5342e-07 1.53298e-07 1.53138e-07 1.52995e-07 1.52877e-07 1.52803e-07 1.52799e-07 1.52811e-07);
    }
    inlet
    {
        type            calculated;
        value           uniform -0.00435107;
    }
    outlet
    {
        type            calculated;
        value           nonuniform List<scalar> 2(0.00666565 0.0022225);
    }
}


// ************************************************************************* //
