/*--------------------------------*- C++ -*----------------------------------*\
  =========                 |
  \\      /  F ield         | OpenFOAM: The Open Source CFD Toolbox
   \\    /   O peration     | Website:  https://openfoam.org
    \\  /    A nd           | Version:  6
     \\/     M anipulation  |
\*---------------------------------------------------------------------------*/
FoamFile
{
    version     2.0;
    format      ascii;
    class       volScalarField;
    location    "1700";
    object      epsilon;
}
// * * * * * * * * * * * * * * * * * * * * * * * * * * * * * * * * * * * * * //

dimensions      [0 2 -3 0 0 0 0];

internalField   nonuniform List<scalar> 
458
(
0.000590958
0.000778949
0.000868296
0.00100532
0.00114349
0.00128936
0.0014554
0.00163135
0.001798
0.0019243
0.00196619
0.00182274
0.00133278
0.000866208
0.000555408
5.47562e-05
8.83599e-05
0.000137021
0.000166784
0.000164804
0.000139589
0.000113784
9.32409e-05
7.73723e-05
6.50053e-05
5.52502e-05
4.74687e-05
4.11375e-05
3.5798e-05
3.10786e-05
2.66088e-05
2.27412e-05
1.684e-05
0.00125857
0.00176996
0.000729141
0.000720316
0.000743084
0.000802555
0.000913321
0.00106845
0.00123814
0.00136484
0.00139367
0.00132822
0.00106162
0.00078829
0.000579618
0.000866202
0.000576626
0.000339805
4.87897e-05
8.83636e-05
0.000121169
0.000130982
0.000132695
0.000140032
0.000113109
8.84805e-05
6.95967e-05
5.53593e-05
4.46246e-05
3.64675e-05
3.01617e-05
2.52717e-05
2.22617e-05
2.10248e-05
3.62884e-05
2.78512e-05
0.00207694
0.00371525
0.00074356
0.000632164
0.000640934
0.000703665
0.000820127
0.000983913
0.00116073
0.00128999
0.00133315
0.00130471
0.00112137
0.000843893
0.000622337
0.000521021
0.00043359
0.000438332
0.00012878
0.000149812
0.000152905
0.000148865
0.000148239
0.00030996
0.000210876
0.000145904
0.000104051
7.66959e-05
5.83773e-05
4.58658e-05
3.73314e-05
3.18139e-05
2.47618e-05
2.14649e-05
5.76366e-05
3.85921e-05
0.00309962
0.00713781
0.000909005
0.00057795
0.000571174
0.000634871
0.000762281
0.000956738
0.00116062
0.00130597
0.00136637
0.00134112
0.00113954
0.000822721
0.00059008
0.00044982
0.000372009
0.000369022
0.000507625
0.000366054
0.000269504
0.00021933
0.000189248
0.000176648
0.000431355
0.000333996
0.000275337
0.000235476
0.000203968
0.000176858
0.000152748
0.000129368
0.000105044
6.22302e-05
3.83486e-05
8.57574e-05
5.31292e-05
0.00440356
0.0126029
0.00144315
0.000552189
0.000504256
0.000573066
0.0007392
0.00102294
0.00128131
0.00145097
0.00151726
0.00146205
0.00118502
0.000796798
0.000530923
0.000395073
0.000327752
0.000323339
0.000369164
0.000324196
0.000281584
0.000249021
0.000216853
0.000184512
0.000171621
0.000158406
0.000150095
0.000142344
0.000132692
0.000120887
0.000107681
9.39196e-05
8.03357e-05
6.26575e-05
4.64103e-05
6.40106e-05
8.16241e-05
9.47974e-05
0.000115277
0.000115334
0.00615534
0.0193187
0.00307651
0.000701477
0.000477877
0.000509268
0.000760605
0.00122062
0.00153454
0.00171853
0.00176886
0.00165017
0.00127507
0.000777066
0.000448245
0.000312889
0.000277093
0.00029394
0.000321322
0.000322396
0.000307012
0.000275855
0.000233983
0.000190708
0.000160948
0.000149213
0.000146398
0.000143885
0.000138142
0.000127921
0.000113138
9.68878e-05
8.1461e-05
6.69742e-05
5.56791e-05
5.64413e-05
6.63463e-05
0.00010723
0.000416752
0.000255697
0.00845122
0.0236595
0.00710769
0.00225787
0.00103811
0.00074069
0.00114294
0.00166993
0.00197157
0.00211997
0.00211007
0.00190142
0.00139538
0.000755459
0.000361136
0.000233078
0.000233698
0.000274265
0.000313276
0.00032517
0.000306531
0.000267051
0.000220155
0.000178782
0.000154963
0.000150735
0.000155042
0.000160277
0.000163497
0.000163022
0.000155315
0.000140304
0.00012488
0.000111431
0.000104447
0.000109212
0.000131724
0.000204195
0.000782556
0.000505342
0.0092363
0.0278678
0.0152162
0.00848566
0.00450553
0.00277605
0.00254857
0.00262121
0.00270198
0.002701
0.00254842
0.00219012
0.0014949
0.00067847
0.000273674
0.000198137
0.000215735
0.000256779
0.000287607
0.000287166
0.000258362
0.000217864
0.000180973
0.000156982
0.000149165
0.000154485
0.00016692
0.000183292
0.000203027
0.000226368
0.000253036
0.000277379
0.00029613
0.000331476
0.000399318
0.000564506
0.000933146
0.00148099
0.0049027
0.001206
0.0089295
0.0163003
0.0143522
0.011058
0.00803224
0.00600458
0.00473152
0.00406376
0.00374201
0.00344247
0.0030227
0.00243152
0.00144306
0.00046887
0.000217767
0.000180415
0.000193076
0.000212421
0.000218874
0.000206614
0.000181713
0.000155669
0.000137632
0.000131101
0.000135333
0.000147759
0.000166414
0.000191178
0.000223428
0.00026564
0.000321246
0.000394274
0.000491604
0.000627647
0.000824999
0.00109219
0.00140737
0.00171283
0.00199243
0.00106365
0.00589592
0.00678037
0.00662402
0.00604313
0.00554482
0.00532777
0.00487935
0.00415201
0.00329333
0.00236677
0.000834619
0.000270339
0.000159421
0.000141064
0.000141075
0.00014065
0.000133284
0.000120102
0.000106818
9.7232e-05
9.39331e-05
9.70945e-05
0.000105591
0.000118493
0.000135583
0.000157394
0.00018515
0.000220886
0.000267823
0.000331561
0.000418382
0.000534645
0.000684355
0.000854452
0.000999215
0.00104874
0.000972473
0.000528853
0.0036926
0.025108
0.0166295
0.0135599
0.0120097
0.00875702
0.00582072
0.00379303
0.00180132
0.000690889
0.000243041
0.00013138
9.93306e-05
8.77896e-05
8.08354e-05
7.39322e-05
6.6583e-05
6.05332e-05
5.77598e-05
5.89654e-05
6.36847e-05
7.12797e-05
8.1555e-05
9.47224e-05
0.00011136
0.000132431
0.000159387
0.000194358
0.000240445
0.000301481
0.000382613
0.000489605
0.000624299
0.000774277
0.000906568
0.00101446
0.000718522
0.00054594
0.00810756
0.00811545
0.00829646
0.0132111
0.00980145
0.00701602
0.00359932
0.00137903
0.000780419
0.000486293
0.000310552
0.000209639
0.000163507
0.000134644
0.000117334
0.00010461
9.35967e-05
8.35948e-05
7.54815e-05
7.06985e-05
6.99888e-05
7.31387e-05
7.96044e-05
8.86877e-05
0.000100109
0.000114047
0.000130871
0.000151173
0.000175878
0.000206507
0.000245534
0.000293529
0.000352566
0.000425283
0.000514625
0.000625564
0.00071521
0.000673184
0.000521735
0.000403029
)
;

boundaryField
{
    floor
    {
        Cmu             0.09;
        kappa           0.41;
        E               9.8;
        type            epsilonWallFunction;
        value           nonuniform List<scalar> 
36
(
0.000555408
5.47562e-05
8.83599e-05
0.000137021
0.000166784
0.000164804
0.000139589
0.000113784
9.32409e-05
7.73723e-05
6.50053e-05
5.52502e-05
4.74687e-05
4.11375e-05
3.5798e-05
3.10786e-05
2.66088e-05
2.27412e-05
1.684e-05
1.684e-05
2.78512e-05
3.85921e-05
5.31292e-05
9.47974e-05
0.000115277
0.000115334
0.000555408
0.000866202
0.000576626
0.000339805
5.47562e-05
0.000339805
4.87897e-05
0.000438332
0.00012878
0.000507625
)
;
    }
    ceiling
    {
        Cmu             0.09;
        kappa           0.41;
        E               9.8;
        type            epsilonWallFunction;
        value           nonuniform List<scalar> 
43
(
0.00810756
0.00811545
0.00829646
0.0132111
0.00980145
0.00701602
0.00359932
0.00137903
0.000780419
0.000486293
0.000310552
0.000209639
0.000163507
0.000134644
0.000117334
0.00010461
9.35967e-05
8.35948e-05
7.54815e-05
7.06985e-05
6.99888e-05
7.31387e-05
7.96044e-05
8.86877e-05
0.000100109
0.000114047
0.000130871
0.000151173
0.000175878
0.000206507
0.000245534
0.000293529
0.000352566
0.000425283
0.000514625
0.000625564
0.00071521
0.000673184
0.000521735
0.000403029
0.0089295
0.0163003
0.0036926
)
;
    }
    sWall
    {
        Cmu             0.09;
        kappa           0.41;
        E               9.8;
        type            epsilonWallFunction;
        value           uniform 0.00810756;
    }
    nWall
    {
        Cmu             0.09;
        kappa           0.41;
        E               9.8;
        type            epsilonWallFunction;
        value           nonuniform List<scalar> 6(0.000115334 0.000255697 0.000505342 0.000528853 0.00054594 0.000403029);
    }
    sideWalls
    {
        type            empty;
    }
    glass1
    {
        Cmu             0.09;
        kappa           0.41;
        E               9.8;
        type            epsilonWallFunction;
        value           nonuniform List<scalar> 9(0.000590958 0.00125857 0.00207694 0.00309962 0.00440356 0.00615534 0.00845122 0.0092363 0.0089295);
    }
    glass2
    {
        Cmu             0.09;
        kappa           0.41;
        E               9.8;
        type            epsilonWallFunction;
        value           nonuniform List<scalar> 2(0.001206 0.00106365);
    }
    sun
    {
        Cmu             0.09;
        kappa           0.41;
        E               9.8;
        type            epsilonWallFunction;
        value           nonuniform List<scalar> 
14
(
0.000590958
0.000778949
0.000868296
0.00100532
0.00114349
0.00128936
0.0014554
0.00163135
0.001798
0.0019243
0.00196619
0.00182274
0.00133278
0.000866208
)
;
    }
    Table_master
    {
        Cmu             0.09;
        kappa           0.41;
        E               9.8;
        type            epsilonWallFunction;
        value           nonuniform List<scalar> 9(0.00030996 0.000210876 0.000145904 0.000104051 7.66959e-05 5.83773e-05 4.58658e-05 3.73314e-05 3.18139e-05);
    }
    Table_slave
    {
        Cmu             0.09;
        kappa           0.41;
        E               9.8;
        type            epsilonWallFunction;
        value           nonuniform List<scalar> 9(0.000431355 0.000333996 0.000275337 0.000235476 0.000203968 0.000176858 0.000152748 0.000129368 0.000105044);
    }
    inlet
    {
        type            turbulentMixingLengthDissipationRateInlet;
        mixingLength    0.01;
        phi             phi;
        k               k;
        value           uniform 0.00377336;
    }
    outlet
    {
        type            zeroGradient;
    }
}


// ************************************************************************* //
