/*--------------------------------*- C++ -*----------------------------------*\
  =========                 |
  \\      /  F ield         | OpenFOAM: The Open Source CFD Toolbox
   \\    /   O peration     | Website:  https://openfoam.org
    \\  /    A nd           | Version:  6
     \\/     M anipulation  |
\*---------------------------------------------------------------------------*/
FoamFile
{
    version     2.0;
    format      ascii;
    class       volScalarField;
    location    "700";
    object      T;
}
// * * * * * * * * * * * * * * * * * * * * * * * * * * * * * * * * * * * * * //

dimensions      [0 0 0 1 0 0 0];

internalField   nonuniform List<scalar> 
458
(
302.802
302.459
302.452
302.456
302.459
302.462
302.465
302.467
302.469
302.471
302.471
302.471
302.469
302.465
302.46
302.286
302.25
302.241
302.237
302.232
302.227
302.224
302.221
302.218
302.215
302.211
302.206
302.199
302.19
302.178
302.16
302.134
302.123
303.04
302.489
302.464
302.472
302.48
302.487
302.493
302.499
302.503
302.506
302.508
302.504
302.496
302.48
302.457
302.437
302.417
302.414
302.273
302.248
302.244
302.24
302.229
302.215
302.204
302.195
302.187
302.18
302.173
302.165
302.157
302.148
302.138
302.124
302.102
302.104
303.267
302.54
302.488
302.5
302.516
302.531
302.544
302.556
302.566
302.572
302.575
302.57
302.556
302.531
302.496
302.457
302.418
302.39
302.266
302.261
302.263
302.255
302.237
302.213
302.188
302.174
302.164
302.156
302.148
302.139
302.131
302.123
302.117
302.108
302.092
302.096
303.477
302.606
302.514
302.528
302.551
302.575
302.598
302.619
302.637
302.649
302.655
302.652
302.637
302.608
302.566
302.512
302.45
302.385
302.337
302.303
302.303
302.294
302.274
302.247
302.227
302.21
302.204
302.2
302.197
302.193
302.189
302.184
302.179
302.163
302.142
302.115
302.101
303.67
302.688
302.544
302.549
302.578
302.609
302.64
302.67
302.697
302.718
302.731
302.734
302.723
302.698
302.66
302.61
302.551
302.489
302.435
302.394
302.366
302.338
302.306
302.273
302.244
302.228
302.22
302.216
302.213
302.208
302.203
302.196
302.188
302.176
302.158
302.133
302.109
302.106
302.104
302.148
303.833
302.793
302.603
302.571
302.594
302.627
302.662
302.697
302.731
302.761
302.784
302.796
302.792
302.773
302.741
302.698
302.647
302.591
302.535
302.483
302.436
302.39
302.344
302.3
302.26
302.24
302.233
302.229
302.226
302.222
302.216
302.207
302.195
302.183
302.167
302.146
302.124
302.114
302.108
302.149
303.961
302.969
302.778
302.671
302.637
302.648
302.676
302.708
302.741
302.775
302.812
302.835
302.837
302.822
302.796
302.761
302.72
302.674
302.624
302.569
302.51
302.449
302.388
302.33
302.276
302.251
302.244
302.242
302.24
302.236
302.229
302.219
302.204
302.188
302.173
302.155
302.138
302.127
302.121
302.152
304.188
303.444
303.254
303.061
302.902
302.807
302.767
302.764
302.779
302.804
302.843
302.863
302.863
302.848
302.823
302.793
302.76
302.725
302.686
302.639
302.581
302.513
302.437
302.367
302.294
302.26
302.254
302.253
302.252
302.25
302.245
302.238
302.225
302.201
302.187
302.175
302.167
302.165
302.171
302.326
304.504
304.189
304.01
303.768
303.512
303.301
303.148
303.049
302.991
302.964
302.938
302.91
302.882
302.853
302.825
302.797
302.769
302.741
302.711
302.678
302.636
302.58
302.493
302.413
302.318
302.27
302.263
302.264
302.266
302.267
302.267
302.266
302.267
302.273
302.282
302.304
302.336
302.373
302.407
302.484
300.236
301.446
302.245
302.631
302.79
302.847
302.864
302.864
302.858
302.845
302.829
302.81
302.789
302.769
302.749
302.729
302.708
302.685
302.657
302.617
302.558
302.473
302.351
302.279
302.272
302.276
302.281
302.287
302.293
302.299
302.306
302.313
302.325
302.343
302.367
302.392
302.412
302.426
300.703
301.482
302.177
302.476
302.629
302.7
302.731
302.742
302.743
302.741
302.737
302.73
302.723
302.714
302.705
302.695
302.683
302.67
302.654
302.631
302.598
302.556
302.401
302.29
302.282
302.285
302.29
302.296
302.302
302.309
302.316
302.323
302.334
302.347
302.364
302.381
302.378
302.407
301.576
301.548
301.547
302.006
302.302
302.468
302.607
302.641
302.658
302.665
302.668
302.668
302.668
302.668
302.667
302.666
302.663
302.66
302.656
302.651
302.644
302.635
302.624
302.604
302.486
302.305
302.302
302.305
302.308
302.311
302.314
302.317
302.321
302.326
302.332
302.34
302.354
302.36
302.359
302.394
)
;

boundaryField
{
    floor
    {
        type            wallHeatTransfer;
        Tinf            uniform 305.2;
        alphaWall       uniform 0.24;
        value           nonuniform List<scalar> 
36
(
302.793
302.793
302.67
302.64
302.635
302.639
302.657
302.677
302.697
302.718
302.74
302.764
302.789
302.814
302.839
302.864
302.888
302.884
302.908
302.908
302.738
302.656
302.595
302.536
302.533
302.574
302.793
302.758
302.747
302.824
302.793
302.824
302.715
302.704
302.602
302.635
)
;
    }
    ceiling
    {
        type            wallHeatTransfer;
        Tinf            uniform 303.2;
        alphaWall       uniform 0.24;
        value           nonuniform List<scalar> 
43
(
301.675
301.646
301.644
302.072
302.353
302.511
302.645
302.679
302.696
302.705
302.71
302.712
302.714
302.716
302.718
302.719
302.719
302.72
302.719
302.718
302.715
302.71
302.703
302.689
302.588
302.424
302.417
302.416
302.416
302.415
302.415
302.414
302.413
302.413
302.414
302.418
302.428
302.434
302.439
302.475
304.445
304.151
300.856
)
;
    }
    sWall
    {
        type            wallHeatTransfer;
        Tinf            uniform 315.2;
        alphaWall       uniform 0.36;
        value           uniform 302.787;
    }
    nWall
    {
        type            wallHeatTransfer;
        Tinf            uniform 307.2;
        alphaWall       uniform 0.36;
        value           nonuniform List<scalar> 6(303.139 302.996 302.877 303.097 303.076 303.087);
    }
    sideWalls
    {
        type            empty;
    }
    glass1
    {
        type            wallHeatTransfer;
        Tinf            uniform 315.2;
        alphaWall       uniform 4.3;
        value           nonuniform List<scalar> 9(312.219 311.239 310.601 310.112 309.735 309.427 309.171 309.224 309.454);
    }
    glass2
    {
        type            wallHeatTransfer;
        Tinf            uniform 307.2;
        alphaWall       uniform 4.3;
        value           nonuniform List<scalar> 2(305.311 305.403);
    }
    sun
    {
        type            wallHeatTransfer;
        Tinf            uniform 305.2;
        alphaWall       uniform 0.24;
        value           nonuniform List<scalar> 
14
(
303.154
302.853
302.86
302.853
302.846
302.84
302.835
302.83
302.826
302.821
302.817
302.812
302.807
302.8
)
;
    }
    Table_master
    {
        type            zeroGradient;
    }
    Table_slave
    {
        type            zeroGradient;
    }
    inlet
    {
        type            fixedValue;
        value           uniform 299.15;
    }
    outlet
    {
        type            zeroGradient;
    }
}


// ************************************************************************* //
