/*--------------------------------*- C++ -*----------------------------------*\
  =========                 |
  \\      /  F ield         | OpenFOAM: The Open Source CFD Toolbox
   \\    /   O peration     | Website:  https://openfoam.org
    \\  /    A nd           | Version:  6
     \\/     M anipulation  |
\*---------------------------------------------------------------------------*/
FoamFile
{
    version     2.0;
    format      ascii;
    class       volScalarField;
    location    "1600";
    object      epsilon;
}
// * * * * * * * * * * * * * * * * * * * * * * * * * * * * * * * * * * * * * //

dimensions      [0 2 -3 0 0 0 0];

internalField   nonuniform List<scalar> 
458
(
0.000125657
0.000142567
0.000133745
0.000147972
0.000161226
0.000173165
0.000183988
0.000194048
0.00020381
0.000213953
0.000221926
0.00022672
0.000228436
0.000228739
0.000228179
5.83626e-05
4.86892e-05
4.38326e-05
4.17217e-05
3.96928e-05
3.59584e-05
3.19951e-05
2.85295e-05
2.54843e-05
2.27881e-05
2.03865e-05
1.8231e-05
1.62737e-05
1.44593e-05
1.27241e-05
1.097e-05
9.58588e-06
7.19211e-06
0.000470067
0.00101605
0.000135491
0.000115481
0.000114497
0.000115286
0.000117232
0.000121176
0.000128082
0.000138892
0.00015094
0.000162171
0.000171252
0.000179629
0.00019771
0.000246853
0.000201753
0.000170158
0.000101137
5.07514e-05
3.79277e-05
3.2908e-05
2.95739e-05
2.85644e-05
2.50036e-05
2.19772e-05
1.92833e-05
1.68273e-05
1.46191e-05
1.26527e-05
1.09125e-05
9.45656e-06
8.67382e-06
8.55746e-06
1.97889e-05
1.40686e-05
0.00108809
0.00327805
0.000236241
0.000122145
0.000117837
0.000122244
0.000129275
0.000139167
0.000152165
0.000167906
0.00018411
0.000196252
0.000200803
0.000198513
0.000195171
0.000192666
0.000189811
0.000275195
0.000154917
4.6671e-05
3.6699e-05
3.14061e-05
2.95523e-05
6.41076e-05
4.45901e-05
3.25691e-05
2.50327e-05
2.01062e-05
1.67203e-05
1.42997e-05
1.25658e-05
1.14671e-05
9.40086e-06
8.80305e-06
3.55571e-05
2.12796e-05
0.00212982
0.00769522
0.000531581
0.000141792
0.000126576
0.000135424
0.000147937
0.00016365
0.000183253
0.000207072
0.000232307
0.00025013
0.000254229
0.000244502
0.000224443
0.00019784
0.000176285
0.000193367
0.000255947
9.5403e-05
4.97155e-05
3.40117e-05
2.68989e-05
2.50288e-05
5.43013e-05
4.87934e-05
4.86541e-05
4.97755e-05
5.01943e-05
4.85878e-05
4.44821e-05
4.02384e-05
3.51851e-05
2.30316e-05
1.57311e-05
5.61159e-05
3.03813e-05
0.0037313
0.0143992
0.00133789
0.000197115
0.000137326
0.000145006
0.000161526
0.000184246
0.000215118
0.000256336
0.000300478
0.000328558
0.00033248
0.000314769
0.000280832
0.0002371
0.000195232
0.000166445
0.000138058
8.12752e-05
5.14536e-05
3.46129e-05
2.72992e-05
2.56164e-05
2.89045e-05
3.25415e-05
3.63958e-05
3.95762e-05
4.10854e-05
3.99538e-05
3.60372e-05
3.21736e-05
2.91702e-05
2.46871e-05
1.95698e-05
3.96747e-05
5.4868e-05
7.52907e-05
0.000104977
0.000134752
0.00605897
0.0214773
0.00356716
0.000483821
0.00021059
0.000179624
0.000186491
0.000209942
0.000251949
0.000327981
0.000401615
0.000436597
0.000432668
0.000400404
0.00034963
0.000289454
0.000230538
0.000178803
0.000131941
8.99919e-05
5.73554e-05
3.87738e-05
3.16303e-05
3.08661e-05
3.43948e-05
4.02573e-05
4.68647e-05
5.31546e-05
5.76549e-05
5.8372e-05
5.34453e-05
4.35945e-05
3.50874e-05
2.82507e-05
2.36116e-05
3.04232e-05
4.53284e-05
6.09795e-05
0.000151894
0.000144697
0.00911681
0.0255861
0.0088497
0.00232624
0.000976251
0.00052562
0.000387841
0.00035839
0.000382041
0.000505694
0.000581811
0.00059308
0.00055966
0.000499771
0.000425658
0.000346518
0.000270857
0.000204489
0.000149906
0.000106816
6.7678e-05
4.65848e-05
3.94785e-05
3.94976e-05
4.36042e-05
5.06064e-05
5.95153e-05
6.96968e-05
7.9603e-05
8.67485e-05
8.79564e-05
7.49166e-05
5.98833e-05
4.80889e-05
4.24849e-05
4.62454e-05
6.2625e-05
9.67868e-05
0.000197939
0.0002025
0.00997099
0.0305679
0.0162438
0.0105931
0.00604107
0.00325866
0.00192605
0.00132506
0.00107647
0.000998798
0.000921243
0.000826021
0.000719637
0.000609744
0.000501517
0.000398927
0.000306552
0.000230377
0.000172934
0.000128291
8.2161e-05
5.86917e-05
5.14467e-05
5.16706e-05
5.61038e-05
6.37873e-05
7.43548e-05
8.77007e-05
0.000103681
0.000121875
0.000141326
0.000159443
0.000155473
0.000158881
0.000187963
0.000272372
0.00047342
0.000836725
0.00274975
0.000873839
0.0093277
0.016188
0.0147208
0.0112197
0.0082636
0.0058259
0.00407044
0.00291761
0.00220713
0.00170726
0.0013506
0.00108383
0.000874258
0.000702331
0.000556634
0.00043128
0.000325563
0.000245948
0.000192664
0.000150317
0.000100393
7.6962e-05
6.92828e-05
6.8353e-05
7.13182e-05
7.76001e-05
8.74192e-05
0.000101429
0.000120655
0.000146507
0.000180859
0.000226188
0.000285547
0.000366283
0.000493661
0.000672006
0.000883473
0.0010821
0.00124213
0.000773564
0.00745279
0.014467
0.00882666
0.00613592
0.004425
0.00326479
0.00246921
0.00190098
0.00147673
0.00115618
0.000909541
0.00071483
0.000556653
0.000425223
0.000318164
0.00024976
0.000215341
0.000181046
0.000133993
0.000112645
0.00010332
9.85721e-05
9.63725e-05
9.66001e-05
9.97766e-05
0.000106748
0.000118736
0.000137459
0.000165277
0.000205425
0.00026173
0.000337718
0.000438787
0.000558823
0.000669669
0.000728635
0.000724213
0.000482667
0.00560118
0.0112345
0.00720673
0.00520717
0.00388945
0.0029545
0.0022518
0.00172763
0.00133842
0.00104475
0.000820004
0.000643886
0.000501839
0.000384118
0.000290994
0.000272435
0.00029852
0.000296527
0.000260496
0.000239129
0.000223464
0.000208998
0.000195214
0.000183128
0.000174036
0.000169024
0.000169115
0.000175643
0.000190591
0.000216668
0.000258693
0.000320241
0.000401923
0.000496707
0.000577029
0.000674655
0.000683373
0.000514412
0.00274384
0.00354751
0.00433726
0.00533118
0.00447936
0.0038103
0.0028869
0.00224671
0.00173339
0.00132003
0.00101097
0.000786793
0.000610039
0.000463751
0.000339348
0.000232437
0.000144166
9.98548e-05
0.000114626
0.000122659
0.000117021
0.000109881
0.000103794
9.94748e-05
9.75894e-05
9.86874e-05
0.000103119
0.00011112
0.000123003
0.000139411
0.000161716
0.000192914
0.000232458
0.000280749
0.000339715
0.000415326
0.000456431
0.00043205
0.000359783
0.000298521
)
;

boundaryField
{
    floor
    {
        Cmu             0.09;
        kappa           0.41;
        E               9.8;
        type            epsilonWallFunction;
        value           nonuniform List<scalar> 
36
(
0.000228179
5.83626e-05
4.86892e-05
4.38326e-05
4.17217e-05
3.96928e-05
3.59584e-05
3.19951e-05
2.85295e-05
2.54843e-05
2.27881e-05
2.03865e-05
1.8231e-05
1.62737e-05
1.44593e-05
1.27241e-05
1.097e-05
9.58588e-06
7.19211e-06
7.19211e-06
1.40686e-05
2.12796e-05
3.03813e-05
7.52907e-05
0.000104977
0.000134752
0.000228179
0.000246853
0.000201753
0.000170158
5.83626e-05
0.000170158
0.000101137
0.000275195
0.000154917
0.000255947
)
;
    }
    ceiling
    {
        Cmu             0.09;
        kappa           0.41;
        E               9.8;
        type            epsilonWallFunction;
        value           nonuniform List<scalar> 
43
(
0.00274384
0.00354751
0.00433726
0.00533118
0.00447936
0.0038103
0.0028869
0.00224671
0.00173339
0.00132003
0.00101097
0.000786793
0.000610039
0.000463751
0.000339348
0.000232437
0.000144166
9.98548e-05
0.000114626
0.000122659
0.000117021
0.000109881
0.000103794
9.94748e-05
9.75894e-05
9.86874e-05
0.000103119
0.00011112
0.000123003
0.000139411
0.000161716
0.000192914
0.000232458
0.000280749
0.000339715
0.000415326
0.000456431
0.00043205
0.000359783
0.000298521
0.0093277
0.016188
0.00560118
)
;
    }
    sWall
    {
        Cmu             0.09;
        kappa           0.41;
        E               9.8;
        type            epsilonWallFunction;
        value           uniform 0.00274384;
    }
    nWall
    {
        Cmu             0.09;
        kappa           0.41;
        E               9.8;
        type            epsilonWallFunction;
        value           nonuniform List<scalar> 6(0.000134752 0.000144697 0.0002025 0.000482667 0.000514412 0.000298521);
    }
    sideWalls
    {
        type            empty;
    }
    glass1
    {
        Cmu             0.09;
        kappa           0.41;
        E               9.8;
        type            epsilonWallFunction;
        value           nonuniform List<scalar> 9(0.000125657 0.000470067 0.00108809 0.00212982 0.0037313 0.00605897 0.00911681 0.00997099 0.0093277);
    }
    glass2
    {
        Cmu             0.09;
        kappa           0.41;
        E               9.8;
        type            epsilonWallFunction;
        value           nonuniform List<scalar> 2(0.000873839 0.000773564);
    }
    sun
    {
        Cmu             0.09;
        kappa           0.41;
        E               9.8;
        type            epsilonWallFunction;
        value           nonuniform List<scalar> 
14
(
0.000125657
0.000142567
0.000133745
0.000147972
0.000161226
0.000173165
0.000183988
0.000194048
0.00020381
0.000213953
0.000221926
0.00022672
0.000228436
0.000228739
)
;
    }
    Table_master
    {
        Cmu             0.09;
        kappa           0.41;
        E               9.8;
        type            epsilonWallFunction;
        value           nonuniform List<scalar> 9(6.41076e-05 4.45901e-05 3.25691e-05 2.50327e-05 2.01062e-05 1.67203e-05 1.42997e-05 1.25658e-05 1.14671e-05);
    }
    Table_slave
    {
        Cmu             0.09;
        kappa           0.41;
        E               9.8;
        type            epsilonWallFunction;
        value           nonuniform List<scalar> 9(5.43013e-05 4.87934e-05 4.86541e-05 4.97755e-05 5.01943e-05 4.85878e-05 4.44821e-05 4.02384e-05 3.51851e-05);
    }
    inlet
    {
        type            turbulentMixingLengthDissipationRateInlet;
        mixingLength    0.01;
        phi             phi;
        k               k;
        value           uniform 0.000101881;
    }
    outlet
    {
        type            zeroGradient;
    }
}


// ************************************************************************* //
