/*--------------------------------*- C++ -*----------------------------------*\
  =========                 |
  \\      /  F ield         | OpenFOAM: The Open Source CFD Toolbox
   \\    /   O peration     | Website:  https://openfoam.org
    \\  /    A nd           | Version:  6
     \\/     M anipulation  |
\*---------------------------------------------------------------------------*/
FoamFile
{
    version     2.0;
    format      ascii;
    class       volScalarField;
    location    "900";
    object      nut;
}
// * * * * * * * * * * * * * * * * * * * * * * * * * * * * * * * * * * * * * //

dimensions      [0 2 -1 0 0 0 0];

internalField   nonuniform List<scalar> 
458
(
0.00120931
0.00132252
0.00134074
0.00140703
0.00147012
0.00153
0.00158923
0.00164967
0.00169733
0.00172721
0.00173346
0.00171023
0.00165338
0.00156276
0.00144321
0.000599877
0.000725507
0.000815738
0.000818351
0.000793198
0.000743844
0.000691797
0.000644638
0.000603179
0.000566816
0.000534856
0.000506703
0.00048167
0.00045887
0.000437273
0.000415701
0.000404951
0.000374077
0.00166633
0.00421773
0.00405146
0.00471883
0.00536496
0.00600778
0.0065829
0.00702454
0.00743364
0.00779201
0.00806315
0.00819681
0.00812142
0.00768899
0.00632204
0.00152305
0.00125113
0.000983519
0.000636004
0.00143351
0.00208659
0.00257502
0.00269045
0.0020459
0.00174705
0.00153995
0.00138306
0.00125968
0.00115972
0.00107415
0.000994827
0.000916393
0.000845282
0.000784464
0.000962581
0.000493256
0.00204379
0.00582184
0.00509216
0.00648175
0.00719786
0.00772598
0.00812891
0.00842988
0.00873908
0.0090668
0.0093923
0.00966359
0.00980253
0.00971643
0.00920568
0.00754873
0.0058826
0.00123599
0.00118004
0.0019284
0.00267193
0.00332236
0.00337213
0.00102922
0.000897595
0.000792553
0.000708991
0.000641922
0.000587442
0.000542798
0.000506348
0.000477856
0.00053027
0.0006291
0.00113672
0.000581807
0.00240286
0.00749338
0.00525335
0.00699309
0.00776034
0.0080733
0.00823909
0.00835886
0.00855666
0.00884662
0.00922109
0.00961861
0.00993507
0.0100858
0.00999294
0.0094862
0.00832794
0.00524837
0.00160946
0.00231824
0.00330744
0.00422854
0.00483534
0.00454711
0.00114978
0.00104192
0.000968846
0.000914067
0.000866476
0.00082057
0.000776151
0.000729105
0.000674329
0.000633142
0.000669156
0.00138751
0.000654076
0.0027654
0.00958593
0.00606623
0.00687766
0.00784406
0.00811792
0.00812262
0.00810954
0.00823703
0.00849743
0.00891351
0.0094057
0.00981628
0.010028
0.0100095
0.00977856
0.00928644
0.00832649
0.00705852
0.00680521
0.00688032
0.00696751
0.00692344
0.0065552
0.0053169
0.00476692
0.00446076
0.00422616
0.00398155
0.00364326
0.00317926
0.00263315
0.00205371
0.00152668
0.00115569
0.00125123
0.0011209
0.000859013
0.000879816
0.000947933
0.00314321
0.0118105
0.00851642
0.00735024
0.00782633
0.0081827
0.00814795
0.00810527
0.00815617
0.00837399
0.00879957
0.00934818
0.00982618
0.0100503
0.00996824
0.00969154
0.00940833
0.00921485
0.00904866
0.0089429
0.00874313
0.00841694
0.00799516
0.00747877
0.00683557
0.00633732
0.00594574
0.00559325
0.00524752
0.00488528
0.00442427
0.00384832
0.00317428
0.00246882
0.00187493
0.00140134
0.00124956
0.0011587
0.00142529
0.000991165
0.00345973
0.0131959
0.0114706
0.00965008
0.00921374
0.00898612
0.00864865
0.00834825
0.00823968
0.00842641
0.00891361
0.00955689
0.0100992
0.010308
0.0101262
0.0097487
0.00953456
0.00964262
0.00976073
0.0096177
0.00919618
0.00859957
0.00793205
0.00727075
0.00667213
0.00618853
0.00577824
0.00539902
0.00505485
0.00475211
0.00449491
0.00416127
0.00367118
0.00306195
0.00248795
0.00198894
0.00172574
0.00167226
0.0016185
0.00122456
0.00349351
0.0110434
0.00999312
0.0095511
0.00930892
0.0088888
0.00840482
0.00809439
0.00812856
0.0085641
0.00930703
0.0101148
0.0106783
0.0107783
0.0104304
0.0099611
0.00980238
0.00988977
0.00969305
0.0091777
0.00845501
0.00765074
0.00687659
0.00621089
0.00568361
0.00527022
0.00491987
0.00460879
0.00434841
0.00416398
0.00407437
0.0040513
0.00390241
0.00354494
0.00325178
0.0031709
0.00342877
0.00383439
0.00479698
0.00180816
0.00337956
0.00391057
0.00400698
0.00407444
0.00424666
0.00464646
0.00537607
0.0064426
0.00775656
0.00916162
0.010423
0.011284
0.0115554
0.011248
0.010625
0.0101829
0.00976576
0.00922792
0.00850832
0.0076768
0.00682938
0.00606934
0.00546137
0.00500841
0.00466647
0.00437689
0.00409616
0.00381062
0.00353437
0.00329526
0.00311249
0.0029818
0.00289318
0.00283437
0.00281125
0.00280391
0.00274131
0.00257928
0.00238012
0.00164771
0.00056193
0.00210738
0.00491752
0.0082108
0.0109335
0.0126685
0.0134329
0.0135113
0.0132673
0.012876
0.0121648
0.0112631
0.010344
0.00943122
0.00847136
0.00757226
0.00678734
0.00608069
0.00550402
0.00508376
0.00479345
0.00458617
0.00441476
0.00424002
0.00403489
0.00378978
0.00351869
0.00326115
0.0030696
0.00295995
0.00291208
0.00289819
0.0028856
0.00282568
0.00266244
0.00237826
0.0020151
0.00135487
0.00390485
0.0101495
0.0109307
0.0115638
0.01203
0.0121482
0.011881
0.0113661
0.0107657
0.0101547
0.00947006
0.00872218
0.00792813
0.00715345
0.00651419
0.00603416
0.00564678
0.00528861
0.00499829
0.00479006
0.00464271
0.00453075
0.00443275
0.00433144
0.004214
0.00407254
0.00390397
0.00370796
0.00352353
0.00339596
0.00333018
0.00330999
0.00330601
0.00330141
0.0032616
0.00317766
0.00259792
0.00138065
0.00278961
0.00297357
0.00313277
0.00302748
0.00294328
0.00289028
0.00280662
0.00267123
0.00248747
0.00227671
0.00206125
0.00185883
0.00168503
0.00154707
0.00144421
0.00137013
0.00131596
0.00127308
0.00123787
0.00121354
0.00119582
0.00118254
0.00117229
0.00116377
0.00115629
0.00114998
0.00114591
0.00114612
0.0011537
0.00117296
0.00120364
0.00124585
0.00129892
0.00136263
0.00143607
0.00153343
0.00156285
0.00152991
0.00142591
0.00131762
)
;

boundaryField
{
    floor
    {
        type            nutkWallFunction;
        Cmu             0.09;
        kappa           0.41;
        E               9.8;
        value           nonuniform List<scalar> 
36
(
0.00017165
7.23557e-05
8.78607e-05
9.87997e-05
9.91172e-05
9.60856e-05
9.01015e-05
8.37392e-05
7.79248e-05
7.27709e-05
6.8215e-05
6.4181e-05
6.0603e-05
5.74009e-05
5.44662e-05
5.16694e-05
4.88582e-05
4.74495e-05
4.33786e-05
4.33785e-05
5.88785e-05
7.00873e-05
7.90803e-05
0.000103981
0.000106469
0.000114562
0.00017165
0.000180636
0.000149826
0.000118764
7.23556e-05
0.000118764
7.68461e-05
0.000148101
0.000141648
0.000190298
)
;
    }
    ceiling
    {
        type            nutkWallFunction;
        Cmu             0.09;
        kappa           0.41;
        E               9.8;
        value           nonuniform List<scalar> 
43
(
0.00031752
0.000336778
0.000353348
0.000342464
0.000333706
0.000328186
0.000319438
0.000305202
0.000285742
0.000263226
0.000239973
0.000217886
0.000198717
0.000183347
0.000171792
0.000163414
0.000157257
0.000152362
0.000148327
0.000145531
0.000143491
0.000141958
0.000140775
0.00013979
0.000138925
0.000138195
0.000137724
0.000137748
0.000138625
0.000140851
0.000144389
0.000149238
0.00015531
0.000162563
0.000170877
0.000181829
0.000185123
0.000181436
0.000169733
0.000157446
0.000379304
0.000433631
0.000432371
)
;
    }
    sWall
    {
        type            nutkWallFunction;
        Cmu             0.09;
        kappa           0.41;
        E               9.8;
        value           uniform 0.0003176;
    }
    nWall
    {
        type            nutkWallFunction;
        Cmu             0.09;
        kappa           0.41;
        E               9.8;
        value           nonuniform List<scalar> 6(0.000114566 0.000119667 0.000146798 0.000161701 0.000164627 0.000157461);
    }
    sideWalls
    {
        type            empty;
    }
    glass1
    {
        type            nutkWallFunction;
        Cmu             0.09;
        kappa           0.41;
        E               9.8;
        value           nonuniform List<scalar> 9(0.000145215 0.000196964 0.000238503 0.00027725 0.000315753 0.000355321 0.000388094 0.000391588 0.000379865);
    }
    glass2
    {
        type            nutkWallFunction;
        Cmu             0.09;
        kappa           0.41;
        E               9.8;
        value           nonuniform List<scalar> 2(0.000212482 0.000194718);
    }
    sun
    {
        type            nutkWallFunction;
        Cmu             0.09;
        kappa           0.41;
        E               9.8;
        value           nonuniform List<scalar> 
14
(
0.000145041
0.000157995
0.000160069
0.000167588
0.000174708
0.000181435
0.00018806
0.000194792
0.00020008
0.000203387
0.000204075
0.000201502
0.000195192
0.000185084
)
;
    }
    Table_master
    {
        type            nutkWallFunction;
        Cmu             0.09;
        kappa           0.41;
        E               9.8;
        value           nonuniform List<scalar> 9(0.000124138 0.000108596 9.6003e-05 8.5845e-05 7.75891e-05 7.08065e-05 6.51918e-05 6.05656e-05 5.69211e-05);
    }
    Table_slave
    {
        type            nutkWallFunction;
        Cmu             0.09;
        kappa           0.41;
        E               9.8;
        value           nonuniform List<scalar> 9(0.000138177 0.000125628 0.000117041 0.000110554 0.000104882 9.93774e-05 9.40164e-05 8.82988e-05 8.15862e-05);
    }
    inlet
    {
        type            calculated;
        value           uniform 0.000268328;
    }
    outlet
    {
        type            calculated;
        value           nonuniform List<scalar> 2(0.00278961 0.00297357);
    }
}


// ************************************************************************* //
