/*--------------------------------*- C++ -*----------------------------------*\
  =========                 |
  \\      /  F ield         | OpenFOAM: The Open Source CFD Toolbox
   \\    /   O peration     | Website:  https://openfoam.org
    \\  /    A nd           | Version:  6
     \\/     M anipulation  |
\*---------------------------------------------------------------------------*/
FoamFile
{
    version     2.0;
    format      ascii;
    class       volVectorField;
    location    "1600";
    object      U;
}
// * * * * * * * * * * * * * * * * * * * * * * * * * * * * * * * * * * * * * //

dimensions      [0 1 -1 0 0 0 0];

internalField   nonuniform List<vector> 
458
(
(0.010115 0.0982652 0)
(-0.192347 0.0359512 0)
(-0.237383 0.0234023 0)
(-0.280446 0.0132529 0)
(-0.309938 0.00267358 0)
(-0.323432 -0.00885488 0)
(-0.316667 -0.0219591 0)
(-0.2866 -0.0377949 0)
(-0.23232 -0.0553569 0)
(-0.158892 -0.0716883 0)
(-0.0781931 -0.0818975 0)
(0.0178707 -0.069643 0)
(0.0721834 -0.0337258 0)
(0.0884871 -0.000965143 0)
(0.0784379 0.0527656 0)
(-0.0259441 0.0158049 0)
(-0.0500064 -0.0134127 0)
(-0.0256229 -0.0302151 0)
(0.00345115 -0.033836 0)
(0.0350106 -0.0265132 0)
(0.05552 -0.0144799 0)
(0.069064 -0.00799066 0)
(0.0760027 -0.00567503 0)
(0.0791431 -0.00484752 0)
(0.0809273 -0.00435705 0)
(0.0822034 -0.00398428 0)
(0.0830496 -0.00363468 0)
(0.0832528 -0.00308246 0)
(0.0820536 -0.00181634 0)
(0.0779728 0.000771414 0)
(0.0691798 0.00450849 0)
(0.0551279 0.0102732 0)
(0.0126298 0.0271102 0)
(0.179949 0.201103 0)
(-0.173851 0.0955242 0)
(-0.19574 0.0757243 0)
(-0.240697 0.056974 0)
(-0.271406 0.0357528 0)
(-0.287054 0.0107138 0)
(-0.283713 -0.0196442 0)
(-0.258917 -0.0551265 0)
(-0.212707 -0.0915625 0)
(-0.150215 -0.120537 0)
(-0.0819043 -0.132143 0)
(-0.0161977 -0.112789 0)
(0.0412754 -0.0528044 0)
(0.0783501 0.000282667 0)
(0.108028 0.0548661 0)
(0.12722 0.0560044 0)
(0.100241 0.0605152 0)
(0.0301903 0.080084 0)
(0.0330405 0.048534 0)
(0.000312085 -0.0138146 0)
(0.028209 -0.0452798 0)
(0.0448005 -0.0481017 0)
(0.0618795 -0.0406631 0)
(0.0707887 -0.0192716 0)
(0.0732987 -0.0055262 0)
(0.0737088 -0.000384965 0)
(0.0741371 0.00138715 0)
(0.074692 0.00226899 0)
(0.0750857 0.00276391 0)
(0.075294 0.00317421 0)
(0.0753755 0.00414696 0)
(0.0746407 0.00661421 0)
(0.0707711 0.012854 0)
(0.060957 0.0203277 0)
(0.0488931 0.0302963 0)
(-0.0224284 0.0569183 0)
(0.338804 0.301956 0)
(-0.180217 0.149997 0)
(-0.150188 0.121925 0)
(-0.194634 0.0897367 0)
(-0.224597 0.0542888 0)
(-0.242239 0.0132661 0)
(-0.242701 -0.0348408 0)
(-0.222457 -0.0900973 0)
(-0.182941 -0.144994 0)
(-0.130323 -0.184132 0)
(-0.0745961 -0.194149 0)
(-0.0247512 -0.167042 0)
(0.0233531 -0.0961502 0)
(0.0576953 -0.0351589 0)
(0.088025 0.0170506 0)
(0.0999945 0.032847 0)
(0.0887246 0.0545342 0)
(0.0311383 0.102107 0)
(0.0994302 0.00622738 0)
(0.0747784 -0.0359699 0)
(0.0762436 -0.0554773 0)
(0.0820579 -0.0594302 0)
(0.089331 -0.0567 0)
(0.0908397 -0.0424088 0)
(0.0762833 -0.027286 0)
(0.0649333 -0.0189322 0)
(0.0602433 -0.0142289 0)
(0.0584268 -0.0111894 0)
(0.0571835 -0.0091642 0)
(0.0561569 -0.00773669 0)
(0.0557951 -0.00618907 0)
(0.0577466 -0.00162744 0)
(0.0577752 0.0168328 0)
(0.0490893 0.0317965 0)
(0.0469257 0.0484787 0)
(-0.0556548 0.0874492 0)
(0.489773 0.383676 0)
(-0.205873 0.195965 0)
(-0.0987166 0.16365 0)
(-0.141422 0.121996 0)
(-0.166976 0.0771945 0)
(-0.185022 0.0237156 0)
(-0.18881 -0.0412493 0)
(-0.171433 -0.116248 0)
(-0.138091 -0.188734 0)
(-0.0963304 -0.236135 0)
(-0.0542784 -0.244541 0)
(-0.0178094 -0.210265 0)
(0.0170896 -0.134997 0)
(0.0458278 -0.0650874 0)
(0.0699936 -0.00728342 0)
(0.0868109 0.0310181 0)
(0.10027 0.0639346 0)
(0.10357 0.105996 0)
(0.143549 0.0905806 0)
(0.13213 0.018966 0)
(0.119277 -0.0255962 0)
(0.110865 -0.0477517 0)
(0.101419 -0.05405 0)
(0.089005 -0.0501234 0)
(0.0855606 -0.0296165 0)
(0.0982829 -0.0182078 0)
(0.10772 -0.0120635 0)
(0.111103 -0.00837647 0)
(0.111128 -0.00561283 0)
(0.108979 -0.00307993 0)
(0.10445 -0.000374215 0)
(0.0962721 0.00312395 0)
(0.0827157 0.00816603 0)
(0.0656416 0.025592 0)
(0.0521271 0.0440875 0)
(0.0571552 0.0660286 0)
(-0.0700254 0.117066 0)
(0.632836 0.445405 0)
(-0.24665 0.229682 0)
(-0.0420371 0.191595 0)
(-0.0819875 0.145117 0)
(-0.0986222 0.096042 0)
(-0.114153 0.0347529 0)
(-0.119108 -0.0433885 0)
(-0.100835 -0.136331 0)
(-0.0743512 -0.222691 0)
(-0.0463476 -0.273945 0)
(-0.0208039 -0.279222 0)
(0.00072884 -0.238594 0)
(0.0205808 -0.163553 0)
(0.0396196 -0.0873845 0)
(0.0560996 -0.0247589 0)
(0.0714352 0.0205277 0)
(0.0873538 0.052238 0)
(0.10561 0.0673302 0)
(0.124097 0.027073 0)
(0.124936 -0.011633 0)
(0.118331 -0.0324091 0)
(0.107737 -0.0419625 0)
(0.0948282 -0.0430939 0)
(0.0820006 -0.0360869 0)
(0.0758362 -0.0184951 0)
(0.0768475 -0.00731868 0)
(0.0783903 -0.00215972 0)
(0.0784378 0.000617264 0)
(0.0776658 0.00301414 0)
(0.0766308 0.00576201 0)
(0.0749908 0.00947125 0)
(0.0721999 0.0149342 0)
(0.0679147 0.0232654 0)
(0.0627573 0.0374234 0)
(0.0574941 0.0544715 0)
(0.0787579 0.0767602 0)
(0.0344201 0.114735 0)
(0.0965089 0.127487 0)
(0.121445 0.134871 0)
(-0.186802 0.162601 0)
(0.753299 0.493613 0)
(-0.297772 0.247795 0)
(0.0126635 0.196026 0)
(-0.0187453 0.157316 0)
(-0.0243472 0.110828 0)
(-0.0359909 0.0488223 0)
(-0.0355602 -0.0398713 0)
(-0.0115148 -0.152508 0)
(0.00613733 -0.246516 0)
(0.0174674 -0.295625 0)
(0.0239265 -0.295554 0)
(0.0271584 -0.252044 0)
(0.0298647 -0.177207 0)
(0.0339397 -0.0979646 0)
(0.0387999 -0.0346641 0)
(0.0466335 0.00826548 0)
(0.0584953 0.034264 0)
(0.0759189 0.0404791 0)
(0.0899318 0.0179223 0)
(0.0929764 -0.00418062 0)
(0.087323 -0.019477 0)
(0.0769434 -0.0278431 0)
(0.0649141 -0.0294851 0)
(0.0535739 -0.0248302 0)
(0.0461467 -0.0149418 0)
(0.043485 -0.00746143 0)
(0.0430461 -0.00353572 0)
(0.0433426 -0.00121107 0)
(0.0444263 0.00102709 0)
(0.04604 0.0039535 0)
(0.0480279 0.00824396 0)
(0.050214 0.0146683 0)
(0.0526913 0.0239822 0)
(0.056173 0.0369856 0)
(0.0600833 0.0525155 0)
(0.0793968 0.0717667 0)
(0.07746 0.0826719 0)
(0.0927561 0.0387822 0)
(0.122611 0.000138231 0)
(-0.205416 0.0843482 0)
(0.830847 0.535217 0)
(-0.334855 0.223283 0)
(0.0612494 0.144144 0)
(0.0555031 0.150302 0)
(0.0533369 0.118238 0)
(0.0461437 0.0523207 0)
(0.065454 -0.0557489 0)
(0.0896941 -0.169948 0)
(0.0966569 -0.254366 0)
(0.0905294 -0.295988 0)
(0.0761564 -0.291494 0)
(0.0577164 -0.24613 0)
(0.0390106 -0.171643 0)
(0.0241144 -0.0924401 0)
(0.0151581 -0.0324067 0)
(0.0138836 0.00337949 0)
(0.021947 0.0219205 0)
(0.0355125 0.0252424 0)
(0.0453371 0.012954 0)
(0.0472721 -0.00145799 0)
(0.0429973 -0.0122951 0)
(0.0345867 -0.0181467 0)
(0.024681 -0.019136 0)
(0.0154029 -0.0160726 0)
(0.00900386 -0.0104564 0)
(0.0063027 -0.00595975 0)
(0.00607852 -0.00360825 0)
(0.00726336 -0.00243038 0)
(0.0096178 -0.00131195 0)
(0.0135554 0.000668317 0)
(0.0188417 0.00432418 0)
(0.0250283 0.0100742 0)
(0.032494 0.0182279 0)
(0.0417863 0.0289524 0)
(0.0520556 0.0413977 0)
(0.0695781 0.0563264 0)
(0.0834708 0.062396 0)
(0.0977941 0.0433847 0)
(0.150278 0.0501233 0)
(-0.137163 0.143207 0)
(0.943591 0.527995 0)
(-0.0484467 0.19674 0)
(0.141911 0.0822728 0)
(0.182973 0.088285 0)
(0.164782 0.0648807 0)
(0.153302 -0.00977884 0)
(0.187593 -0.100915 0)
(0.20496 -0.185792 0)
(0.195703 -0.24869 0)
(0.16747 -0.275865 0)
(0.127478 -0.263268 0)
(0.082565 -0.215932 0)
(0.0386724 -0.143401 0)
(0.00330693 -0.0680944 0)
(-0.0168407 -0.0187408 0)
(-0.0224163 0.00312381 0)
(-0.017757 0.0133924 0)
(-0.00895572 0.0151862 0)
(-0.00261153 0.0086379 0)
(-0.00189253 2.54005e-05 0)
(-0.00507946 -0.00673644 0)
(-0.0115958 -0.0103044 0)
(-0.0190215 -0.0109156 0)
(-0.0256011 -0.00942489 0)
(-0.0299433 -0.00703036 0)
(-0.0317709 -0.00529525 0)
(-0.0318324 -0.00467922 0)
(-0.0308176 -0.00481467 0)
(-0.0289569 -0.00517502 0)
(-0.0260747 -0.00519971 0)
(-0.0216088 -0.00421039 0)
(-0.0143053 -0.00153576 0)
(-0.00493763 0.00291749 0)
(0.00668336 0.00890388 0)
(0.0190729 0.0146558 0)
(0.0353854 0.020672 0)
(0.0515272 0.0176789 0)
(0.0652824 8.97422e-06 0)
(0.145975 0.0570878 0)
(-0.429006 0.233415 0)
(1.09201 0.461843 0)
(0.549362 0.316731 0)
(0.565496 0.33747 0)
(0.528557 0.267122 0)
(0.457438 0.169333 0)
(0.415728 0.0608767 0)
(0.384168 -0.051289 0)
(0.346823 -0.143985 0)
(0.295522 -0.202476 0)
(0.230776 -0.222258 0)
(0.157483 -0.205199 0)
(0.0826952 -0.158908 0)
(0.0135312 -0.0909434 0)
(-0.035403 -0.0296926 0)
(-0.0538737 -0.00549535 0)
(-0.0596764 0.00452287 0)
(-0.0577849 0.00881764 0)
(-0.0533589 0.00928729 0)
(-0.0502089 0.00617563 0)
(-0.0501909 0.00175403 0)
(-0.0525136 -0.00210815 0)
(-0.0568707 -0.00447712 0)
(-0.0617342 -0.00551506 0)
(-0.0660399 -0.00565041 0)
(-0.0691511 -0.00544431 0)
(-0.0711247 -0.00547275 0)
(-0.0725262 -0.00587315 0)
(-0.0739754 -0.00642972 0)
(-0.0760251 -0.00675333 0)
(-0.0792894 -0.00628662 0)
(-0.0846566 -0.00423871 0)
(-0.0926817 0.000282944 0)
(-0.102907 0.00807709 0)
(-0.116384 0.0201148 0)
(-0.13709 0.0374745 0)
(-0.168058 0.0605417 0)
(-0.21174 0.0874858 0)
(-0.263574 0.115621 0)
(-0.33473 0.141263 0)
(-0.628964 0.162311 0)
(0.798449 0.12697 0)
(0.656538 0.2248 0)
(0.558341 0.18975 0)
(0.500126 0.102795 0)
(0.459877 0.00859031 0)
(0.394196 -0.0712562 0)
(0.311334 -0.122674 0)
(0.217308 -0.139664 0)
(0.119139 -0.122706 0)
(0.0244156 -0.0792547 0)
(-0.0547322 -0.0207698 0)
(-0.0841131 0.00105765 0)
(-0.0948553 0.00702772 0)
(-0.0974541 0.00919781 0)
(-0.0967031 0.0104651 0)
(-0.0948848 0.0108996 0)
(-0.0938617 0.0101614 0)
(-0.0945477 0.00889341 0)
(-0.0966734 0.00791006 0)
(-0.0995704 0.0076224 0)
(-0.102838 0.00794144 0)
(-0.106035 0.00852807 0)
(-0.108969 0.00910415 0)
(-0.111807 0.00938981 0)
(-0.114881 0.0093096 0)
(-0.118471 0.00902738 0)
(-0.122663 0.00896155 0)
(-0.127363 0.00963994 0)
(-0.132179 0.0116547 0)
(-0.136817 0.0158246 0)
(-0.14132 0.0233578 0)
(-0.14555 0.0354704 0)
(-0.149951 0.0527125 0)
(-0.154802 0.0733497 0)
(-0.15736 0.0896075 0)
(-0.14794 0.0810317 0)
(-0.132687 0.0057587 0)
(-0.268151 -0.193318 0)
(0.42907 0.597761 0)
(-0.0157968 0.374955 0)
(0.0807144 0.244783 0)
(0.124235 0.115173 0)
(0.125594 0.0109986 0)
(0.119716 -0.0512046 0)
(0.0828488 -0.0747728 0)
(0.0178426 -0.0680189 0)
(-0.060036 -0.0387486 0)
(-0.106424 -0.0191582 0)
(-0.128195 -0.0109632 0)
(-0.131447 -0.0121008 0)
(-0.1315 -0.0146595 0)
(-0.130475 -0.0165558 0)
(-0.128875 -0.0179855 0)
(-0.127209 -0.0199321 0)
(-0.126205 -0.0231132 0)
(-0.126359 -0.0273848 0)
(-0.127678 -0.0320433 0)
(-0.129821 -0.036296 0)
(-0.132343 -0.0396349 0)
(-0.134872 -0.0418019 0)
(-0.137224 -0.0427495 0)
(-0.139276 -0.0424272 0)
(-0.140966 -0.0407887 0)
(-0.142237 -0.0377869 0)
(-0.143019 -0.0333987 0)
(-0.143153 -0.0275122 0)
(-0.142341 -0.0199283 0)
(-0.139932 -0.0103139 0)
(-0.134703 0.00190605 0)
(-0.125012 0.0176947 0)
(-0.109627 0.0379804 0)
(-0.0885049 0.0616564 0)
(-0.0626998 0.0812074 0)
(-0.035689 0.0821872 0)
(0.129762 0.00162415 0)
(-0.211442 -0.102403 0)
(-1.01998 -0.909839 0)
(-1.1238 -0.199737 0)
(-0.760821 0.407021 0)
(-0.642814 0.21588 0)
(-0.327653 0.108422 0)
(-0.182615 0.0121349 0)
(-0.12379 -0.036626 0)
(-0.114916 -0.0168571 0)
(-0.139769 0.0150073 0)
(-0.167145 0.0401677 0)
(-0.181211 0.0557381 0)
(-0.182407 0.0641611 0)
(-0.177111 0.068598 0)
(-0.170671 0.0712231 0)
(-0.165265 0.0738224 0)
(-0.160648 0.0770736 0)
(-0.156172 0.0812367 0)
(-0.151551 0.0864743 0)
(-0.146973 0.0926873 0)
(-0.142793 0.0994434 0)
(-0.139241 0.106044 0)
(-0.136359 0.111733 0)
(-0.134056 0.115916 0)
(-0.132202 0.118261 0)
(-0.130692 0.11868 0)
(-0.129462 0.117146 0)
(-0.128451 0.113717 0)
(-0.127545 0.108582 0)
(-0.126524 0.102114 0)
(-0.124994 0.0948598 0)
(-0.122239 0.0875599 0)
(-0.116912 0.0811134 0)
(-0.106677 0.0765649 0)
(-0.0885803 0.0751864 0)
(-0.0613473 0.0784597 0)
(-0.0286003 0.0870946 0)
(0.0291359 0.0974456 0)
(0.0701199 0.088898 0)
(0.154833 0.0698705 0)
(-0.235013 0.0196234 0)
)
;

boundaryField
{
    floor
    {
        type            noSlip;
    }
    ceiling
    {
        type            noSlip;
    }
    sWall
    {
        type            noSlip;
    }
    nWall
    {
        type            noSlip;
    }
    sideWalls
    {
        type            empty;
    }
    glass1
    {
        type            noSlip;
    }
    glass2
    {
        type            noSlip;
    }
    sun
    {
        type            noSlip;
    }
    Table_master
    {
        type            noSlip;
    }
    Table_slave
    {
        type            noSlip;
    }
    inlet
    {
        type            fixedValue;
        value           uniform (0.980785 -0.19509 0);
    }
    outlet
    {
        type            zeroGradient;
    }
}


// ************************************************************************* //
