/*--------------------------------*- C++ -*----------------------------------*=========                 |
  \      /  F ield         | OpenFOAM: The Open Source CFD Toolbox
   \    /   O peration     | Website:  https://openfoam.org
    \  /    A nd           | Version:  6
     \/     M anipulation  |
\*---------------------------------------------------------------------------*/
FoamFile
{
    version     2.0;
    format      ascii;
    class       volScalarField;
    location    "600";
    object      PMV;
}
// * * * * * * * * * * * * * * * * * * * * * * * * * * * * * * * * * * * * * //

dimensions      [0 0 0 0 0 0 0];

internalField   nonuniform List<scalar> 
458
(
1.3607270587502587
1.119152878503672
1.0886472071543845
1.0590739083766605
1.0389061204158594
1.0253353526125557
1.0188644602266526
1.0201241564416181
1.030225015726271
1.051189773320953
1.0851182026976371
1.1366793274674218
1.209967797764945
1.256474783874725
1.2769970337593641
1.3829220287083657
1.3686107942203518
1.3652713623032615
1.3700419628550884
1.3743354089732835
1.36336487242451
1.3505403313405517
1.3472784633272432
1.3477037516565336
1.3498119250788743
1.3520713470457455
1.355126558982708
1.359874009258212
1.3665316058190742
1.378164431093166
1.3989488197932491
1.4077257089596484
1.4210801846538392
1.2987655569980452
1.1341126338672565
1.1247569260275545
1.0960275968772166
1.0777281808947727
1.0657468280571958
1.05904950964096
1.0597667974465084
1.064759314437617
1.0753994482558276
1.0932475509090953
1.1245335904462184
1.1739015882718524
1.2454971616929658
1.2579066172081852
1.267451988930704
1.2750880514288343
1.2592646135164511
1.3400193154034754
1.357161091924525
1.3566840075324658
1.3500326681384307
1.3423190218982126
1.3396724029132885
1.3398162322001133
1.3412663339336433
1.3416827644555611
1.342053796185974
1.3421015383298314
1.3430012486462375
1.344227711685244
1.34708080048761
1.3556260663391881
1.3764956758390856
1.391578548544256
1.3816567615556288
1.3349921253063124
1.1278964218882293
1.1587866189437197
1.1421380855949597
1.1346540409225965
1.1290340234013558
1.1259574822684373
1.1257444852264065
1.1237734151766652
1.1157006768593496
1.1064531659077468
1.1083317481607766
1.1339516193171664
1.1898614148926325
1.256474783874725
1.2669747280247499
1.2736563058836348
1.2716998838966325
1.237695563017467
1.2896844392848437
1.3024805647078463
1.312627108298873
1.3219037096535158
1.3237903217450755
1.343221184819392
1.3580640751871325
1.363981244105779
1.3648952792352138
1.3650243876237744
1.364268709371692
1.3616198638045254
1.3546070513511714
1.352794049982483
1.3675211030250145
1.357048429163554
1.3090316623152336
1.4119064961937986
1.1244185642420907
1.1832438079476513
1.188365545773619
1.2021166309281752
1.2137967141428068
1.2213140200978048
1.2237915679627343
1.209086417625335
1.1685226483476983
1.1186525213758713
1.088039203501386
1.0965600586722886
1.1481549915655085
1.2247128025291891
1.2731790556996856
1.2808149578997756
1.2597745381699634
1.2006119966909277
1.2298429606161632
1.2681096469181532
1.3004728055853418
1.331216985006447
1.3633637270247705
1.387635191230676
1.3801144056669106
1.3723195432293411
1.36930935735501
1.3681594271541946
1.3678805842066188
1.3717075077206546
1.3816198433022235
1.401100314813956
1.3983239729375623
1.381309873812036
1.3329504664200758
1.2727658208603116
1.5061368542077573
1.1375440880756202
1.2050519371288226
1.228620746781955
1.2699270279529413
1.3137508670830174
1.3488387036605094
1.35637143469249
1.3026973573951521
1.212134083504053
1.12197811681655
1.0660609337103613
1.0672164882074788
1.1177822724304283
1.1966112229552568
1.2735610353837747
1.2999037468900947
1.2753959776099808
1.264155582098021
1.279417302495572
1.3123609109497048
1.3509742725754161
1.3882530773837574
1.4227211361267054
1.4486504236747462
1.4525874419102092
1.4496174931313854
1.445711537203462
1.4413901652368286
1.4370237830383419
1.4324037382723442
1.4304429793173072
1.4285882440445457
1.4139757111907205
1.3851778514248456
1.3176738817027633
1.3182056400495847
1.2608681442520318
1.246450312250996
1.23933214986574
1.601284375291175
1.1756000765301986
1.2528742065559695
1.2681933521785234
1.3170114489031284
1.3838760748628354
1.414403068317015
1.4444481181367292
1.335814186758405
1.214781472735136
1.1075294870212908
1.0442181030009212
1.0444350507128428
1.1015487678979952
1.1915067938757324
1.2834697033076445
1.3309199053128256
1.3476192033374388
1.355522083857707
1.3760277814760218
1.4074589242636488
1.4358643424521997
1.45636930870524
1.4735343066556135
1.4864068406272355
1.4954646470403363
1.5011850870983596
1.5049985917365887
1.5064286305876375
1.5059519525149212
1.4942484307080162
1.4801011763801482
1.4627885029045102
1.435717773178453
1.3995332192906107
1.3395060443477351
1.3303098606402417
1.3466894270019536
1.323715283418214
1.260974331251985
1.6941518549834143
1.2744572014470745
1.413450516963112
1.3536492342333681
1.345626059564587
1.3820406093396913
1.4182371670737834
1.378928013088407
1.291350843469076
1.1746872714470404
1.0676648767161072
1.0121716105505525
1.0273442110685413
1.105491674065949
1.218152075210512
1.3347679789547398
1.372904270269937
1.3962782535839227
1.4163108408197287
1.4372950014107666
1.4582766200706514
1.477825268940212
1.4945112191735626
1.5069053071138416
1.5154852182021008
1.5207282460232008
1.5235879980502633
1.5245412358812787
1.5235879980502633
1.521204875364957
1.5169151539210837
1.5097653336994588
1.5011850870983596
1.4779601630763122
1.4350940259975429
1.381504678110242
1.3542676804289697
1.3486189593223643
1.2935697820181455
1.2748448000650683
1.8342498965833478
1.644974568977723
1.5988636190522345
1.471051469692776
1.4204006550430501
1.4001559754217203
1.3789022906415045
1.3202670998266337
1.2099677516655145
1.081123914418661
0.9872811489888565
0.9654944536109993
1.0247438569015395
1.1449931105293345
1.295491875392998
1.3848301164341434
1.425849402392556
1.4492166959355373
1.4673360454481792
1.4844998657078003
1.5007083921247057
1.5145319198262706
1.5250178523806772
1.5316903132138648
1.535503004195558
1.537409310110884
1.537409310110884
1.5359795831557217
1.5335966718592065
1.5302605270317013
1.5259710805385072
1.5197749825487317
1.5111953259772963
1.5011850870983596
1.4906974476496284
1.4783020353125078
1.470264370319847
1.4574810124605735
1.3334925455860245
1.2264845888703553
2.0442734676611423
1.9095439684123123
1.7638957394458803
1.6188639418730393
1.501094326885974
1.4158986062006582
1.3390869747504526
1.1917715610232629
1.0130188675295966
0.8881267576845998
0.8596739658032329
0.9281979972810245
1.0751075461640953
1.2656055434100018
1.3853071354974826
1.4473092809485375
1.4783020353125078
1.496894777525929
1.5107186634458507
1.5231113767220834
1.533120084660008
1.5353750968840785
1.5309704212132285
1.5251829065963791
1.5189595801860727
1.5118393055231636
1.5038331957226112
1.4952401648472229
1.4859603599921491
1.4756479549310224
1.4639087614543114
1.4502965106453112
1.4362591559925917
1.4205487229424876
1.4004431469160417
1.3779480974685683
1.358364924365405
1.3464252336789873
1.3324564668429837
1.295991129390353
-2.506966580677726
-1.562670560350444
-0.798058339067097
-0.31619568671174214
-0.07903956924020081
0.0950294636548765
0.29724781102295705
0.5353145520503914
0.7911189366095861
1.0551723168545388
1.2555202243745753
1.394847273309626
1.464927239819158
1.4777392785175838
1.4873247176450624
1.4947134586161959
1.5001695069913874
1.5034589442371786
1.5034275069467111
1.5010988708985404
1.4961880848028675
1.4901930603668312
1.482586485257132
1.474263053728742
1.4647750992136366
1.4548354210590702
1.4453336956197191
1.4367931589444298
1.429312650563932
1.4238727207451622
1.4204276526878064
1.4178535464376405
1.415805909111655
1.4144102680596473
1.419948413244469
1.445933583340875
1.4869297785798161
1.3908431867115594
-1.9543250592312964
-1.114748246037958
-0.42140882115065464
0.09302247840517096
0.37559684784506187
0.5865575822863578
0.7894899179837868
1.0144182371981028
1.1996733474603472
1.315133469604999
1.3724762451472445
1.4144687784282362
1.4397872861756702
1.4547469557621444
1.463584815100902
1.4695060568195792
1.4735414971228833
1.475535714567097
1.475783863308243
1.4743568134155631
1.4718141320496716
1.4682247107105884
1.4641675438091895
1.4597403160157827
1.4555638531557957
1.450826669462746
1.4467744609609658
1.4437640822531153
1.4420228915163988
1.4422122552519472
1.4465053276156716
1.4560581012202056
1.468829156485668
1.4805449445807226
1.4904699338582195
1.5138005007139197
1.5036707127293816
1.4328937365399506
-1.161432349481556
-1.168232673211873
-1.075370385568075
-0.4132235092923964
0.06269311485266614
0.4408718568528629
0.7428462081493244
0.9845037381548125
1.1507491027841623
1.2522979086215253
1.320257127718413
1.368031739388755
1.4010339864788541
1.4212852153372557
1.4309438032052495
1.4339181619787362
1.432884308929531
1.4312124702917226
1.4289727038153774
1.4258868156628373
1.423190665060869
1.4204807396834433
1.4177961691415382
1.416180608676247
1.4146275656182208
1.4137064404334139
1.4140546597082606
1.4148712311718075
1.417078277377625
1.4218170601735847
1.4290005793245388
1.4400202894342256
1.458197167273602
1.490184117563998
1.5502499264410927
1.5850580378527688
1.5913962815997917
1.5196563368668945
1.448716736229863
1.4591528641333809
)
;

boundaryField
{
    ".*"
    {
        type            zeroGradient;
    }
}


// ************************************************************************* //
