// -*- C++ -*-
// File generated by PyFoam - sorry for the ugliness

FoamFile
{
 version 2.0;
 format ascii;
 class volScalarField;
 location "600";
 object T;
}

dimensions [ 0 0 0 1 0 0 0 ];

internalField nonuniform List<scalar> 458
(
  301.829
  301.525
  301.51
  301.505
  301.502
  301.498
  301.494
  301.489
  301.483
  301.476
  301.468
  301.464
  301.468
  301.484
  301.527
  301.749
  301.719
  301.712
  301.722
  301.731
  301.738
  301.744
  301.75
  301.755
  301.761
  301.766
  301.771
  301.777
  301.782
  301.787
  301.793
  301.801
  301.829
  302.029
  301.558
  301.527
  301.526
  301.527
  301.527
  301.524
  301.52
  301.508
  301.489
  301.465
  301.448
  301.446
  301.461
  301.487
  301.507
  301.523
  301.553
  301.754
  301.695
  301.694
  301.708
  301.723
  301.728
  301.731
  301.733
  301.734
  301.736
  301.737
  301.739
  301.741
  301.744
  301.749
  301.756
  301.768
  301.811
  302.241
  301.607
  301.555
  301.561
  301.573
  301.582
  301.587
  301.585
  301.568
  301.53
  301.481
  301.442
  301.431
  301.451
  301.484
  301.506
  301.52
  301.546
  301.673
  301.668
  301.687
  301.716
  301.744
  301.744
  301.743
  301.742
  301.742
  301.741
  301.741
  301.741
  301.741
  301.741
  301.745
  301.75
  301.76
  301.805
  302.456
  301.672
  301.587
  301.599
  301.625
  301.652
  301.673
  301.681
  301.659
  301.594
  301.506
  301.437
  301.416
  301.443
  301.486
  301.519
  301.535
  301.548
  301.568
  301.603
  301.653
  301.704
  301.752
  301.791
  301.821
  301.842
  301.858
  301.872
  301.883
  301.89
  301.896
  301.9
  301.901
  301.859
  301.816
  301.788
  301.808
  302.666
  301.758
  301.627
  301.631
  301.667
  301.712
  301.759
  301.788
  301.76
  301.661
  301.53
  301.429
  301.401
  301.435
  301.495
  301.545
  301.575
  301.592
  301.624
  301.668
  301.72
  301.773
  301.822
  301.862
  301.895
  301.919
  301.936
  301.948
  301.956
  301.96
  301.958
  301.953
  301.942
  301.914
  301.87
  301.826
  301.813
  301.822
  301.837
  301.898
  302.855
  301.873
  301.702
  301.675
  301.703
  301.751
  301.815
  301.878
  301.836
  301.699
  301.535
  301.416
  301.384
  301.43
  301.513
  301.588
  301.64
  301.675
  301.714
  301.76
  301.81
  301.86
  301.903
  301.939
  301.966
  301.985
  301.997
  302.005
  302.008
  302.007
  302.001
  301.99
  301.974
  301.949
  301.911
  301.867
  301.841
  301.838
  301.844
  301.903
  303.026
  302.063
  301.888
  301.828
  301.818
  301.843
  301.9
  301.939
  301.863
  301.689
  301.499
  301.376
  301.358
  301.433
  301.549
  301.654
  301.728
  301.777
  301.819
  301.863
  301.907
  301.948
  301.983
  302.009
  302.027
  302.038
  302.044
  302.046
  302.044
  302.039
  302.03
  302.015
  301.997
  301.974
  301.943
  301.906
  301.878
  301.869
  301.87
  301.909
  303.276
  302.567
  302.383
  302.244
  302.147
  302.102
  302.096
  302.022
  301.831
  301.584
  301.38
  301.288
  301.326
  301.457
  301.62
  301.753
  301.839
  301.888
  301.926
  301.962
  301.996
  302.025
  302.047
  302.061
  302.069
  302.073
  302.073
  302.07
  302.065
  302.058
  302.049
  302.036
  302.018
  301.997
  301.975
  301.949
  301.933
  301.934
  301.943
  302.104
  303.637
  303.307
  303.057
  302.801
  302.571
  302.39
  302.224
  301.921
  301.547
  301.256
  301.126
  301.159
  301.321
  301.544
  301.754
  301.884
  301.949
  301.988
  302.017
  302.043
  302.064
  302.079
  302.089
  302.094
  302.096
  302.095
  302.092
  302.088
  302.083
  302.077
  302.071
  302.067
  302.067
  302.069
  302.081
  302.103
  302.137
  302.177
  302.21
  302.291
  294.834
  296.672
  298.157
  299.017
  299.4
  299.678
  300
  300.371
  300.754
  301.123
  301.482
  301.774
  301.923
  302.001
  302.042
  302.067
  302.085
  302.099
  302.108
  302.114
  302.116
  302.117
  302.116
  302.115
  302.113
  302.111
  302.11
  302.11
  302.11
  302.111
  302.114
  302.121
  302.135
  302.156
  302.184
  302.216
  302.247
  302.279
  295.872
  297.149
  298.319
  299.163
  299.639
  300.081
  300.506
  300.977
  301.365
  301.655
  301.859
  301.985
  302.052
  302.088
  302.108
  302.121
  302.129
  302.134
  302.137
  302.138
  302.138
  302.137
  302.136
  302.135
  302.135
  302.134
  302.134
  302.135
  302.136
  302.137
  302.14
  302.146
  302.155
  302.17
  302.189
  302.212
  302.221
  302.258
  297.982
  297.945
  297.942
  299.036
  299.727
  300.316
  300.825
  301.278
  301.605
  301.803
  301.935
  302.025
  302.087
  302.127
  302.151
  302.165
  302.172
  302.177
  302.179
  302.179
  302.179
  302.178
  302.176
  302.175
  302.173
  302.171
  302.17
  302.168
  302.166
  302.165
  302.163
  302.162
  302.162
  302.163
  302.167
  302.173
  302.188
  302.198
  302.203
  302.244
)
;

boundaryField
{
  floor
  {
    type wallHeatTransfer;
    Tinf uniform 305.2;
    alphaWall uniform 0.24;
    value nonuniform List<scalar> 36
(
  301.876
  302.336
  302.241
  302.187
  302.187
  302.201
  302.226
  302.256
  302.286
  302.315
  302.343
  302.37
  302.395
  302.421
  302.446
  302.472
  302.5
  302.526
  302.592
  302.592
  302.47
  302.405
  302.36
  302.3
  302.293
  302.349
  301.876
  301.813
  301.879
  301.969
  302.336
  301.969
  302.332
  301.906
  302.071
  301.879
)
;
  }
  ceiling
  {
    type wallHeatTransfer;
    Tinf uniform 303.2;
    alphaWall uniform 0.24;
    value nonuniform List<scalar> 43
(
  298.269
  298.228
  298.219
  299.243
  299.905
  300.471
  300.964
  301.403
  301.721
  301.913
  302.042
  302.131
  302.194
  302.235
  302.261
  302.277
  302.288
  302.294
  302.298
  302.301
  302.302
  302.302
  302.301
  302.3
  302.298
  302.295
  302.292
  302.288
  302.284
  302.28
  302.275
  302.27
  302.266
  302.264
  302.262
  302.265
  302.275
  302.285
  302.296
  302.339
  303.618
  303.303
  296.279
)
;
  }
  sWall
  {
    type wallHeatTransfer;
    Tinf uniform 315.2;
    alphaWall uniform 0.36;
    value uniform 299.369;
  }
  nWall
  {
    type wallHeatTransfer;
    Tinf uniform 307.2;
    alphaWall uniform 0.36;
    value nonuniform List<scalar> 6
(
  302.916
  302.767
  302.644
  302.96
  302.937
  302.947
)
;
  }
  sideWalls
  {
    type empty;
  }
  glass1
  {
    type wallHeatTransfer;
    Tinf uniform 315.2;
    alphaWall uniform 4.3;
    value nonuniform List<scalar> 9
(
  310.856
  310.142
  309.69
  309.347
  309.061
  308.8
  308.6
  308.683
  308.945
)
;
  }
  glass2
  {
    type wallHeatTransfer;
    Tinf uniform 307.2;
    alphaWall uniform 4.3;
    value nonuniform List<scalar> 2
(
  305.183
  305.301
)
;
  }
  sun
  {
    type wallHeatTransfer;
    Tinf uniform 305.2;
    alphaWall uniform 0.24;
    value nonuniform List<scalar> 14
(
  302.172
  301.874
  301.854
  301.837
  301.823
  301.809
  301.796
  301.783
  301.77
  301.757
  301.748
  301.745
  301.756
  301.788
)
;
  }
  Table_master
  {
    type zeroGradient;
  }
  Table_slave
  {
    type zeroGradient;
  }
  inlet
  {
    type fixedValue;
    value uniform 296.15;
  }
  outlet
  {
    type zeroGradient;
  }
} 	// ************************************************************************* //

