/*--------------------------------*- C++ -*----------------------------------*\
  =========                 |
  \\      /  F ield         | OpenFOAM: The Open Source CFD Toolbox
   \\    /   O peration     | Website:  https://openfoam.org
    \\  /    A nd           | Version:  6
     \\/     M anipulation  |
\*---------------------------------------------------------------------------*/
FoamFile
{
    version     2.0;
    format      ascii;
    class       volVectorField;
    location    "3000";
    object      U;
}
// * * * * * * * * * * * * * * * * * * * * * * * * * * * * * * * * * * * * * //

dimensions      [0 1 -1 0 0 0 0];

internalField   nonuniform List<vector> 
458
(
(0.0373931 0.0833462 0)
(-0.161964 0.0237662 0)
(-0.182821 0.0166543 0)
(-0.211348 0.011926 0)
(-0.232618 0.00661147 0)
(-0.246037 0.00107223 0)
(-0.250693 -0.00473301 0)
(-0.245342 -0.010818 0)
(-0.230424 -0.0170711 0)
(-0.206576 -0.0227941 0)
(-0.17562 -0.0273784 0)
(-0.13974 -0.0306214 0)
(-0.10119 -0.0331084 0)
(-0.0648375 -0.0364373 0)
(-0.0466398 -0.0414125 0)
(0.00522285 0.00470708 0)
(-0.0145505 -0.0200346 0)
(0.0134533 -0.0271837 0)
(0.0335155 -0.0202812 0)
(0.0509955 -0.0137166 0)
(0.0624743 -0.00769155 0)
(0.0681461 -0.00449235 0)
(0.0700916 -0.0032893 0)
(0.0705542 -0.00281797 0)
(0.0706079 -0.00252261 0)
(0.0704108 -0.00224819 0)
(0.0698558 -0.00191401 0)
(0.068704 -0.00133413 0)
(0.0663389 -8.30101e-05 0)
(0.0614558 0.00243182 0)
(0.0526031 0.00531416 0)
(0.0424984 0.00797448 0)
(-0.00798877 0.0207761 0)
(0.209658 0.170539 0)
(-0.151929 0.06267 0)
(-0.14653 0.0483132 0)
(-0.175698 0.038291 0)
(-0.196328 0.0270642 0)
(-0.20955 0.0148738 0)
(-0.214566 0.00149847 0)
(-0.20999 -0.0129825 0)
(-0.196552 -0.0272773 0)
(-0.175271 -0.039582 0)
(-0.148285 -0.0484356 0)
(-0.118189 -0.053165 0)
(-0.0877545 -0.0542228 0)
(-0.0608689 -0.0527223 0)
(-0.0426094 -0.0472344 0)
(-0.024941 -0.0210887 0)
(0.0186348 0.0219058 0)
(-0.0720805 0.0664622 0)
(0.0690005 0.0228684 0)
(0.0362627 -0.0226672 0)
(0.0426902 -0.031749 0)
(0.0550552 -0.0269689 0)
(0.0653266 -0.0190203 0)
(0.0706606 -0.00742475 0)
(0.0715064 -0.000624859 0)
(0.0710587 0.00194288 0)
(0.070942 0.00287717 0)
(0.0711072 0.00338753 0)
(0.0712097 0.00373478 0)
(0.0711637 0.00413743 0)
(0.0709467 0.0050117 0)
(0.0699975 0.00733627 0)
(0.065779 0.0138891 0)
(0.0553009 0.0198475 0)
(0.0464781 0.0246064 0)
(-0.0389814 0.0451 0)
(0.366232 0.254901 0)
(-0.169063 0.100146 0)
(-0.110016 0.0779722 0)
(-0.137766 0.0597263 0)
(-0.155459 0.0412911 0)
(-0.167094 0.0216964 0)
(-0.171464 0.000152467 0)
(-0.166221 -0.0228711 0)
(-0.152881 -0.0450608 0)
(-0.133002 -0.0633644 0)
(-0.109039 -0.0756677 0)
(-0.0836237 -0.0811266 0)
(-0.0590757 -0.0803734 0)
(-0.0378537 -0.0744135 0)
(-0.0218512 -0.0625026 0)
(-0.00844083 -0.0409608 0)
(0.00557238 -0.0158879 0)
(-0.0572312 0.0103821 0)
(0.0987035 -0.0505733 0)
(0.0640248 -0.0482688 0)
(0.0620738 -0.042464 0)
(0.0671915 -0.03527 0)
(0.0721558 -0.0292754 0)
(0.0752229 -0.0212771 0)
(0.0692135 -0.0139134 0)
(0.0644751 -0.0100558 0)
(0.0630031 -0.00793557 0)
(0.0630078 -0.00656613 0)
(0.0633995 -0.00555554 0)
(0.0640837 -0.00466338 0)
(0.0656072 -0.00346198 0)
(0.0692789 0.000300354 0)
(0.0683906 0.0190145 0)
(0.0561036 0.0324845 0)
(0.05277 0.0434756 0)
(-0.0641068 0.0731101 0)
(0.505354 0.322677 0)
(-0.202483 0.133897 0)
(-0.0721247 0.1027 0)
(-0.0974285 0.0771895 0)
(-0.109332 0.0535589 0)
(-0.116831 0.0282765 0)
(-0.118129 -0.0007687 0)
(-0.109973 -0.0324484 0)
(-0.0956753 -0.061934 0)
(-0.0774516 -0.0849665 0)
(-0.0576285 -0.0993365 0)
(-0.0384044 -0.10443 0)
(-0.0209858 -0.101456 0)
(-0.00642313 -0.0916651 0)
(0.00534882 -0.0746991 0)
(0.0161412 -0.0514893 0)
(0.031373 -0.0259256 0)
(0.0449556 -0.00910314 0)
(0.0785377 -0.00138027 0)
(0.0852885 -0.0360992 0)
(0.0713371 -0.0417986 0)
(0.0648589 -0.0383267 0)
(0.0625323 -0.0334171 0)
(0.0596452 -0.0270567 0)
(0.061087 -0.016616 0)
(0.0709515 -0.0117678 0)
(0.0797505 -0.00925889 0)
(0.0862391 -0.00773162 0)
(0.0913046 -0.00634104 0)
(0.0948128 -0.00459565 0)
(0.0954475 -0.0021245 0)
(0.0911796 0.00157497 0)
(0.079741 0.007048 0)
(0.0665847 0.0280928 0)
(0.0554849 0.0466834 0)
(0.0620539 0.0643293 0)
(-0.0722378 0.103851 0)
(0.622817 0.37543 0)
(-0.241559 0.162065 0)
(-0.0358758 0.115979 0)
(-0.0549379 0.0861941 0)
(-0.0583289 0.0596944 0)
(-0.0584809 0.0307307 0)
(-0.0515763 -0.00456057 0)
(-0.0384003 -0.0437536 0)
(-0.0232797 -0.0779206 0)
(-0.00857692 -0.102596 0)
(0.0045929 -0.116454 0)
(0.0149292 -0.11932 0)
(0.0228248 -0.113644 0)
(0.0284444 -0.101306 0)
(0.0326827 -0.0835599 0)
(0.0375853 -0.0619469 0)
(0.0462028 -0.0402534 0)
(0.0577308 -0.0274079 0)
(0.0677872 -0.0284365 0)
(0.0680752 -0.0377374 0)
(0.0612603 -0.0382699 0)
(0.0542995 -0.0346178 0)
(0.0495564 -0.0299815 0)
(0.0465629 -0.023886 0)
(0.0476505 -0.0147373 0)
(0.0529222 -0.0100923 0)
(0.058789 -0.00853674 0)
(0.0643088 -0.00767839 0)
(0.0695153 -0.00610867 0)
(0.0739947 -0.00291052 0)
(0.0770652 0.00256488 0)
(0.0770261 0.010277 0)
(0.073505 0.0206161 0)
(0.0682311 0.0372955 0)
(0.0625642 0.0558647 0)
(0.0824378 0.0765037 0)
(0.0367362 0.104621 0)
(0.094406 0.120746 0)
(0.120266 0.131406 0)
(-0.182476 0.161239 0)
(0.705316 0.41963 0)
(-0.277923 0.181187 0)
(-0.00950498 0.109558 0)
(-0.009966 0.0834292 0)
(-0.000986098 0.0582238 0)
(0.00942225 0.0253959 0)
(0.0310351 -0.0166258 0)
(0.0486958 -0.0579007 0)
(0.0617488 -0.0906734 0)
(0.0696437 -0.112379 0)
(0.0726535 -0.12281 0)
(0.0716656 -0.123061 0)
(0.0679283 -0.115227 0)
(0.062548 -0.101483 0)
(0.056867 -0.0837673 0)
(0.0525953 -0.0641076 0)
(0.0513737 -0.0454509 0)
(0.0527265 -0.0328756 0)
(0.0530212 -0.0291044 0)
(0.0490861 -0.0305048 0)
(0.0419362 -0.0306097 0)
(0.0347161 -0.02859 0)
(0.0293665 -0.0256485 0)
(0.026328 -0.0218379 0)
(0.0265035 -0.0172581 0)
(0.0297063 -0.0150356 0)
(0.0342582 -0.0145024 0)
(0.0393257 -0.0140242 0)
(0.0446784 -0.0123946 0)
(0.0500995 -0.00856572 0)
(0.0553125 -0.00144582 0)
(0.0597146 0.0089838 0)
(0.0620348 0.0217712 0)
(0.0642004 0.0374623 0)
(0.066641 0.0544543 0)
(0.0840517 0.0728425 0)
(0.08087 0.0783535 0)
(0.0926341 0.0370438 0)
(0.121919 -0.000440428 0)
(-0.205554 0.085777 0)
(0.756569 0.460097 0)
(-0.293522 0.167397 0)
(0.0187647 0.055624 0)
(0.0534403 0.052494 0)
(0.0761857 0.0413882 0)
(0.102802 0.00747445 0)
(0.13132 -0.03557 0)
(0.148308 -0.0717547 0)
(0.154649 -0.0976128 0)
(0.151677 -0.112705 0)
(0.141358 -0.117722 0)
(0.12603 -0.114165 0)
(0.108055 -0.104127 0)
(0.0894689 -0.0897538 0)
(0.0720092 -0.0730292 0)
(0.0571666 -0.0557986 0)
(0.0458835 -0.0401088 0)
(0.0379199 -0.0289826 0)
(0.0312655 -0.0240016 0)
(0.0240385 -0.0231788 0)
(0.0163252 -0.0231466 0)
(0.00937149 -0.0225054 0)
(0.00417352 -0.0214624 0)
(0.00112098 -0.0201352 0)
(0.000630699 -0.0187834 0)
(0.00238578 -0.0185479 0)
(0.00534308 -0.0189852 0)
(0.00893557 -0.0191075 0)
(0.013099 -0.0180292 0)
(0.0180073 -0.0147679 0)
(0.0239195 -0.0080084 0)
(0.0327517 0.00346829 0)
(0.0405031 0.016878 0)
(0.0485194 0.0310112 0)
(0.0575589 0.0448823 0)
(0.0740716 0.0590187 0)
(0.086668 0.0618538 0)
(0.0989061 0.0435276 0)
(0.15072 0.05066 0)
(-0.138129 0.144196 0)
(0.861494 0.461612 0)
(-0.0621794 0.145254 0)
(0.112097 -0.0339041 0)
(0.193007 -0.0552148 0)
(0.222929 -0.0533927 0)
(0.24748 -0.064216 0)
(0.262499 -0.0787022 0)
(0.263985 -0.0908141 0)
(0.251752 -0.0983616 0)
(0.22862 -0.100547 0)
(0.198295 -0.0973655 0)
(0.164406 -0.089564 0)
(0.130115 -0.078353 0)
(0.09782 -0.0650361 0)
(0.0691783 -0.0509875 0)
(0.0452404 -0.0374994 0)
(0.0263356 -0.0258077 0)
(0.0126469 -0.0180444 0)
(0.00251835 -0.0149635 0)
(-0.00587862 -0.015032 0)
(-0.0130532 -0.0160067 0)
(-0.0191428 -0.0168844 0)
(-0.0238685 -0.0176508 0)
(-0.0270963 -0.0183922 0)
(-0.0287661 -0.0192185 0)
(-0.029228 -0.0203267 0)
(-0.0290522 -0.0214629 0)
(-0.0285307 -0.0221868 0)
(-0.0276314 -0.0220232 0)
(-0.0260596 -0.0204346 0)
(-0.0232425 -0.0167865 0)
(-0.0177403 -0.0102992 0)
(-0.00317027 3.83027e-05 0)
(0.00861467 0.0112498 0)
(0.0212895 0.0184583 0)
(0.0379546 0.0235201 0)
(0.0531876 0.0178041 0)
(0.0658339 -0.00058783 0)
(0.14634 0.0567487 0)
(-0.425781 0.233982 0)
(1.01002 0.415988 0)
(0.473857 0.272499 0)
(0.497011 0.171882 0)
(0.535676 0.108861 0)
(0.51843 0.0650822 0)
(0.479332 0.0269637 0)
(0.433713 -0.00526742 0)
(0.382975 -0.0290162 0)
(0.327 -0.0435798 0)
(0.2686 -0.0498226 0)
(0.211276 -0.0495728 0)
(0.157909 -0.0449502 0)
(0.110462 -0.0377408 0)
(0.0698873 -0.0291678 0)
(0.0365709 -0.020444 0)
(0.010223 -0.0127422 0)
(-0.0100323 -0.00711555 0)
(-0.0220792 -0.00530075 0)
(-0.0304592 -0.00581651 0)
(-0.0370979 -0.00749591 0)
(-0.0429893 -0.00946222 0)
(-0.0483463 -0.0113306 0)
(-0.053137 -0.0131214 0)
(-0.0573385 -0.0148637 0)
(-0.0610245 -0.0165448 0)
(-0.0644739 -0.0181437 0)
(-0.0680341 -0.0194768 0)
(-0.071978 -0.0202293 0)
(-0.0765412 -0.0199534 0)
(-0.082034 -0.0180169 0)
(-0.0889673 -0.013572 0)
(-0.0979765 -0.00566217 0)
(-0.109361 0.00638448 0)
(-0.120042 0.0213335 0)
(-0.139097 0.0398513 0)
(-0.169627 0.0629638 0)
(-0.213948 0.0895093 0)
(-0.26559 0.117365 0)
(-0.335792 0.142953 0)
(-0.629618 0.164501 0)
(-0.286912 -0.0855288 0)
(0.10711 -0.0475865 0)
(0.183061 -0.0426434 0)
(0.171353 -0.0342937 0)
(0.15942 -0.0234132 0)
(0.142514 -0.0152236 0)
(0.119021 -0.00938902 0)
(0.0911049 -0.00486548 0)
(0.0616464 -0.00135373 0)
(0.0330076 0.00127783 0)
(0.00652104 0.00343997 0)
(-0.016675 0.00546671 0)
(-0.033446 0.00689214 0)
(-0.0454827 0.00759635 0)
(-0.0533952 0.00724733 0)
(-0.0585429 0.00604092 0)
(-0.0627327 0.00466823 0)
(-0.066787 0.0030587 0)
(-0.0710808 0.00113366 0)
(-0.0756291 -0.000912995 0)
(-0.0804953 -0.00301747 0)
(-0.0857054 -0.00504831 0)
(-0.0912798 -0.0067999 0)
(-0.0972948 -0.00809314 0)
(-0.103822 -0.00870546 0)
(-0.110871 -0.00835418 0)
(-0.118369 -0.00670654 0)
(-0.126149 -0.00341429 0)
(-0.133928 0.00184318 0)
(-0.141028 0.00931481 0)
(-0.145838 0.0198757 0)
(-0.149619 0.0348452 0)
(-0.153434 0.0539845 0)
(-0.158098 0.0751043 0)
(-0.161055 0.0903996 0)
(-0.152214 0.0795456 0)
(-0.13891 0.00119035 0)
(-0.275932 -0.194798 0)
(0.0136941 0.147892 0)
(0.0276115 0.0408099 0)
(-0.0212371 0.00338564 0)
(-0.0391465 0.00804235 0)
(-0.0460348 0.011799 0)
(-0.0513255 0.0117786 0)
(-0.0574822 0.0113177 0)
(-0.0635813 0.0110849 0)
(-0.0690702 0.0104208 0)
(-0.0735743 0.0087572 0)
(-0.0769404 0.00588408 0)
(-0.0791973 0.00180701 0)
(-0.0802707 -0.00316283 0)
(-0.0806422 -0.00855844 0)
(-0.0808204 -0.0144661 0)
(-0.0814817 -0.0207024 0)
(-0.0829513 -0.0265041 0)
(-0.0851727 -0.0312212 0)
(-0.0881336 -0.0344829 0)
(-0.0918273 -0.0362132 0)
(-0.0961415 -0.0367406 0)
(-0.101064 -0.0367343 0)
(-0.10656 -0.0363373 0)
(-0.112519 -0.0355878 0)
(-0.118754 -0.0344127 0)
(-0.124972 -0.0326046 0)
(-0.130743 -0.029795 0)
(-0.135464 -0.0254215 0)
(-0.138339 -0.0186559 0)
(-0.138455 -0.00853212 0)
(-0.13487 0.00443839 0)
(-0.125959 0.0210786 0)
(-0.110676 0.0419698 0)
(-0.0894404 0.065776 0)
(-0.0637324 0.0851276 0)
(-0.037286 0.0859869 0)
(0.129162 0.00602667 0)
(-0.215752 -0.107297 0)
(0.078973 -0.259066 0)
(-0.357638 -0.123952 0)
(-0.27471 0.0233512 0)
(-0.246474 -0.0230035 0)
(-0.222972 -0.0179115 0)
(-0.213055 -0.00679816 0)
(-0.204244 0.0017128 0)
(-0.194967 0.008561 0)
(-0.184762 0.014982 0)
(-0.173507 0.021416 0)
(-0.161461 0.0280261 0)
(-0.149084 0.0349954 0)
(-0.136954 0.0424909 0)
(-0.125689 0.0505358 0)
(-0.115765 0.0590361 0)
(-0.10741 0.0678155 0)
(-0.100708 0.0766094 0)
(-0.095689 0.0850188 0)
(-0.0922522 0.0923028 0)
(-0.0902235 0.0976225 0)
(-0.0894376 0.100442 0)
(-0.0897691 0.100551 0)
(-0.0911197 0.0985336 0)
(-0.0933857 0.0955012 0)
(-0.0964665 0.0917748 0)
(-0.100223 0.087606 0)
(-0.104451 0.0831933 0)
(-0.108851 0.0786793 0)
(-0.112994 0.0741367 0)
(-0.116272 0.0695499 0)
(-0.117728 0.0648253 0)
(-0.115693 0.0602995 0)
(-0.107302 0.0584083 0)
(-0.0896814 0.060172 0)
(-0.0617402 0.0666131 0)
(-0.027021 0.0780294 0)
(0.0320882 0.0901261 0)
(0.0751112 0.0803414 0)
(0.156505 0.0560961 0)
(-0.220228 -0.00214367 0)
)
;

boundaryField
{
    floor
    {
        type            noSlip;
    }
    ceiling
    {
        type            noSlip;
    }
    sWall
    {
        type            noSlip;
    }
    nWall
    {
        type            noSlip;
    }
    sideWalls
    {
        type            empty;
    }
    glass1
    {
        type            noSlip;
    }
    glass2
    {
        type            noSlip;
    }
    sun
    {
        type            noSlip;
    }
    Table_master
    {
        type            noSlip;
    }
    Table_slave
    {
        type            noSlip;
    }
    inlet
    {
        type            fixedValue;
        value           uniform (0.212132 -0.212132 0);
    }
    outlet
    {
        type            zeroGradient;
    }
}


// ************************************************************************* //
