/*--------------------------------*- C++ -*----------------------------------*=========                 |
  \      /  F ield         | OpenFOAM: The Open Source CFD Toolbox
   \    /   O peration     | Website:  https://openfoam.org
    \  /    A nd           | Version:  6
     \/     M anipulation  |
\*---------------------------------------------------------------------------*/
FoamFile
{
    version     2.0;
    format      ascii;
    class       volScalarField;
    location    "1900";
    object      PPD;
}
// * * * * * * * * * * * * * * * * * * * * * * * * * * * * * * * * * * * * * //

dimensions      [0 0 0 0 0 0 0];

internalField   nonuniform List<scalar> 
458
(
53.60091695362298
40.771937892364846
38.17684052171194
36.55177990538477
35.78682236950122
35.87302710854816
36.83673361079418
39.04219019801905
42.510218648362006
45.91129038456167
44.955490613181716
43.96569295714318
44.22693141917917
45.994790250239326
47.64805538139015
78.87564976494696
76.57032612783959
75.43381412379898
74.42920082283808
74.40667710242911
75.32306681762776
75.63970765050104
76.11498047069867
76.90129937386041
77.86605326109537
78.92239612942365
80.03127980978557
81.10136526127438
82.07032898210034
82.90181892052382
83.47994878806436
82.89670124335714
82.13277269587194
51.051646478227156
42.24575218860915
40.560452605515096
38.8356058394745
37.86228655291584
37.40929909745832
37.1736609656814
37.48908223221962
38.7724512296372
41.299258783839605
42.791976358243076
43.32242471300326
43.732408440614094
44.162497887027946
44.36527974306808
44.85475512413395
48.125295930525695
53.188337180809434
79.37905210393095
77.32434693771897
72.97086188187205
71.37841245711186
70.80400375890228
72.08904809891035
73.46094874435241
74.78593953185131
76.14726194411662
77.47804154735807
78.79145414225384
80.02468734704989
81.09814019248397
81.94469054012501
82.56157557931128
83.10600155825591
83.11883855811193
82.37871918108969
52.368152331362474
43.0429846658303
43.520943281405486
42.64759869957648
41.80878493293769
40.12142832569911
37.06556691867321
34.67978026517456
34.830091866201215
37.281270735034894
40.23348759876561
42.485328519875225
43.85833548830767
44.454555380257084
44.74243288916838
45.73126926207424
47.77835243508748
49.97872733422523
78.34688357842528
72.07691610515616
67.59001616291343
66.31069783114454
66.66563107819478
68.43086352132927
71.55208646271925
74.54750945357881
76.59386301658392
78.52404803725364
80.2128518908191
81.54292008331463
82.489097391403
82.77635292860917
82.65964321358666
82.87790029612583
82.66708741912677
82.10121896304314
55.895959043902096
44.161311053385205
46.561516455657184
47.92082817826546
48.06664286846885
42.83607948087953
35.8673884159752
31.721131321675898
31.775371448507585
34.57690487070286
38.573553145088596
42.31133169999033
44.842453927454024
45.96881082691675
46.275812820716276
46.57838916302795
46.79387320752785
47.064826417608735
47.52412972694553
54.390303051693394
56.6601915213151
58.99425785660859
62.02213790396863
65.37869226356693
68.239540190126
69.39660899462893
70.39289850493932
71.49322619738714
72.66069682932891
73.81599724751112
74.93484720707283
76.10895635505285
77.44395081208339
79.59955523752195
80.9758825999638
81.3852774035849
81.39580377793777
60.467496628739
46.14123531485878
49.74546018326698
54.385978786583856
55.189418373752694
42.61028320015945
33.521270000109666
29.236968261304952
29.477827064640294
33.096751688853445
38.42709461597429
43.66840400105572
47.470975978105464
49.250678637514966
49.53408758815082
49.267031103902035
48.91347834105258
48.992244888559746
50.46238574959887
53.034829321163116
55.97761449334829
59.74566932377292
63.978335636734116
68.0665021026924
71.42287314720733
73.57718728814206
75.1816624775062
76.64907615857092
77.87208850396193
78.8754909878007
79.65259951286319
80.25881689862425
80.65565684549178
80.84696011763185
81.01864709864776
80.76207679546285
81.04959169666468
80.5797560699199
80.60427110866522
80.6368610492429
65.35647672904358
49.317566385042184
54.31143345628321
59.568265393354714
52.162331493422705
39.75016575676038
30.36396117561101
26.481663633705935
27.73909286977465
32.94761480401452
40.26057246799117
47.44134659492587
52.82392357613918
55.5398997445265
55.538355445618706
54.71716511735539
54.08867403534212
54.193980874928414
55.90711468942796
58.749374785617995
62.310661926241735
66.37872050332268
70.49755621434923
74.19472721711529
77.18006202660376
79.29339258667645
80.83503167026161
82.01402622068602
82.78606919806808
83.3714641258262
83.74938615352252
83.92759843048512
83.78726894694483
83.1856122659019
82.5030732412111
81.70640864057916
81.6094397731845
82.06293587207061
81.78610969062102
81.45712560201221
70.53730713201573
55.199854722784345
64.16714524833488
58.85613245034865
47.11105369791988
33.70620522728997
25.174399573347912
23.289258337474465
26.93094588419855
35.02304860582501
45.27733545743787
54.970470291138994
60.0598691828756
61.708557746027466
61.99065876449702
62.04190623599794
61.79452826648426
62.38187063895591
64.74689318061067
68.12445507073494
71.8163410514388
75.42709761624849
78.33673941785827
80.58943128519614
82.28328819610867
83.57004319930553
84.49024177771122
85.16012075100411
85.66347817230888
85.99325159378299
86.18888160860418
86.18888160860418
86.00961815772507
85.64686753584861
85.08872343303959
84.05627690666131
83.55110144426408
83.33223491888222
82.29817705646768
82.01334015154148
76.96020181216547
71.58577461516842
69.34786834349103
56.02536346506458
36.84306929794609
23.00916465385953
18.155041275578924
20.503594381375436
28.677409737923156
41.67480328334668
55.9060092816627
63.82634532391258
66.91002212810113
67.72402807887426
67.79771899304046
67.99396912356261
68.7021446430887
70.26998206667598
72.92475055227892
76.0498593487836
79.08111782207338
81.60045917614968
83.60600208105697
85.09222045472859
86.17264320008621
86.90752022128966
87.43476222760253
87.82878905919621
88.11170733632198
88.28820594542621
88.33206609456431
88.22956117102096
88.0079680287439
87.66305478316833
87.31192566369513
87.07958243703978
87.14179874961981
87.15732350253103
84.68941431071133
81.16430061763577
85.22059324290876
81.39210237704125
74.5401881887345
36.89738071892559
13.592997158468322
8.99306768668312
11.679288783737434
21.961277077374604
38.93218624107468
57.646211294076515
67.65028462642232
70.26946690830421
71.1236644142653
71.5146093959321
72.0005121678797
72.9426997861444
74.55753787780034
76.89118526681295
79.7070367109749
82.34506805512666
84.4414075514743
85.95839519446862
87.01143632784054
87.73608394657143
88.23425196613134
88.61532585696813
88.89537269686804
89.10575610087959
89.2243590819662
89.23057634111593
89.10228326264313
88.84179715273208
88.47548634910396
88.08672898348716
87.73075463918718
87.42104263550836
87.23342524075038
87.11742370453265
86.93863882724582
87.09268455600643
100.0
98.65018458340815
46.10217566657495
5.216503198886684
20.454425045372247
49.736257629147076
63.15440901934714
69.2594613982229
72.74155129668065
74.43598222700433
75.37367273415009
76.14223883563555
77.05430809461554
78.28143490818535
79.87913784955705
81.80208082794502
83.82438743312244
85.67046481571116
87.14930868542599
88.2416053463191
88.98962474545334
89.50076088863914
89.84109166607422
90.10193399196247
90.26934488705804
90.38313467058875
90.41474456568025
90.3486458542316
90.18082951312454
89.9469825208146
89.6560486807883
89.38951543248479
89.18738295401317
89.09023487973981
89.17423978941416
89.58192709928628
90.8356146832012
92.37461724430962
98.40730201698052
8.036240400335899
14.019985360839385
36.06027790069938
55.47608677717844
67.66782082734558
73.58489393946675
76.68965231092116
78.5008272979863
79.6680820468309
80.60598985369973
81.51609795799214
82.5190224104449
83.67743616995382
84.9776795161066
86.34179837716854
87.66635793570462
88.78539098738105
89.66782260041434
90.30886736736747
90.74326961512928
91.04751596673698
91.24621964577742
91.3705355925792
91.44785398801784
91.47891342528163
91.46475259439259
91.39486020466826
91.28650723317041
91.14833924204453
91.02089066258995
90.95239200501862
91.0104096517567
91.23525855990815
91.60901842075992
92.0654995754027
91.77433472106797
92.76868165378549
24.284633267018663
6.113847972500125
6.452196671499195
40.82953231907654
64.4160399975418
73.1631484069379
77.7209496626451
80.62859579407075
82.49077790883001
83.7849585475829
84.77832767240072
85.59032556325573
86.34796283888527
87.05914879671798
87.76317833107043
88.47504323626546
89.18840526436007
89.86525869023257
90.45915048117392
90.93344726858703
91.28604607994325
91.52915677013941
91.68598915013833
91.77615977778781
91.82900786015342
91.84591701683246
91.8404226103658
91.81315420933493
91.75209129222132
91.68471763763455
91.58722495535231
91.48858543245869
91.36416614743786
91.23729799852369
91.12007294021092
91.01329551416264
91.10394381203265
91.64472170015533
92.38088277942241
93.7697559173478
)
;

boundaryField
{
    ".*"
    {
        type            zeroGradient;
    }
}


// ************************************************************************* //
