/*--------------------------------*- C++ -*----------------------------------*\
  =========                 |
  \\      /  F ield         | OpenFOAM: The Open Source CFD Toolbox
   \\    /   O peration     | Website:  https://openfoam.org
    \\  /    A nd           | Version:  6
     \\/     M anipulation  |
\*---------------------------------------------------------------------------*/
FoamFile
{
    version     2.0;
    format      ascii;
    class       surfaceScalarField;
    location    "600";
    object      phi;
}
// * * * * * * * * * * * * * * * * * * * * * * * * * * * * * * * * * * * * * //

dimensions      [1 0 -1 0 0 0 0];

internalField   nonuniform List<scalar> 
850
(
-0.00314235
0.00320698
-0.00425773
0.00111538
-0.00515913
0.000901401
-0.00590092
0.000741793
-0.00644885
0.00054793
-0.00677172
0.000322874
-0.0068314
5.96782e-05
-0.00657784
-0.000253555
-0.00596184
-0.000615995
-0.00497516
-0.000986685
-0.00368554
-0.00128961
-0.00224202
-0.00144352
-0.000867821
-0.0013742
0.000105466
-0.000973285
0.000108307
-0.000943424
0.000947905
-0.000560881
-0.00038254
0.000243091
-0.000803969
0.000946043
-0.000702949
0.00146441
-0.000518358
0.00174601
-0.000281606
0.00186038
-0.000114364
0.00191301
-5.2622e-05
0.00194042
-2.74053e-05
0.00195004
-9.6221e-06
0.00194574
4.30993e-06
0.0019277
1.80363e-05
0.00188667
4.10411e-05
0.00179578
9.08942e-05
0.00161031
0.000185465
0.00131132
0.000298995
0.000926852
0.000384474
0.000932632
-0.00227295
0.0056543
-0.00339642
0.00223886
-0.00434631
0.00185129
-0.0050977
0.00149319
-0.00565553
0.00110576
-0.00600297
0.000670316
-0.00610431
0.00016102
-0.0059135
-0.000444364
-0.00538782
-0.00114167
-0.00452728
-0.00184722
-0.0034162
-0.00240069
-0.00220684
-0.00265288
-0.00107247
-0.00250857
-0.000134368
-0.00191138
0.000870864
-0.000896922
0.00126502
-0.000389589
0.00108436
0.000185965
0.00109989
0.000256306
0.000704921
0.000731035
-0.000857266
0.00111876
-0.00119169
0.00148875
-0.00107293
0.00178987
-0.000819484
0.00185551
-0.00034724
0.00186305
-0.000121902
0.00187338
-6.29518e-05
0.00188234
-3.63538e-05
0.00188722
-1.45003e-05
0.00188856
2.97573e-06
0.00188601
2.0586e-05
0.00187585
5.12037e-05
0.00182342
0.000143325
0.0016145
0.000394397
0.00125067
0.000662823
0.000782628
0.00085252
0.00173019
-0.00160556
0.0075267
-0.00258993
0.00322323
-0.00345154
0.00271289
-0.00412164
0.00216329
-0.00464343
0.00162755
-0.00500006
0.00102696
-0.00514756
0.000308513
-0.00502681
-0.000565104
-0.00458607
-0.00158241
-0.00383177
-0.00260152
-0.00286973
-0.00336274
-0.00184855
-0.00367405
-0.000898402
-0.00345871
-9.08817e-05
-0.0027189
0.000605507
-0.00159331
0.000873079
-0.000657159
0.000723924
0.000335123
0.00183765
0.00159819
-0.000877632
0.00183898
-0.00109805
0.00182579
-0.0011785
0.00190416
-0.0011513
0.00218389
-0.00109921
0.0018368
0.00171506
0.00165227
0.00161607
0.00160173
0.00160486
0.00162561
0.00167697
0.00182045
0.00153858
0.000676273
0.00117374
0.00102767
0.000659906
0.00136635
0.00241274
-0.00111958
0.00899184
-0.00190389
0.00400755
-0.00249236
0.00330137
-0.00297227
0.0026432
-0.00338753
0.00204281
-0.00371186
0.0013513
-0.00388667
0.00048332
-0.00382792
-0.000623849
-0.00346318
-0.00194715
-0.00281787
-0.00324683
-0.00202772
-0.00415288
-0.00122405
-0.00447772
-0.000491395
-0.00419137
0.000124421
-0.00333472
0.000672468
-0.00214135
0.00101881
-0.00100349
0.0013061
4.78349e-05
0.00244958
0.000694162
0.00250112
-3.70615e-05
0.00221005
-0.000586563
0.00208838
-0.000976375
0.00196154
-0.00105166
0.00182305
-0.00101281
0.00156353
-0.000839677
0.00196796
-0.000404586
0.00220466
-0.000236844
0.00239271
-0.000188203
0.00254883
-0.000156268
0.00265774
-0.000109064
0.00268983
-3.22423e-05
0.00260791
8.17689e-05
0.00236668
0.000241085
0.00189122
0.00047531
0.00165568
0.000911812
0.00127122
0.00141213
0.000715563
0.00192201
0.00315735
-0.000767265
0.0101714
-0.00134734
0.00458763
-0.00148777
0.0034418
-0.00167438
0.00282981
-0.00191094
0.00227937
-0.00214184
0.0015822
-0.00229786
0.000639345
-0.00226251
-0.000659205
-0.00195263
-0.00225702
-0.00144665
-0.00375281
-0.000891364
-0.00470817
-0.000374423
-0.00499466
6.80603e-05
-0.00463385
0.000444046
-0.0037107
0.000801212
-0.00249852
0.00112179
-0.00132407
0.00154575
-0.000376122
0.00210752
0.000132399
0.00217836
-0.000107904
0.00208736
-0.000495559
0.00187285
-0.000761861
0.00167113
-0.000849931
0.00149045
-0.000832127
0.0013705
-0.00071973
0.0014806
-0.000514683
0.00162748
-0.000383714
0.00177085
-0.000331568
0.00190928
-0.000294698
0.00203076
-0.000230537
0.00211094
-0.000112419
0.00211854
7.41754e-05
0.00203478
0.000324843
0.00187249
0.000637609
0.00172948
0.00105482
0.00160524
0.00153638
0.00144544
0.00208182
0.00240419
0.0021986
0.00170047
0.000732217
0.00180565
-7.79394e-05
0.00190117
-0.000648062
0.0112876
-0.000999736
0.0049393
-0.000506078
0.00294815
-0.000266606
0.00259034
-0.000292936
0.00230571
-0.000404151
0.00169342
-0.000471565
0.000706761
-0.000364531
-0.000766237
-8.43314e-05
-0.00253721
0.000222629
-0.00405976
0.000473338
-0.00495888
0.000636752
-0.00515807
0.000724034
-0.00472113
0.000788483
-0.00377515
0.000859206
-0.00256924
0.000957282
-0.00142215
0.00115183
-0.000570666
0.00142828
-0.000144045
0.00150181
-0.000181433
0.00140278
-0.000396531
0.00121623
-0.000575306
0.00103023
-0.000663926
0.000876185
-0.00067808
0.000788822
-0.000632364
0.000818319
-0.000544175
0.000919477
-0.000484869
0.00104881
-0.000460898
0.00119008
-0.000435967
0.00133506
-0.000375514
0.00147296
-0.000250306
0.00157817
-3.10309e-05
0.00163381
0.000269207
0.00166357
0.000607852
0.0017277
0.000990691
0.00189198
0.0013721
0.0021937
0.00178011
0.00252097
0.00187133
0.00204901
0.00120418
0.00115364
0.000817433
0.00312598
-0.000737018
0.0125422
-0.000528418
0.00473071
0.000854438
0.00156529
0.00139908
0.0020457
0.00146727
0.00223753
0.00146121
0.00169947
0.00158478
0.000583195
0.00183614
-0.00101759
0.00204447
-0.00274554
0.00208751
-0.00410281
0.00197024
-0.0048416
0.00171866
-0.00490649
0.00138955
-0.00439201
0.0010531
-0.0034387
0.000759357
-0.00227549
0.000560409
-0.0012232
0.000510185
-0.000520438
0.000578042
-0.000211899
0.00059753
-0.000200918
0.000519377
-0.000318374
0.000382968
-0.000438893
0.00023595
-0.000516905
0.000111064
-0.00055319
3.74308e-05
-0.000558727
4.07952e-05
-0.000547536
0.000103161
-0.00054723
0.00019652
-0.000554253
0.000308783
-0.000548225
0.000440459
-0.000507186
0.000597692
-0.000407535
0.000786858
-0.000220193
0.000982352
7.37179e-05
0.00117472
0.000415491
0.00140725
0.000758162
0.0017124
0.00106696
0.00211164
0.00138087
0.00255819
0.00142479
0.00276159
0.00100078
0.0020923
0.00148673
0.00528962
0.00299515
0.010125
0.00373973
0.00398613
0.00439154
0.000913487
0.00438114
0.0020561
0.00417592
0.00244274
0.00405701
0.00181839
0.00419645
0.000443763
0.00440917
-0.00123031
0.00438143
-0.0027178
0.00404254
-0.00376391
0.00344632
-0.00424538
0.00267676
-0.00413692
0.00184561
-0.00356087
0.00105195
-0.00264503
0.000377117
-0.00160066
-7.31195e-05
-0.000772955
-0.000264541
-0.000329013
-0.000302024
-0.000174412
-0.000324723
-0.000178215
-0.000391529
-0.000251565
-0.000496771
-0.000333647
-0.000614135
-0.000399537
-0.000719437
-0.000447884
-0.00079456
-0.000483599
-0.000829412
-0.000512679
-0.000834565
-0.000542073
-0.000822186
-0.000566627
-0.000795751
-0.000574656
-0.000749601
-0.000553332
-0.000666535
-0.000490598
-0.000513096
-0.000373627
-0.00025917
-0.000180205
5.07758e-05
0.00010555
0.000389362
0.00041958
0.000751779
0.000704543
0.00114303
0.00098963
0.00148571
0.00108211
0.00157641
0.000910088
0.00072781
0.00233533
0.00635466
0.0107683
0.0147548
0.0140144
0.00165391
0.0125668
0.00350372
0.011206
0.00380356
0.0101207
0.00290361
0.00916212
0.00140238
0.00813543
-0.000203619
0.00698681
-0.00156918
0.00574379
-0.00252088
0.00443129
-0.00293288
0.00304738
-0.00275301
0.00170609
-0.00221957
0.000495377
-0.00143432
-0.00039905
-0.000706224
-0.000882608
-0.000289393
-0.00107528
-0.000136335
-0.00114571
-0.000103977
-0.00119187
-0.000132057
-0.00125761
-0.000185819
-0.0013479
-0.000243351
-0.00145199
-0.000295445
-0.00155918
-0.000340683
-0.00166323
-0.000379546
-0.00176312
-0.000412785
-0.00186494
-0.000440257
-0.00197483
-0.000456731
-0.0020973
-0.000452183
-0.00223792
-0.000412704
-0.00240655
-0.000321965
-0.00261845
-0.000161721
-0.00288501
8.63547e-05
-0.00320338
0.000423927
-0.00365415
0.000870358
-0.00438869
0.00143909
-0.0055026
0.00210354
-0.00713352
0.00271304
-0.00916971
0.00294627
-0.0088438
0.00200943
-0.00211776
0.0139457
0.0044589
0.0118783
0.00557106
0.0103091
0.00537274
0.00918139
0.00403134
0.00825341
0.00233036
0.0073115
0.000738295
0.00616272
-0.000420403
0.00483119
-0.00118935
0.003427
-0.00152869
0.00187021
-0.00119622
0.000369913
-0.000719276
-0.000781987
-0.000282411
-0.00142739
-6.08152e-05
-0.00171921
2.43434e-06
-0.00184884
-6.70912e-06
-0.00190728
-4.55261e-05
-0.00195
-8.93338e-05
-0.00200455
-0.000131269
-0.0020784
-0.000169498
-0.00217126
-0.000202575
-0.00228276
-0.000229182
-0.00241382
-0.000248481
-0.00256633
-0.000260269
-0.00274271
-0.000263875
-0.00294299
-0.000256447
-0.00316268
-0.000232487
-0.00339161
-0.000183765
-0.0036126
-0.000100974
-0.00379643
2.21133e-05
-0.00393495
0.000224874
-0.00404563
0.000534609
-0.00415295
0.000977683
-0.0042801
0.00156624
-0.00442596
0.00224941
-0.0045438
0.00283087
-0.00444067
0.00284315
-0.00277984
0.000348604
-0.00480138
-0.00295716
0.00746944
-0.00121336
0.00382726
0.000592632
0.00356675
0.00166936
0.00295461
0.0020978
0.00190192
0.00208366
0.000752443
0.00173575
-7.24989e-05
0.00103649
-0.000490082
2.12813e-05
-0.000513481
-0.00105889
-0.000116039
-0.00184491
6.6752e-05
-0.0022539
0.000126575
-0.00241744
0.000102734
-0.00246593
5.09276e-05
-0.00247836
5.7288e-06
-0.00248899
-3.48969e-05
-0.00250948
-6.8838e-05
-0.0025456
-9.51479e-05
-0.00259918
-0.000115907
-0.00266982
-0.000131937
-0.00275616
-0.000142828
-0.00285646
-0.000148178
-0.00296874
-0.00014799
-0.00309068
-0.000141934
-0.00321866
-0.000128458
-0.00334649
-0.000104652
-0.00346411
-6.61445e-05
-0.00355914
-5.93999e-06
-0.00361146
7.44362e-05
-0.00357789
0.000191316
-0.00342235
0.000379065
-0.00310319
0.000658529
-0.00260289
0.00106594
-0.00194149
0.00158801
-0.000939045
0.00182844
0.000795227
0.00110888
0.0015875
-0.000443665
-0.0031078
-0.0177956
-0.0226189
-0.0151071
-0.0112457
-0.00764751
-0.00466407
-0.00273491
-0.00195683
-0.00200553
-0.00247342
-0.00296552
-0.00306073
-0.00297349
-0.00282646
-0.00270296
-0.00263083
-0.00260348
-0.00261641
-0.00266296
-0.00273553
-0.00282863
-0.00293759
-0.00305736
-0.00318248
-0.00330751
-0.00342668
-0.00353264
-0.00361515
-0.00365959
-0.00364432
-0.00354928
-0.003338
-0.00293968
-0.00226261
-0.00117887
0.000426175
0.0022708
0.0033959
0.00296943
)
;

boundaryField
{
    floor
    {
        type            calculated;
        value           nonuniform List<scalar> 
36
(
0
0
0
0
0
0
0
0
0
0
0
0
0
0
0
0
0
0
0
-5.77655e-06
-1.49285e-05
-2.26425e-05
-2.90359e-05
-2.8492e-05
-2.72378e-05
-2.68942e-05
-2.83848e-06
-4.56159e-06
-5.30521e-06
-6.18119e-06
-4.47679e-06
-9.34894e-06
-1.33193e-05
-1.38289e-05
-1.563e-05
-1.44717e-05
)
;
    }
    ceiling
    {
        type            calculated;
        value           nonuniform List<scalar> 
43
(
-4.36154e-05
-4.29273e-05
-4.2355e-05
-3.41384e-05
-3.14091e-05
-2.88274e-05
-2.72431e-05
-2.5633e-05
-2.37941e-05
-2.21827e-05
-2.13808e-05
-2.0825e-05
-2.04766e-05
-2.04575e-05
-2.07599e-05
-2.11941e-05
-2.16207e-05
-2.19635e-05
-2.22813e-05
-2.25696e-05
-2.28068e-05
-2.29736e-05
-2.3057e-05
-2.30502e-05
-2.29517e-05
-2.27633e-05
-2.249e-05
-2.21372e-05
-2.17087e-05
-2.12025e-05
-2.0603e-05
-1.99517e-05
-1.92569e-05
-1.85329e-05
-1.7792e-05
-1.70285e-05
-1.61892e-05
-1.62128e-05
-1.7188e-05
-1.75644e-05
1.63997e-06
-3.62767e-07
-5.33823e-05
)
;
    }
    sWall
    {
        type            calculated;
        value           uniform -0.00020974;
    }
    nWall
    {
        type            calculated;
        value           nonuniform List<scalar> 6(-6.8617e-05 -7.11662e-05 -7.13355e-05 -9.62173e-05 -0.000106076 -0.000120807);
    }
    sideWalls
    {
        type            empty;
        value           nonuniform 0();
    }
    glass1
    {
        type            calculated;
        value           nonuniform List<scalar> 9(-6.46278e-05 -0.000174367 -0.000266845 -0.00034556 -0.000412281 -0.000468161 -0.000517611 -0.000577901 -0.00064496);
    }
    glass2
    {
        type            calculated;
        value           nonuniform List<scalar> 2(-0.000337229 -0.000371372);
    }
    sun
    {
        type            calculated;
        value           uniform 0;
    }
    Table_master
    {
        type            calculated;
        value           nonuniform List<scalar> 9(-1.5434e-07 -1.54509e-07 -1.54563e-07 -1.54596e-07 -1.54617e-07 -1.54628e-07 -1.54628e-07 -1.54617e-07 -1.54572e-07);
    }
    Table_slave
    {
        type            calculated;
        value           nonuniform List<scalar> 9(1.5425e-07 1.54219e-07 1.5415e-07 1.54092e-07 1.54051e-07 1.5404e-07 1.54044e-07 1.5408e-07 1.54173e-07);
    }
    inlet
    {
        type            calculated;
        value           uniform -0.0167506;
    }
    outlet
    {
        type            calculated;
        value           nonuniform List<scalar> 2(0.0180489 0.00486623);
    }
}


// ************************************************************************* //
