/*--------------------------------*- C++ -*----------------------------------*\
  =========                 |
  \\      /  F ield         | OpenFOAM: The Open Source CFD Toolbox
   \\    /   O peration     | Website:  https://openfoam.org
    \\  /    A nd           | Version:  6
     \\/     M anipulation  |
\*---------------------------------------------------------------------------*/
FoamFile
{
    version     2.0;
    format      ascii;
    class       volScalarField;
    location    "500";
    object      k;
}
// * * * * * * * * * * * * * * * * * * * * * * * * * * * * * * * * * * * * * //

dimensions      [0 2 -2 0 0 0 0];

internalField   nonuniform List<scalar> 
458
(
0.0024946
0.00296772
0.00311539
0.00343791
0.00375104
0.00406027
0.00437927
0.00472907
0.005069
0.00535747
0.00553587
0.00552909
0.00525582
0.00455053
0.00252771
0.00058221
0.000826209
0.00106903
0.00112987
0.00109477
0.000976899
0.00085185
0.000744881
0.000656263
0.000582563
0.000521231
0.000469756
0.000425655
0.00038681
0.000351161
0.000316306
0.000292299
0.000243947
0.00452562
0.00831434
0.00459983
0.00486132
0.00524272
0.00569293
0.00622081
0.00682951
0.00754063
0.00828101
0.00888172
0.00916348
0.00902302
0.00843794
0.00698813
0.00431535
0.0029164
0.00192736
0.00059225
0.00130572
0.0016928
0.00186621
0.00186069
0.00160993
0.00133562
0.00111104
0.000935829
0.000798251
0.000688124
0.000597743
0.000522018
0.000458826
0.000415646
0.000392293
0.000667113
0.000402027
0.00668963
0.0150524
0.00550312
0.00530821
0.0055371
0.00586341
0.00628627
0.0068466
0.00756455
0.00834164
0.00899918
0.00940599
0.00948879
0.00916851
0.00801837
0.00639102
0.00498893
0.00261387
0.00167675
0.00201211
0.00218582
0.00225616
0.00218622
0.00172996
0.00134683
0.00106378
0.000858246
0.000708002
0.000596825
0.000513721
0.000451285
0.000406063
0.000381024
0.000386152
0.000968912
0.000539642
0.00916632
0.0245098
0.00673671
0.00537781
0.0053999
0.00559299
0.00590087
0.00643624
0.00722199
0.00804951
0.00872632
0.00919626
0.00939825
0.00914937
0.0082171
0.00705833
0.00595625
0.00445311
0.00352152
0.00331086
0.00313963
0.00302075
0.00287285
0.00263811
0.00207417
0.00174788
0.00155412
0.00142636
0.00132525
0.00122529
0.00112704
0.00102767
0.000915978
0.000705274
0.000567054
0.00124865
0.000695177
0.0120993
0.0373854
0.00983765
0.00561845
0.00526621
0.00532391
0.00557285
0.00624022
0.00729634
0.00822953
0.00890741
0.00937816
0.0095659
0.00915807
0.00807629
0.00683811
0.00584522
0.00511944
0.00497271
0.00450406
0.00410831
0.00376792
0.00341799
0.00304094
0.00269623
0.00250771
0.00242018
0.00235592
0.00227028
0.00213765
0.00193895
0.00170174
0.00144232
0.00114287
0.000877902
0.00105726
0.00112065
0.00104464
0.00117631
0.00115409
0.0157051
0.0514005
0.0182365
0.00768091
0.00601184
0.00562159
0.00567337
0.00666605
0.00808515
0.00901334
0.00961757
0.0100197
0.010098
0.00947629
0.00802628
0.00636877
0.00520419
0.00473465
0.00469435
0.00464702
0.00443518
0.00407137
0.00363623
0.00321618
0.00293579
0.00284886
0.00284981
0.00285049
0.00280935
0.00269832
0.00248415
0.00219105
0.00186469
0.00152448
0.00122959
0.00110881
0.00109434
0.0014104
0.00321994
0.00182852
0.0195937
0.0604635
0.0332795
0.0175856
0.0117156
0.00900426
0.00813073
0.00905453
0.00994025
0.0104362
0.0107877
0.0110187
0.0109489
0.0100829
0.008191
0.00605752
0.00469685
0.00435794
0.0044955
0.00453877
0.00432735
0.0039395
0.0035127
0.0031625
0.00298797
0.00299188
0.00306987
0.00315085
0.0032054
0.00320978
0.00313194
0.00288844
0.00256649
0.00222063
0.00193458
0.00177921
0.00178668
0.00217943
0.00487166
0.00285135
0.0204796
0.0594723
0.0436007
0.0353424
0.0271393
0.0203287
0.0164238
0.0142963
0.0130522
0.0125471
0.0123944
0.0123072
0.0120067
0.0108104
0.00836046
0.0057667
0.00437425
0.00413177
0.00419778
0.00412875
0.00386095
0.00350874
0.00319831
0.00300618
0.00295764
0.00302211
0.00314458
0.00329496
0.00346701
0.00366221
0.00387892
0.00408455
0.00413356
0.00412958
0.00429917
0.00497548
0.00652652
0.00851219
0.0175807
0.00502317
0.0195781
0.0278136
0.0272152
0.0252871
0.0230622
0.0203635
0.0179171
0.0160121
0.014909
0.0144554
0.0140547
0.0136187
0.0130322
0.0113247
0.00802104
0.00530481
0.00422895
0.0039247
0.00379511
0.00360903
0.00335874
0.00311787
0.00294731
0.00286728
0.00286837
0.00292824
0.00302825
0.00316335
0.00333856
0.0035616
0.00383656
0.00415949
0.00453041
0.00500151
0.00565972
0.00648038
0.00727624
0.00779424
0.00808597
0.00460468
0.00590927
0.00942427
0.0126061
0.0146539
0.0157737
0.0165261
0.0171001
0.0168839
0.0155645
0.0143575
0.0133502
0.0106664
0.00731712
0.00535102
0.00445967
0.00405055
0.00380931
0.0036073
0.0034198
0.00326015
0.00313939
0.00305676
0.00300554
0.00297895
0.00297367
0.00299234
0.00304421
0.00314543
0.00331975
0.0035984
0.00398823
0.0044682
0.0050129
0.00551165
0.00573976
0.00547273
0.00473119
0.00290898
0.0133618
0.0292002
0.0254614
0.0257876
0.0255092
0.0248245
0.0225045
0.0175629
0.0126208
0.00924846
0.00754055
0.00632773
0.00562172
0.00524527
0.004983
0.0047144
0.00445223
0.0041982
0.00395532
0.00373005
0.00352796
0.00335354
0.00321189
0.00310994
0.00305609
0.00305838
0.00312304
0.00325395
0.00345218
0.00374554
0.00414031
0.00463321
0.00519214
0.00571779
0.00608629
0.00630384
0.00430445
0.00296694
0.0147411
0.0151421
0.0156387
0.0178944
0.0160904
0.014711
0.0123633
0.00899253
0.00560568
0.00421098
0.00329074
0.00284964
0.00262806
0.00240541
0.00217974
0.00199576
0.0018616
0.00177332
0.00170167
0.00164328
0.00159936
0.00157128
0.00155989
0.00156566
0.00158904
0.00163058
0.00169113
0.00177213
0.00187635
0.00200921
0.00218126
0.00238688
0.00263042
0.00291338
0.00323613
0.00359211
0.0039423
0.00380332
0.0032139
0.00271876
)
;

boundaryField
{
    floor
    {
        type            kqRWallFunction;
        value           nonuniform List<scalar> 
36
(
0.00252771
0.00058221
0.000826209
0.00106903
0.00112987
0.00109477
0.000976899
0.00085185
0.000744881
0.000656263
0.000582563
0.000521231
0.000469756
0.000425655
0.00038681
0.000351161
0.000316306
0.000292299
0.000243947
0.000243947
0.000402027
0.000539642
0.000695177
0.00104464
0.00117631
0.00115409
0.00252771
0.00431535
0.0029164
0.00192736
0.00058221
0.00192736
0.00059225
0.00261387
0.00167675
0.00352152
)
;
    }
    ceiling
    {
        type            kqRWallFunction;
        value           nonuniform List<scalar> 
43
(
0.0147411
0.0151421
0.0156387
0.0178944
0.0160904
0.014711
0.0123633
0.00899253
0.00560568
0.00421098
0.00329074
0.00284964
0.00262806
0.00240541
0.00217974
0.00199576
0.0018616
0.00177332
0.00170167
0.00164328
0.00159936
0.00157128
0.00155989
0.00156566
0.00158904
0.00163058
0.00169113
0.00177213
0.00187635
0.00200921
0.00218126
0.00238688
0.00263042
0.00291338
0.00323613
0.00359211
0.0039423
0.00380332
0.0032139
0.00271876
0.0195781
0.0278136
0.0133618
)
;
    }
    sWall
    {
        type            kqRWallFunction;
        value           uniform 0.0147411;
    }
    nWall
    {
        type            kqRWallFunction;
        value           nonuniform List<scalar> 6(0.00115409 0.00182852 0.00285135 0.00290898 0.00296694 0.00271876);
    }
    sideWalls
    {
        type            empty;
    }
    glass1
    {
        type            kqRWallFunction;
        value           nonuniform List<scalar> 9(0.0024946 0.00452562 0.00668963 0.00916632 0.0120993 0.0157051 0.0195937 0.0204796 0.0195781);
    }
    glass2
    {
        type            kqRWallFunction;
        value           nonuniform List<scalar> 2(0.00502317 0.00460468);
    }
    sun
    {
        type            kqRWallFunction;
        value           nonuniform List<scalar> 
14
(
0.0024946
0.00296772
0.00311539
0.00343791
0.00375104
0.00406027
0.00437927
0.00472907
0.005069
0.00535747
0.00553587
0.00552909
0.00525582
0.00455053
)
;
    }
    Table_master
    {
        type            kqRWallFunction;
        value           nonuniform List<scalar> 9(0.00172996 0.00134683 0.00106378 0.000858246 0.000708002 0.000596825 0.000513721 0.000451285 0.000406063);
    }
    Table_slave
    {
        type            kqRWallFunction;
        value           nonuniform List<scalar> 9(0.00207417 0.00174788 0.00155412 0.00142636 0.00132525 0.00122529 0.00112704 0.00102767 0.000915978);
    }
    inlet
    {
        type            turbulentIntensityKineticEnergyInlet;
        intensity       0.05;
        value           uniform 0.00375;
    }
    outlet
    {
        type            zeroGradient;
    }
}


// ************************************************************************* //
