/*--------------------------------*- C++ -*----------------------------------*\
  =========                 |
  \\      /  F ield         | OpenFOAM: The Open Source CFD Toolbox
   \\    /   O peration     | Website:  https://openfoam.org
    \\  /    A nd           | Version:  6
     \\/     M anipulation  |
\*---------------------------------------------------------------------------*/
FoamFile
{
    version     2.0;
    format      ascii;
    class       volScalarField;
    location    "1000";
    object      epsilon;
}
// * * * * * * * * * * * * * * * * * * * * * * * * * * * * * * * * * * * * * //

dimensions      [0 2 -3 0 0 0 0];

internalField   nonuniform List<scalar> 
458
(
0.00101803
0.00143302
0.00168329
0.00204584
0.0022626
0.00220018
0.00193776
0.0014948
0.00119945
0.000952751
0.00074536
0.00057105
0.000444824
0.00033882
0.000241544
4.44915e-06
9.74888e-06
1.8528e-05
2.83397e-05
3.248e-05
1.91956e-05
8.63583e-06
4.08322e-06
2.29734e-06
1.48461e-06
1.10764e-06
9.56788e-07
9.22878e-07
9.47355e-07
1.00212e-06
1.15863e-06
1.93289e-06
1.86375e-06
0.00190589
0.00236342
0.00173606
0.0022022
0.00239281
0.00229959
0.0019562
0.00157955
0.00126012
0.000987605
0.00076866
0.000599778
0.000474919
0.000379451
0.000285334
0.000410729
0.000292079
0.00017402
7.10467e-06
1.54766e-05
3.98019e-05
4.86255e-05
5.07364e-05
4.62417e-05
3.10116e-05
1.93121e-05
1.23939e-05
8.38224e-06
5.91651e-06
4.2926e-06
3.22874e-06
2.66144e-06
2.36322e-06
2.85899e-06
1.25819e-05
7.54665e-06
0.00303002
0.00465998
0.00311702
0.0033788
0.00305897
0.00272534
0.00232231
0.00191776
0.00154197
0.00121791
0.000954601
0.000748611
0.000585441
0.000454373
0.000343909
0.000300263
0.000266327
0.000273977
1.20079e-05
4.35842e-05
6.00414e-05
6.46535e-05
6.37011e-05
8.20852e-05
5.15793e-05
3.32696e-05
2.27828e-05
1.65294e-05
1.25179e-05
9.77055e-06
7.7942e-06
6.30706e-06
6.05281e-06
8.95914e-06
5.1027e-05
1.25873e-05
0.00433726
0.00773597
0.00702284
0.00473248
0.00385321
0.00324842
0.00270298
0.00220073
0.0017571
0.00138534
0.00108671
0.000852147
0.000664648
0.000513662
0.000391743
0.000309272
0.000257316
0.00023594
0.000322262
0.000194521
0.000139945
0.000110238
9.45129e-05
8.61766e-05
0.000153135
0.000129037
0.000110507
9.54704e-05
8.2465e-05
7.16435e-05
6.17692e-05
5.16808e-05
4.04558e-05
2.43422e-05
1.58998e-05
4.20879e-05
2.77532e-05
0.00469888
0.00685299
0.00694982
0.00547583
0.00455075
0.00376319
0.00305396
0.00243221
0.00190985
0.00148841
0.00116015
0.000905054
0.000702707
0.000541243
0.000414011
0.000320145
0.00025583
0.000223822
0.000225947
0.000186102
0.000153796
0.000134028
0.000121316
0.000109861
9.84169e-05
8.60117e-05
7.59932e-05
6.83282e-05
6.29952e-05
5.89709e-05
5.45397e-05
4.76647e-05
3.73791e-05
2.50391e-05
1.86895e-05
2.90197e-05
4.16434e-05
8.27476e-05
0.000101107
9.04572e-05
0.00452831
0.00645555
0.00678706
0.00610008
0.00520321
0.00426842
0.00339794
0.00265911
0.00206775
0.00161255
0.00124312
0.00094373
0.00071443
0.00054344
0.000417692
0.000327704
0.000268253
0.000239995
0.000230316
0.000212452
0.000198074
0.000188133
0.000176165
0.000158747
0.00013866
0.00012207
0.000110528
0.000101416
9.08387e-05
7.85188e-05
6.45938e-05
5.07489e-05
4.08214e-05
3.93617e-05
5.18904e-05
8.13563e-05
0.000119824
0.000164479
0.000271897
0.000254979
0.00795463
0.0169414
0.0129335
0.00900823
0.00668058
0.00495412
0.00367755
0.00276516
0.00206381
0.00148507
0.00108176
0.000818328
0.000634414
0.000500208
0.000402291
0.000333256
0.000291158
0.000277927
0.000281654
0.000285295
0.000284896
0.000273142
0.000249691
0.000217616
0.000185156
0.000156347
0.000131556
0.000109627
9.18187e-05
7.85654e-05
7.15119e-05
7.27135e-05
8.87169e-05
0.000136133
0.000230282
0.000389301
0.000577311
0.000598252
0.000613583
0.000449937
0.0101237
0.0363766
0.0120656
0.00418228
0.00340955
0.00229021
0.0017231
0.00137698
0.0011334
0.000934547
0.000769578
0.00063931
0.000536619
0.00045627
0.000396268
0.000356143
0.000338363
0.000346777
0.000365046
0.000373736
0.000364429
0.000329648
0.000274841
0.000209925
0.00015912
0.000124606
0.000102513
8.90911e-05
8.31391e-05
8.52954e-05
9.77393e-05
0.000124337
0.000170764
0.000240297
0.00032207
0.000394379
0.000443926
0.00048986
0.000560786
0.000468042
0.00578651
0.00700676
0.00625338
0.00189969
0.000945196
0.000748443
0.000678854
0.000640934
0.000625028
0.000600028
0.000560255
0.000517093
0.000477098
0.000443924
0.000420354
0.000408477
0.000409802
0.000420678
0.00042445
0.000404968
0.000359086
0.000296244
0.000230272
0.000174617
0.000136414
0.000113211
0.000100209
9.4783e-05
9.61632e-05
0.000104765
0.00012169
0.000148414
0.000185972
0.00023306
0.00028452
0.000336259
0.000394083
0.000478623
0.000612112
0.000753873
0.00934857
0.00224779
0.000770483
0.00054757
0.000514411
0.000517786
0.000532723
0.000544523
0.000548117
0.000546823
0.00054361
0.000540693
0.000539295
0.000538962
0.000536872
0.000526747
0.000501097
0.000460111
0.000411112
0.000362721
0.000320374
0.000285815
0.000258411
0.000236812
0.000220318
0.000209157
0.000203959
0.000205505
0.000214735
0.000232896
0.000261661
0.000303425
0.000361465
0.000438924
0.000521237
0.000592552
0.000577998
0.00089078
0.00281667
0.00193922
0.00112502
0.000811437
0.000694513
0.00063799
0.000609564
0.000600416
0.000604058
0.000615364
0.000632867
0.000656214
0.000685056
0.000718259
0.000753328
0.000786222
0.000812057
0.000827157
0.000830499
0.00082232
0.000803414
0.000775419
0.00074024
0.00070015
0.000658608
0.000619616
0.000586479
0.000561586
0.000546439
0.000541734
0.000547224
0.000560599
0.00057498
0.000602705
0.000655359
0.000717369
0.000975086
0.00120754
0.00165627
0.00108547
0.00101239
0.000816564
0.000739854
0.000716992
0.00072257
0.000739578
0.000763787
0.000791075
0.000811374
0.000825348
0.000833964
0.0008379
0.000837295
0.000831624
0.00081987
0.000801159
0.000776001
0.00074713
0.000718141
0.00069184
0.00066952
0.000651263
0.000636739
0.000625778
0.000618494
0.000615207
0.000616342
0.000622322
0.000633404
0.00064922
0.000667661
0.000683865
0.000687087
0.000675579
0.00063651
0.000561241
0.000548923
0.000675872
)
;

boundaryField
{
    floor
    {
        Cmu             0.09;
        kappa           0.41;
        E               9.8;
        type            epsilonWallFunction;
        value           nonuniform List<scalar> 
36
(
0.000241544
4.44915e-06
9.74888e-06
1.8528e-05
2.83397e-05
3.248e-05
1.91956e-05
8.63583e-06
4.08322e-06
2.29734e-06
1.48461e-06
1.10764e-06
9.56788e-07
9.22878e-07
9.47355e-07
1.00212e-06
1.15863e-06
1.93289e-06
1.86375e-06
1.86375e-06
7.54665e-06
1.25873e-05
2.77532e-05
8.27476e-05
0.000101107
9.04572e-05
0.000241544
0.000410729
0.000292079
0.00017402
4.44915e-06
0.00017402
7.10467e-06
0.000273977
1.20079e-05
0.000322262
)
;
    }
    ceiling
    {
        Cmu             0.09;
        kappa           0.41;
        E               9.8;
        type            epsilonWallFunction;
        value           nonuniform List<scalar> 
43
(
0.00165627
0.00108547
0.00101239
0.000816564
0.000739854
0.000716992
0.00072257
0.000739578
0.000763787
0.000791075
0.000811374
0.000825348
0.000833964
0.0008379
0.000837295
0.000831624
0.00081987
0.000801159
0.000776001
0.00074713
0.000718141
0.00069184
0.00066952
0.000651263
0.000636739
0.000625778
0.000618494
0.000615207
0.000616342
0.000622322
0.000633404
0.00064922
0.000667661
0.000683865
0.000687087
0.000675579
0.00063651
0.000561241
0.000548923
0.000675872
0.00578651
0.00700676
0.00281667
)
;
    }
    sWall
    {
        Cmu             0.09;
        kappa           0.41;
        E               9.8;
        type            epsilonWallFunction;
        value           uniform 0.00165627;
    }
    nWall
    {
        Cmu             0.09;
        kappa           0.41;
        E               9.8;
        type            epsilonWallFunction;
        value           nonuniform List<scalar> 6(9.04572e-05 0.000254979 0.000449937 0.00089078 0.00120754 0.000675872);
    }
    sideWalls
    {
        type            empty;
    }
    glass1
    {
        Cmu             0.09;
        kappa           0.41;
        E               9.8;
        type            epsilonWallFunction;
        value           nonuniform List<scalar> 9(0.00101803 0.00190589 0.00303002 0.00433726 0.00469888 0.00452831 0.00795463 0.0101237 0.00578651);
    }
    glass2
    {
        Cmu             0.09;
        kappa           0.41;
        E               9.8;
        type            epsilonWallFunction;
        value           nonuniform List<scalar> 2(0.000468042 0.000753873);
    }
    sun
    {
        Cmu             0.09;
        kappa           0.41;
        E               9.8;
        type            epsilonWallFunction;
        value           nonuniform List<scalar> 
14
(
0.00101803
0.00143302
0.00168329
0.00204584
0.0022626
0.00220018
0.00193776
0.0014948
0.00119945
0.000952751
0.00074536
0.00057105
0.000444824
0.00033882
)
;
    }
    Table_master
    {
        Cmu             0.09;
        kappa           0.41;
        E               9.8;
        type            epsilonWallFunction;
        value           nonuniform List<scalar> 9(8.20852e-05 5.15793e-05 3.32696e-05 2.27828e-05 1.65294e-05 1.25179e-05 9.77055e-06 7.7942e-06 6.30706e-06);
    }
    Table_slave
    {
        Cmu             0.09;
        kappa           0.41;
        E               9.8;
        type            epsilonWallFunction;
        value           nonuniform List<scalar> 9(0.000153135 0.000129037 0.000110507 9.54704e-05 8.2465e-05 7.16435e-05 6.17692e-05 5.16808e-05 4.04558e-05);
    }
    inlet
    {
        type            turbulentMixingLengthDissipationRateInlet;
        mixingLength    0.01;
        phi             phi;
        k               k;
        value           uniform 0.000101881;
    }
    outlet
    {
        type            zeroGradient;
    }
}


// ************************************************************************* //
