// -*- C++ -*-
// File generated by PyFoam - sorry for the ugliness

FoamFile
{
 version 2.0;
 format ascii;
 class volScalarField;
 location "1200";
 object T;
}

dimensions [ 0 0 0 1 0 0 0 ];

internalField nonuniform List<scalar> 458
(
  304.475
  304.196
  304.189
  304.191
  304.193
  304.195
  304.196
  304.196
  304.197
  304.197
  304.195
  304.191
  304.184
  304.175
  304.164
  303.404
  303.396
  303.395
  303.364
  303.346
  303.345
  303.351
  303.357
  303.354
  303.336
  303.329
  303.326
  303.321
  303.334
  303.381
  303.457
  303.464
  303.45
  304.679
  304.242
  304.221
  304.229
  304.237
  304.244
  304.25
  304.254
  304.257
  304.257
  304.254
  304.244
  304.227
  304.201
  304.165
  304.131
  304.099
  304.067
  303.454
  303.484
  303.518
  303.541
  303.506
  303.401
  303.396
  303.395
  303.403
  303.399
  303.4
  303.417
  303.476
  303.545
  303.632
  303.617
  303.54
  303.461
  304.873
  304.297
  304.256
  304.27
  304.287
  304.303
  304.317
  304.329
  304.338
  304.342
  304.341
  304.33
  304.307
  304.271
  304.221
  304.163
  304.104
  304.056
  303.716
  303.703
  303.73
  303.767
  303.766
  303.564
  303.488
  303.437
  303.478
  303.523
  303.565
  303.607
  303.655
  303.74
  303.841
  303.713
  303.611
  303.549
  305.053
  304.361
  304.289
  304.307
  304.333
  304.359
  304.383
  304.406
  304.423
  304.435
  304.438
  304.43
  304.406
  304.366
  304.309
  304.237
  304.152
  304.054
  303.97
  303.908
  303.933
  303.966
  303.987
  303.999
  304.009
  304.01
  304.012
  304.016
  304.022
  304.028
  304.036
  304.045
  304.048
  304.022
  303.973
  303.899
  303.886
  305.22
  304.436
  304.324
  304.336
  304.367
  304.401
  304.435
  304.467
  304.495
  304.516
  304.527
  304.525
  304.506
  304.47
  304.419
  304.356
  304.283
  304.21
  304.146
  304.098
  304.076
  304.066
  304.058
  304.052
  304.046
  304.043
  304.043
  304.046
  304.052
  304.06
  304.07
  304.079
  304.086
  304.087
  304.078
  304.058
  304.016
  304.03
  304.028
  304.035
  305.363
  304.524
  304.373
  304.36
  304.39
  304.426
  304.464
  304.502
  304.537
  304.569
  304.589
  304.595
  304.584
  304.555
  304.512
  304.457
  304.393
  304.327
  304.264
  304.212
  304.171
  304.141
  304.118
  304.099
  304.084
  304.074
  304.069
  304.069
  304.074
  304.082
  304.093
  304.105
  304.116
  304.124
  304.129
  304.132
  304.13
  304.124
  304.087
  304.059
  305.476
  304.662
  304.498
  304.427
  304.423
  304.447
  304.48
  304.515
  304.551
  304.591
  304.624
  304.638
  304.631
  304.609
  304.574
  304.53
  304.479
  304.424
  304.367
  304.313
  304.265
  304.223
  304.186
  304.156
  304.131
  304.112
  304.098
  304.091
  304.092
  304.099
  304.11
  304.124
  304.136
  304.148
  304.157
  304.164
  304.167
  304.163
  304.131
  304.072
  305.669
  305.036
  304.859
  304.704
  304.603
  304.559
  304.553
  304.566
  304.59
  304.629
  304.655
  304.661
  304.651
  304.629
  304.599
  304.565
  304.528
  304.487
  304.443
  304.397
  304.351
  304.306
  304.264
  304.224
  304.19
  304.161
  304.138
  304.12
  304.111
  304.11
  304.118
  304.13
  304.144
  304.157
  304.168
  304.179
  304.189
  304.197
  304.204
  304.212
  305.933
  305.664
  305.472
  305.269
  305.087
  304.95
  304.858
  304.801
  304.772
  304.747
  304.718
  304.687
  304.655
  304.622
  304.59
  304.56
  304.531
  304.503
  304.473
  304.442
  304.409
  304.373
  304.335
  304.296
  304.26
  304.225
  304.194
  304.166
  304.145
  304.131
  304.123
  304.123
  304.126
  304.131
  304.139
  304.151
  304.165
  304.181
  304.199
  304.252
  302.358
  303.733
  304.331
  304.54
  304.613
  304.637
  304.641
  304.634
  304.621
  304.602
  304.58
  304.557
  304.535
  304.514
  304.494
  304.476
  304.459
  304.441
  304.421
  304.399
  304.374
  304.345
  304.315
  304.284
  304.253
  304.223
  304.195
  304.17
  304.151
  304.138
  304.13
  304.127
  304.126
  304.126
  304.127
  304.127
  304.128
  304.14
  302.489
  303.686
  304.079
  304.287
  304.392
  304.442
  304.464
  304.469
  304.469
  304.466
  304.46
  304.453
  304.446
  304.438
  304.43
  304.422
  304.415
  304.407
  304.398
  304.386
  304.372
  304.355
  304.336
  304.314
  304.291
  304.266
  304.24
  304.213
  304.189
  304.169
  304.154
  304.143
  304.136
  304.131
  304.126
  304.122
  304.12
  304.133
  303.192
  303.132
  303.131
  303.8
  304.06
  304.23
  304.291
  304.323
  304.339
  304.345
  304.348
  304.35
  304.352
  304.353
  304.353
  304.353
  304.352
  304.35
  304.347
  304.344
  304.34
  304.336
  304.33
  304.323
  304.314
  304.303
  304.29
  304.275
  304.259
  304.24
  304.221
  304.203
  304.185
  304.171
  304.158
  304.147
  304.135
  304.123
  304.124
  304.164
)
;

boundaryField
{
  floor
  {
    type wallHeatTransfer;
    Tinf uniform 305.2;
    alphaWall uniform 0.24;
    value nonuniform List<scalar> 36
(
  304.287
  303.875
  303.842
  303.84
  303.883
  303.924
  303.951
  303.979
  303.997
  304
  303.986
  303.947
  303.909
  303.893
  303.862
  303.836
  303.826
  303.807
  303.835
  303.835
  303.801
  303.83
  304.047
  304.142
  304.148
  304.166
  304.287
  304.253
  304.228
  304.242
  303.875
  304.242
  303.834
  304.183
  303.927
  304.107
)
;
  }
  ceiling
  {
    type wallHeatTransfer;
    Tinf uniform 303.2;
    alphaWall uniform 0.24;
    value nonuniform List<scalar> 43
(
  303.193
  303.137
  303.136
  303.761
  304.004
  304.159
  304.211
  304.236
  304.246
  304.247
  304.244
  304.242
  304.239
  304.235
  304.231
  304.226
  304.222
  304.218
  304.215
  304.213
  304.211
  304.209
  304.206
  304.201
  304.193
  304.184
  304.173
  304.16
  304.145
  304.129
  304.113
  304.097
  304.082
  304.068
  304.055
  304.043
  304.03
  304.014
  304.016
  304.066
  305.804
  305.564
  302.534
)
;
  }
  sWall
  {
    type wallHeatTransfer;
    Tinf uniform 315.2;
    alphaWall uniform 0.36;
    value uniform 304.488;
  }
  nWall
  {
    type wallHeatTransfer;
    Tinf uniform 307.2;
    alphaWall uniform 0.36;
    value nonuniform List<scalar> 6
(
  304.539
  304.534
  304.554
  304.53
  304.551
  304.602
)
;
  }
  sideWalls
  {
    type empty;
  }
  glass1
  {
    type wallHeatTransfer;
    Tinf uniform 315.2;
    alphaWall uniform 4.3;
    value nonuniform List<scalar> 9
(
  312.596
  311.791
  311.265
  310.863
  310.553
  310.303
  310.093
  310.132
  310.322
)
;
  }
  glass2
  {
    type wallHeatTransfer;
    Tinf uniform 307.2;
    alphaWall uniform 4.3;
    value nonuniform List<scalar> 2
(
  306.207
  306.131
)
;
  }
  sun
  {
    type wallHeatTransfer;
    Tinf uniform 305.2;
    alphaWall uniform 0.24;
    value nonuniform List<scalar> 14
(
  304.581
  304.338
  304.336
  304.334
  304.332
  304.331
  304.329
  304.327
  304.325
  304.323
  304.319
  304.314
  304.307
  304.298
)
;
  }
  Table_master
  {
    type zeroGradient;
  }
  Table_slave
  {
    type zeroGradient;
  }
  inlet
  {
    type fixedValue;
    value uniform 290.15;
  }
  outlet
  {
    type zeroGradient;
  }
} 	// ************************************************************************* //

