/*--------------------------------*- C++ -*----------------------------------*\
  =========                 |
  \\      /  F ield         | OpenFOAM: The Open Source CFD Toolbox
   \\    /   O peration     | Website:  https://openfoam.org
    \\  /    A nd           | Version:  6
     \\/     M anipulation  |
\*---------------------------------------------------------------------------*/
FoamFile
{
    version     2.0;
    format      ascii;
    class       volScalarField;
    location    "200";
    object      epsilon;
}
// * * * * * * * * * * * * * * * * * * * * * * * * * * * * * * * * * * * * * //

dimensions      [0 2 -3 0 0 0 0];

internalField   nonuniform List<scalar> 
458
(
0.00233653
0.0043946
0.00473058
0.00425379
0.00375902
0.00334249
0.00299424
0.00269607
0.00243903
0.00220994
0.00199628
0.00178803
0.00157446
0.00133876
0.00107961
4.054e-05
6.04678e-05
8.41484e-05
0.00012019
0.000158931
0.000128648
0.000102073
8.37428e-05
7.08091e-05
6.13407e-05
5.39727e-05
4.80262e-05
4.29654e-05
3.83614e-05
3.39076e-05
2.93427e-05
2.45448e-05
1.8263e-05
0.00210522
0.00586293
0.00564961
0.00467617
0.00369099
0.00295461
0.00242768
0.00204022
0.00175351
0.00154146
0.00138218
0.00125937
0.00115782
0.00106384
0.000932268
0.00105494
0.000838182
0.000547648
3.81736e-05
4.21709e-05
7.20704e-05
0.00010312
0.000125916
0.000135075
9.73184e-05
7.20236e-05
5.70354e-05
4.91018e-05
4.4884e-05
4.13172e-05
3.74185e-05
3.25692e-05
2.75507e-05
2.34524e-05
2.56276e-05
2.12518e-05
0.00657399
0.00927983
0.00723803
0.00516625
0.00374572
0.00288148
0.00234666
0.00199228
0.00171997
0.00150002
0.00131659
0.00116101
0.00102834
0.000913778
0.000811606
0.000795601
0.000721965
0.000645869
3.86387e-05
5.09428e-05
9.06522e-05
0.000113221
0.000138838
0.000222183
0.000129509
6.81537e-05
3.42622e-05
1.74442e-05
1.4134e-05
1.61388e-05
1.78686e-05
1.97321e-05
1.87808e-05
1.81149e-05
3.29909e-05
2.47783e-05
0.00848048
0.0146251
0.00848266
0.0047444
0.00299332
0.00217613
0.00179015
0.00159981
0.00146487
0.00133589
0.00120186
0.00106649
0.000937845
0.000822499
0.000730756
0.000679519
0.000607221
0.000536617
0.000569759
0.000274292
0.000181159
0.000151899
0.000157969
0.000180962
0.000379274
0.000321433
0.000278577
0.000244678
0.000215097
0.000189905
0.000166831
0.000143425
0.000118501
7.69472e-05
4.81405e-05
6.25209e-05
3.56578e-05
0.00893388
0.0187931
0.00705004
0.00279204
0.00152943
0.00113428
0.00105115
0.00105266
0.00107525
0.00105815
0.00100252
0.000920594
0.00082598
0.000731647
0.000654873
0.000598419
0.000532466
0.000479259
0.000467465
0.000333016
0.000252916
0.000223224
0.000225626
0.000232559
0.000221663
0.000193437
0.000172513
0.000158725
0.000148015
0.000137724
0.000125366
0.00011001
9.2621e-05
7.20999e-05
5.27542e-05
5.5033e-05
5.34009e-05
6.6691e-05
8.82302e-05
0.000123037
0.00903098
0.019423
0.00461238
0.00124578
0.000784308
0.000700505
0.000715424
0.000748511
0.000799003
0.00082347
0.000814772
0.00077427
0.000713004
0.000645564
0.000590919
0.000545127
0.000494317
0.000462085
0.000443675
0.00036913
0.000326943
0.000321866
0.00032467
0.000305201
0.000260453
0.000219057
0.000192806
0.000175802
0.000160734
0.000144372
0.000126004
0.000106177
8.67424e-05
6.91229e-05
5.53029e-05
5.05229e-05
5.2771e-05
5.98119e-05
0.000135575
0.000137666
0.00910125
0.0164769
0.00472962
0.000911102
0.000616216
0.000546084
0.000552726
0.000579705
0.000617292
0.000647207
0.00065908
0.000647062
0.00061664
0.00057869
0.000548224
0.000515645
0.000479851
0.000468781
0.000471697
0.000454352
0.000465505
0.00047098
0.000447602
0.000384836
0.000305868
0.000245152
0.00020938
0.000186811
0.000168656
0.00015169
0.000134545
0.000117401
0.000101397
8.76728e-05
7.85925e-05
7.6805e-05
8.58495e-05
0.000110887
0.000207697
0.000224486
0.00923954
0.0130372
0.00845238
0.00119381
0.000515633
0.000432371
0.000440262
0.000465388
0.000494755
0.000524642
0.000544139
0.000550712
0.000546141
0.000536379
0.000528237
0.000516067
0.000508265
0.000535113
0.000584858
0.000605433
0.000620388
0.000587941
0.000502849
0.000384303
0.000289083
0.000232037
0.000201157
0.00018375
0.000173162
0.000166744
0.000164042
0.000165295
0.00017115
0.000183934
0.000211682
0.00028335
0.000435757
0.000704725
0.00231641
0.000753836
0.00964772
0.0127774
0.0211667
0.00292974
0.000489688
0.00036643
0.000378653
0.000403598
0.00042969
0.000457682
0.000483215
0.00050428
0.000521262
0.00053668
0.000553303
0.000571232
0.000599424
0.000647302
0.000682285
0.000667561
0.000614836
0.000524579
0.000417285
0.000319474
0.000250822
0.000209984
0.000187119
0.000174758
0.000169756
0.000172247
0.000184204
0.000208982
0.00025173
0.000320304
0.000425211
0.000576082
0.000767556
0.000968224
0.00114167
0.000693066
0.0471967
0.00532084
0.000623359
0.000381903
0.000383062
0.00040552
0.000434577
0.000467479
0.000501759
0.000536603
0.000571586
0.000606385
0.000639919
0.000669162
0.000690589
0.000693027
0.000653705
0.000578437
0.000489679
0.000402918
0.000331322
0.000279277
0.000244117
0.000219399
0.000200183
0.000184693
0.000173795
0.000169729
0.000175301
0.000193719
0.000229005
0.000286315
0.000370555
0.000480656
0.00059833
0.000682007
0.000697394
0.000479541
0.00238386
0.00120551
0.00060487
0.000478645
0.000454554
0.000450895
0.000457995
0.00047489
0.000499781
0.000527112
0.00055434
0.000579001
0.000598176
0.000608666
0.000608061
0.000594353
0.00056709
0.000534044
0.00050349
0.00047834
0.000458208
0.0004407
0.000423167
0.000403055
0.000379081
0.000351861
0.000323862
0.000298715
0.000280462
0.000273167
0.000280885
0.000307405
0.000354393
0.000416873
0.000484471
0.000551329
0.000684929
0.000542127
0.000688382
0.000800122
0.000888917
0.000630948
0.000657081
0.000697663
0.000737107
0.000772537
0.000805172
0.000836805
0.000866308
0.000887868
0.000900178
0.000901289
0.000888747
0.000860201
0.000814422
0.000752084
0.000677764
0.000600773
0.00052834
0.000465656
0.000415086
0.000375381
0.00034347
0.000316788
0.000294211
0.000275837
0.000262408
0.000254808
0.000253809
0.000260115
0.000274575
0.000298299
0.000331925
0.000372487
0.000410023
0.000384626
0.000324871
0.000294597
)
;

boundaryField
{
    floor
    {
        Cmu             0.09;
        kappa           0.41;
        E               9.8;
        type            epsilonWallFunction;
        value           nonuniform List<scalar> 
36
(
0.00107961
4.054e-05
6.04678e-05
8.41484e-05
0.00012019
0.000158931
0.000128648
0.000102073
8.37428e-05
7.08091e-05
6.13407e-05
5.39727e-05
4.80262e-05
4.29654e-05
3.83614e-05
3.39076e-05
2.93427e-05
2.45448e-05
1.8263e-05
1.8263e-05
2.12518e-05
2.47783e-05
3.56578e-05
6.6691e-05
8.82302e-05
0.000123037
0.00107961
0.00105494
0.000838182
0.000547648
4.054e-05
0.000547648
3.81736e-05
0.000645869
3.86387e-05
0.000569759
)
;
    }
    ceiling
    {
        Cmu             0.09;
        kappa           0.41;
        E               9.8;
        type            epsilonWallFunction;
        value           nonuniform List<scalar> 
43
(
0.000688382
0.000800122
0.000888917
0.000630948
0.000657081
0.000697663
0.000737107
0.000772537
0.000805172
0.000836805
0.000866308
0.000887868
0.000900178
0.000901289
0.000888747
0.000860201
0.000814422
0.000752084
0.000677764
0.000600773
0.00052834
0.000465656
0.000415086
0.000375381
0.00034347
0.000316788
0.000294211
0.000275837
0.000262408
0.000254808
0.000253809
0.000260115
0.000274575
0.000298299
0.000331925
0.000372487
0.000410023
0.000384626
0.000324871
0.000294597
0.00964772
0.0127774
0.00238386
)
;
    }
    sWall
    {
        Cmu             0.09;
        kappa           0.41;
        E               9.8;
        type            epsilonWallFunction;
        value           uniform 0.000688382;
    }
    nWall
    {
        Cmu             0.09;
        kappa           0.41;
        E               9.8;
        type            epsilonWallFunction;
        value           nonuniform List<scalar> 6(0.000123037 0.000137666 0.000224486 0.000479541 0.000542127 0.000294597);
    }
    sideWalls
    {
        type            empty;
    }
    glass1
    {
        Cmu             0.09;
        kappa           0.41;
        E               9.8;
        type            epsilonWallFunction;
        value           nonuniform List<scalar> 9(0.00233653 0.00210522 0.00657399 0.00848048 0.00893388 0.00903098 0.00910125 0.00923954 0.00964772);
    }
    glass2
    {
        Cmu             0.09;
        kappa           0.41;
        E               9.8;
        type            epsilonWallFunction;
        value           nonuniform List<scalar> 2(0.000753836 0.000693066);
    }
    sun
    {
        Cmu             0.09;
        kappa           0.41;
        E               9.8;
        type            epsilonWallFunction;
        value           nonuniform List<scalar> 
14
(
0.00233653
0.0043946
0.00473058
0.00425379
0.00375902
0.00334249
0.00299424
0.00269607
0.00243903
0.00220994
0.00199628
0.00178803
0.00157446
0.00133876
)
;
    }
    Table_master
    {
        Cmu             0.09;
        kappa           0.41;
        E               9.8;
        type            epsilonWallFunction;
        value           nonuniform List<scalar> 9(0.000222183 0.000129509 6.81537e-05 3.42622e-05 1.74442e-05 1.4134e-05 1.61388e-05 1.78686e-05 1.97321e-05);
    }
    Table_slave
    {
        Cmu             0.09;
        kappa           0.41;
        E               9.8;
        type            epsilonWallFunction;
        value           nonuniform List<scalar> 9(0.000379274 0.000321433 0.000278577 0.000244678 0.000215097 0.000189905 0.000166831 0.000143425 0.000118501);
    }
    inlet
    {
        type            turbulentMixingLengthDissipationRateInlet;
        mixingLength    0.01;
        phi             phi;
        k               k;
        value           uniform 0.000471672;
    }
    outlet
    {
        type            zeroGradient;
    }
}


// ************************************************************************* //
