/*--------------------------------*- C++ -*----------------------------------*\
  =========                 |
  \\      /  F ield         | OpenFOAM: The Open Source CFD Toolbox
   \\    /   O peration     | Website:  https://openfoam.org
    \\  /    A nd           | Version:  6
     \\/     M anipulation  |
\*---------------------------------------------------------------------------*/
FoamFile
{
    version     2.0;
    format      ascii;
    class       volVectorField;
    location    "200";
    object      U;
}
// * * * * * * * * * * * * * * * * * * * * * * * * * * * * * * * * * * * * * //

dimensions      [0 1 -1 0 0 0 0];

internalField   nonuniform List<vector> 
458
(
(-0.0134665 -0.0289501 0)
(-0.0154275 -0.189643 0)
(0.156888 -0.169948 0)
(0.275357 -0.113373 0)
(0.366719 -0.0738661 0)
(0.422804 -0.04941 0)
(0.451231 -0.03309 0)
(0.461702 -0.0211811 0)
(0.459301 -0.0116117 0)
(0.445934 -0.0029904 0)
(0.421878 0.00565959 0)
(0.38612 0.0156476 0)
(0.335536 0.0298732 0)
(0.25902 0.0585925 0)
(0.195432 0.143088 0)
(-0.0296655 0.0209899 0)
(-0.0592592 -0.00495663 0)
(-0.0526294 -0.0216873 0)
(-0.0245784 -0.0390023 0)
(0.0248911 -0.0442879 0)
(0.0532984 -0.0247491 0)
(0.0751469 -0.0149174 0)
(0.0880372 -0.0110704 0)
(0.0949336 -0.00900396 0)
(0.0990056 -0.00691745 0)
(0.100798 -0.00498123 0)
(0.100187 -0.00336916 0)
(0.097735 -0.0018869 0)
(0.0934418 -0.000121084 0)
(0.0864181 0.00239246 0)
(0.0752546 0.00599981 0)
(0.0585539 0.0121025 0)
(0.0213912 0.0282391 0)
(0.241531 0.241789 0)
(0.192699 -0.235531 0)
(0.267539 -0.22468 0)
(0.345478 -0.145896 0)
(0.394833 -0.0853121 0)
(0.423037 -0.0466993 0)
(0.437395 -0.0197902 0)
(0.441991 0.00141435 0)
(0.436676 0.0188637 0)
(0.422335 0.0341881 0)
(0.399316 0.0490344 0)
(0.367905 0.065317 0)
(0.329824 0.0860291 0)
(0.290844 0.116992 0)
(0.269324 0.177092 0)
(0.269722 0.151614 0)
(0.168243 0.122483 0)
(0.0481874 0.106353 0)
(0.0152761 0.0527208 0)
(-0.0321675 0.0132489 0)
(-0.00635314 -0.0282909 0)
(0.0215124 -0.0602664 0)
(0.0442664 -0.065732 0)
(0.0590036 -0.0337733 0)
(0.0642663 -0.0136231 0)
(0.0661551 -0.00691499 0)
(0.067242 -0.00468144 0)
(0.069097 -0.00164336 0)
(0.0692964 0.00170667 0)
(0.0668987 0.00432164 0)
(0.0638924 0.00652585 0)
(0.0606917 0.00918763 0)
(0.0559433 0.0137788 0)
(0.0478858 0.0202831 0)
(0.0387269 0.0305045 0)
(-0.0168204 0.0556009 0)
(0.752137 -0.188356 0)
(0.311761 -0.321794 0)
(0.331691 -0.263658 0)
(0.364912 -0.176071 0)
(0.365582 -0.111863 0)
(0.363547 -0.0685131 0)
(0.363856 -0.036539 0)
(0.363869 -0.00965633 0)
(0.357223 0.0159269 0)
(0.345478 0.0406168 0)
(0.32887 0.0648669 0)
(0.308018 0.0896107 0)
(0.284737 0.116161 0)
(0.262014 0.145433 0)
(0.246115 0.176092 0)
(0.226764 0.146436 0)
(0.166267 0.131568 0)
(0.0800591 0.156114 0)
(0.0730995 0.04882 0)
(0.00791298 -0.021713 0)
(0.0393519 -0.0542602 0)
(0.0545352 -0.0781548 0)
(0.0658482 -0.0910643 0)
(0.0712593 -0.0658562 0)
(0.0445103 -0.0372634 0)
(0.0218621 -0.0217521 0)
(0.0119886 -0.0143053 0)
(0.00688154 -0.00664947 0)
(0.00827074 -0.000636032 0)
(0.0124716 0.00195479 0)
(0.0167864 0.00372858 0)
(0.0235269 0.00801598 0)
(0.0305903 0.0184933 0)
(0.029545 0.0288535 0)
(0.033649 0.0439773 0)
(-0.0516503 0.0801513 0)
(0.870262 -0.47059 0)
(0.0738518 -0.391373 0)
(0.212362 -0.247745 0)
(0.246177 -0.1533 0)
(0.223596 -0.095737 0)
(0.212009 -0.0555198 0)
(0.211037 -0.025019 0)
(0.21335 0.00243953 0)
(0.217936 0.0290026 0)
(0.219752 0.0551684 0)
(0.218024 0.0812225 0)
(0.212879 0.10735 0)
(0.205207 0.133589 0)
(0.195997 0.159252 0)
(0.189622 0.182019 0)
(0.182028 0.175811 0)
(0.167433 0.173217 0)
(0.148542 0.191413 0)
(0.167193 0.15849 0)
(0.0943296 0.0690874 0)
(0.0835147 0.0105012 0)
(0.0884058 -0.0421527 0)
(0.0830132 -0.0737649 0)
(0.0651133 -0.0844766 0)
(0.0589857 -0.0472578 0)
(0.0851132 -0.0283138 0)
(0.104505 -0.0184308 0)
(0.112932 -0.0126095 0)
(0.115224 -0.00851048 0)
(0.11399 -0.00506456 0)
(0.109634 -0.00174923 0)
(0.101432 0.0020304 0)
(0.0890364 0.00699339 0)
(0.069135 0.0191794 0)
(0.0507988 0.0356469 0)
(0.0496102 0.0566024 0)
(-0.0635946 0.101648 0)
(0.920245 -0.576976 0)
(-0.244665 -0.380493 0)
(0.12652 -0.223724 0)
(0.121419 -0.132824 0)
(0.0771053 -0.0858668 0)
(0.0699132 -0.053487 0)
(0.0741153 -0.0291167 0)
(0.0803761 -0.00533908 0)
(0.0928797 0.0213513 0)
(0.102151 0.049962 0)
(0.108994 0.0792687 0)
(0.113659 0.108078 0)
(0.116842 0.135644 0)
(0.119253 0.161232 0)
(0.124706 0.18352 0)
(0.12992 0.1878 0)
(0.134368 0.185572 0)
(0.137588 0.177852 0)
(0.146534 0.113441 0)
(0.128993 0.0552451 0)
(0.129752 0.00314081 0)
(0.124527 -0.0381497 0)
(0.11069 -0.0609564 0)
(0.092028 -0.0621272 0)
(0.0824562 -0.037789 0)
(0.0852744 -0.0192933 0)
(0.0886756 -0.00904446 0)
(0.0886446 -0.00290074 0)
(0.0861303 0.00180139 0)
(0.082544 0.00600951 0)
(0.0784553 0.0103397 0)
(0.0735742 0.0157054 0)
(0.0678819 0.0234227 0)
(0.0613042 0.0355925 0)
(0.0534298 0.0509026 0)
(0.0655969 0.0715808 0)
(0.0191862 0.106776 0)
(0.0721842 0.126074 0)
(-0.05359 0.0468737 0)
(-0.254756 -0.00685588 0)
(0.916709 -0.591694 0)
(-0.387771 -0.375571 0)
(0.0853985 -0.242461 0)
(0.0191952 -0.105182 0)
(-0.0332013 -0.0747865 0)
(-0.0292903 -0.0550717 0)
(-0.024549 -0.037151 0)
(-0.0189738 -0.0165036 0)
(-0.00885845 0.0093921 0)
(-4.71588e-05 0.0399227 0)
(0.00947102 0.071328 0)
(0.0190214 0.101139 0)
(0.0291295 0.128966 0)
(0.0400715 0.153987 0)
(0.0546113 0.174665 0)
(0.0684094 0.179889 0)
(0.081892 0.174809 0)
(0.0964774 0.157724 0)
(0.112532 0.103942 0)
(0.118377 0.0522331 0)
(0.122514 0.00623543 0)
(0.116264 -0.0276798 0)
(0.101457 -0.0447152 0)
(0.0829654 -0.0448689 0)
(0.0680453 -0.0309799 0)
(0.0602409 -0.0170162 0)
(0.0559106 -0.00774425 0)
(0.0522667 -0.00156337 0)
(0.0489441 0.00323457 0)
(0.0469786 0.00737403 0)
(0.0460105 0.0117332 0)
(0.0458811 0.0174224 0)
(0.0466902 0.0256515 0)
(0.04887 0.0375971 0)
(0.0514104 0.0527193 0)
(0.0678949 0.072373 0)
(0.0636873 0.0900584 0)
(0.0959914 0.0898143 0)
(0.1059 0.0567786 0)
(-0.112955 -0.00694174 0)
(0.821934 -0.537665 0)
(-0.338823 -0.341869 0)
(-0.0469399 -0.227786 0)
(-0.0653696 -0.0739516 0)
(-0.118219 -0.0700057 0)
(-0.112451 -0.0587013 0)
(-0.108939 -0.0427944 0)
(-0.1051 -0.0223145 0)
(-0.0992358 0.00293911 0)
(-0.0920106 0.0314029 0)
(-0.0823235 0.0605652 0)
(-0.0702855 0.0888631 0)
(-0.0559243 0.115143 0)
(-0.0391513 0.138223 0)
(-0.0183567 0.156357 0)
(0.00312392 0.161248 0)
(0.0245923 0.154944 0)
(0.0478867 0.136597 0)
(0.0690579 0.0918515 0)
(0.0821543 0.0451334 0)
(0.0857096 0.00639041 0)
(0.079152 -0.0181638 0)
(0.0642157 -0.0287289 0)
(0.0460906 -0.0275809 0)
(0.0302994 -0.0185412 0)
(0.0198439 -0.00889201 0)
(0.0139179 -0.00212543 0)
(0.010405 0.00220876 0)
(0.00961978 0.00505996 0)
(0.0105511 0.00746145 0)
(0.0130496 0.010369 0)
(0.017164 0.0146841 0)
(0.0231208 0.0213013 0)
(0.0313939 0.0309241 0)
(0.0412278 0.0431788 0)
(0.0593135 0.0587174 0)
(0.073874 0.0680992 0)
(0.102818 0.063411 0)
(0.141519 0.0538106 0)
(-0.039408 0.0907878 0)
(0.634782 -0.424404 0)
(-0.364197 -0.272411 0)
(-0.253873 -0.223911 0)
(-0.150242 -0.068334 0)
(-0.208168 -0.0768149 0)
(-0.192745 -0.0650501 0)
(-0.187694 -0.0474307 0)
(-0.184973 -0.0263442 0)
(-0.181585 -0.00231813 0)
(-0.174353 0.0235855 0)
(-0.164697 0.0496086 0)
(-0.151292 0.0746692 0)
(-0.134219 0.0976611 0)
(-0.113405 0.117238 0)
(-0.088411 0.131364 0)
(-0.0616967 0.135362 0)
(-0.0341627 0.129483 0)
(-0.00450784 0.111531 0)
(0.0193898 0.0708515 0)
(0.0312671 0.0341661 0)
(0.0315676 0.00785161 0)
(0.0245638 -0.00708527 0)
(0.0105788 -0.0127488 0)
(-0.0056027 -0.0112822 0)
(-0.0179452 -0.00627438 0)
(-0.0255888 -0.00162529 0)
(-0.0295175 0.00131071 0)
(-0.0303371 0.00274859 0)
(-0.0294235 0.00340636 0)
(-0.0271475 0.00390887 0)
(-0.0234826 0.00470961 0)
(-0.0182313 0.00626587 0)
(-0.0110662 0.00906127 0)
(-0.00120307 0.0135842 0)
(0.0112418 0.019386 0)
(0.0284452 0.0258243 0)
(0.04636 0.0241092 0)
(0.0706311 0.0120806 0)
(0.13486 0.0485418 0)
(-0.373892 0.187053 0)
(0.381212 -0.333885 0)
(-0.554408 -0.304852 0)
(-0.634188 -0.317954 0)
(-0.197562 -0.146195 0)
(-0.279503 -0.100015 0)
(-0.254527 -0.0733335 0)
(-0.250786 -0.0504635 0)
(-0.25097 -0.0289124 0)
(-0.250026 -0.00728517 0)
(-0.24477 0.015021 0)
(-0.235429 0.0371318 0)
(-0.221297 0.0580071 0)
(-0.202426 0.0767517 0)
(-0.17895 0.0921268 0)
(-0.15125 0.102291 0)
(-0.121193 0.104424 0)
(-0.0903674 0.0976632 0)
(-0.0606214 0.0808663 0)
(-0.0399373 0.0532383 0)
(-0.0313347 0.0300594 0)
(-0.0327457 0.0142247 0)
(-0.0401024 0.00510452 0)
(-0.0489783 0.000915735 0)
(-0.0580784 9.89209e-05 0)
(-0.0648371 0.000673377 0)
(-0.0688183 0.00129831 0)
(-0.0706681 0.00144798 0)
(-0.0716567 0.0012641 0)
(-0.0726013 0.00112066 0)
(-0.0741363 0.00142079 0)
(-0.0769046 0.00269084 0)
(-0.0816351 0.0056752 0)
(-0.0892226 0.0113324 0)
(-0.100938 0.0207345 0)
(-0.118965 0.0346661 0)
(-0.145985 0.0529176 0)
(-0.184737 0.0731046 0)
(-0.231775 0.0923748 0)
(-0.303456 0.107576 0)
(-0.567692 0.114574 0)
(-1.18623 -0.33384 0)
(-0.133702 -0.185659 0)
(-0.276858 -0.107083 0)
(-0.284933 -0.068755 0)
(-0.294122 -0.0424801 0)
(-0.300978 -0.0213018 0)
(-0.303636 -0.00265934 0)
(-0.300703 0.0144758 0)
(-0.292191 0.0305407 0)
(-0.278034 0.0454852 0)
(-0.25842 0.0586547 0)
(-0.233863 0.0690703 0)
(-0.205376 0.0753819 0)
(-0.174915 0.0760203 0)
(-0.144911 0.0705281 0)
(-0.118679 0.0593669 0)
(-0.101336 0.0446706 0)
(-0.093412 0.0326835 0)
(-0.092304 0.024186 0)
(-0.0950635 0.018883 0)
(-0.0991509 0.0164315 0)
(-0.102944 0.0160656 0)
(-0.105617 0.0166638 0)
(-0.107292 0.0175583 0)
(-0.108425 0.0184626 0)
(-0.109479 0.0192869 0)
(-0.110773 0.0200051 0)
(-0.112513 0.0207332 0)
(-0.114785 0.0218955 0)
(-0.11751 0.0243436 0)
(-0.120437 0.0293421 0)
(-0.123247 0.0383301 0)
(-0.125773 0.0521999 0)
(-0.127759 0.0697916 0)
(-0.126691 0.0848556 0)
(-0.11295 0.0798598 0)
(-0.0880706 0.0148408 0)
(-0.229732 -0.173987 0)
(-0.137944 0.0749794 0)
(-0.165059 -0.128283 0)
(-0.262071 -0.0874545 0)
(-0.302691 -0.0643233 0)
(-0.326747 -0.0489848 0)
(-0.340863 -0.0366465 0)
(-0.347232 -0.0253324 0)
(-0.346418 -0.0139534 0)
(-0.33894 -0.00275032 0)
(-0.325234 0.00708302 0)
(-0.305736 0.0152335 0)
(-0.281312 0.0211628 0)
(-0.253354 0.0241174 0)
(-0.223919 0.0233558 0)
(-0.195519 0.018713 0)
(-0.170971 0.0105418 0)
(-0.152817 -5.17416e-05 0)
(-0.141057 -0.0107082 0)
(-0.134247 -0.0209875 0)
(-0.130878 -0.030614 0)
(-0.129597 -0.0390122 0)
(-0.12936 -0.045818 0)
(-0.129548 -0.0511504 0)
(-0.129917 -0.0551459 0)
(-0.130356 -0.0577255 0)
(-0.130727 -0.0585776 0)
(-0.13082 -0.0572409 0)
(-0.13035 -0.0532242 0)
(-0.128915 -0.0461368 0)
(-0.125858 -0.0357429 0)
(-0.120116 -0.0218734 0)
(-0.110288 -0.0043164 0)
(-0.0950687 0.0167777 0)
(-0.0738669 0.0391875 0)
(-0.0473714 0.0555639 0)
(-0.0126055 0.0497008 0)
(0.127975 -0.0252714 0)
(-0.172829 -0.0921362 0)
(0.205097 -0.205758 0)
(-0.301859 -0.100802 0)
(-0.244889 0.0714208 0)
(-0.25326 0.0181653 0)
(-0.297747 0.0197779 0)
(-0.33475 0.026713 0)
(-0.361659 0.0329446 0)
(-0.379242 0.0381817 0)
(-0.388564 0.042622 0)
(-0.390065 0.0464851 0)
(-0.384026 0.0503769 0)
(-0.371204 0.0551097 0)
(-0.352278 0.0605735 0)
(-0.328313 0.0666638 0)
(-0.30081 0.0733063 0)
(-0.271707 0.0804953 0)
(-0.243181 0.0883421 0)
(-0.217335 0.0969739 0)
(-0.195655 0.106457 0)
(-0.17833 0.116797 0)
(-0.164841 0.127719 0)
(-0.154563 0.138658 0)
(-0.14678 0.148881 0)
(-0.140753 0.157856 0)
(-0.135855 0.165416 0)
(-0.131629 0.171514 0)
(-0.127752 0.175975 0)
(-0.12397 0.178436 0)
(-0.120038 0.178471 0)
(-0.115648 0.175806 0)
(-0.110283 0.170532 0)
(-0.102937 0.16326 0)
(-0.091854 0.155166 0)
(-0.074916 0.147986 0)
(-0.0514604 0.143858 0)
(-0.024188 0.144411 0)
(0.0207823 0.146263 0)
(0.0519816 0.143594 0)
(0.150962 0.141298 0)
(-0.304522 0.128186 0)
)
;

boundaryField
{
    floor
    {
        type            noSlip;
    }
    ceiling
    {
        type            noSlip;
    }
    sWall
    {
        type            noSlip;
    }
    nWall
    {
        type            noSlip;
    }
    sideWalls
    {
        type            empty;
    }
    glass1
    {
        type            noSlip;
    }
    glass2
    {
        type            noSlip;
    }
    sun
    {
        type            noSlip;
    }
    Table_master
    {
        type            noSlip;
    }
    Table_slave
    {
        type            noSlip;
    }
    inlet
    {
        type            fixedValue;
        value           uniform (0.191342 -0.46194 0);
    }
    outlet
    {
        type            zeroGradient;
    }
}


// ************************************************************************* //
