/*--------------------------------*- C++ -*----------------------------------*\
  =========                 |
  \\      /  F ield         | OpenFOAM: The Open Source CFD Toolbox
   \\    /   O peration     | Website:  https://openfoam.org
    \\  /    A nd           | Version:  6
     \\/     M anipulation  |
\*---------------------------------------------------------------------------*/
FoamFile
{
    version     2.0;
    format      ascii;
    class       volScalarField;
    location    "400";
    object      k;
}
// * * * * * * * * * * * * * * * * * * * * * * * * * * * * * * * * * * * * * //

dimensions      [0 2 -2 0 0 0 0];

internalField   nonuniform List<scalar> 
458
(
0.0011445
0.00126901
0.0012347
0.00132893
0.00141557
0.00149345
0.00156453
0.00163138
0.00169712
0.00176557
0.00181937
0.00185341
0.00186732
0.00187035
0.00186794
0.000648747
0.000553808
0.000462841
0.00038359
0.000321262
0.00026659
0.000215549
0.000164169
0.000115795
8.94447e-05
8.66828e-05
9.34469e-05
9.80688e-05
9.50797e-05
8.84056e-05
9.54287e-05
0.000266003
0.000171232
0.00263546
0.00497781
0.00185532
0.001883
0.00196407
0.00205689
0.00215581
0.00226538
0.00238849
0.00252275
0.00264609
0.00272058
0.00270418
0.00256455
0.00229679
0.00199311
0.00167478
0.00143139
0.000955011
0.000857783
0.000731222
0.000626676
0.000526851
0.000422998
0.000338279
0.000279796
0.000253398
0.000255117
0.000272103
0.000292087
0.000307554
0.000322571
0.000328374
0.000320598
0.000943097
0.000376973
0.00448886
0.0106831
0.00253863
0.00230204
0.00238227
0.00250311
0.00263246
0.00277906
0.00294875
0.00313488
0.0033192
0.00345393
0.00349658
0.00344868
0.00335748
0.00315965
0.00261127
0.00208121
0.00126603
0.00114785
0.000954268
0.000816751
0.000704766
0.000504248
0.000390069
0.000325973
0.000288669
0.000265306
0.000248744
0.000235751
0.000224903
0.000217632
0.000246985
0.000302073
0.00112476
0.000585332
0.00689191
0.0197313
0.00374637
0.00260397
0.00264397
0.00278528
0.00292689
0.00308164
0.00326778
0.00349311
0.00373053
0.00390169
0.00395116
0.00387838
0.00371216
0.00344122
0.00303435
0.0026749
0.00181088
0.00166201
0.00137593
0.00110342
0.000912193
0.000777687
0.00048827
0.000479142
0.000629071
0.000811779
0.00099401
0.00114854
0.00124576
0.00124973
0.00113561
0.000892851
0.000724067
0.00115062
0.00078407
0.00991914
0.0322261
0.00680975
0.00305358
0.00287031
0.00298142
0.00311562
0.0032814
0.00351229
0.00383693
0.00417963
0.00439815
0.00443258
0.00429355
0.00401676
0.00364321
0.00325014
0.00294679
0.00254846
0.00190894
0.00152998
0.00120972
0.00100757
0.000926407
0.000935289
0.00113604
0.00142009
0.00173623
0.00205008
0.00231116
0.00247298
0.00248829
0.00230452
0.00191504
0.00151593
0.00134812
0.00129378
0.00118782
0.00119614
0.00111826
0.0136726
0.0455231
0.0151691
0.00519746
0.00370823
0.00344707
0.00344143
0.00356319
0.00382241
0.00432624
0.00479837
0.00502821
0.00500523
0.00476924
0.00436861
0.00388084
0.00342281
0.00303612
0.00256839
0.00204774
0.00162075
0.00128317
0.00112263
0.00113134
0.00128096
0.0015562
0.00188931
0.00225077
0.00261192
0.00292054
0.00315305
0.00327985
0.00325204
0.0028845
0.00241597
0.0020108
0.00179902
0.00190557
0.00320085
0.00188426
0.0177739
0.054577
0.0307911
0.0149866
0.0090115
0.00616625
0.00502428
0.00470477
0.00481727
0.00541273
0.00578952
0.00585386
0.00567052
0.00528767
0.00474873
0.0041471
0.00361563
0.00317881
0.00269537
0.00215965
0.00166725
0.00135222
0.00125521
0.00133915
0.00156381
0.00187639
0.00223119
0.00260209
0.0029697
0.0033137
0.00362586
0.00390644
0.00417097
0.00429065
0.00397406
0.00370151
0.00365508
0.00379893
0.005311
0.00297838
0.0186936
0.0559666
0.0406567
0.034232
0.0250008
0.01702
0.0121289
0.00953924
0.008385
0.00782885
0.00738826
0.00693917
0.00642413
0.00580612
0.00508378
0.00435406
0.0037687
0.00332489
0.0028159
0.00219978
0.00166843
0.00140532
0.00136911
0.00150077
0.00175295
0.00207358
0.00243082
0.00280551
0.00318402
0.00356114
0.00394871
0.00438214
0.00493193
0.00568358
0.00659652
0.00758232
0.00907677
0.00972533
0.0147284
0.00436338
0.0177942
0.0251646
0.024899
0.0232413
0.021429
0.0185927
0.0155706
0.0130561
0.011268
0.00987702
0.00879844
0.00788817
0.00703263
0.00614972
0.00521401
0.00436782
0.00380512
0.0034368
0.0028833
0.00213279
0.00163902
0.00145245
0.00146445
0.00161211
0.00185525
0.00216058
0.00250556
0.0028737
0.0032462
0.00360937
0.00396335
0.00432114
0.00469947
0.00511075
0.00556229
0.00603948
0.00640924
0.00655656
0.00670489
0.00402809
0.0131683
0.0246863
0.0208784
0.0184159
0.0161228
0.0140376
0.0122737
0.0107706
0.00943384
0.00822868
0.00710571
0.00600378
0.00489567
0.00405165
0.00372737
0.00359391
0.00291685
0.00209208
0.00171509
0.0016195
0.00166304
0.00180094
0.00201219
0.00228397
0.0026054
0.00296514
0.00333457
0.00367896
0.00400274
0.0043338
0.00469418
0.00508015
0.00542011
0.00561401
0.00557116
0.0052399
0.00467544
0.0028933
0.0110096
0.0223533
0.0197745
0.0179685
0.0160151
0.0139727
0.0120411
0.0103044
0.00875964
0.00735609
0.0061114
0.00496963
0.00386915
0.00338315
0.00389721
0.00437338
0.00378853
0.0029663
0.00244599
0.00223999
0.00223703
0.00236845
0.00260367
0.00292551
0.00331798
0.00374059
0.00412114
0.00441023
0.00462465
0.00482711
0.00501442
0.00523096
0.00551512
0.00573469
0.00568969
0.00544956
0.00524122
0.00305709
0.00645239
0.00780361
0.00897992
0.0103922
0.0108014
0.010397
0.00921498
0.00766486
0.00639554
0.00525425
0.00429721
0.00356606
0.0029362
0.00234333
0.00173653
0.00117166
0.00125831
0.00134315
0.0012666
0.00117914
0.00113725
0.00113216
0.00115757
0.00120613
0.0012714
0.00134699
0.00142517
0.00149671
0.00155288
0.00160474
0.0016619
0.00173824
0.00192533
0.00224093
0.00268815
0.00305135
0.003153
0.00291074
0.00252412
0.00212275
)
;

boundaryField
{
    floor
    {
        type            kqRWallFunction;
        value           nonuniform List<scalar> 
36
(
0.00186794
0.000648747
0.000553808
0.000462841
0.00038359
0.000321262
0.00026659
0.000215549
0.000164169
0.000115795
8.94447e-05
8.66828e-05
9.34469e-05
9.80688e-05
9.50797e-05
8.84056e-05
9.54287e-05
0.000266003
0.000171232
0.000171232
0.000376973
0.000585332
0.00078407
0.00118782
0.00119614
0.00111826
0.00186794
0.00199311
0.00167478
0.00143139
0.000648747
0.00143139
0.000955011
0.00208121
0.00126603
0.00181088
)
;
    }
    ceiling
    {
        type            kqRWallFunction;
        value           nonuniform List<scalar> 
43
(
0.00645239
0.00780361
0.00897992
0.0103922
0.0108014
0.010397
0.00921498
0.00766486
0.00639554
0.00525425
0.00429721
0.00356606
0.0029362
0.00234333
0.00173653
0.00117166
0.00125831
0.00134315
0.0012666
0.00117914
0.00113725
0.00113216
0.00115757
0.00120613
0.0012714
0.00134699
0.00142517
0.00149671
0.00155288
0.00160474
0.0016619
0.00173824
0.00192533
0.00224093
0.00268815
0.00305135
0.003153
0.00291074
0.00252412
0.00212275
0.0177942
0.0251646
0.0110096
)
;
    }
    sWall
    {
        type            kqRWallFunction;
        value           uniform 0.00645239;
    }
    nWall
    {
        type            kqRWallFunction;
        value           nonuniform List<scalar> 6(0.00111826 0.00188426 0.00297838 0.0028933 0.00305709 0.00212275);
    }
    sideWalls
    {
        type            empty;
    }
    glass1
    {
        type            kqRWallFunction;
        value           nonuniform List<scalar> 9(0.0011445 0.00263546 0.00448886 0.00689191 0.00991914 0.0136726 0.0177739 0.0186936 0.0177942);
    }
    glass2
    {
        type            kqRWallFunction;
        value           nonuniform List<scalar> 2(0.00436338 0.00402809);
    }
    sun
    {
        type            kqRWallFunction;
        value           nonuniform List<scalar> 
14
(
0.0011445
0.00126901
0.0012347
0.00132893
0.00141557
0.00149345
0.00156453
0.00163138
0.00169712
0.00176557
0.00181937
0.00185341
0.00186732
0.00187035
)
;
    }
    Table_master
    {
        type            kqRWallFunction;
        value           nonuniform List<scalar> 9(0.000504248 0.000390069 0.000325973 0.000288669 0.000265306 0.000248744 0.000235751 0.000224903 0.000217632);
    }
    Table_slave
    {
        type            kqRWallFunction;
        value           nonuniform List<scalar> 9(0.00048827 0.000479142 0.000629071 0.000811779 0.00099401 0.00114854 0.00124576 0.00124973 0.00113561);
    }
    inlet
    {
        type            turbulentIntensityKineticEnergyInlet;
        intensity       0.05;
        value           uniform 0.0024;
    }
    outlet
    {
        type            zeroGradient;
    }
}


// ************************************************************************* //
