/*--------------------------------*- C++ -*----------------------------------*\
  =========                 |
  \\      /  F ield         | OpenFOAM: The Open Source CFD Toolbox
   \\    /   O peration     | Website:  https://openfoam.org
    \\  /    A nd           | Version:  6
     \\/     M anipulation  |
\*---------------------------------------------------------------------------*/
FoamFile
{
    version     2.0;
    format      ascii;
    class       surfaceScalarField;
    location    "400";
    object      phi;
}
// * * * * * * * * * * * * * * * * * * * * * * * * * * * * * * * * * * * * * //

dimensions      [1 0 -1 0 0 0 0];

internalField   nonuniform List<scalar> 
850
(
-0.00262688
0.00268567
-0.00319672
0.000569832
-0.00377229
0.000575561
-0.00431291
0.000540621
-0.00478042
0.000467499
-0.00515814
0.000377721
-0.00542991
0.000271763
-0.00557557
0.000145663
-0.00557067
-4.90016e-06
-0.00538379
-0.000186886
-0.00498704
-0.000396746
-0.0043644
-0.000622646
-0.00348126
-0.000883139
-0.00216847
-0.00131279
-0.00216714
0.000671788
-0.00066983
0.00106895
-0.000397159
0.00122269
-0.00015372
0.00123585
-1.312e-05
0.0011575
7.8408e-05
0.000998641
0.000158932
0.000767905
0.000230856
0.000509221
0.000258894
0.000322743
0.000186755
0.000233578
8.9356e-05
0.000200743
3.29335e-05
0.000197636
3.17156e-06
0.000207303
-9.60429e-06
0.000210629
-3.26647e-06
0.000204926
5.75857e-06
0.00023416
-2.91789e-05
0.000405818
-0.000171589
0.0004098
-0.00191435
0.0047564
-0.00267624
0.00133172
-0.00335519
0.00125451
-0.00392109
0.00110652
-0.00440108
0.000947491
-0.00479568
0.000772327
-0.00509372
0.000569809
-0.00527745
0.000329396
-0.00532538
4.30343e-05
-0.00522198
-0.000290282
-0.00495918
-0.00065954
-0.00453799
-0.00104383
-0.00397912
-0.001442
-0.00344522
-0.00184669
-0.00366601
-0.00194635
-0.0022844
-0.00137902
-0.00109593
-0.00118568
-0.00108845
0.000590668
-0.00125531
0.00083456
-0.00064106
0.000953519
-0.000272683
0.00101725
-7.68456e-05
0.00104264
5.30389e-05
0.00105304
0.000148571
0.00108106
0.000202902
0.00113362
0.000206432
0.00116615
0.000154347
0.00116288
9.27317e-05
0.00114085
5.50596e-05
0.00110635
3.77847e-05
0.00106436
3.24991e-05
0.000998499
6.27219e-05
0.000829144
0.000175236
0.000521766
0.000278311
0.00018672
0.000163547
0.000605747
-0.00139337
0.00638576
-0.0021642
0.00210255
-0.00278672
0.00187703
-0.00327891
0.00159871
-0.00370228
0.00137087
-0.0040601
0.00113016
-0.00433958
0.000849297
-0.00452173
0.000511556
-0.00458519
0.00010651
-0.00450906
-0.000366402
-0.00428234
-0.000886258
-0.00391639
-0.00140977
-0.00346646
-0.00189193
-0.00305508
-0.00225806
-0.0026641
-0.00233733
-0.00188423
-0.00215889
-0.00101145
-0.00205847
-0.00209329
0.000282293
-0.00152974
0.000485402
-0.000844175
0.000598279
-0.000385568
0.000675229
-0.000153799
0.000773667
-4.53995e-05
0.000922403
0.00112549
0.00133212
0.00148668
0.00157963
0.00163491
0.00167293
0.00170568
0.00176865
0.00151373
0.000430248
0.00108887
0.000703265
0.000374307
0.000878187
0.000992955
-0.00102502
0.00771191
-0.00173422
0.00281174
-0.00214392
0.00228674
-0.00249514
0.00194993
-0.00281982
0.00169556
-0.00311268
0.00142303
-0.00335654
0.00109317
-0.00352928
0.000684306
-0.00360352
0.000180765
-0.00354749
-0.000422413
-0.00334955
-0.00108419
-0.00303768
-0.00172163
-0.002673
-0.0022566
-0.00231036
-0.00262071
-0.00189504
-0.00275265
-0.00136301
-0.00269091
-0.00087808
-0.0025434
-0.000819441
-0.00215192
0.000508703
-0.00131991
0.000274634
-0.00129566
0.000296387
-0.000865929
0.000326114
-0.000415299
0.000317819
-0.000145511
0.000267816
4.59697e-06
0.000224943
4.27089e-05
0.000264068
-3.92811e-05
0.000399642
-0.000135724
0.000628157
-0.000228663
0.000936933
-0.000308924
0.00129429
-0.000357508
0.00163976
-0.000345615
0.00186681
-0.000227194
0.00182559
4.10724e-05
0.00176151
0.00049435
0.00147961
0.000985197
0.000938572
0.00141927
0.00194682
-0.000759594
0.00882623
-0.00137666
0.00342881
-0.00145593
0.00236601
-0.00161434
0.00210835
-0.00181567
0.0018969
-0.00202127
0.00162863
-0.00220249
0.00127441
-0.002338
0.000819835
-0.00240088
0.000243661
-0.00234674
-0.000476547
-0.00216876
-0.00126215
-0.00191505
-0.00197534
-0.00164067
-0.00253098
-0.00137
-0.00289137
-0.00107827
-0.00304439
-0.000761928
-0.00300725
-0.00049817
-0.00280715
-0.000261711
-0.00238838
0.00017803
-0.00175964
0.000208772
-0.00132639
0.000154379
-0.000811529
0.000103928
-0.000364848
5.47979e-05
-9.63833e-05
3.05005e-05
2.88899e-05
5.15947e-05
2.16119e-05
0.000111319
-9.90043e-05
0.000227201
-0.000251602
0.000406383
-0.000407842
0.000648978
-0.000551515
0.000941657
-0.000650185
0.0012578
-0.000661758
0.0015522
-0.000521587
0.00175186
-0.000158588
0.00184339
0.000402835
0.0018514
0.000977202
0.00180444
0.00146626
0.00234682
0.00140448
0.00179732
0.00056346
0.00139132
0.000419906
0.00145354
-0.000689813
0.00991517
-0.00117969
0.00391868
-0.000770358
0.00195668
-0.000600943
0.00193894
-0.000678264
0.00197423
-0.000817675
0.00176806
-0.000927219
0.00138396
-0.000992164
0.000884794
-0.000997657
0.000249168
-0.000907747
-0.000566444
-0.000746395
-0.00142349
-0.000571377
-0.00215035
-0.000419634
-0.00268273
-0.000295763
-0.00301524
-0.000182087
-0.00315807
-7.70792e-05
-0.00311227
-2.46848e-06
-0.00288177
6.62273e-05
-0.00245706
0.00016822
-0.00186162
0.000121431
-0.00127958
6.4931e-06
-0.000696576
-9.16725e-05
-0.000266674
-0.000158356
-2.96966e-05
-0.000182493
5.30285e-05
-0.000167025
6.14658e-06
-0.000130527
-0.000135499
-6.24698e-05
-0.000319655
4.882e-05
-0.000519129
0.000209177
-0.000711871
0.000420701
-0.000861708
0.000683263
-0.00092432
0.000994126
-0.00083245
0.00133272
-0.000497179
0.00164081
9.47495e-05
0.00190046
0.000717568
0.00219876
0.00116797
0.00239558
0.0012077
0.00202314
0.000935923
0.0012213
0.00122178
0.00272368
-0.000829755
0.0111834
-0.000837213
0.00392613
0.000297331
0.000822127
0.000796931
0.00143934
0.00076206
0.00200911
0.000631754
0.00189837
0.00055971
0.00145602
0.000560939
0.000883576
0.000650915
0.000159202
0.000789848
-0.000705366
0.000900435
-0.00153407
0.000944542
-0.00219445
0.000920028
-0.00265822
0.000845416
-0.00294064
0.000745156
-0.00305782
0.000628128
-0.00299525
0.000493616
-0.00274726
0.000357186
-0.00232062
0.000232165
-0.00173657
4.77512e-05
-0.00109514
-0.000142434
-0.000506368
-0.000276017
-0.000133075
-0.000360972
5.52674e-05
-0.000404934
9.69976e-05
-0.000424087
2.53051e-05
-0.000433908
-0.000125674
-0.000432948
-0.000320611
-0.00041433
-0.000537746
-0.000370547
-0.000755655
-0.000288844
-0.000943412
-0.000151994
-0.00106117
6.82144e-05
-0.00105266
0.000403083
-0.000832045
0.00084497
-0.000347132
0.00129097
0.000271581
0.00170319
0.000755761
0.00204822
0.000862683
0.00219889
0.00078528
0.0018165
0.00160419
0.00458856
0.00231067
0.00936209
0.0028739
0.0033629
0.00360296
9.30605e-05
0.0034635
0.00157879
0.00312343
0.00234919
0.00286543
0.00215637
0.0027163
0.00160515
0.00267598
0.000923903
0.0027445
9.06986e-05
0.00280172
-0.000762582
0.00273839
-0.00147074
0.0025488
-0.00200486
0.00226998
-0.00237941
0.00194426
-0.00261494
0.00160441
-0.00271798
0.0012574
-0.00264825
0.000906274
-0.00239613
0.000565957
-0.00198029
0.000246124
-0.00141672
-7.04028e-05
-0.000778583
-0.000306215
-0.00027053
-0.000456379
1.71086e-05
-0.00055007
0.000148972
-0.000614806
0.000161742
-0.000673761
8.42668e-05
-0.000742262
-5.71696e-05
-0.000824515
-0.000238356
-0.000919585
-0.000442677
-0.0010234
-0.000651841
-0.00112658
-0.000840235
-0.00121039
-0.000977362
-0.00124005
-0.00102301
-0.00114377
-0.000928321
-0.000829056
-0.000661839
-0.000345333
-0.000212134
0.000118612
0.000291827
0.000460413
0.000520898
0.000704268
0.000541441
0.000420449
0.00188803
0.00524856
0.00989529
0.0132479
0.0133196
2.13882e-05
0.0110698
0.00382862
0.00936586
0.00405308
0.00806081
0.00346142
0.00709984
0.00256613
0.00644958
0.00157416
0.00589998
0.000640301
0.00530602
-0.000168625
0.00467162
-0.000836338
0.00402422
-0.00135748
0.00338631
-0.00174151
0.00277817
-0.00200682
0.00221031
-0.00215013
0.0016508
-0.00208874
0.00109549
-0.00184082
0.000570244
-0.00145502
9.54235e-05
-0.000941863
-0.000278382
-0.000404741
-0.000501151
-4.77344e-05
-0.000624418
0.000140396
-0.000696411
0.000220979
-0.000758132
0.000223473
-0.000836893
0.000163034
-0.000949331
5.52715e-05
-0.00110368
-8.40067e-05
-0.00130777
-0.000238593
-0.00157135
-0.00038826
-0.00190601
-0.000505576
-0.0023197
-0.000563672
-0.00281336
-0.000529349
-0.00337514
-0.000366538
-0.0039777
-5.92767e-05
-0.00459393
0.000404104
-0.00529976
0.000997659
-0.00637296
0.00159411
-0.0077897
0.00195819
-0.00730382
0.00140216
-0.0017908
0.00291756
0.000514486
0.00492839
0.0018178
0.00596221
0.00301926
0.00617724
0.00324639
0.00609527
0.00264809
0.00592979
0.00173964
0.00569224
0.000877843
0.00533515
0.000188451
0.00483825
-0.000339444
0.00423044
-0.000749679
0.00356471
-0.00107578
0.0028986
-0.00134073
0.00227763
-0.00152917
0.00160877
-0.00141988
0.000903665
-0.0011357
0.000233793
-0.000785123
-0.000288819
-0.000419213
-0.000584055
-0.000109476
-0.000715679
8.39134e-05
-0.00076031
0.000185044
-0.000771494
0.000232175
-0.000782102
0.000234091
-0.0008179
0.000198838
-0.000898742
0.000136116
-0.00103436
5.16072e-05
-0.00122689
-4.60578e-05
-0.00147769
-0.000137464
-0.00178499
-0.000198282
-0.00213257
-0.000216093
-0.00249056
-0.000171362
-0.00282517
-3.19284e-05
-0.00311765
0.00023321
-0.00334484
0.000631296
-0.00347125
0.00112407
-0.00348415
0.00160701
-0.00321244
0.00168648
-0.00176238
-4.78882e-05
-0.00348638
-0.00104422
0.00159816
6.90794e-05
0.000704516
0.00139855
0.00168979
0.00256082
0.00208412
0.00336807
0.00184084
0.00389196
0.00121576
0.00412558
0.000644215
0.00410091
0.000213115
0.00385763
-9.61643e-05
0.00343438
-0.000326438
0.00287683
-0.000518237
0.00224583
-0.000709728
0.00167614
-0.000959493
0.00100523
-0.000748954
0.000237437
-0.000367874
-0.000365673
-0.000181971
-0.000739112
-4.57442e-05
-0.00089111
4.25448e-05
-0.000911927
0.000104748
-0.000874355
0.000147486
-0.000808804
0.000166634
-0.000740152
0.000165445
-0.000689053
0.000147743
-0.000671019
0.000118084
-0.000699602
8.01898e-05
-0.000787176
4.15159e-05
-0.00093262
7.97745e-06
-0.00111305
-1.78522e-05
-0.00129916
-2.99827e-05
-0.00146154
-8.99127e-06
-0.00155235
5.88857e-05
-0.0015365
0.00021736
-0.00137539
0.000470187
-0.00100924
0.000757924
-0.000254455
0.000852236
0.000967594
0.000464441
0.0014976
-0.000577891
-0.00191607
-0.00476764
-0.00721019
-0.00559167
-0.0048764
-0.00317991
-0.00109204
0.000750222
0.00196607
0.00260973
0.00282188
0.00272443
0.00239639
0.00187618
0.00116406
0.000201478
-0.000553571
-0.000929674
-0.00112058
-0.00117602
-0.00114381
-0.00104978
-0.000913246
-0.000757634
-0.000603172
-0.000466294
-0.000358911
-0.000289243
-0.000258085
-0.000260346
-0.000288337
-0.000328363
-0.00034728
-0.000298009
-8.97856e-05
0.00037184
0.00112159
0.00196573
0.00242177
0.00183495
)
;

boundaryField
{
    floor
    {
        type            calculated;
        value           nonuniform List<scalar> 
36
(
0
0
0
0
0
0
0
0
0
0
0
0
0
0
0
0
0
0
0
-3.92618e-06
-9.16962e-06
-1.28149e-05
-1.52202e-05
-1.39142e-05
-1.38635e-05
-1.39366e-05
-1.33639e-06
-2.58497e-06
-2.7841e-06
-2.96281e-06
-1.95871e-06
-4.52051e-06
-5.19297e-06
-6.59826e-06
-7.86815e-06
-8.21942e-06
)
;
    }
    ceiling
    {
        type            calculated;
        value           nonuniform List<scalar> 
43
(
-2.21018e-05
-2.14639e-05
-2.03489e-05
-1.0742e-05
-6.69397e-06
-3.74075e-06
-1.42128e-06
-9.12884e-08
5.57956e-07
9.63505e-07
1.28378e-06
1.61246e-06
1.97007e-06
2.39663e-06
3.09049e-06
6.17357e-06
8.26494e-06
8.95893e-06
9.71699e-06
1.03388e-05
1.07358e-05
1.09548e-05
1.10261e-05
1.09853e-05
1.08659e-05
1.06997e-05
1.05184e-05
1.03541e-05
1.02346e-05
1.01356e-05
1.00414e-05
9.92557e-06
9.61462e-06
9.13544e-06
8.56242e-06
8.17425e-06
8.10212e-06
8.4034e-06
8.92707e-06
1.02567e-05
1.36468e-05
1.02411e-05
-3.94601e-05
)
;
    }
    sWall
    {
        type            calculated;
        value           uniform -0.000240017;
    }
    nWall
    {
        type            calculated;
        value           nonuniform List<scalar> 6(-4.82455e-05 -4.88009e-05 -4.83562e-05 -6.68019e-05 -7.27e-05 -9.13704e-05);
    }
    sideWalls
    {
        type            empty;
        value           nonuniform 0();
    }
    glass1
    {
        type            calculated;
        value           nonuniform List<scalar> 9(-5.88032e-05 -0.000156397 -0.000236002 -0.000301143 -0.000354734 -0.000399134 -0.000438505 -0.000489347 -0.000546847);
    }
    glass2
    {
        type            calculated;
        value           nonuniform List<scalar> 2(-0.000239527 -0.000264449);
    }
    sun
    {
        type            calculated;
        value           uniform 0;
    }
    Table_master
    {
        type            calculated;
        value           nonuniform List<scalar> 9(-1.52935e-07 -1.52918e-07 -1.5288e-07 -1.52857e-07 -1.52851e-07 -1.52856e-07 -1.52866e-07 -1.5288e-07 -1.52886e-07);
    }
    Table_slave
    {
        type            calculated;
        value           nonuniform List<scalar> 9(1.53066e-07 1.53082e-07 1.53016e-07 1.52922e-07 1.52805e-07 1.52677e-07 1.52559e-07 1.52486e-07 1.52497e-07);
    }
    inlet
    {
        type            calculated;
        value           uniform -0.00341064;
    }
    outlet
    {
        type            calculated;
        value           nonuniform List<scalar> 2(0.00502976 0.00246402);
    }
}


// ************************************************************************* //
