/*--------------------------------*- C++ -*----------------------------------*\
  =========                 |
  \\      /  F ield         | OpenFOAM: The Open Source CFD Toolbox
   \\    /   O peration     | Website:  https://openfoam.org
    \\  /    A nd           | Version:  6
     \\/     M anipulation  |
\*---------------------------------------------------------------------------*/
FoamFile
{
    version     2.0;
    format      ascii;
    class       volScalarField;
    location    "1800";
    object      epsilon;
}
// * * * * * * * * * * * * * * * * * * * * * * * * * * * * * * * * * * * * * //

dimensions      [0 2 -3 0 0 0 0];

internalField   nonuniform List<scalar> 
458
(
0.000202385
0.000244663
0.000243378
0.000273554
0.000302497
0.000329844
0.000356202
0.000382532
0.000410315
0.000434538
0.000449925
0.000452704
0.000442246
0.000424252
0.000405461
2.15803e-05
4.64426e-05
4.56542e-05
4.16589e-05
3.71774e-05
3.2315e-05
2.79296e-05
2.42654e-05
2.12399e-05
1.87408e-05
1.66598e-05
1.48956e-05
1.33662e-05
1.19954e-05
1.07039e-05
9.38745e-06
8.30386e-06
6.29869e-06
0.000623961
0.00112754
0.000230513
0.00020999
0.000212209
0.000217759
0.00022652
0.000240469
0.000261767
0.000286792
0.000309103
0.000321738
0.000321067
0.000316082
0.000340708
0.000443953
0.000289839
0.00018774
8.5186e-05
6.87637e-05
5.40307e-05
4.30665e-05
3.49903e-05
3.09677e-05
2.55857e-05
2.10511e-05
1.74335e-05
1.4573e-05
1.23132e-05
1.05041e-05
9.04863e-06
7.96e-06
7.49275e-06
7.62427e-06
1.66806e-05
1.21552e-05
0.00129304
0.00330047
0.000335594
0.00020679
0.000204539
0.000215692
0.000233152
0.000258139
0.000291435
0.000330004
0.000364214
0.000382721
0.000380758
0.00036648
0.000356605
0.000343482
0.00028032
0.000395648
0.000189278
0.000104724
6.92433e-05
5.00514e-05
4.02115e-05
7.14311e-05
5.20152e-05
3.89403e-05
3.00557e-05
2.38921e-05
1.95182e-05
1.63492e-05
1.40371e-05
1.24037e-05
9.81709e-06
8.69198e-06
2.75331e-05
1.78936e-05
0.00233711
0.00744548
0.000647564
0.000219608
0.000202335
0.000218254
0.000242755
0.000277315
0.000325191
0.000382551
0.000429571
0.000449203
0.000439478
0.000411602
0.000377793
0.000334977
0.000270353
0.00025554
0.000372471
0.000194342
0.000106112
6.73053e-05
4.81092e-05
3.99978e-05
8.74484e-05
7.15012e-05
6.3192e-05
5.80736e-05
5.37486e-05
4.8831e-05
4.39508e-05
3.89523e-05
3.32671e-05
2.09314e-05
1.39486e-05
3.96827e-05
2.44082e-05
0.00389353
0.013769
0.00150533
0.000282811
0.000206642
0.000217772
0.000246198
0.000294319
0.000373966
0.000468438
0.000531848
0.000546339
0.000520333
0.000471631
0.000413542
0.000344347
0.000266512
0.000201247
0.000154197
0.000108766
7.64854e-05
5.55255e-05
4.34591e-05
3.74664e-05
3.78386e-05
3.85074e-05
3.9319e-05
3.94842e-05
3.83867e-05
3.57179e-05
3.23295e-05
2.91819e-05
2.63945e-05
2.19172e-05
1.70555e-05
2.98724e-05
3.87315e-05
5.99538e-05
9.03469e-05
0.000117112
0.00614944
0.0206064
0.00386393
0.000655753
0.000317759
0.000270099
0.00027881
0.000331713
0.000483663
0.000627592
0.000692187
0.00068343
0.00062869
0.000552071
0.000468431
0.000380371
0.000289357
0.000205603
0.000139289
9.5979e-05
6.91907e-05
5.30173e-05
4.50408e-05
4.24376e-05
4.3685e-05
4.68477e-05
5.00142e-05
5.20702e-05
5.21387e-05
4.92611e-05
4.27921e-05
3.57698e-05
2.95114e-05
2.41848e-05
2.04526e-05
2.44868e-05
3.39109e-05
4.74062e-05
0.000132699
0.00012444
0.00902738
0.024637
0.00905658
0.00286719
0.00138323
0.000830925
0.000638351
0.000626036
0.000834259
0.000938142
0.000938922
0.000871908
0.000768534
0.000653988
0.000542523
0.000434234
0.000325728
0.000224486
0.000144478
9.43689e-05
6.89626e-05
5.71005e-05
5.33605e-05
5.37332e-05
5.65274e-05
6.10218e-05
6.59508e-05
7.05922e-05
7.40765e-05
7.47971e-05
7.01691e-05
5.9178e-05
4.88203e-05
4.05306e-05
3.62921e-05
3.85515e-05
5.00588e-05
7.65492e-05
0.000162966
0.000165661
0.00978125
0.0284428
0.0156438
0.0106618
0.00663459
0.00400247
0.00264038
0.00204766
0.0017428
0.00152034
0.00131864
0.00111931
0.000929562
0.000762255
0.000620499
0.000491648
0.000362655
0.000241607
0.000148851
9.53379e-05
7.70403e-05
7.11269e-05
7.01569e-05
7.13302e-05
7.3948e-05
7.80587e-05
8.37428e-05
9.12309e-05
0.000100646
0.00011169
0.000123202
0.000129332
0.000129391
0.000136757
0.000157765
0.000221759
0.000376527
0.000666156
0.00229227
0.000726974
0.00912995
0.015643
0.0141562
0.0108205
0.00813856
0.00598941
0.00444138
0.0034083
0.0026668
0.00212627
0.00169683
0.0013385
0.00105351
0.000841408
0.00068287
0.000539178
0.000385175
0.000242394
0.000147746
0.000112281
0.000101954
9.95389e-05
9.9001e-05
9.85819e-05
9.83388e-05
9.9119e-05
0.000102113
0.000108665
0.000120075
0.000137567
0.000162497
0.000196581
0.000242598
0.000312436
0.000419597
0.000571503
0.000756731
0.000937051
0.00108305
0.000671472
0.00639094
0.0133805
0.00865627
0.00633463
0.00484128
0.00379826
0.003006
0.00234103
0.00177921
0.00133241
0.00103307
0.000850955
0.0007256
0.000576248
0.000379656
0.000239458
0.000184564
0.000169328
0.000167023
0.000166764
0.00016452
0.000159049
0.000150588
0.000140466
0.000130837
0.000124287
0.000123402
0.000130558
0.00014816
0.000178104
0.000222263
0.000285314
0.000372007
0.000479115
0.000585017
0.00065258
0.000667602
0.000466827
0.00460081
0.00983671
0.00683784
0.0051604
0.00405021
0.00316035
0.00244014
0.00184426
0.00134177
0.00100953
0.000931763
0.000941694
0.000937709
0.000792473
0.000605319
0.000480662
0.000426514
0.000408841
0.000405253
0.000404323
0.000399465
0.000386987
0.000365415
0.000335719
0.000301286
0.000267039
0.000237956
0.00021791
0.000209397
0.00021594
0.000239838
0.000282787
0.000344983
0.000420293
0.000489817
0.000574549
0.000677632
0.000509295
0.00231387
0.00298931
0.00361821
0.00445442
0.00389787
0.00339805
0.00272796
0.0018939
0.00125381
0.000828543
0.000557633
0.000344724
0.000335756
0.000370989
0.000384998
0.000357349
0.000306368
0.000266423
0.000239942
0.000225823
0.000217214
0.000209216
0.000199994
0.000189272
0.000177882
0.000167337
0.000159343
0.000155365
0.000156477
0.000163593
0.000178049
0.000198615
0.000225352
0.000259834
0.000303526
0.000358269
0.000394922
0.00037587
0.000319966
0.000276082
)
;

boundaryField
{
    floor
    {
        Cmu             0.09;
        kappa           0.41;
        E               9.8;
        type            epsilonWallFunction;
        value           nonuniform List<scalar> 
36
(
0.000405461
2.15803e-05
4.64426e-05
4.56542e-05
4.16589e-05
3.71774e-05
3.2315e-05
2.79296e-05
2.42654e-05
2.12399e-05
1.87408e-05
1.66598e-05
1.48956e-05
1.33662e-05
1.19954e-05
1.07039e-05
9.38745e-06
8.30386e-06
6.29869e-06
6.29869e-06
1.21552e-05
1.78936e-05
2.44082e-05
5.99538e-05
9.03469e-05
0.000117112
0.000405461
0.000443953
0.000289839
0.00018774
2.15803e-05
0.00018774
8.5186e-05
0.000395648
0.000189278
0.000372471
)
;
    }
    ceiling
    {
        Cmu             0.09;
        kappa           0.41;
        E               9.8;
        type            epsilonWallFunction;
        value           nonuniform List<scalar> 
43
(
0.00231387
0.00298931
0.00361821
0.00445442
0.00389787
0.00339805
0.00272796
0.0018939
0.00125381
0.000828543
0.000557633
0.000344724
0.000335756
0.000370989
0.000384998
0.000357349
0.000306368
0.000266423
0.000239942
0.000225823
0.000217214
0.000209216
0.000199994
0.000189272
0.000177882
0.000167337
0.000159343
0.000155365
0.000156477
0.000163593
0.000178049
0.000198615
0.000225352
0.000259834
0.000303526
0.000358269
0.000394922
0.00037587
0.000319966
0.000276082
0.00912995
0.015643
0.00460081
)
;
    }
    sWall
    {
        Cmu             0.09;
        kappa           0.41;
        E               9.8;
        type            epsilonWallFunction;
        value           uniform 0.00231387;
    }
    nWall
    {
        Cmu             0.09;
        kappa           0.41;
        E               9.8;
        type            epsilonWallFunction;
        value           nonuniform List<scalar> 6(0.000117112 0.00012444 0.000165661 0.000466827 0.000509295 0.000276082);
    }
    sideWalls
    {
        type            empty;
    }
    glass1
    {
        Cmu             0.09;
        kappa           0.41;
        E               9.8;
        type            epsilonWallFunction;
        value           nonuniform List<scalar> 9(0.000202385 0.000623961 0.00129304 0.00233711 0.00389353 0.00614944 0.00902738 0.00978125 0.00912995);
    }
    glass2
    {
        Cmu             0.09;
        kappa           0.41;
        E               9.8;
        type            epsilonWallFunction;
        value           nonuniform List<scalar> 2(0.000726974 0.000671472);
    }
    sun
    {
        Cmu             0.09;
        kappa           0.41;
        E               9.8;
        type            epsilonWallFunction;
        value           nonuniform List<scalar> 
14
(
0.000202385
0.000244663
0.000243378
0.000273554
0.000302497
0.000329844
0.000356202
0.000382532
0.000410315
0.000434538
0.000449925
0.000452704
0.000442246
0.000424252
)
;
    }
    Table_master
    {
        Cmu             0.09;
        kappa           0.41;
        E               9.8;
        type            epsilonWallFunction;
        value           nonuniform List<scalar> 9(7.14311e-05 5.20152e-05 3.89403e-05 3.00557e-05 2.38921e-05 1.95182e-05 1.63492e-05 1.40371e-05 1.24037e-05);
    }
    Table_slave
    {
        Cmu             0.09;
        kappa           0.41;
        E               9.8;
        type            epsilonWallFunction;
        value           nonuniform List<scalar> 9(8.74484e-05 7.15012e-05 6.3192e-05 5.80736e-05 5.37486e-05 4.8831e-05 4.39508e-05 3.89523e-05 3.32671e-05);
    }
    inlet
    {
        type            turbulentMixingLengthDissipationRateInlet;
        mixingLength    0.01;
        phi             phi;
        k               k;
        value           uniform 0.000101881;
    }
    outlet
    {
        type            zeroGradient;
    }
}


// ************************************************************************* //
