// -*- C++ -*-
// File generated by PyFoam - sorry for the ugliness

FoamFile
{
 version 2.0;
 format ascii;
 class volVectorField;
 location "1800";
 object U;
}

dimensions [ 0 1 -1 0 0 0 0 ];

internalField nonuniform List<vector> 458
(
  (0.0551182 0.0771462 0)
  (-0.150644 0.0171236 0)
  (-0.162536 0.0147691 0)
  (-0.189468 0.0118746 0)
  (-0.212043 0.00821383 0)
  (-0.229759 0.00423885 0)
  (-0.241916 -0.000109301 0)
  (-0.247587 -0.00498748 0)
  (-0.245423 -0.0105582 0)
  (-0.234507 -0.0170909 0)
  (-0.214015 -0.0243967 0)
  (-0.183262 -0.0323261 0)
  (-0.142844 -0.0417395 0)
  (-0.101187 -0.0550301 0)
  (-0.0872681 -0.0721424 0)
  (0.0262727 0.0181067 0)
  (0.00481862 -0.021187 0)
  (0.0265114 -0.0195556 0)
  (0.045097 -0.0141068 0)
  (0.0581288 -0.00939746 0)
  (0.065345 -0.00564407 0)
  (0.0683785 -0.00364636 0)
  (0.0692579 -0.00282159 0)
  (0.0694138 -0.0024477 0)
  (0.0693362 -0.00218958 0)
  (0.0690217 -0.00193987 0)
  (0.0683531 -0.00161738 0)
  (0.0670812 -0.0010486 0)
  (0.0645933 0.000148755 0)
  (0.0596515 0.00251658 0)
  (0.0508733 0.0053069 0)
  (0.0403896 0.00794466 0)
  (-0.00500578 0.019839 0)
  (0.238866 0.161257 0)
  (-0.152392 0.048845 0)
  (-0.134747 0.0440929 0)
  (-0.164157 0.0383578 0)
  (-0.1867 0.031577 0)
  (-0.204469 0.0240851 0)
  (-0.217053 0.015542 0)
  (-0.22365 0.00550854 0)
  (-0.222871 -0.00634778 0)
  (-0.214059 -0.0196091 0)
  (-0.197202 -0.0328974 0)
  (-0.173051 -0.0446834 0)
  (-0.144368 -0.0545665 0)
  (-0.11817 -0.0629116 0)
  (-0.103357 -0.0623163 0)
  (-0.0826002 -0.0259818 0)
  (-0.0464198 -0.00612174 0)
  (-0.0581129 -0.000380623 0)
  (0.077679 -0.0179047 0)
  (0.0413607 -0.0279898 0)
  (0.0453342 -0.0255462 0)
  (0.0563442 -0.0185877 0)
  (0.0640506 -0.0115814 0)
  (0.0675207 -0.00397619 0)
  (0.0676916 0.000323015 0)
  (0.0671551 0.0020476 0)
  (0.0669876 0.00276878 0)
  (0.0670439 0.00319742 0)
  (0.0670528 0.00354059 0)
  (0.0669488 0.0039998 0)
  (0.066688 0.00495187 0)
  (0.0657425 0.00729283 0)
  (0.0617307 0.0135836 0)
  (0.0518502 0.0193146 0)
  (0.0430934 0.023677 0)
  (-0.0340322 0.0426635 0)
  (0.40444 0.243239 0)
  (-0.18276 0.0824427 0)
  (-0.102608 0.0729118 0)
  (-0.133607 0.0606959 0)
  (-0.153274 0.0488516 0)
  (-0.169265 0.0362421 0)
  (-0.181115 0.0219809 0)
  (-0.187881 0.0054143 0)
  (-0.187688 -0.0136621 0)
  (-0.179525 -0.0345886 0)
  (-0.16388 -0.055031 0)
  (-0.142266 -0.0720812 0)
  (-0.117812 -0.0840438 0)
  (-0.0945956 -0.0899146 0)
  (-0.0741371 -0.0851464 0)
  (-0.0509861 -0.0630261 0)
  (-0.0255532 -0.0471601 0)
  (-0.0296019 -0.0385295 0)
  (0.0778584 -0.058296 0)
  (0.0454846 -0.0464712 0)
  (0.0479902 -0.0348045 0)
  (0.0556653 -0.025635 0)
  (0.0610469 -0.0188955 0)
  (0.0632915 -0.0138374 0)
  (0.0595333 -0.00953984 0)
  (0.056612 -0.00736622 0)
  (0.0558295 -0.00620847 0)
  (0.0560551 -0.00544531 0)
  (0.0565882 -0.00483244 0)
  (0.0574179 -0.00418924 0)
  (0.0590858 -0.00313007 0)
  (0.0629219 0.000296806 0)
  (0.0622016 0.0179007 0)
  (0.0507027 0.0307968 0)
  (0.0476404 0.0405591 0)
  (-0.0593036 0.0676908 0)
  (0.548474 0.310186 0)
  (-0.227197 0.115162 0)
  (-0.066561 0.097535 0)
  (-0.100015 0.0797429 0)
  (-0.114329 0.0649399 0)
  (-0.126664 0.0493418 0)
  (-0.136591 0.031205 0)
  (-0.14288 0.00935016 0)
  (-0.142711 -0.0167172 0)
  (-0.134511 -0.0454216 0)
  (-0.119772 -0.0726619 0)
  (-0.10073 -0.0940511 0)
  (-0.0803626 -0.107121 0)
  (-0.0609558 -0.110918 0)
  (-0.0427533 -0.1037 0)
  (-0.0233092 -0.0858389 0)
  (-0.00164681 -0.0671512 0)
  (0.0157238 -0.0514865 0)
  (0.0483408 -0.0180801 0)
  (0.0604722 -0.0476881 0)
  (0.0505973 -0.0451679 0)
  (0.0472139 -0.035441 0)
  (0.048417 -0.0272527 0)
  (0.0496449 -0.0195585 0)
  (0.0540124 -0.0130442 0)
  (0.0629855 -0.0100603 0)
  (0.070927 -0.0083175 0)
  (0.0770142 -0.00700745 0)
  (0.0814546 -0.0056105 0)
  (0.083865 -0.00385253 0)
  (0.0829636 -0.00150645 0)
  (0.0775969 0.00170097 0)
  (0.0656334 0.0063153 0)
  (0.0540405 0.0266664 0)
  (0.0441483 0.044176 0)
  (0.0521727 0.0593247 0)
  (-0.0778967 0.0919608 0)
  (0.667586 0.363641 0)
  (-0.273146 0.144948 0)
  (-0.0296687 0.111691 0)
  (-0.0639252 0.0915466 0)
  (-0.071625 0.0755526 0)
  (-0.0786228 0.0584491 0)
  (-0.0850055 0.0378249 0)
  (-0.0894402 0.011941 0)
  (-0.0874964 -0.0202839 0)
  (-0.0780256 -0.0561641 0)
  (-0.064448 -0.0887818 0)
  (-0.04928 -0.112579 0)
  (-0.0347106 -0.125421 0)
  (-0.0216012 -0.127756 0)
  (-0.00984511 -0.119934 0)
  (0.00223049 -0.103328 0)
  (0.0146282 -0.083917 0)
  (0.0253583 -0.0659645 0)
  (0.0374544 -0.0498146 0)
  (0.0429113 -0.0499553 0)
  (0.0399797 -0.0436169 0)
  (0.0361136 -0.0348972 0)
  (0.0350415 -0.0275309 0)
  (0.0361232 -0.0209596 0)
  (0.0402352 -0.0140122 0)
  (0.0467774 -0.0104072 0)
  (0.0531821 -0.0086874 0)
  (0.0588397 -0.00710153 0)
  (0.0636166 -0.00462477 0)
  (0.0670537 -0.000629571 0)
  (0.0682729 0.00483523 0)
  (0.0662645 0.011597 0)
  (0.0608589 0.0202061 0)
  (0.054067 0.0355291 0)
  (0.0461803 0.0537789 0)
  (0.0631542 0.0742213 0)
  (0.00814653 0.102421 0)
  (0.0468749 0.121025 0)
  (-0.0768435 0.0403565 0)
  (-0.25754 -0.0170684 0)
  (0.747892 0.409955 0)
  (-0.31207 0.167832 0)
  (-0.00242503 0.107671 0)
  (-0.0243506 0.0956139 0)
  (-0.0253104 0.081681 0)
  (-0.0270653 0.0636338 0)
  (-0.0291199 0.041542 0)
  (-0.0304042 0.0133752 0)
  (-0.0220476 -0.0245932 0)
  (-0.0102058 -0.0668801 0)
  (0.000766466 -0.102299 0)
  (0.00977068 -0.125584 0)
  (0.0162299 -0.136124 0)
  (0.020594 -0.136202 0)
  (0.0233163 -0.127213 0)
  (0.025489 -0.111098 0)
  (0.0276728 -0.0912742 0)
  (0.0292234 -0.0714749 0)
  (0.0303897 -0.0543842 0)
  (0.0289786 -0.0454503 0)
  (0.0242557 -0.0386954 0)
  (0.019566 -0.0321839 0)
  (0.0174909 -0.0269546 0)
  (0.0180668 -0.0226618 0)
  (0.0211448 -0.0188035 0)
  (0.0259588 -0.0166517 0)
  (0.0312197 -0.0152768 0)
  (0.0364375 -0.0134835 0)
  (0.0414644 -0.0103586 0)
  (0.0460579 -0.00506109 0)
  (0.0501876 0.00282757 0)
  (0.0518634 0.0124131 0)
  (0.0517229 0.0234521 0)
  (0.0516503 0.0377001 0)
  (0.0512579 0.0548767 0)
  (0.0690817 0.0759266 0)
  (0.0614037 0.0921764 0)
  (0.0889938 0.0921356 0)
  (0.10919 0.0541742 0)
  (-0.133202 -0.0265396 0)
  (0.780672 0.451909 0)
  (-0.328306 0.156696 0)
  (0.0176775 0.0578428 0)
  (0.031049 0.0838546 0)
  (0.0336151 0.0870731 0)
  (0.0334517 0.0681733 0)
  (0.0353246 0.0414921 0)
  (0.0389933 0.00753842 0)
  (0.0558974 -0.0370247 0)
  (0.0667984 -0.078312 0)
  (0.0716792 -0.109556 0)
  (0.0718187 -0.128805 0)
  (0.0682642 -0.136519 0)
  (0.0619696 -0.134484 0)
  (0.0539421 -0.124385 0)
  (0.0453428 -0.107977 0)
  (0.036896 -0.0879087 0)
  (0.0286467 -0.0675897 0)
  (0.0208621 -0.0502856 0)
  (0.0131175 -0.0391156 0)
  (0.00575594 -0.0327063 0)
  (0.000110169 -0.0285433 0)
  (-0.00272281 -0.0259803 0)
  (-0.00318072 -0.0241749 0)
  (-0.00177821 -0.0225702 0)
  (0.000997521 -0.0213931 0)
  (0.00435908 -0.0202992 0)
  (0.00803287 -0.0186451 0)
  (0.0120745 -0.0156839 0)
  (0.0166545 -0.0104047 0)
  (0.0225518 -0.00169544 0)
  (0.0293674 0.00946147 0)
  (0.0345225 0.0210343 0)
  (0.040723 0.0336859 0)
  (0.0479428 0.0475504 0)
  (0.0661332 0.0641914 0)
  (0.0799033 0.0728154 0)
  (0.107919 0.0651781 0)
  (0.14893 0.0497605 0)
  (-0.0320441 0.087282 0)
  (0.878404 0.461805 0)
  (-0.0971972 0.136988 0)
  (0.0958112 -0.0250028 0)
  (0.153716 0.00982204 0)
  (0.143871 0.0417623 0)
  (0.131616 0.0358839 0)
  (0.13067 0.0112947 0)
  (0.139017 -0.0233767 0)
  (0.15087 -0.0563524 0)
  (0.152417 -0.0856085 0)
  (0.145252 -0.107958 0)
  (0.13244 -0.121267 0)
  (0.115891 -0.125072 0)
  (0.0968626 -0.120742 0)
  (0.0767451 -0.109739 0)
  (0.0569383 -0.0934795 0)
  (0.0382862 -0.0740232 0)
  (0.0211886 -0.0545036 0)
  (0.00634204 -0.0385424 0)
  (-0.00605116 -0.0288168 0)
  (-0.0146381 -0.0253466 0)
  (-0.0206521 -0.0242517 0)
  (-0.0244618 -0.024075 0)
  (-0.0266825 -0.024055 0)
  (-0.0277041 -0.0239074 0)
  (-0.0278836 -0.0236215 0)
  (-0.0275919 -0.0230766 0)
  (-0.0269881 -0.0220331 0)
  (-0.0259705 -0.0201081 0)
  (-0.0241452 -0.0167434 0)
  (-0.0204633 -0.011261 0)
  (-0.0111837 -0.00296503 0)
  (-0.00113136 0.00707224 0)
  (0.0095382 0.0161354 0)
  (0.0212677 0.0229028 0)
  (0.0395764 0.0295193 0)
  (0.0583566 0.0257411 0)
  (0.082844 0.0075712 0)
  (0.147014 0.0389567 0)
  (-0.375894 0.187284 0)
  (1.01182 0.426606 0)
  (0.480328 0.281528 0)
  (0.498003 0.188999 0)
  (0.503088 0.161307 0)
  (0.43556 0.139709 0)
  (0.370637 0.106001 0)
  (0.332203 0.0662194 0)
  (0.308382 0.0250227 0)
  (0.278272 -0.0166697 0)
  (0.243918 -0.0524504 0)
  (0.209666 -0.0787614 0)
  (0.176909 -0.0938939 0)
  (0.145091 -0.0980124 0)
  (0.113221 -0.0938482 0)
  (0.0819519 -0.0835539 0)
  (0.0526707 -0.0686298 0)
  (0.0261804 -0.0508827 0)
  (0.00324614 -0.0334633 0)
  (-0.0147865 -0.0212336 0)
  (-0.0264607 -0.0167847 0)
  (-0.0350342 -0.0163032 0)
  (-0.0416978 -0.0171509 0)
  (-0.0471307 -0.0182647 0)
  (-0.0517481 -0.0192119 0)
  (-0.055777 -0.0198519 0)
  (-0.0594577 -0.0201576 0)
  (-0.0631004 -0.0200593 0)
  (-0.0670439 -0.0193782 0)
  (-0.0716431 -0.0177268 0)
  (-0.0772679 -0.0144103 0)
  (-0.084213 -0.00851755 0)
  (-0.0925112 0.000620857 0)
  (-0.100282 0.0120627 0)
  (-0.111442 0.0253633 0)
  (-0.13064 0.0411788 0)
  (-0.160258 0.059609 0)
  (-0.202709 0.0780249 0)
  (-0.252288 0.0938429 0)
  (-0.322497 0.105563 0)
  (-0.585094 0.111518 0)
  (-0.506959 -0.0286728 0)
  (0.177732 0.0997736 0)
  (0.254435 0.115265 0)
  (0.248713 0.0996079 0)
  (0.245052 0.0688259 0)
  (0.238037 0.0319814 0)
  (0.225009 -0.00215847 0)
  (0.204982 -0.0300902 0)
  (0.180678 -0.0516517 0)
  (0.154064 -0.0646599 0)
  (0.124913 -0.0674158 0)
  (0.0917794 -0.0632403 0)
  (0.0573912 -0.0541244 0)
  (0.0251545 -0.0409963 0)
  (-0.00365957 -0.0247879 0)
  (-0.0242939 -0.0118166 0)
  (-0.0369926 -0.00576279 0)
  (-0.0456779 -0.00446087 0)
  (-0.0529447 -0.00525513 0)
  (-0.0599128 -0.00641731 0)
  (-0.0669096 -0.00721053 0)
  (-0.073958 -0.00738257 0)
  (-0.0809859 -0.00685209 0)
  (-0.0879286 -0.00557812 0)
  (-0.0947532 -0.00351954 0)
  (-0.101444 -0.000665075 0)
  (-0.107993 0.00292925 0)
  (-0.114398 0.00714345 0)
  (-0.120536 0.0118111 0)
  (-0.125369 0.0176398 0)
  (-0.128618 0.0269269 0)
  (-0.130946 0.040281 0)
  (-0.133094 0.0572224 0)
  (-0.135471 0.0755054 0)
  (-0.135321 0.0872532 0)
  (-0.120174 0.0726332 0)
  (-0.0925946 -0.00819434 0)
  (-0.259788 -0.182798 0)
  (-0.195044 0.163566 0)
  (0.108961 0.0945058 0)
  (0.0728542 0.0735531 0)
  (0.0906774 0.0751066 0)
  (0.113379 0.0591673 0)
  (0.126289 0.0323833 0)
  (0.12765 0.00637597 0)
  (0.122548 -0.0150384 0)
  (0.109869 -0.0333086 0)
  (0.0901282 -0.0442142 0)
  (0.0676587 -0.0460696 0)
  (0.038544 -0.0439624 0)
  (0.00773536 -0.0398382 0)
  (-0.0183624 -0.0368559 0)
  (-0.0337666 -0.0377855 0)
  (-0.0440288 -0.0405088 0)
  (-0.0504415 -0.0444099 0)
  (-0.0555105 -0.0476193 0)
  (-0.0606546 -0.0501572 0)
  (-0.0665128 -0.0526357 0)
  (-0.0732858 -0.0552536 0)
  (-0.0809389 -0.0579522 0)
  (-0.0892943 -0.060481 0)
  (-0.0980401 -0.0624419 0)
  (-0.106719 -0.0633179 0)
  (-0.114733 -0.0624862 0)
  (-0.121361 -0.0591936 0)
  (-0.125793 -0.0524662 0)
  (-0.127271 -0.040954 0)
  (-0.12554 -0.0258869 0)
  (-0.119912 -0.00858338 0)
  (-0.109135 0.0111597 0)
  (-0.0924443 0.0330443 0)
  (-0.0702347 0.054547 0)
  (-0.0445249 0.0689324 0)
  (-0.00927758 0.058685 0)
  (0.141786 -0.0146498 0)
  (-0.195856 -0.0969002 0)
  (0.0824927 -0.251769 0)
  (-0.33606 -0.102113 0)
  (-0.27103 0.064053 0)
  (-0.161648 0.0128256 0)
  (-0.127315 0.0234403 0)
  (-0.0686708 0.0402607 0)
  (-0.0142937 0.0386494 0)
  (0.0252011 0.0220933 0)
  (0.0404412 0.0092928 0)
  (0.0436807 0.000700745 0)
  (0.0333099 -0.00654438 0)
  (-0.00368201 0.0155852 0)
  (-0.0360549 0.066598 0)
  (-0.0503575 0.0876349 0)
  (-0.0614371 0.101395 0)
  (-0.0675044 0.112896 0)
  (-0.0695465 0.123664 0)
  (-0.0697198 0.132348 0)
  (-0.0697747 0.139 0)
  (-0.0705432 0.142563 0)
  (-0.0722631 0.144478 0)
  (-0.074809 0.146295 0)
  (-0.0779516 0.148534 0)
  (-0.0814785 0.151172 0)
  (-0.0852178 0.153818 0)
  (-0.0890307 0.155857 0)
  (-0.0927855 0.156583 0)
  (-0.0963208 0.155317 0)
  (-0.0993849 0.151472 0)
  (-0.101501 0.144523 0)
  (-0.101722 0.13398 0)
  (-0.0980798 0.123211 0)
  (-0.0882115 0.11506 0)
  (-0.0701654 0.110737 0)
  (-0.0436358 0.111043 0)
  (-0.00779286 0.115316 0)
  (0.0371022 0.117436 0)
  (0.0743508 0.109149 0)
  (0.156662 0.0919615 0)
  (-0.273138 0.0541389 0)
)
;

boundaryField
{
  floor
  {
    type noSlip;
  }
  ceiling
  {
    type noSlip;
  }
  sWall
  {
    type noSlip;
  }
  nWall
  {
    type noSlip;
  }
  sideWalls
  {
    type empty;
  }
  glass1
  {
    type noSlip;
  }
  glass2
  {
    type noSlip;
  }
  sun
  {
    type noSlip;
  }
  Table_master
  {
    type noSlip;
  }
  Table_slave
  {
    type noSlip;
  }
  inlet
  {
    type fixedValue;
    value uniform (0.212132 -0.212132 0);
  }
  outlet
  {
    type zeroGradient;
  }
} 	// ************************************************************************* //

