/*--------------------------------*- C++ -*----------------------------------*\
  =========                 |
  \\      /  F ield         | OpenFOAM: The Open Source CFD Toolbox
   \\    /   O peration     | Website:  https://openfoam.org
    \\  /    A nd           | Version:  6
     \\/     M anipulation  |
\*---------------------------------------------------------------------------*/
FoamFile
{
    version     2.0;
    format      ascii;
    class       surfaceScalarField;
    location    "2300";
    object      phi;
}
// * * * * * * * * * * * * * * * * * * * * * * * * * * * * * * * * * * * * * //

dimensions      [1 0 -1 0 0 0 0];

internalField   nonuniform List<scalar> 
850
(
-0.00292248
0.0029786
-0.00394776
0.00102531
-0.00470521
0.000757485
-0.00528293
0.000577754
-0.00564996
0.000367059
-0.00578516
0.000135233
-0.00567132
-0.000113809
-0.00530172
-0.000369575
-0.00470183
-0.000599857
-0.00392929
-0.000772506
-0.0030611
-0.000868159
-0.00217683
-0.000884239
-0.00134635
-0.000830447
-0.000613381
-0.000732944
-0.000611911
-0.000692136
0.000694834
-0.000392763
-0.000299364
0.000205933
-0.000598685
0.000704378
-0.000498435
0.00105741
-0.000353021
0.0012521
-0.000194686
0.00133679
-8.46798e-05
0.00137979
-4.29991e-05
0.00140551
-2.57096e-05
0.00141949
-1.39752e-05
0.00142448
-4.99135e-06
0.00142035
4.13078e-06
0.00140031
2.00376e-05
0.00134402
5.62933e-05
0.00121683
0.000127191
0.0010042
0.000212625
0.000722002
0.000282192
0.000725527
-0.00208409
0.00521347
-0.00308072
0.00202197
-0.00385764
0.00153444
-0.00442428
0.00114442
-0.00478303
0.000725836
-0.00492169
0.000273924
-0.00482133
-0.000214135
-0.00448205
-0.000708821
-0.00394054
-0.00114134
-0.00326006
-0.00145295
-0.00251485
-0.00161333
-0.00177319
-0.00162587
-0.00109489
-0.00150872
-0.000538776
-0.00128902
-0.000162213
-0.000988446
0.000388311
-0.000547772
0.000483455
-9.18906e-05
0.000493329
0.000290929
0.000411732
0.000676916
-0.000685338
0.000941962
-0.000863717
0.0011802
-0.000736663
0.00136457
-0.000537379
0.00140252
-0.000232628
0.00140717
-8.93187e-05
0.0014142
-5.00238e-05
0.00142039
-3.18881e-05
0.00142411
-1.76954e-05
0.00142586
-6.73432e-06
0.00142535
4.64183e-06
0.00141981
2.55756e-05
0.00138306
9.3045e-05
0.0012272
0.000283046
0.000954408
0.000485417
0.000607911
0.000628684
0.00134269
-0.0014601
0.00690399
-0.00232135
0.00288326
-0.00300622
0.00221933
-0.0034856
0.00162384
-0.00378888
0.00102914
-0.00389922
0.000384293
-0.0037809
-0.000332418
-0.00343942
-0.00105028
-0.00293235
-0.00164837
-0.00233052
-0.00205474
-0.00170337
-0.00224045
-0.00110252
-0.00222668
-0.000568969
-0.00204223
-0.000137689
-0.00172027
0.000161469
-0.00128757
0.000339703
-0.000725979
0.000321241
-7.34017e-05
0.000822507
0.00133021
-0.000909892
0.00153374
-0.000888852
0.00152554
-0.000855496
0.00156164
-0.000772749
0.00170019
-0.000675922
0.00146773
0.00137857
0.00132871
0.00129698
0.00127944
0.00127287
0.00127767
0.0013034
0.00139659
0.00115997
0.000519664
0.000867594
0.000777794
0.000489827
0.00100645
0.00184664
-0.00102218
0.00822444
-0.0017057
0.00356681
-0.00214928
0.00266294
-0.00245137
0.00192596
-0.00262655
0.00120434
-0.00263978
0.000397553
-0.00244219
-0.000529981
-0.00207036
-0.00142207
-0.0016055
-0.00211319
-0.00111273
-0.00254747
-0.00064297
-0.00271017
-0.000221301
-0.00264831
0.000136675
-0.00240018
0.0004226
-0.00200616
0.000645051
-0.00151
0.000846253
-0.000927155
0.00109572
-0.000322839
0.00186566
5.25876e-05
0.00215735
-0.000283948
0.00186136
-0.000613875
0.001755
-0.000782476
0.00165338
-0.000753857
0.0015521
-0.000671458
0.00139508
-0.000518888
0.00162943
-0.000234497
0.00175592
-0.000126637
0.00184891
-9.31406e-05
0.00192142
-7.26532e-05
0.00196414
-4.28751e-05
0.00195639
7.6015e-06
0.00187097
8.52691e-05
0.00167211
0.000198703
0.00130248
0.000369476
0.00112589
0.00069625
0.000828555
0.00107512
0.000406312
0.00142868
0.00227119
-0.000721267
0.00930171
-0.00124055
0.00408613
-0.00130965
0.00273206
-0.00133156
0.0019479
-0.00128897
0.00116177
-0.00109039
0.000199001
-0.000738586
-0.000881762
-0.000341054
-0.00181957
3.34187e-05
-0.00248763
0.000349072
-0.00286308
0.00059632
-0.00295737
0.000778303
-0.00283026
0.000907856
-0.00252969
0.00100611
-0.00210439
0.00109688
-0.00160074
0.00122985
-0.0010601
0.00147114
-0.000564109
0.00180034
-0.000276585
0.00185318
-0.000336761
0.00174459
-0.000505268
0.00156758
-0.000605447
0.00141061
-0.000596871
0.00127256
-0.000533401
0.00117707
-0.000423388
0.00121756
-0.000274987
0.00127716
-0.00018623
0.00133687
-0.00015285
0.00139852
-0.000134309
0.00145599
-0.000100343
0.00149187
-2.82856e-05
0.00148304
9.40962e-05
0.00141293
0.000268807
0.0012841
0.000498296
0.00116225
0.000818091
0.00103371
0.00120366
0.000779717
0.00168267
0.00101908
0.00203182
-0.000934599
0.00196997
-0.00159673
0.000676761
-0.00153527
-0.000631233
0.0103378
-0.00097995
0.00443487
-0.000516331
0.00226847
-6.53859e-05
0.00149698
0.000365007
0.000731397
0.000872947
-0.000308922
0.00134949
-0.00135827
0.00168739
-0.00215744
0.00187517
-0.00267536
0.00193302
-0.00292088
0.00189682
-0.00292112
0.00179225
-0.00272564
0.00165051
-0.00238792
0.00150556
-0.00195941
0.00138942
-0.00148458
0.00133561
-0.00100627
0.00136557
-0.000594043
0.00143298
-0.000343985
0.00140118
-0.000304935
0.00126829
-0.000372372
0.00108848
-0.00042562
0.00092103
-0.000429412
0.000783735
-0.000396101
0.000695616
-0.000335268
0.000681731
-0.000261103
0.000713891
-0.000218394
0.000769804
-0.000208768
0.000842254
-0.000206765
0.00092727
-0.000185366
0.00101757
-0.000118596
0.00109321
1.8447e-05
0.00113964
0.000222373
0.00116801
0.000469913
0.00121833
0.000767767
0.00133589
0.00108609
0.00155118
0.00146737
0.00191079
0.00167222
0.00220008
0.00168066
0.0017292
0.00114763
0.000251567
-0.000646682
0.0114342
-0.000492368
0.00428059
0.000756283
0.00101985
0.00172662
0.000526671
0.00258746
-0.000129427
0.00331438
-0.00103583
0.00374041
-0.00178426
0.00387971
-0.0022967
0.00378014
-0.00257574
0.00350097
-0.00264166
0.00310576
-0.00252586
0.00265114
-0.00227098
0.0021881
-0.00192485
0.00176087
-0.00153216
0.00140266
-0.00112636
0.00113377
-0.000737368
0.000962505
-0.000422763
0.000856266
-0.000237736
0.000744616
-0.000193276
0.000598302
-0.000226051
0.000436671
-0.000263984
0.000287043
-0.000279783
0.000166157
-0.000275217
8.84483e-05
-0.000257563
6.56331e-05
-0.000238294
8.51766e-05
-0.000237945
0.00013118
-0.000254781
0.000197518
-0.000273114
0.00028622
-0.00027408
0.000403144
-0.000235532
0.000550054
-0.000128474
0.000707469
6.4947e-05
0.000871049
0.000306322
0.00107309
0.000565716
0.00134678
0.0008124
0.0017361
0.00107803
0.00225498
0.00115333
0.00295246
0.000983173
0.00307844
0.00102163
0.0033905
0.00265174
0.00928655
0.00343815
0.00349421
0.00426616
0.000191867
0.00534329
-0.000550435
0.00616391
-0.000950019
0.00652321
-0.00139508
0.00648515
-0.00174614
0.00611819
-0.00192967
0.00550265
-0.00196013
0.00472686
-0.00186582
0.00387796
-0.00167691
0.00302963
-0.00142262
0.00223921
-0.00113441
0.00154894
-0.00084187
0.000985228
-0.000562643
0.000557388
-0.000309527
0.000271899
-0.000137273
9.42004e-05
-6.00355e-05
-3.9261e-05
-5.98135e-05
-0.000168554
-9.67578e-05
-0.000297662
-0.000134879
-0.000416203
-0.000161247
-0.000513236
-0.000178191
-0.00057995
-0.000190859
-0.000612442
-0.000205813
-0.000620287
-0.000230112
-0.000614276
-0.000260806
-0.000598267
-0.000289136
-0.000567965
-0.000304396
-0.00050888
-0.000294631
-0.000392147
-0.000245221
-0.000198134
-0.00012908
4.42019e-05
6.39732e-05
0.000320895
0.000289011
0.000634329
0.000498955
0.00100835
0.000703999
0.00142084
0.000740836
0.00179776
0.000606242
0.00117408
0.0016453
0.00481186
0.00984065
0.0133271
0.0127245
0.000794468
0.0121057
6.83884e-05
0.0113402
-0.000184429
0.0103251
-0.000379874
0.00906085
-0.000481847
0.00765554
-0.000524279
0.0062075
-0.000512026
0.00479934
-0.00045761
0.00350146
-0.000379003
0.00235818
-0.00027932
0.00139052
-0.000166743
0.000600944
-5.22955e-05
-4.88637e-06
4.31758e-05
-0.000407789
9.33664e-05
-0.000634844
8.97743e-05
-0.000762153
6.72675e-05
-0.0008536
3.16266e-05
-0.000943318
-7.04758e-06
-0.00103756
-4.06492e-05
-0.00113052
-6.82937e-05
-0.00121546
-9.32681e-05
-0.0012885
-0.000117832
-0.00135095
-0.000143375
-0.00141176
-0.000169317
-0.00148191
-0.00019067
-0.00157079
-0.000200274
-0.00168785
-0.000187356
-0.00184485
-0.000137647
-0.00205196
-3.81232e-05
-0.00230777
0.00012672
-0.00261266
0.000368844
-0.00302692
0.000703261
-0.00365796
0.00112998
-0.00457983
0.00162585
-0.00591716
0.00207815
-0.00751408
0.00220315
-0.00711462
0.00124583
-0.00203026
0.00331912
0.00220488
0.00288507
0.000502634
0.00333163
-0.000630911
0.00332548
-0.000373701
0.00292775
-8.41277e-05
0.00231696
8.64973e-05
0.00161355
0.000191359
0.00090019
0.000255728
0.000231132
0.000290031
-0.000346792
0.000298577
-0.000796953
0.000283401
-0.00111249
0.000263222
-0.00130915
0.000239829
-0.00142309
0.000207293
-0.00149909
0.000165758
-0.00155735
0.000125516
-0.00161418
8.84444e-05
-0.00167676
5.55155e-05
-0.00174493
2.751e-05
-0.00181793
4.68852e-06
-0.00189431
-1.69031e-05
-0.00197354
-3.86185e-05
-0.00205763
-5.9305e-05
-0.00215082
-7.61384e-05
-0.0022573
-8.42096e-05
-0.0023776
-7.99972e-05
-0.00250885
-5.61194e-05
-0.00264553
-9.82163e-07
-0.00277623
9.25594e-05
-0.00289132
0.000241793
-0.00299483
0.000472345
-0.00309236
0.000800774
-0.00318111
0.00121872
-0.0032293
0.00167403
-0.00319717
0.002046
-0.00291233
0.0019183
-0.00161629
-5.02202e-05
-0.00357569
-0.00044249
0.00271824
-0.000335677
0.00039581
-0.00101566
4.90518e-05
-0.00148917
9.97775e-05
-0.00176491
0.000191572
-0.00193487
0.000256422
-0.00205179
0.000308247
-0.00213606
0.000339959
-0.00219042
0.000344371
-0.00221583
0.000323963
-0.00221832
0.00028586
-0.00219908
0.000243973
-0.00216486
0.000205589
-0.00212952
0.000171939
-0.00210652
0.000142734
-0.00210002
0.000119007
-0.00211081
9.92145e-05
-0.00213715
8.18422e-05
-0.00217581
6.6142e-05
-0.00222284
5.17021e-05
-0.00227885
3.90888e-05
-0.00234444
2.6953e-05
-0.00241849
1.47202e-05
-0.00249743
2.78863e-06
-0.00257525
-6.41177e-06
-0.00264543
-9.8322e-06
-0.00269818
-3.38669e-06
-0.0027193
2.01207e-05
-0.00270218
7.54256e-05
-0.00262782
0.000167418
-0.00246655
0.000311055
-0.00218984
0.00052405
-0.00177591
0.000804775
-0.00119424
0.00109235
-0.000263159
0.0011149
0.00108604
0.00056908
0.00162491
-0.000589109
-0.00187326
-0.00578336
-0.00867884
-0.00592394
-0.00551351
-0.00545614
-0.00535103
-0.0051563
-0.00489848
-0.00459037
-0.00425195
-0.00391044
-0.00359063
-0.00331015
-0.00307266
-0.00287447
-0.00271068
-0.00257669
-0.0024669
-0.00237729
-0.00230539
-0.00224946
-0.00220818
-0.00217967
-0.00216341
-0.00215943
-0.00216739
-0.00218445
-0.00220478
-0.00221842
-0.00220825
-0.00214241
-0.0019842
-0.00168195
-0.00116632
-0.0003696
0.000715011
0.00182219
0.00238327
0.00178566
)
;

boundaryField
{
    floor
    {
        type            calculated;
        value           nonuniform List<scalar> 
36
(
0
0
0
0
0
0
0
0
0
0
0
0
0
0
0
0
0
0
0
-3.53073e-06
-9.25886e-06
-1.41321e-05
-1.8246e-05
-1.63064e-05
-1.46436e-05
-1.36967e-05
-1.4431e-06
-2.72471e-06
-3.22756e-06
-3.90955e-06
-2.69074e-06
-5.94086e-06
-7.81943e-06
-7.91216e-06
-8.57378e-06
-7.71497e-06
)
;
    }
    ceiling
    {
        type            calculated;
        value           nonuniform List<scalar> 
43
(
-3.97097e-05
-3.82294e-05
-3.67308e-05
-1.46692e-05
-8.3734e-06
-5.36991e-06
-3.20086e-06
-1.42614e-06
1.07699e-07
1.507e-06
2.83752e-06
4.12938e-06
5.35707e-06
6.45928e-06
7.38503e-06
8.12755e-06
8.71767e-06
9.19547e-06
9.59156e-06
9.92089e-06
1.01886e-05
1.0399e-05
1.05571e-05
1.0668e-05
1.07273e-05
1.07216e-05
1.06353e-05
1.0473e-05
1.02382e-05
9.93073e-06
9.57129e-06
9.18576e-06
8.7899e-06
8.40074e-06
8.04286e-06
7.72505e-06
7.70763e-06
7.98101e-06
8.48399e-06
9.84661e-06
1.06925e-05
7.81871e-06
-7.08387e-05
)
;
    }
    sWall
    {
        type            calculated;
        value           uniform -0.000265875;
    }
    nWall
    {
        type            calculated;
        value           nonuniform List<scalar> 6(-4.7777e-05 -5.76497e-05 -6.05004e-05 -7.08858e-05 -7.75337e-05 -9.74558e-05);
    }
    sideWalls
    {
        type            empty;
        value           nonuniform 0();
    }
    glass1
    {
        type            calculated;
        value           nonuniform List<scalar> 9(-5.60958e-05 -0.000150753 -0.000230386 -0.000298249 -0.000355974 -0.000404809 -0.000449684 -0.000504093 -0.000564762);
    }
    glass2
    {
        type            calculated;
        value           nonuniform List<scalar> 2(-0.000247289 -0.000272517);
    }
    sun
    {
        type            calculated;
        value           uniform 0;
    }
    Table_master
    {
        type            calculated;
        value           nonuniform List<scalar> 9(-1.52941e-07 -1.5307e-07 -1.53114e-07 -1.53142e-07 -1.53162e-07 -1.53175e-07 -1.53181e-07 -1.53178e-07 -1.53149e-07);
    }
    Table_slave
    {
        type            calculated;
        value           nonuniform List<scalar> 9(1.52827e-07 1.52841e-07 1.5281e-07 1.52785e-07 1.52769e-07 1.52771e-07 1.52778e-07 1.52814e-07 1.5289e-07);
    }
    inlet
    {
        type            calculated;
        value           uniform -0.00472946;
    }
    outlet
    {
        type            calculated;
        value           nonuniform List<scalar> 2(0.00608889 0.00293365);
    }
}


// ************************************************************************* //
