/*--------------------------------*- C++ -*----------------------------------*\
  =========                 |
  \\      /  F ield         | OpenFOAM: The Open Source CFD Toolbox
   \\    /   O peration     | Website:  https://openfoam.org
    \\  /    A nd           | Version:  6
     \\/     M anipulation  |
\*---------------------------------------------------------------------------*/
FoamFile
{
    version     2.0;
    format      ascii;
    class       volVectorField;
    location    "2600";
    object      U;
}
// * * * * * * * * * * * * * * * * * * * * * * * * * * * * * * * * * * * * * //

dimensions      [0 1 -1 0 0 0 0];

internalField   nonuniform List<vector> 
458
(
(0.048652 0.0791138 0)
(-0.153981 0.0194582 0)
(-0.168753 0.0153763 0)
(-0.195934 0.0120362 0)
(-0.217986 0.00797368 0)
(-0.234386 0.00362194 0)
(-0.244378 -0.00109304 0)
(-0.246876 -0.00632361 0)
(-0.240556 -0.0122312 0)
(-0.22507 -0.018776 0)
(-0.200362 -0.0254024 0)
(-0.16706 -0.0317889 0)
(-0.12669 -0.0385559 0)
(-0.0863673 -0.0476902 0)
(-0.0699482 -0.0594543 0)
(0.0176757 0.010279 0)
(-0.00578459 -0.0183021 0)
(0.018244 -0.0210783 0)
(0.0348572 -0.015197 0)
(0.048096 -0.0099385 0)
(0.056023 -0.00571284 0)
(0.0595444 -0.00351326 0)
(0.0605855 -0.00265928 0)
(0.060733 -0.00231092 0)
(0.060622 -0.00208901 0)
(0.0603076 -0.0018844 0)
(0.0596956 -0.00162493 0)
(0.058583 -0.00115099 0)
(0.0564417 -9.68319e-05 0)
(0.0521678 0.0020396 0)
(0.0445539 0.00434034 0)
(0.0374285 0.00588628 0)
(-0.0130138 0.0180669 0)
(0.227344 0.163818 0)
(-0.15119 0.0533852 0)
(-0.138043 0.0448793 0)
(-0.166987 0.0379658 0)
(-0.188782 0.0299463 0)
(-0.205144 0.0211496 0)
(-0.215581 0.0112161 0)
(-0.219084 -0.000278892 0)
(-0.214113 -0.0134544 0)
(-0.200861 -0.0272068 0)
(-0.1798 -0.0396713 0)
(-0.152708 -0.0492831 0)
(-0.122662 -0.0556648 0)
(-0.0956738 -0.0591189 0)
(-0.0795045 -0.0541378 0)
(-0.0608518 -0.0171581 0)
(-0.0328596 0.00831446 0)
(-0.0632923 0.0148638 0)
(0.0753996 0.000953476 0)
(0.0378257 -0.0213285 0)
(0.041151 -0.0247355 0)
(0.0513608 -0.019253 0)
(0.0589868 -0.0123962 0)
(0.062498 -0.00434345 0)
(0.0627973 0.000269107 0)
(0.0623417 0.00209497 0)
(0.0622126 0.00283811 0)
(0.062296 0.00326347 0)
(0.0623358 0.00357181 0)
(0.0622727 0.00394841 0)
(0.0620772 0.00473261 0)
(0.0612525 0.0067589 0)
(0.0575485 0.0124664 0)
(0.048258 0.0172377 0)
(0.0427296 0.0200029 0)
(-0.0438212 0.0397704 0)
(0.388793 0.246186 0)
(-0.176416 0.0881732 0)
(-0.104814 0.0737488 0)
(-0.134188 0.0599576 0)
(-0.153194 0.046391 0)
(-0.167992 0.0320103 0)
(-0.178056 0.0158308 0)
(-0.182031 -0.00283176 0)
(-0.177447 -0.0238358 0)
(-0.164902 -0.0453802 0)
(-0.145394 -0.0641269 0)
(-0.121359 -0.0774546 0)
(-0.0959294 -0.0843828 0)
(-0.0727477 -0.0846162 0)
(-0.0534139 -0.0754585 0)
(-0.0331707 -0.0521262 0)
(-0.0121899 -0.0340709 0)
(-0.0293553 -0.0262136 0)
(0.0851191 -0.052248 0)
(0.0508167 -0.0437134 0)
(0.050983 -0.0344655 0)
(0.0570618 -0.026238 0)
(0.0616407 -0.0199684 0)
(0.0635365 -0.0148584 0)
(0.0595971 -0.0102358 0)
(0.0566177 -0.00786369 0)
(0.0558222 -0.00658444 0)
(0.0560285 -0.00575444 0)
(0.0565196 -0.00512227 0)
(0.0572585 -0.00452022 0)
(0.0587126 -0.00360012 0)
(0.062024 -0.000448335 0)
(0.0609725 0.0163731 0)
(0.0492985 0.0281168 0)
(0.0492766 0.0361251 0)
(-0.0698853 0.0636563 0)
(0.530233 0.313018 0)
(-0.21647 0.121121 0)
(-0.068676 0.0982989 0)
(-0.0986233 0.0784583 0)
(-0.112286 0.0613849 0)
(-0.123435 0.0434512 0)
(-0.131815 0.0225641 0)
(-0.135385 -0.00263682 0)
(-0.130103 -0.0317257 0)
(-0.117488 -0.0610153 0)
(-0.0995745 -0.0852925 0)
(-0.0791147 -0.101218 0)
(-0.0586779 -0.107777 0)
(-0.0402271 -0.104903 0)
(-0.0239812 -0.0921226 0)
(-0.00736719 -0.0707771 0)
(0.0123189 -0.04945 0)
(0.0280039 -0.035795 0)
(0.0565624 -0.0109441 0)
(0.0663141 -0.0401999 0)
(0.055484 -0.0400392 0)
(0.051431 -0.032762 0)
(0.0516493 -0.0261426 0)
(0.0517561 -0.0193239 0)
(0.0550136 -0.0126096 0)
(0.063377 -0.00960892 0)
(0.0708868 -0.00795186 0)
(0.0767052 -0.00679802 0)
(0.0811799 -0.00558579 0)
(0.0839643 -0.00397967 0)
(0.0837977 -0.00172707 0)
(0.0791921 0.00151723 0)
(0.0681225 0.00623021 0)
(0.0561899 0.0253933 0)
(0.0451776 0.0418199 0)
(0.0550954 0.0555502 0)
(-0.0876938 0.0872396 0)
(0.648059 0.365898 0)
(-0.259494 0.150204 0)
(-0.032564 0.112205 0)
(-0.0605388 0.0893912 0)
(-0.0671745 0.0707025 0)
(-0.0725055 0.0509228 0)
(-0.0772583 0.0270303 0)
(-0.0783015 -0.00345112 0)
(-0.0703003 -0.0399943 0)
(-0.057236 -0.0757909 0)
(-0.0422601 -0.103412 0)
(-0.0273544 -0.119897 0)
(-0.0140216 -0.125097 0)
(-0.00290778 -0.119928 0)
(0.0065933 -0.105452 0)
(0.0158843 -0.0854539 0)
(0.0264804 -0.0652375 0)
(0.0363704 -0.0497474 0)
(0.0461925 -0.0394814 0)
(0.0494071 -0.0421915 0)
(0.045583 -0.0382471 0)
(0.0412731 -0.0316389 0)
(0.0393859 -0.025602 0)
(0.039331 -0.0196618 0)
(0.0422433 -0.0128869 0)
(0.0478268 -0.00946454 0)
(0.0535506 -0.00808137 0)
(0.0588065 -0.00697528 0)
(0.063518 -0.00507175 0)
(0.0672435 -0.00163891 0)
(0.0692163 0.00359542 0)
(0.0680973 0.010504 0)
(0.0635945 0.0195019 0)
(0.0573169 0.0345787 0)
(0.0491292 0.0519674 0)
(0.0666595 0.0713484 0)
(0.00803792 0.0970885 0)
(0.0528348 0.12646 0)
(-0.0733921 0.0502808 0)
(-0.260635 -0.0106663 0)
(0.728617 0.4112 0)
(-0.297188 0.171622 0)
(-0.00619114 0.107611 0)
(-0.0194253 0.0913801 0)
(-0.017952 0.0750773 0)
(-0.0167974 0.0545386 0)
(-0.01665 0.02917 0)
(-0.0105935 -0.00506886 0)
(0.00274444 -0.0499409 0)
(0.0149137 -0.0894412 0)
(0.0242459 -0.116418 0)
(0.0308867 -0.130577 0)
(0.0346623 -0.133023 0)
(0.0359386 -0.125604 0)
(0.0358009 -0.110598 0)
(0.0355913 -0.0911029 0)
(0.0361428 -0.071035 0)
(0.0368217 -0.054152 0)
(0.0369985 -0.0421726 0)
(0.0346553 -0.0371236 0)
(0.0296405 -0.0330182 0)
(0.0247558 -0.0283374 0)
(0.0220149 -0.0240772 0)
(0.0215632 -0.0201618 0)
(0.0235545 -0.0165056 0)
(0.0274722 -0.0147073 0)
(0.0321 -0.0139216 0)
(0.0369265 -0.0129065 0)
(0.0418123 -0.0107025 0)
(0.0465488 -0.00638488 0)
(0.0510962 0.000867153 0)
(0.0538181 0.0105183 0)
(0.0545759 0.0220031 0)
(0.0551251 0.0364542 0)
(0.0550024 0.0531945 0)
(0.072375 0.0733686 0)
(0.0641217 0.0870015 0)
(0.0923292 0.0908294 0)
(0.109715 0.0550244 0)
(-0.129578 -0.0232572 0)
(0.768302 0.452487 0)
(-0.313261 0.159778 0)
(0.0164802 0.0573448 0)
(0.037452 0.074148 0)
(0.044816 0.0748134 0)
(0.0497557 0.0544395 0)
(0.0557286 0.0236601 0)
(0.0723165 -0.0178319 0)
(0.0866391 -0.0617576 0)
(0.0941266 -0.0973137 0)
(0.0950878 -0.120291 0)
(0.0909085 -0.130669 0)
(0.0828649 -0.130071 0)
(0.0723287 -0.120658 0)
(0.060832 -0.104948 0)
(0.0497081 -0.0857991 0)
(0.0398373 -0.0664115 0)
(0.0311788 -0.0496883 0)
(0.0236608 -0.0376304 0)
(0.0164828 -0.0309732 0)
(0.00970066 -0.0272227 0)
(0.00426963 -0.0243947 0)
(0.000987338 -0.0222576 0)
(-0.000172155 -0.020589 0)
(0.000633551 -0.01926 0)
(0.00287558 -0.0186832 0)
(0.00583321 -0.0184097 0)
(0.00920801 -0.0177372 0)
(0.0130422 -0.0159148 0)
(0.0175321 -0.011953 0)
(0.0230327 -0.00457821 0)
(0.030807 0.00655963 0)
(0.0368423 0.0187736 0)
(0.0435051 0.0318998 0)
(0.051065 0.0457219 0)
(0.0687103 0.0617063 0)
(0.082007 0.0687615 0)
(0.109727 0.0632475 0)
(0.150189 0.0511159 0)
(-0.0302651 0.0898413 0)
(0.86865 0.459534 0)
(-0.0840404 0.13954 0)
(0.100362 -0.0252221 0)
(0.163348 -0.00502984 0)
(0.161348 0.0198616 0)
(0.156043 0.0113687 0)
(0.160291 -0.0175487 0)
(0.177043 -0.0489174 0)
(0.184012 -0.0774635 0)
(0.179209 -0.0997824 0)
(0.165454 -0.113344 0)
(0.145744 -0.117674 0)
(0.12265 -0.113664 0)
(0.0983312 -0.102868 0)
(0.0746282 -0.0874246 0)
(0.0527535 -0.0696161 0)
(0.0336254 -0.0520959 0)
(0.0173071 -0.0372684 0)
(0.00454477 -0.027284 0)
(-0.00564299 -0.0223117 0)
(-0.013017 -0.0206565 0)
(-0.0185427 -0.0201022 0)
(-0.0222987 -0.020038 0)
(-0.0245766 -0.0201667 0)
(-0.0256517 -0.020362 0)
(-0.0259029 -0.0206581 0)
(-0.0257215 -0.0208979 0)
(-0.0252777 -0.0207839 0)
(-0.0244861 -0.0199018 0)
(-0.0230084 -0.017685 0)
(-0.0200917 -0.0134317 0)
(-0.0132009 -0.0063127 0)
(-0.000970683 0.00386246 0)
(0.00963438 0.0138372 0)
(0.0213404 0.0209444 0)
(0.0388275 0.0271928 0)
(0.0561725 0.0226701 0)
(0.0800277 0.0064557 0)
(0.143691 0.0415685 0)
(-0.379209 0.191445 0)
(1.00794 0.421129 0)
(0.476486 0.277032 0)
(0.495746 0.182688 0)
(0.510113 0.146449 0)
(0.456991 0.11954 0)
(0.40233 0.0844249 0)
(0.369505 0.0448657 0)
(0.338507 0.00326984 0)
(0.300348 -0.0337189 0)
(0.258913 -0.061178 0)
(0.216927 -0.0773908 0)
(0.175712 -0.083227 0)
(0.13626 -0.0806543 0)
(0.0994511 -0.0717471 0)
(0.0663026 -0.0589117 0)
(0.0370961 -0.0442125 0)
(0.0127999 -0.0301731 0)
(-0.00717827 -0.0190581 0)
(-0.0200522 -0.0139968 0)
(-0.0292124 -0.0126758 0)
(-0.0362287 -0.013108 0)
(-0.0419513 -0.0140764 0)
(-0.0466945 -0.0151592 0)
(-0.0507325 -0.0161786 0)
(-0.0542982 -0.0170691 0)
(-0.0576658 -0.0178116 0)
(-0.0611499 -0.018298 0)
(-0.0650602 -0.0182921 0)
(-0.0697181 -0.0173685 0)
(-0.0755161 -0.014838 0)
(-0.0829234 -0.00978009 0)
(-0.0922563 -0.00133587 0)
(-0.102075 0.0102378 0)
(-0.113576 0.0240681 0)
(-0.13332 0.0404664 0)
(-0.16384 0.0594775 0)
(-0.207186 0.0785806 0)
(-0.25651 0.0952322 0)
(-0.32665 0.107689 0)
(-0.593039 0.114636 0)
(-0.454061 -0.0452146 0)
(0.163238 0.0646683 0)
(0.24745 0.0778886 0)
(0.242227 0.0643942 0)
(0.234496 0.0377776 0)
(0.221768 0.00800495 0)
(0.206422 -0.0166776 0)
(0.183012 -0.0335327 0)
(0.154263 -0.0431033 0)
(0.121977 -0.0463245 0)
(0.0882444 -0.0441686 0)
(0.0549464 -0.0373808 0)
(0.0246989 -0.0276016 0)
(-0.00285996 -0.0159494 0)
(-0.0231595 -0.00646623 0)
(-0.0362343 -0.00153071 0)
(-0.0448464 -0.000265513 0)
(-0.0513386 -0.000829991 0)
(-0.0571027 -0.00200331 0)
(-0.0627927 -0.00323664 0)
(-0.0685512 -0.00422655 0)
(-0.0744237 -0.0048413 0)
(-0.0804237 -0.00502996 0)
(-0.0865761 -0.00474601 0)
(-0.0929121 -0.00388746 0)
(-0.0994375 -0.00230444 0)
(-0.106113 0.000165602 0)
(-0.112863 0.00366503 0)
(-0.119489 0.00829268 0)
(-0.125082 0.0145735 0)
(-0.129013 0.0243567 0)
(-0.131915 0.0383931 0)
(-0.134691 0.0560232 0)
(-0.137879 0.0747144 0)
(-0.138576 0.0864608 0)
(-0.124072 0.0712965 0)
(-0.0983551 -0.0109982 0)
(-0.265391 -0.185255 0)
(-0.136988 0.159633 0)
(0.0891089 0.0770575 0)
(0.0450669 0.0478754 0)
(0.0583336 0.0510898 0)
(0.0743512 0.038195 0)
(0.0809431 0.0158856 0)
(0.0801586 -0.00400392 0)
(0.0717805 -0.0172956 0)
(0.055651 -0.0246584 0)
(0.0345444 -0.0271892 0)
(0.0113825 -0.0262994 0)
(-0.0125208 -0.0237387 0)
(-0.0302269 -0.022457 0)
(-0.0432915 -0.023854 0)
(-0.0511431 -0.0283643 0)
(-0.0558661 -0.034244 0)
(-0.0594954 -0.0396727 0)
(-0.0631478 -0.04365 0)
(-0.0673242 -0.0459224 0)
(-0.072182 -0.0478549 0)
(-0.0778135 -0.0496469 0)
(-0.0841754 -0.0512444 0)
(-0.0911125 -0.0524832 0)
(-0.0983846 -0.0531254 0)
(-0.105661 -0.0528629 0)
(-0.112503 -0.0512955 0)
(-0.118348 -0.0478779 0)
(-0.12249 -0.041827 0)
(-0.124155 -0.0319721 0)
(-0.122867 -0.018715 0)
(-0.117792 -0.00298772 0)
(-0.107588 0.0156008 0)
(-0.0914708 0.0367609 0)
(-0.0698863 0.0579021 0)
(-0.044786 0.0724704 0)
(-0.0106616 0.0637873 0)
(0.141862 -0.00936498 0)
(-0.200869 -0.099475 0)
(0.0964051 -0.250837 0)
(-0.343163 -0.112611 0)
(-0.271572 0.0435159 0)
(-0.190217 -0.0100868 0)
(-0.159777 -0.00395668 0)
(-0.115967 0.00852224 0)
(-0.0807248 0.00710409 0)
(-0.0602916 0.00218024 0)
(-0.055022 0.00751875 0)
(-0.0556214 0.0199924 0)
(-0.0648483 0.0349476 0)
(-0.0741705 0.0500029 0)
(-0.0809604 0.0637693 0)
(-0.0843698 0.0757151 0)
(-0.0839644 0.0860715 0)
(-0.0815973 0.0970237 0)
(-0.0785586 0.108294 0)
(-0.0760433 0.118054 0)
(-0.0747364 0.125157 0)
(-0.0746944 0.129469 0)
(-0.0756124 0.131203 0)
(-0.0772847 0.132602 0)
(-0.0795064 0.133917 0)
(-0.0821317 0.135038 0)
(-0.0850562 0.135671 0)
(-0.0881954 0.135444 0)
(-0.0914514 0.133999 0)
(-0.0946698 0.131047 0)
(-0.0975826 0.126351 0)
(-0.0996886 0.119653 0)
(-0.100022 0.110635 0)
(-0.09663 0.101663 0)
(-0.0870072 0.0953793 0)
(-0.0690709 0.0929419 0)
(-0.0423898 0.0951043 0)
(-0.00537582 0.101248 0)
(0.0400389 0.104309 0)
(0.0786872 0.0948211 0)
(0.157335 0.0745601 0)
(-0.259692 0.0314689 0)
)
;

boundaryField
{
    floor
    {
        type            noSlip;
    }
    ceiling
    {
        type            noSlip;
    }
    sWall
    {
        type            noSlip;
    }
    nWall
    {
        type            noSlip;
    }
    sideWalls
    {
        type            empty;
    }
    glass1
    {
        type            noSlip;
    }
    glass2
    {
        type            noSlip;
    }
    sun
    {
        type            noSlip;
    }
    Table_master
    {
        type            noSlip;
    }
    Table_slave
    {
        type            noSlip;
    }
    inlet
    {
        type            fixedValue;
        value           uniform (0.212132 -0.212132 0);
    }
    outlet
    {
        type            zeroGradient;
    }
}


// ************************************************************************* //
