/*--------------------------------*- C++ -*----------------------------------*\
  =========                 |
  \\      /  F ield         | OpenFOAM: The Open Source CFD Toolbox
   \\    /   O peration     | Website:  https://openfoam.org
    \\  /    A nd           | Version:  6
     \\/     M anipulation  |
\*---------------------------------------------------------------------------*/
FoamFile
{
    version     2.0;
    format      ascii;
    class       surfaceScalarField;
    location    "2400";
    object      phi;
}
// * * * * * * * * * * * * * * * * * * * * * * * * * * * * * * * * * * * * * //

dimensions      [1 0 -1 0 0 0 0];

internalField   nonuniform List<scalar> 
850
(
-0.00267733
0.0027347
-0.00334727
0.000669948
-0.00397753
0.000630271
-0.00454573
0.000568216
-0.00501804
0.000472327
-0.00537881
0.000360775
-0.00561187
0.000233072
-0.00569672
8.48658e-05
-0.00560801
-8.86949e-05
-0.00531806
-0.000289943
-0.00481286
-0.000505182
-0.00409782
-0.000715035
-0.00316821
-0.000929594
-0.00191115
-0.00125704
-0.00190999
0.000191047
-0.000189053
0.00075341
-0.000562347
0.00122794
-0.000474513
0.00157771
-0.00034975
0.00182618
-0.000248456
0.00195227
-0.000126072
0.00199556
-4.32721e-05
0.00200884
-1.32612e-05
0.00200963
-7.69897e-07
0.0020007
8.95179e-06
0.00198232
1.83978e-05
0.00195106
3.12753e-05
0.00189493
5.61532e-05
0.0017851
0.00010985
0.00157357
0.00021154
0.00123131
0.000342283
0.000776111
0.000455219
0.000778819
-0.00193285
0.00482086
-0.00273005
0.00146716
-0.00344104
0.00134128
-0.00402205
0.00114924
-0.00449665
0.000946938
-0.004865
0.000729136
-0.00511536
0.000483446
-0.00522849
0.000198012
-0.00518313
-0.000134043
-0.00496558
-0.00050748
-0.0045781
-0.000892649
-0.00404341
-0.00124972
-0.00340662
-0.00156638
-0.00282993
-0.00183372
-0.00293865
-0.00180125
-0.00176411
-0.0011723
-0.000888398
-0.000873255
-0.00088168
0.000759404
-0.000943661
0.00109183
-0.000894755
0.00135214
-0.000734804
0.00159512
-0.000592714
0.0017886
-0.000441917
0.0018252
-0.000162656
0.00182889
-4.69414e-05
0.0018333
-1.76467e-05
0.00183684
-4.29308e-06
0.00183793
7.87477e-06
0.00183663
1.97193e-05
0.00183223
3.56947e-05
0.00182003
6.83729e-05
0.00176655
0.000163351
0.00155988
0.000418232
0.00119535
0.000706833
0.000710898
0.000939686
0.00149705
-0.00139327
0.0064464
-0.00216401
0.00223792
-0.00281237
0.00198965
-0.0033153
0.00165218
-0.00373255
0.0013642
-0.00406649
0.00106308
-0.00430277
0.00071974
-0.00441885
0.000314106
-0.00438846
-0.000164417
-0.00419247
-0.000703465
-0.00383734
-0.00124776
-0.00335771
-0.00172934
-0.00282099
-0.00210309
-0.00234443
-0.00231028
-0.00192149
-0.00222418
-0.00121906
-0.00187471
-0.000517928
-0.00157438
-0.00139382
0.000721042
-0.00165762
0.00103791
-0.00121161
0.00122927
-0.000926147
0.00141099
-0.000774409
0.00167443
-0.000705344
0.00151195
0.00146518
0.0014477
0.00144358
0.00145163
0.00147152
0.00150739
0.00157593
0.00173945
0.00149375
0.000663958
0.00116435
0.00103625
0.000671832
0.00143223
0.00218035
-0.00101724
0.00776111
-0.00170895
0.00292965
-0.00214349
0.0024242
-0.00249906
0.00200777
-0.00281376
0.00167891
-0.00308142
0.00133076
-0.00328354
0.000921873
-0.00339212
0.000422704
-0.00336821
-0.000188311
-0.00318374
-0.000887927
-0.00285767
-0.00157382
-0.00244114
-0.00214586
-0.00199687
-0.00254736
-0.00157822
-0.00272893
-0.00114009
-0.0026623
-0.000615928
-0.00239887
-0.000119145
-0.00207115
0.000201808
-0.00171476
0.00133843
-0.00112933
0.00095834
-0.00127752
0.000965705
-0.00121896
0.00103603
-0.000996458
0.00109084
-0.000829194
0.00104607
-0.000660561
0.00141127
-0.000365333
0.00167275
-0.000261614
0.00189361
-0.000220995
0.00207691
-0.000183428
0.0022071
-0.000130324
0.00225921
-5.22381e-05
0.00220445
5.46213e-05
0.00201097
0.000193352
0.00162032
0.000390522
0.00147744
0.000806855
0.00120259
0.00131112
0.000782857
0.00185198
0.00297832
-0.000746087
0.00885862
-0.001343
0.00352657
-0.00144943
0.00253064
-0.0016096
0.00216797
-0.00178988
0.0018592
-0.00195848
0.00149937
-0.00209111
0.00105452
-0.00216221
0.000493825
-0.0021193
-0.00023121
-0.00193061
-0.0010766
-0.00164172
-0.00186271
-0.00131361
-0.00247398
-0.000989704
-0.00287127
-0.00069217
-0.00302646
-0.000396141
-0.00295833
-8.25931e-05
-0.00271241
0.00019916
-0.00235289
0.000420325
-0.00193591
0.000770169
-0.00147916
0.000786755
-0.00129409
0.000729162
-0.00116134
0.000728467
-0.000995745
0.000757645
-0.000858353
0.000825152
-0.000728048
0.00103446
-0.000574618
0.00124666
-0.000473796
0.0014383
-0.000412617
0.00160692
-0.000352029
0.00174283
-0.000266213
0.00182728
-0.000136667
0.00183552
4.64042e-05
0.00175601
0.000272886
0.0016051
0.000541452
0.00149368
0.000918289
0.00142536
0.00137947
0.00139391
0.00188345
0.00226731
0.00210494
0.00140667
0.000876204
0.0013081
0.000113548
0.0013759
-0.000669675
0.00992462
-0.00114472
0.00400163
-0.000779727
0.00216566
-0.000640363
0.00202862
-0.000678369
0.00189722
-0.000747253
0.00156827
-0.000779884
0.00108716
-0.000760215
0.000474172
-0.000645309
-0.0003461
-0.000442835
-0.00127906
-0.00021809
-0.00208744
-1.72695e-05
-0.0026748
0.000139585
-0.00302813
0.000254738
-0.00314162
0.000345347
-0.00304894
0.000422487
-0.00278955
0.000479705
-0.0024101
0.000509276
-0.00196547
0.000551178
-0.00152104
0.000492797
-0.00123569
0.000397727
-0.00106625
0.000348864
-0.000946862
0.000353845
-0.000863314
0.000413492
-0.000787676
0.000541959
-0.000703064
0.000699687
-0.000631504
0.000858696
-0.000571605
0.00101121
-0.000504521
0.00115316
-0.000408142
0.00127674
-0.000260231
0.00136042
-3.7251e-05
0.0013924
0.000240927
0.00139793
0.000535946
0.00144315
0.000873084
0.0015922
0.00123044
0.00186158
0.00161409
0.00216723
0.00179931
0.001762
0.00128145
0.000954907
0.000920666
0.00238515
-0.000842576
0.0112029
-0.000838727
0.0039978
0.000171424
0.00115552
0.000623107
0.00157695
0.000663144
0.0018572
0.000654918
0.00157651
0.000718421
0.00102368
0.000874478
0.000318132
0.00108676
-0.000558363
0.00126486
-0.00145716
0.00136078
-0.00218336
0.00136988
-0.0026839
0.00130576
-0.00296401
0.00119033
-0.0030262
0.00104126
-0.00289987
0.000875158
-0.00262344
0.000699202
-0.00223413
0.000514723
-0.00178097
0.000339559
-0.00134586
0.000156851
-0.00105296
6.04551e-06
-0.000915428
-8.54245e-05
-0.000855371
-0.000121659
-0.00082706
-0.000111134
-0.00079818
-5.43623e-05
-0.000759815
3.28348e-05
-0.000718681
0.000133735
-0.000672484
0.000242224
-0.00061299
0.000360795
-0.000526691
0.000494871
-0.000394286
0.00064891
-0.000191269
0.000801392
8.84656e-05
0.000945424
0.000391936
0.00112643
0.000692102
0.00138444
0.000972454
0.0017237
0.00127486
0.00211422
0.00140881
0.00229851
0.00109718
0.00183202
0.00138718
0.00427363
0.00225645
0.00943205
0.00280867
0.00344558
0.00312271
0.000841498
0.00308976
0.00160992
0.00291425
0.00203272
0.00283757
0.00165321
0.00286888
0.000992393
0.00301363
0.000173397
0.00315901
-0.000703723
0.00315918
-0.00145732
0.00300282
-0.002027
0.00273187
-0.00241295
0.00239161
-0.00262377
0.00200639
-0.00264099
0.00159612
-0.0024896
0.00118181
-0.00220913
0.000778243
-0.00183055
0.00039156
-0.00139427
4.18099e-05
-0.000996084
-0.000233216
-0.000777909
-0.000428744
-0.000719878
-0.000562719
-0.000721374
-0.000654819
-0.000734939
-0.00071256
-0.000740418
-0.000739294
-0.00073306
-0.000743508
-0.000714446
-0.00073241
-0.000683561
-0.000708516
-0.000636863
-0.000666975
-0.000568211
-0.000592306
-0.000468934
-0.000455215
-0.000328339
-0.000237543
-0.000129185
2.1299e-05
0.000133115
0.000315108
0.000398315
0.000657449
0.000630135
0.00106715
0.000865182
0.00150703
0.000968946
0.00174548
0.000858743
0.00104651
0.00208617
0.0055559
0.00995956
0.0133941
0.0123892
0.00184643
0.0103417
0.00365742
0.00887999
0.00349442
0.00787649
0.00265671
0.00715611
0.00171279
0.00654557
0.000783951
0.00589362
-5.17688e-05
0.00518856
-0.000752266
0.0044727
-0.00131115
0.00378057
-0.00172084
0.00312336
-0.00196657
0.00246901
-0.00198666
0.0018184
-0.00183899
0.00118862
-0.00157934
0.000600838
-0.00124275
5.96466e-05
-0.000853054
-0.000363756
-0.000572656
-0.000658211
-0.000483431
-0.000882116
-0.000495951
-0.0010662
-0.000537268
-0.00122511
-0.000576013
-0.00136386
-0.000601643
-0.00148517
-0.000611734
-0.00159387
-0.000605721
-0.00169583
-0.000581584
-0.00179738
-0.000535291
-0.00190516
-0.00046041
-0.00202691
-0.00034716
-0.00217291
-0.00018232
-0.00234425
4.21744e-05
-0.00254443
0.000333322
-0.00284137
0.000695272
-0.00335562
0.0011444
-0.0041791
0.00168869
-0.0054575
0.00224737
-0.00716559
0.00256685
-0.00707248
0.00199308
-0.00125784
0.00305846
0.00318836
0.00414362
0.00257221
0.00547063
0.00216737
0.00584958
0.00227774
0.00577968
0.00178266
0.0055545
0.00100911
0.00521187
0.000290835
0.0047418
-0.000282213
0.00416319
-0.000732563
0.00354163
-0.0010993
0.00292323
-0.00134819
0.00221184
-0.00127528
0.00146635
-0.0010935
0.000738069
-0.000851043
6.55928e-05
-0.000570249
-0.000459402
-0.000328029
-0.000799911
-0.000232121
-0.00105364
-0.000229675
-0.00128158
-0.000267993
-0.0015051
-0.000313722
-0.0017281
-0.000352994
-0.0019485
-0.00038122
-0.00216358
-0.000396637
-0.00237166
-0.000397615
-0.00257184
-0.000381389
-0.00276342
-0.000343689
-0.00294499
-0.000278818
-0.00311216
-0.000179968
-0.00325723
-3.72268e-05
-0.00337332
0.000158281
-0.00345306
0.000413078
-0.00351764
0.000759877
-0.00358092
0.00120771
-0.0036321
0.00173989
-0.00365976
0.00227505
-0.00356556
0.00247267
-0.00210855
0.000536085
-0.0032974
-0.000273682
0.00351011
0.00116186
0.00113662
0.0019858
0.0013434
0.00271593
0.00154759
0.00322227
0.0012763
0.00348473
0.000746621
0.00349511
0.000280436
0.00328338
-7.05065e-05
0.00288992
-0.000339121
0.00238909
-0.000598488
0.00193376
-0.000892862
0.00124089
-0.00058239
0.000516112
-0.000368698
-0.000109433
-0.000225463
-0.000571575
-0.000108077
-0.000858292
-4.12841e-05
-0.00105917
-3.12183e-05
-0.00124053
-4.82895e-05
-0.00143643
-7.2077e-05
-0.00165625
-9.38761e-05
-0.00189752
-0.000111706
-0.00215309
-0.00012563
-0.00241401
-0.000135696
-0.00267043
-0.000141173
-0.00291149
-0.000140307
-0.00312484
-0.000130314
-0.00329626
-0.000107374
-0.0034094
-6.6813e-05
-0.00344202
-4.58705e-06
-0.00339053
0.000106818
-0.00324258
0.000265144
-0.00296494
0.000482259
-0.00253837
0.000781155
-0.00193663
0.00113817
-0.00101593
0.00135437
0.000519284
0.000937474
0.00143466
-0.000379268
-0.0017872
-0.00575314
-0.0080642
-0.00452152
-0.00337331
-0.00202361
-0.000473094
0.000803377
0.00154892
0.00182756
0.00175468
0.0014126
0.000810461
-8.7272e-05
-0.000678557
-0.00105742
-0.00129365
-0.00141321
-0.00146679
-0.001511
-0.00157279
-0.0016588
-0.00176701
-0.00189343
-0.00203412
-0.00218517
-0.00234189
-0.00249785
-0.00264379
-0.00276667
-0.00284878
-0.00286837
-0.00277618
-0.00252527
-0.00205682
-0.00128907
-0.000163913
0.00117777
0.00210239
0.00170956
)
;

boundaryField
{
    floor
    {
        type            calculated;
        value           nonuniform List<scalar> 
36
(
0
0
0
0
0
0
0
0
0
0
0
0
0
0
0
0
0
0
0
-2.68815e-06
-7.31114e-06
-1.14459e-05
-1.50938e-05
-1.55424e-05
-1.49554e-05
-1.40842e-05
-1.15455e-06
-2.22947e-06
-2.44844e-06
-2.65062e-06
-1.97281e-06
-4.05218e-06
-4.7788e-06
-5.77363e-06
-7.06105e-06
-7.27651e-06
)
;
    }
    ceiling
    {
        type            calculated;
        value           nonuniform List<scalar> 
43
(
-3.58732e-05
-3.42915e-05
-3.25889e-05
-1.16061e-05
-6.30829e-06
-2.94527e-06
-1.8959e-07
1.06346e-06
1.78291e-06
2.3556e-06
2.94799e-06
3.6483e-06
4.91075e-06
8.96934e-06
1.02e-05
1.07942e-05
1.15102e-05
1.23262e-05
1.30107e-05
1.35297e-05
1.39553e-05
1.43506e-05
1.47326e-05
1.50844e-05
1.53746e-05
1.55739e-05
1.56655e-05
1.56474e-05
1.55279e-05
1.53186e-05
1.50272e-05
1.46489e-05
1.42497e-05
1.38374e-05
1.34207e-05
1.30338e-05
1.27081e-05
1.28711e-05
1.35899e-05
1.5035e-05
1.46994e-05
1.1049e-05
-4.81153e-05
)
;
    }
    sWall
    {
        type            calculated;
        value           uniform -0.000250582;
    }
    nWall
    {
        type            calculated;
        value           nonuniform List<scalar> 6(-5.37013e-05 -5.43225e-05 -5.64399e-05 -6.89657e-05 -7.55226e-05 -9.26614e-05);
    }
    sideWalls
    {
        type            empty;
        value           nonuniform 0();
    }
    glass1
    {
        type            calculated;
        value           nonuniform List<scalar> 9(-5.73531e-05 -0.0001533 -0.000232273 -0.000297455 -0.000351417 -0.000396318 -0.00043565 -0.000485639 -0.000542197);
    }
    glass2
    {
        type            calculated;
        value           nonuniform List<scalar> 2(-0.000235732 -0.000258725);
    }
    sun
    {
        type            calculated;
        value           uniform 0;
    }
    Table_master
    {
        type            calculated;
        value           nonuniform List<scalar> 9(-1.52511e-07 -1.52596e-07 -1.52622e-07 -1.52636e-07 -1.52643e-07 -1.52644e-07 -1.5264e-07 -1.52624e-07 -1.52575e-07);
    }
    Table_slave
    {
        type            calculated;
        value           nonuniform List<scalar> 9(1.52553e-07 1.52498e-07 1.52427e-07 1.52369e-07 1.52328e-07 1.52315e-07 1.52322e-07 1.52349e-07 1.52425e-07);
    }
    inlet
    {
        type            calculated;
        value           uniform -0.00440044;
    }
    outlet
    {
        type            calculated;
        value           nonuniform List<scalar> 2(0.00603958 0.00234535);
    }
}


// ************************************************************************* //
