/*--------------------------------*- C++ -*----------------------------------*\
  =========                 |
  \\      /  F ield         | OpenFOAM: The Open Source CFD Toolbox
   \\    /   O peration     | Website:  https://openfoam.org
    \\  /    A nd           | Version:  6
     \\/     M anipulation  |
\*---------------------------------------------------------------------------*/
FoamFile
{
    version     2.0;
    format      ascii;
    class       volVectorField;
    location    "2000";
    object      U;
}
// * * * * * * * * * * * * * * * * * * * * * * * * * * * * * * * * * * * * * //

dimensions      [0 1 -1 0 0 0 0];

internalField   nonuniform List<vector> 
458
(
(0.0892494 0.0695678 0)
(-0.13936 0.00564562 0)
(-0.131104 0.00916469 0)
(-0.151373 0.00861568 0)
(-0.170072 0.00660947 0)
(-0.186394 0.0039768 0)
(-0.199477 0.000847342 0)
(-0.208572 -0.00282895 0)
(-0.21289 -0.00717259 0)
(-0.211375 -0.0123706 0)
(-0.202093 -0.0189574 0)
(-0.181915 -0.0275395 0)
(-0.149401 -0.0399083 0)
(-0.116173 -0.0597521 0)
(-0.121164 -0.087369 0)
(0.0708416 -0.00323456 0)
(-0.0129931 -0.012923 0)
(0.0199378 -0.0183658 0)
(0.0470197 -0.0204646 0)
(0.0713114 -0.0179631 0)
(0.0894782 -0.00971784 0)
(0.0973328 -0.00497395 0)
(0.0979604 -0.00314082 0)
(0.0960125 -0.0022883 0)
(0.0937772 -0.00168524 0)
(0.0914579 -0.00120887 0)
(0.0888557 -0.000763719 0)
(0.085735 -0.000127416 0)
(0.0814738 0.00113228 0)
(0.0747297 0.00357406 0)
(0.0639477 0.00670886 0)
(0.0508525 0.0103922 0)
(-0.00156493 0.0253808 0)
(0.28967 0.151651 0)
(-0.161396 0.0275041 0)
(-0.119653 0.0322588 0)
(-0.145919 0.0311821 0)
(-0.166183 0.028368 0)
(-0.183726 0.0245336 0)
(-0.198093 0.0196852 0)
(-0.208762 0.0136419 0)
(-0.215051 0.0061618 0)
(-0.216005 -0.00301718 0)
(-0.210815 -0.0137435 0)
(-0.198744 -0.0259271 0)
(-0.181212 -0.0407047 0)
(-0.165506 -0.0594965 0)
(-0.156145 -0.072606 0)
(-0.123554 -0.0466136 0)
(-0.0641916 -0.0409794 0)
(-0.0828985 -0.00225064 0)
(0.107282 -0.00436391 0)
(0.0169213 -0.00960478 0)
(0.0200254 -0.0232226 0)
(0.0401586 -0.0346 0)
(0.0582889 -0.0347083 0)
(0.0751491 -0.01288 0)
(0.0781101 -0.000403859 0)
(0.0761799 0.0040596 0)
(0.0746453 0.00558584 0)
(0.0740071 0.00621222 0)
(0.073558 0.00640325 0)
(0.0730615 0.00652368 0)
(0.0725165 0.00711937 0)
(0.0713736 0.00916693 0)
(0.0672766 0.015035 0)
(0.0572744 0.0213564 0)
(0.0489306 0.0277616 0)
(-0.0405382 0.0524577 0)
(0.462064 0.23253 0)
(-0.206644 0.057762 0)
(-0.0966127 0.0570574 0)
(-0.12898 0.0509572 0)
(-0.147696 0.0448289 0)
(-0.164188 0.0375174 0)
(-0.17799 0.028619 0)
(-0.188714 0.0178817 0)
(-0.195736 0.00519153 0)
(-0.198134 -0.00928905 0)
(-0.195061 -0.025347 0)
(-0.187194 -0.0426882 0)
(-0.176543 -0.0610338 0)
(-0.166687 -0.0791522 0)
(-0.155689 -0.0904294 0)
(-0.133964 -0.0881545 0)
(-0.111844 -0.0978117 0)
(-0.138224 -0.10878 0)
(0.0676563 0.00119425 0)
(-0.0257877 -0.0146145 0)
(-0.00342191 -0.0376267 0)
(0.0182389 -0.0554291 0)
(0.0309624 -0.0632222 0)
(0.0583003 -0.037318 0)
(0.0480605 -0.01827 0)
(0.0384232 -0.00992009 0)
(0.0384277 -0.00596855 0)
(0.0418836 -0.00376819 0)
(0.0453497 -0.00254198 0)
(0.0485571 -0.00173275 0)
(0.0522727 -0.000645706 0)
(0.0578569 0.0032201 0)
(0.059999 0.0207942 0)
(0.0512618 0.0339632 0)
(0.0531128 0.0462286 0)
(-0.0743681 0.0820436 0)
(0.605166 0.300354 0)
(-0.256958 0.0918253 0)
(-0.0660284 0.0801406 0)
(-0.105302 0.0694586 0)
(-0.120185 0.0614643 0)
(-0.133881 0.052395 0)
(-0.145832 0.0414057 0)
(-0.155646 0.0280188 0)
(-0.162665 0.0119099 0)
(-0.165806 -0.00687223 0)
(-0.163792 -0.0275231 0)
(-0.158319 -0.0485752 0)
(-0.151396 -0.0683344 0)
(-0.14531 -0.0844413 0)
(-0.139293 -0.0934298 0)
(-0.132015 -0.0958236 0)
(-0.131981 -0.0973436 0)
(-0.148005 -0.0813334 0)
(-0.136293 -0.0174841 0)
(-0.0855115 -0.0257841 0)
(-0.0526186 -0.0388275 0)
(-0.0254289 -0.0590723 0)
(-0.00966253 -0.0699863 0)
(-0.00844169 -0.0694425 0)
(-8.0579e-05 -0.0353553 0)
(0.0321602 -0.0250015 0)
(0.0556864 -0.0200118 0)
(0.0749663 -0.0165525 0)
(0.0907985 -0.013444 0)
(0.102735 -0.0100279 0)
(0.109531 -0.00586816 0)
(0.10867 -0.000584628 0)
(0.0987594 0.00652615 0)
(0.0808309 0.0266682 0)
(0.0642379 0.0466616 0)
(0.069302 0.067007 0)
(-0.0821746 0.113831 0)
(0.719438 0.356146 0)
(-0.302365 0.126015 0)
(-0.0330339 0.0957523 0)
(-0.0771289 0.0828747 0)
(-0.0873428 0.0738704 0)
(-0.0968914 0.0636211 0)
(-0.105559 0.0510688 0)
(-0.113019 0.0355283 0)
(-0.118736 0.0164789 0)
(-0.12129 -0.00609912 0)
(-0.118814 -0.0306297 0)
(-0.113991 -0.0542798 0)
(-0.108652 -0.0744673 0)
(-0.104353 -0.0892467 0)
(-0.101048 -0.0975584 0)
(-0.0989366 -0.101258 0)
(-0.100516 -0.102408 0)
(-0.102783 -0.0937848 0)
(-0.0938785 -0.0658461 0)
(-0.0726564 -0.0577225 0)
(-0.0497414 -0.0651807 0)
(-0.0310306 -0.0779919 0)
(-0.018621 -0.0799967 0)
(-0.0113943 -0.0698588 0)
(0.000711665 -0.047622 0)
(0.0213286 -0.0360902 0)
(0.0391501 -0.0299404 0)
(0.0551857 -0.0252465 0)
(0.0692588 -0.02024 0)
(0.0809025 -0.0136023 0)
(0.0892363 -0.00415295 0)
(0.0928637 0.00787361 0)
(0.0903312 0.02197 0)
(0.083575 0.0407062 0)
(0.0743504 0.0605472 0)
(0.0932649 0.0828154 0)
(0.0389707 0.115088 0)
(0.102616 0.13607 0)
(0.125489 0.151354 0)
(-0.17733 0.184384 0)
(0.793184 0.405571 0)
(-0.338115 0.155115 0)
(-0.00830969 0.0968874 0)
(-0.0434321 0.0912517 0)
(-0.0499687 0.0824585 0)
(-0.0555188 0.0708683 0)
(-0.0600166 0.0571919 0)
(-0.0636472 0.0404926 0)
(-0.0664917 0.019716 0)
(-0.0662069 -0.00588242 0)
(-0.061644 -0.0339905 0)
(-0.0570563 -0.0592244 0)
(-0.053568 -0.078817 0)
(-0.0518839 -0.0918709 0)
(-0.0518808 -0.0986133 0)
(-0.0536387 -0.100492 0)
(-0.0573233 -0.0980423 0)
(-0.059952 -0.0891017 0)
(-0.0566965 -0.0763781 0)
(-0.0480282 -0.072549 0)
(-0.0381991 -0.0795716 0)
(-0.028946 -0.0904439 0)
(-0.0213274 -0.0887652 0)
(-0.0148089 -0.0761386 0)
(-0.00742959 -0.0620162 0)
(0.00540373 -0.0516389 0)
(0.0177611 -0.0452788 0)
(0.0298471 -0.0399498 0)
(0.0413776 -0.0339109 0)
(0.052117 -0.0255927 0)
(0.061773 -0.0132702 0)
(0.0708585 0.00383732 0)
(0.0747536 0.0227786 0)
(0.0763135 0.0427742 0)
(0.0766072 0.0621865 0)
(0.0936294 0.0822895 0)
(0.0866776 0.0889128 0)
(0.0989337 0.0429511 0)
(0.126919 -0.0118343 0)
(-0.216548 0.0938232 0)
(0.812745 0.450091 0)
(-0.351772 0.150426 0)
(0.00874995 0.0558552 0)
(0.00930901 0.0907814 0)
(0.00169855 0.0954864 0)
(-0.00515923 0.0776807 0)
(-0.00708179 0.0596649 0)
(-0.00667012 0.0416416 0)
(-0.00595198 0.0196323 0)
(0.00158761 -0.010006 0)
(0.00875009 -0.0399494 0)
(0.0116345 -0.0637014 0)
(0.0113893 -0.0806343 0)
(0.00847525 -0.0911507 0)
(0.0034838 -0.0960798 0)
(-0.00326398 -0.0965823 0)
(-0.0107748 -0.0931764 0)
(-0.0172412 -0.0858208 0)
(-0.0206061 -0.077795 0)
(-0.0216896 -0.0754997 0)
(-0.0230763 -0.0829213 0)
(-0.0232285 -0.0954715 0)
(-0.0220166 -0.0936559 0)
(-0.0195459 -0.0801775 0)
(-0.0176309 -0.0689629 0)
(-0.01311 -0.0609008 0)
(-0.00747596 -0.0549803 0)
(-0.0011187 -0.0498608 0)
(0.00588283 -0.0440166 0)
(0.0133706 -0.0360524 0)
(0.0218505 -0.0238926 0)
(0.0327954 -0.00539248 0)
(0.0457829 0.0167608 0)
(0.0548007 0.0368568 0)
(0.0630441 0.0538649 0)
(0.0799443 0.0699981 0)
(0.0915731 0.0732889 0)
(0.103975 0.0510315 0)
(0.159984 0.0525262 0)
(-0.15523 0.154994 0)
(0.909384 0.467928 0)
(-0.128289 0.132253 0)
(0.0823207 -0.0234658 0)
(0.130518 0.0280369 0)
(0.107225 0.0650931 0)
(0.0848812 0.0596974 0)
(0.0772964 0.0421773 0)
(0.0770107 0.0236741 0)
(0.0791991 0.000937238 0)
(0.0887444 -0.0238442 0)
(0.0929814 -0.0458424 0)
(0.0904648 -0.0635115 0)
(0.0833641 -0.0761308 0)
(0.0732361 -0.0837804 0)
(0.0612332 -0.0869937 0)
(0.048288 -0.0865941 0)
(0.0352274 -0.0832733 0)
(0.0230761 -0.0776483 0)
(0.0127492 -0.0716215 0)
(0.00368184 -0.0690637 0)
(-0.00701593 -0.0760626 0)
(-0.0162809 -0.0922715 0)
(-0.0221814 -0.0929294 0)
(-0.024982 -0.0789238 0)
(-0.0297102 -0.0687659 0)
(-0.0327874 -0.0619345 0)
(-0.0348171 -0.0570047 0)
(-0.03601 -0.0528043 0)
(-0.0363037 -0.0482043 0)
(-0.0354271 -0.0421786 0)
(-0.0327719 -0.0337544 0)
(-0.0266324 -0.0220382 0)
(-0.00904443 -0.00572935 0)
(0.00959146 0.0137725 0)
(0.0230654 0.0249488 0)
(0.0420111 0.0320707 0)
(0.059279 0.0261956 0)
(0.0729495 0.0029745 0)
(0.162504 0.059147 0)
(-0.460861 0.250827 0)
(1.03977 0.434398 0)
(0.493587 0.285969 0)
(0.502491 0.201433 0)
(0.48861 0.182099 0)
(0.40039 0.164665 0)
(0.321593 0.13159 0)
(0.275307 0.0940869 0)
(0.248604 0.0590721 0)
(0.232345 0.0272159 0)
(0.215747 -0.00237977 0)
(0.196417 -0.0275573 0)
(0.176183 -0.0466096 0)
(0.155536 -0.0594785 0)
(0.134722 -0.0670059 0)
(0.114094 -0.0702271 0)
(0.0940611 -0.0701207 0)
(0.0749983 -0.0675264 0)
(0.0572543 -0.0632704 0)
(0.0409677 -0.0586306 0)
(0.0254816 -0.0559151 0)
(0.00862863 -0.059958 0)
(-0.0093789 -0.0796921 0)
(-0.0225325 -0.0848823 0)
(-0.0303126 -0.0704127 0)
(-0.0418463 -0.0609512 0)
(-0.0527099 -0.0551994 0)
(-0.0628474 -0.0511175 0)
(-0.072517 -0.047455 0)
(-0.0819246 -0.0431194 0)
(-0.0913235 -0.037018 0)
(-0.101152 -0.0280043 0)
(-0.111963 -0.0150208 0)
(-0.123772 0.00246514 0)
(-0.133858 0.0231382 0)
(-0.15165 0.0461216 0)
(-0.182942 0.0724973 0)
(-0.230494 0.101226 0)
(-0.287432 0.130127 0)
(-0.363235 0.155476 0)
(-0.673849 0.174962 0)
(-0.544339 0.0133373 0)
(0.184202 0.148911 0)
(0.249919 0.160272 0)
(0.241658 0.139477 0)
(0.24328 0.106233 0)
(0.246114 0.0701021 0)
(0.244802 0.0373477 0)
(0.238737 0.010622 0)
(0.226699 -0.0104349 0)
(0.209748 -0.026091 0)
(0.189545 -0.0369942 0)
(0.167448 -0.0438288 0)
(0.144648 -0.0472677 0)
(0.122076 -0.0479633 0)
(0.100364 -0.0465223 0)
(0.0798546 -0.0435369 0)
(0.0604902 -0.0397501 0)
(0.0414006 -0.0364802 0)
(0.0206925 -0.03747 0)
(-0.00133995 -0.0568104 0)
(-0.0231593 -0.0682639 0)
(-0.0353963 -0.0519941 0)
(-0.0519036 -0.0434205 0)
(-0.06877 -0.0392124 0)
(-0.0849219 -0.0362727 0)
(-0.100603 -0.0332442 0)
(-0.115891 -0.0291621 0)
(-0.130601 -0.0231256 0)
(-0.144227 -0.0142705 0)
(-0.155754 -0.00183748 0)
(-0.163262 0.0147069 0)
(-0.166999 0.0353704 0)
(-0.170196 0.0598155 0)
(-0.174669 0.0851877 0)
(-0.17844 0.10216 0)
(-0.171382 0.0879849 0)
(-0.160698 -0.000940281 0)
(-0.292989 -0.212063 0)
(-0.253595 0.192191 0)
(0.117408 0.131892 0)
(0.0908843 0.112737 0)
(0.118822 0.108374 0)
(0.155047 0.0866677 0)
(0.183599 0.057686 0)
(0.201025 0.0321174 0)
(0.207588 0.0128398 0)
(0.205442 -0.000726393 0)
(0.196253 -0.0103514 0)
(0.182053 -0.0170147 0)
(0.164556 -0.0212758 0)
(0.145178 -0.023519 0)
(0.125064 -0.0240684 0)
(0.105093 -0.0231848 0)
(0.0858619 -0.021036 0)
(0.0676131 -0.0176613 0)
(0.0499044 -0.0130895 0)
(0.031012 -0.0100507 0)
(0.0129074 -0.0318813 0)
(-0.0217398 -0.0543614 0)
(-0.0418697 -0.0296563 0)
(-0.0595753 -0.0170285 0)
(-0.0771695 -0.0124991 0)
(-0.0931921 -0.0102731 0)
(-0.107854 -0.00845433 0)
(-0.12107 -0.00627318 0)
(-0.132466 -0.00321884 0)
(-0.141332 0.00121796 0)
(-0.14642 0.00770839 0)
(-0.146085 0.017665 0)
(-0.138212 0.0332968 0)
(-0.122133 0.0551215 0)
(-0.0992776 0.0814974 0)
(-0.0722356 0.103502 0)
(-0.0472312 0.105513 0)
(0.132502 0.0200957 0)
(-0.224029 -0.126688 0)
(-0.0302155 -0.295587 0)
(-0.366321 -0.0914156 0)
(-0.299087 0.106829 0)
(-0.138999 0.0371008 0)
(-0.0963197 0.043718 0)
(-0.0133404 0.0598303 0)
(0.0636988 0.0458583 0)
(0.113451 0.0276159 0)
(0.147968 0.0126996 0)
(0.166293 0.00166642 0)
(0.171183 -0.00644701 0)
(0.167214 -0.0123266 0)
(0.157025 -0.016734 0)
(0.142829 -0.0200956 0)
(0.126299 -0.022711 0)
(0.108754 -0.0248715 0)
(0.0913024 -0.0269085 0)
(0.074915 -0.0292384 0)
(0.0605082 -0.0324371 0)
(0.0490226 -0.0374 0)
(0.041624 -0.0461445 0)
(0.0399282 -0.065085 0)
(-0.0093193 -0.0960243 0)
(-0.0467451 -0.082421 0)
(-0.0650266 -0.0686442 0)
(-0.0812035 -0.0594065 0)
(-0.0952484 -0.052226 0)
(-0.107738 -0.0460034 0)
(-0.118518 -0.0401112 0)
(-0.127013 -0.0340362 0)
(-0.132208 -0.0272316 0)
(-0.132429 -0.0189737 0)
(-0.124909 -0.00875433 0)
(-0.105953 0.0040187 0)
(-0.0740999 0.0207318 0)
(-0.0344319 0.041926 0)
(0.0371148 0.0654132 0)
(0.0870553 0.0501052 0)
(0.167812 0.00917597 0)
(-0.191359 -0.0655447 0)
)
;

boundaryField
{
    floor
    {
        type            noSlip;
    }
    ceiling
    {
        type            noSlip;
    }
    sWall
    {
        type            noSlip;
    }
    nWall
    {
        type            noSlip;
    }
    sideWalls
    {
        type            empty;
    }
    glass1
    {
        type            noSlip;
    }
    glass2
    {
        type            noSlip;
    }
    sun
    {
        type            noSlip;
    }
    Table_master
    {
        type            noSlip;
    }
    Table_slave
    {
        type            noSlip;
    }
    inlet
    {
        type            fixedValue;
        value           uniform (0.212132 -0.212132 0);
    }
    outlet
    {
        type            zeroGradient;
    }
}


// ************************************************************************* //
