/*--------------------------------*- C++ -*----------------------------------*\
  =========                 |
  \\      /  F ield         | OpenFOAM: The Open Source CFD Toolbox
   \\    /   O peration     | Website:  https://openfoam.org
    \\  /    A nd           | Version:  6
     \\/     M anipulation  |
\*---------------------------------------------------------------------------*/
FoamFile
{
    version     2.0;
    format      ascii;
    class       volScalarField;
    location    "800";
    object      epsilon;
}
// * * * * * * * * * * * * * * * * * * * * * * * * * * * * * * * * * * * * * //

dimensions      [0 2 -3 0 0 0 0];

internalField   nonuniform List<scalar> 
458
(
0.00082474
0.00110926
0.00121531
0.00142107
0.00164382
0.00189621
0.00214332
0.00232448
0.00240685
0.00236983
0.00219555
0.0018009
0.00132839
0.00084351
0.000536408
0.000110963
0.000184566
0.00029114
0.000351271
0.00033843
0.00027702
0.000218841
0.000174424
0.000141294
0.000116278
9.71029e-05
8.2118e-05
7.02216e-05
6.04591e-05
5.20529e-05
4.43129e-05
3.78178e-05
2.8125e-05
0.00188424
0.00250207
0.0010339
0.00103491
0.00113543
0.00130379
0.00150504
0.00166703
0.00174477
0.00171754
0.00158682
0.00133944
0.00107868
0.000858319
0.000684695
0.00120745
0.000785331
0.000450641
0.000100846
0.000188133
0.000253522
0.000271585
0.000272074
0.000285549
0.000225821
0.0001722
0.000131987
0.000102523
8.09458e-05
6.49279e-05
5.28232e-05
4.35321e-05
3.74963e-05
3.45423e-05
5.96825e-05
4.57843e-05
0.0032388
0.00559184
0.00123435
0.00102566
0.00117103
0.00143591
0.00171056
0.00188692
0.0019516
0.0019064
0.00175579
0.00150803
0.00124497
0.000997288
0.000782958
0.000688044
0.000641084
0.000751392
0.000312067
0.000330555
0.000329231
0.000316502
0.000315824
0.000671377
0.000433005
0.000286076
0.000195811
0.000139061
0.000102302
7.77689e-05
6.14245e-05
5.11814e-05
3.88176e-05
3.34288e-05
9.888e-05
6.31591e-05
0.00503341
0.011223
0.00192823
0.00115825
0.00135082
0.001799
0.00213146
0.00226402
0.00227837
0.00219365
0.00200921
0.00173506
0.001419
0.00111774
0.000868547
0.000696914
0.000612674
0.000668428
0.00113934
0.000782912
0.000574664
0.000467789
0.00040314
0.000382558
0.000974118
0.000716794
0.000558059
0.000448053
0.000366726
0.000302195
0.000247119
0.000197615
0.000150706
8.36443e-05
5.11753e-05
0.000162959
8.40303e-05
0.00747478
0.0197603
0.00392056
0.00173715
0.00199545
0.00267226
0.00288027
0.00286758
0.00278359
0.00263896
0.0023945
0.00203126
0.00160828
0.00121613
0.000911795
0.000705257
0.000591611
0.000592157
0.000690519
0.000642253
0.000583324
0.000524913
0.000459207
0.00039405
0.000373113
0.000334991
0.000301256
0.000269329
0.000237956
0.000206551
0.000175205
0.000144856
0.000116324
8.42221e-05
5.96432e-05
0.000116727
0.000154315
0.000168114
0.000199245
0.000249498
0.0107831
0.0293656
0.00933897
0.00418324
0.00450062
0.00437789
0.00406746
0.00377405
0.00353759
0.00329564
0.00294133
0.00242576
0.00183582
0.00130908
0.000926928
0.000694153
0.000591647
0.000600545
0.000661686
0.000681761
0.000654676
0.000587887
0.000498173
0.000405871
0.000336994
0.000294922
0.000267319
0.000242233
0.000215772
0.000187368
0.00015847
0.000130684
0.000105724
8.32005e-05
6.85284e-05
8.84536e-05
0.000129903
0.000157013
0.000283192
0.000279795
0.014042
0.0343787
0.0186229
0.0116649
0.00876718
0.00688321
0.00569494
0.00499581
0.00457844
0.00421514
0.00369214
0.00292842
0.00208524
0.00137934
0.000918924
0.000685167
0.000618257
0.000653655
0.000714623
0.000727604
0.000677376
0.000585597
0.000478993
0.000381253
0.00031239
0.000275855
0.000255853
0.000239405
0.00022248
0.000202675
0.000180995
0.00015855
0.000137143
0.000117707
0.000108416
0.000121075
0.000166085
0.000254442
0.000479066
0.000479764
0.0143169
0.0302885
0.0192902
0.0139176
0.0105488
0.00833952
0.00704689
0.0063814
0.00599023
0.00552282
0.00469743
0.00346565
0.00222022
0.00130785
0.000833159
0.0006756
0.000650217
0.000683726
0.000711301
0.000685432
0.000606802
0.000505108
0.000407685
0.000332169
0.000285855
0.000264285
0.000256785
0.000256624
0.000262063
0.000272504
0.000284077
0.000296091
0.000312103
0.000340594
0.000399998
0.000591608
0.00106422
0.00202253
0.00674659
0.00176612
0.0130164
0.0190927
0.0143659
0.0107665
0.0087044
0.00809531
0.00829687
0.0085922
0.00841891
0.00749134
0.00573301
0.00339378
0.00173668
0.00103393
0.000756315
0.00066322
0.000643785
0.000644243
0.000624862
0.00056925
0.000489961
0.000406679
0.000336969
0.000289179
0.000263037
0.0002531
0.000254057
0.000264155
0.000284768
0.000319166
0.000372007
0.000450127
0.000566695
0.000744572
0.00100492
0.00135746
0.00176421
0.00213076
0.00240344
0.00136258
0.00290612
0.0045564
0.00820235
0.0124081
0.0142786
0.0124618
0.00878009
0.00563567
0.00343583
0.00198917
0.00119636
0.000843333
0.000697657
0.00064099
0.000617838
0.000599602
0.000569224
0.000522452
0.000466405
0.0004106
0.000362661
0.000326582
0.000301814
0.000285722
0.000276801
0.000275969
0.00028646
0.000312268
0.000358302
0.000431091
0.000539763
0.000694677
0.000897415
0.0011199
0.0012865
0.00129635
0.00109775
0.000709536
0.0232919
0.0214641
0.0142884
0.0104646
0.00825103
0.00618195
0.00421119
0.00275751
0.00182546
0.00126845
0.000969594
0.00082649
0.00076123
0.000730539
0.000712486
0.000695878
0.000676237
0.000654246
0.000631867
0.000609288
0.000585455
0.000560178
0.000535553
0.000512136
0.000491148
0.000474962
0.000466738
0.000472682
0.000498809
0.00055156
0.000638674
0.000767943
0.000941109
0.00114448
0.00132252
0.00148146
0.000923532
0.000741542
0.00718733
0.00872298
0.0102362
0.00825185
0.00667033
0.00585276
0.00500218
0.00394453
0.00290074
0.00211735
0.00160451
0.00128197
0.0010807
0.000952874
0.000864261
0.000791674
0.000721498
0.000648502
0.000575029
0.000507812
0.000452588
0.000411407
0.000383569
0.000366396
0.000356155
0.000352075
0.000354345
0.000364063
0.000383342
0.00041265
0.000453122
0.000506796
0.000576781
0.000667314
0.000782717
0.000939858
0.00102786
0.000976737
0.00078734
0.000622743
)
;

boundaryField
{
    floor
    {
        Cmu             0.09;
        kappa           0.41;
        E               9.8;
        type            epsilonWallFunction;
        value           nonuniform List<scalar> 
36
(
0.000536408
0.000110963
0.000184566
0.00029114
0.000351271
0.00033843
0.00027702
0.000218841
0.000174424
0.000141294
0.000116278
9.71029e-05
8.2118e-05
7.02216e-05
6.04591e-05
5.20529e-05
4.43129e-05
3.78178e-05
2.8125e-05
2.8125e-05
4.57843e-05
6.31591e-05
8.40303e-05
0.000168114
0.000199245
0.000249498
0.000536408
0.00120745
0.000785331
0.000450641
0.000110963
0.000450641
0.000100846
0.000751392
0.000312067
0.00113934
)
;
    }
    ceiling
    {
        Cmu             0.09;
        kappa           0.41;
        E               9.8;
        type            epsilonWallFunction;
        value           nonuniform List<scalar> 
43
(
0.00718733
0.00872298
0.0102362
0.00825185
0.00667033
0.00585276
0.00500218
0.00394453
0.00290074
0.00211735
0.00160451
0.00128197
0.0010807
0.000952874
0.000864261
0.000791674
0.000721498
0.000648502
0.000575029
0.000507812
0.000452588
0.000411407
0.000383569
0.000366396
0.000356155
0.000352075
0.000354345
0.000364063
0.000383342
0.00041265
0.000453122
0.000506796
0.000576781
0.000667314
0.000782717
0.000939858
0.00102786
0.000976737
0.00078734
0.000622743
0.0130164
0.0190927
0.0232919
)
;
    }
    sWall
    {
        Cmu             0.09;
        kappa           0.41;
        E               9.8;
        type            epsilonWallFunction;
        value           uniform 0.00718733;
    }
    nWall
    {
        Cmu             0.09;
        kappa           0.41;
        E               9.8;
        type            epsilonWallFunction;
        value           nonuniform List<scalar> 6(0.000249498 0.000279795 0.000479764 0.000709536 0.000741542 0.000622743);
    }
    sideWalls
    {
        type            empty;
    }
    glass1
    {
        Cmu             0.09;
        kappa           0.41;
        E               9.8;
        type            epsilonWallFunction;
        value           nonuniform List<scalar> 9(0.00082474 0.00188424 0.0032388 0.00503341 0.00747478 0.0107831 0.014042 0.0143169 0.0130164);
    }
    glass2
    {
        Cmu             0.09;
        kappa           0.41;
        E               9.8;
        type            epsilonWallFunction;
        value           nonuniform List<scalar> 2(0.00176612 0.00136258);
    }
    sun
    {
        Cmu             0.09;
        kappa           0.41;
        E               9.8;
        type            epsilonWallFunction;
        value           nonuniform List<scalar> 
14
(
0.00082474
0.00110926
0.00121531
0.00142107
0.00164382
0.00189621
0.00214332
0.00232448
0.00240685
0.00236983
0.00219555
0.0018009
0.00132839
0.00084351
)
;
    }
    Table_master
    {
        Cmu             0.09;
        kappa           0.41;
        E               9.8;
        type            epsilonWallFunction;
        value           nonuniform List<scalar> 9(0.000671377 0.000433005 0.000286076 0.000195811 0.000139061 0.000102302 7.77689e-05 6.14245e-05 5.11814e-05);
    }
    Table_slave
    {
        Cmu             0.09;
        kappa           0.41;
        E               9.8;
        type            epsilonWallFunction;
        value           nonuniform List<scalar> 9(0.000974118 0.000716794 0.000558059 0.000448053 0.000366726 0.000302195 0.000247119 0.000197615 0.000150706);
    }
    inlet
    {
        type            turbulentMixingLengthDissipationRateInlet;
        mixingLength    0.01;
        phi             phi;
        k               k;
        value           uniform 0.00193197;
    }
    outlet
    {
        type            zeroGradient;
    }
}


// ************************************************************************* //
