/*--------------------------------*- C++ -*----------------------------------*\
  =========                 |
  \\      /  F ield         | OpenFOAM: The Open Source CFD Toolbox
   \\    /   O peration     | Website:  https://openfoam.org
    \\  /    A nd           | Version:  6
     \\/     M anipulation  |
\*---------------------------------------------------------------------------*/
FoamFile
{
    version     2.0;
    format      ascii;
    class       volScalarField;
    location    "800";
    object      k;
}
// * * * * * * * * * * * * * * * * * * * * * * * * * * * * * * * * * * * * * //

dimensions      [0 2 -2 0 0 0 0];

internalField   nonuniform List<scalar> 
458
(
0.0034856
0.00424705
0.0045136
0.00500965
0.00552037
0.00607186
0.00658853
0.00695476
0.00711812
0.00704495
0.00669519
0.00586673
0.00478944
0.00353827
0.00261654
0.000915205
0.0012848
0.00174101
0.00197314
0.00192476
0.00168424
0.00143929
0.00123728
0.00107517
0.000944196
0.00083731
0.000748785
0.000674599
0.000610529
0.000552538
0.00049631
0.000446544
0.000366547
0.00604633
0.0112384
0.00719188
0.00777933
0.00870693
0.0097906
0.010886
0.0117736
0.0122967
0.0123734
0.0119631
0.0109209
0.00957026
0.00811837
0.00597741
0.0044941
0.00337364
0.00232961
0.0008587
0.00195184
0.00283545
0.00329076
0.00334755
0.00283588
0.00229129
0.00185978
0.00153376
0.00128577
0.0010947
0.00094508
0.000821438
0.000713834
0.000632198
0.000580087
0.000800699
0.000507243
0.0086761
0.0196655
0.0088013
0.00871472
0.00967342
0.0109907
0.012239
0.0131056
0.0136
0.0137297
0.0134166
0.0125552
0.0113607
0.00994257
0.00825225
0.00671196
0.0055777
0.00327572
0.00182351
0.00273558
0.0034785
0.00394181
0.00397344
0.00303884
0.00226843
0.00172075
0.00133646
0.00106382
0.000866938
0.000722111
0.000617014
0.000546356
0.000507063
0.000514752
0.00111247
0.000628586
0.0116406
0.0312814
0.011275
0.00950299
0.010466
0.0121972
0.0134158
0.0140155
0.0143553
0.0144928
0.0142433
0.0134776
0.0122672
0.0108111
0.00929254
0.00786323
0.00664465
0.005058
0.00432349
0.0042897
0.00465376
0.00504861
0.00520552
0.00498646
0.00389467
0.00317438
0.00268648
0.00232069
0.0020306
0.00178479
0.00156075
0.00134465
0.0011224
0.000799287
0.000636363
0.00153503
0.000760382
0.0151519
0.0466937
0.017373
0.0119042
0.0129332
0.0148991
0.015436
0.0155088
0.015606
0.0156852
0.0154213
0.014518
0.0130318
0.0113024
0.00967183
0.00830582
0.00725455
0.00657543
0.00689531
0.00700281
0.00707924
0.0070228
0.00669999
0.00610329
0.00534376
0.00473126
0.00427639
0.00388046
0.0034765
0.00304494
0.00258981
0.00212291
0.00166091
0.00119803
0.000872325
0.00127812
0.00128621
0.0012073
0.00135207
0.0015708
0.0193448
0.0631935
0.0316915
0.0199994
0.0203537
0.0195267
0.0184337
0.0177396
0.0175635
0.0175925
0.017231
0.0160128
0.0140334
0.0118215
0.00990864
0.00857589
0.00791563
0.00793944
0.00852262
0.00893166
0.00891019
0.00845816
0.00767953
0.00673089
0.00584801
0.00522481
0.00477294
0.00436291
0.00392966
0.00346161
0.00296743
0.00246187
0.00196838
0.00150596
0.00117507
0.0011871
0.00129975
0.00134806
0.00202575
0.00169552
0.0230686
0.0718871
0.0508929
0.0365884
0.0295252
0.0246698
0.0217308
0.0204148
0.0202127
0.0203348
0.0198251
0.0180539
0.0153092
0.0124567
0.0102766
0.00908772
0.00883051
0.00925147
0.00987674
0.0100827
0.00968013
0.0088267
0.00773673
0.00662919
0.00572809
0.00514185
0.00474315
0.00439664
0.00405621
0.00369454
0.00329984
0.00288068
0.00245219
0.00203136
0.00173098
0.00162671
0.00173477
0.00207007
0.0027611
0.00242902
0.0233688
0.0598178
0.044492
0.0351501
0.0289646
0.0250126
0.0231955
0.0230944
0.0238609
0.0243558
0.0233957
0.0204039
0.0163423
0.0126954
0.0104638
0.00962672
0.00958187
0.00992908
0.0101841
0.00993611
0.00914427
0.00804601
0.00689414
0.00589017
0.00515657
0.00468967
0.00438864
0.00417644
0.00402949
0.00394253
0.00388715
0.00381781
0.0037185
0.00362143
0.0036783
0.00432253
0.00587286
0.00848257
0.0175199
0.00579102
0.0219313
0.0283128
0.024412
0.0211201
0.0200266
0.0216553
0.0250297
0.0286447
0.0309076
0.0306594
0.0272277
0.020861
0.0150486
0.0118035
0.0102434
0.00965725
0.0095291
0.00950502
0.00925675
0.00862136
0.00768508
0.00662361
0.00563602
0.00485047
0.00430108
0.0039423
0.00370687
0.00355653
0.00348283
0.0034895
0.00358217
0.00378075
0.00410614
0.00460086
0.00529093
0.00614634
0.00697153
0.00749971
0.00769576
0.00487135
0.00516645
0.0120411
0.0242906
0.0373948
0.0446373
0.0434638
0.0363782
0.0283616
0.021399
0.0159539
0.012378
0.0104108
0.00942399
0.00895202
0.00868474
0.00840504
0.00795654
0.0072953
0.00649736
0.00568242
0.00494925
0.00435778
0.00391547
0.00358724
0.00334079
0.00316846
0.00308381
0.00310537
0.00324568
0.00350594
0.00389333
0.00440812
0.00500776
0.00555456
0.00580457
0.00553151
0.00470827
0.00315301
0.0323252
0.0523557
0.0437355
0.0371831
0.0326396
0.0277538
0.022312
0.0175172
0.0138907
0.0113771
0.0097909
0.00887428
0.00836341
0.00805237
0.0077964
0.00750042
0.00712339
0.00668461
0.00623355
0.00580954
0.00542638
0.00508812
0.00480049
0.00454978
0.00432896
0.00414218
0.00399948
0.00393585
0.00397864
0.0041465
0.00445335
0.00489986
0.00545164
0.00602614
0.00644105
0.0067593
0.00489814
0.00324714
0.0147611
0.0167951
0.0186853
0.0161848
0.0140444
0.012872
0.0115926
0.00989476
0.00806148
0.00653538
0.00543213
0.00467726
0.00417391
0.00383793
0.00359614
0.00339186
0.00318835
0.00296951
0.00274077
0.0025228
0.00233642
0.00219246
0.00209242
0.00202949
0.00199149
0.00197625
0.00198473
0.00202085
0.00209157
0.00219686
0.00233824
0.00251943
0.00274634
0.00302668
0.00336627
0.00380296
0.00403679
0.00390178
0.00337951
0.00289035
)
;

boundaryField
{
    floor
    {
        type            kqRWallFunction;
        value           nonuniform List<scalar> 
36
(
0.00261654
0.000915205
0.0012848
0.00174101
0.00197314
0.00192476
0.00168424
0.00143929
0.00123728
0.00107517
0.000944196
0.00083731
0.000748785
0.000674599
0.000610529
0.000552538
0.00049631
0.000446544
0.000366547
0.000366547
0.000507243
0.000628586
0.000760382
0.0012073
0.00135207
0.0015708
0.00261654
0.0044941
0.00337364
0.00232961
0.000915205
0.00232961
0.0008587
0.00327572
0.00182351
0.00432349
)
;
    }
    ceiling
    {
        type            kqRWallFunction;
        value           nonuniform List<scalar> 
43
(
0.0147611
0.0167951
0.0186853
0.0161848
0.0140444
0.012872
0.0115926
0.00989476
0.00806148
0.00653538
0.00543213
0.00467726
0.00417391
0.00383793
0.00359614
0.00339186
0.00318835
0.00296951
0.00274077
0.0025228
0.00233642
0.00219246
0.00209242
0.00202949
0.00199149
0.00197625
0.00198473
0.00202085
0.00209157
0.00219686
0.00233824
0.00251943
0.00274634
0.00302668
0.00336627
0.00380296
0.00403679
0.00390178
0.00337951
0.00289035
0.0219313
0.0283128
0.0323252
)
;
    }
    sWall
    {
        type            kqRWallFunction;
        value           uniform 0.0147611;
    }
    nWall
    {
        type            kqRWallFunction;
        value           nonuniform List<scalar> 6(0.0015708 0.00169552 0.00242902 0.00315301 0.00324714 0.00289035);
    }
    sideWalls
    {
        type            empty;
    }
    glass1
    {
        type            kqRWallFunction;
        value           nonuniform List<scalar> 9(0.0034856 0.00604633 0.0086761 0.0116406 0.0151519 0.0193448 0.0230686 0.0233688 0.0219313);
    }
    glass2
    {
        type            kqRWallFunction;
        value           nonuniform List<scalar> 2(0.00579102 0.00487135);
    }
    sun
    {
        type            kqRWallFunction;
        value           nonuniform List<scalar> 
14
(
0.0034856
0.00424705
0.0045136
0.00500965
0.00552037
0.00607186
0.00658853
0.00695476
0.00711812
0.00704495
0.00669519
0.00586673
0.00478944
0.00353827
)
;
    }
    Table_master
    {
        type            kqRWallFunction;
        value           nonuniform List<scalar> 9(0.00303884 0.00226843 0.00172075 0.00133646 0.00106382 0.000866938 0.000722111 0.000617014 0.000546356);
    }
    Table_slave
    {
        type            kqRWallFunction;
        value           nonuniform List<scalar> 9(0.00389467 0.00317438 0.00268648 0.00232069 0.0020306 0.00178479 0.00156075 0.00134465 0.0011224);
    }
    inlet
    {
        type            turbulentIntensityKineticEnergyInlet;
        intensity       0.05;
        value           uniform 0.0024;
    }
    outlet
    {
        type            zeroGradient;
    }
}


// ************************************************************************* //
