/*--------------------------------*- C++ -*----------------------------------*\
  =========                 |
  \\      /  F ield         | OpenFOAM: The Open Source CFD Toolbox
   \\    /   O peration     | Website:  https://openfoam.org
    \\  /    A nd           | Version:  6
     \\/     M anipulation  |
\*---------------------------------------------------------------------------*/
FoamFile
{
    version     2.0;
    format      ascii;
    class       volScalarField;
    location    "100";
    object      T;
}
// * * * * * * * * * * * * * * * * * * * * * * * * * * * * * * * * * * * * * //

dimensions      [0 0 0 1 0 0 0];

internalField   nonuniform List<scalar> 
458
(
299.773
299.456
299.432
299.421
299.412
299.403
299.396
299.396
299.425
299.621
299.711
299.769
299.802
299.832
299.869
301.092
300.996
300.925
300.932
300.972
301.01
301.048
301.087
301.125
301.164
301.204
301.244
301.285
301.328
301.372
301.423
301.487
301.591
299.962
299.475
299.428
299.413
299.4
299.386
299.361
299.339
299.388
299.603
299.77
299.869
299.91
299.919
299.915
299.938
299.969
300.025
301.122
300.896
300.821
300.85
300.908
300.948
300.988
301.028
301.07
301.112
301.156
301.202
301.248
301.297
301.35
301.41
301.484
301.599
300.175
299.522
299.459
299.452
299.447
299.431
299.37
299.288
299.33
299.596
299.844
299.997
300.059
300.056
300.032
300.026
300.028
300.048
301.008
300.757
300.724
300.805
300.911
300.938
300.975
301.016
301.062
301.112
301.166
301.224
301.284
301.343
301.401
301.458
301.522
301.625
300.406
299.595
299.513
299.528
299.551
299.543
299.422
299.246
299.27
299.581
299.922
300.15
300.242
300.236
300.192
300.151
300.118
300.096
300.131
300.229
300.396
300.611
300.831
301.017
301.161
301.262
301.344
301.421
301.493
301.562
301.629
301.694
301.756
301.679
301.616
301.601
301.66
300.645
299.694
299.58
299.618
299.689
299.701
299.493
299.212
299.218
299.566
300.013
300.332
300.465
300.459
300.392
300.321
300.265
300.236
300.287
300.42
300.629
300.87
301.105
301.307
301.473
301.593
301.691
301.77
301.832
301.88
301.915
301.936
301.939
301.868
301.763
301.693
301.702
302.063
302.465
302.4
300.876
299.826
299.676
299.71
299.839
299.83
299.521
299.179
299.165
299.571
300.138
300.557
300.732
300.728
300.64
300.553
300.498
300.499
300.606
300.8
301.037
301.28
301.499
301.68
301.822
301.929
302.007
302.065
302.108
302.136
302.149
302.143
302.112
302.031
301.914
301.811
301.778
301.958
302.134
302.251
301.101
300.037
299.873
299.897
300.009
299.895
299.475
299.08
299.102
299.621
300.333
300.852
301.05
301.04
300.949
300.875
300.855
300.916
301.083
301.31
301.539
301.751
301.931
302.072
302.179
302.251
302.296
302.329
302.352
302.363
302.358
302.335
302.285
302.201
302.09
301.979
301.917
301.976
302.063
302.148
301.396
300.614
300.41
300.332
300.28
299.873
299.25
298.85
299.031
299.771
300.666
301.253
301.407
301.395
301.34
301.313
301.343
301.454
301.648
301.871
302.061
302.22
302.344
302.434
302.492
302.525
302.547
302.561
302.566
302.562
302.544
302.513
302.463
302.391
302.292
302.196
302.143
302.166
302.222
302.405
301.831
301.442
301.142
300.885
300.352
299.343
298.552
298.41
299.043
300.181
301.273
301.706
301.813
301.813
301.809
301.836
301.912
302.041
302.209
302.379
302.518
302.62
302.688
302.729
302.751
302.762
302.766
302.765
302.756
302.737
302.709
302.672
302.634
302.602
302.585
302.594
302.636
302.692
302.735
302.85
292.454
293.605
294.145
295.073
296.394
297.915
299.66
301.367
301.987
302.184
302.241
302.27
302.307
302.367
302.454
302.565
302.685
302.793
302.875
302.929
302.959
302.973
302.975
302.97
302.96
302.944
302.921
302.891
302.857
302.822
302.79
302.768
302.762
302.781
302.835
302.931
303.085
303.36
293.045
294.844
297.176
299.116
300.308
301.221
301.909
302.341
302.541
302.632
302.685
302.731
302.784
302.846
302.918
302.994
303.066
303.125
303.165
303.188
303.197
303.194
303.184
303.168
303.147
303.12
303.088
303.053
303.014
302.976
302.939
302.909
302.891
302.892
302.922
303.005
303.154
303.32
296.691
296.656
296.646
299.025
300.818
301.938
302.483
302.757
302.923
303.031
303.105
303.159
303.204
303.244
303.282
303.32
303.358
303.392
303.422
303.443
303.455
303.458
303.455
303.446
303.431
303.411
303.385
303.355
303.319
303.279
303.234
303.186
303.138
303.092
303.052
303.022
303.036
303.093
303.174
303.351
)
;

boundaryField
{
    floor
    {
        type            wallHeatTransfer;
        Tinf            uniform 305.2;
        alphaWall       uniform 0.24;
        value           nonuniform List<scalar> 
36
(
300.303
301.651
301.507
301.385
301.361
301.396
301.452
301.513
301.574
301.634
301.692
301.749
301.805
301.86
301.916
301.973
302.036
302.113
302.24
302.24
302.207
302.207
302.215
302.507
302.841
302.761
300.303
300.332
300.397
300.507
301.651
300.507
301.693
300.495
301.54
300.553
)
;
    }
    ceiling
    {
        type            wallHeatTransfer;
        Tinf            uniform 303.2;
        alphaWall       uniform 0.24;
        value           nonuniform List<scalar> 
43
(
296.981
296.941
296.926
299.185
300.921
302.003
302.526
302.786
302.943
303.045
303.113
303.163
303.204
303.24
303.275
303.31
303.344
303.374
303.4
303.417
303.426
303.428
303.424
303.414
303.4
303.382
303.36
303.334
303.303
303.268
303.23
303.188
303.146
303.105
303.068
303.04
303.052
303.104
303.177
303.334
301.89
301.507
293.542
)
;
    }
    sWall
    {
        type            wallHeatTransfer;
        Tinf            uniform 315.2;
        alphaWall       uniform 0.36;
        value           uniform 297.904;
    }
    nWall
    {
        type            wallHeatTransfer;
        Tinf            uniform 307.2;
        alphaWall       uniform 0.36;
        value           nonuniform List<scalar> 6(303.272 303.123 302.929 303.919 303.88 303.969);
    }
    sideWalls
    {
        type            empty;
    }
    glass1
    {
        type            wallHeatTransfer;
        Tinf            uniform 315.2;
        alphaWall       uniform 4.3;
        value           nonuniform List<scalar> 9(309.284 308.687 308.317 308.043 307.818 307.608 307.463 307.568 307.874);
    }
    glass2
    {
        type            wallHeatTransfer;
        Tinf            uniform 307.2;
        alphaWall       uniform 4.3;
        value           nonuniform List<scalar> 2(305.317 305.558);
    }
    sun
    {
        type            wallHeatTransfer;
        Tinf            uniform 305.2;
        alphaWall       uniform 0.24;
        value           nonuniform List<scalar> 
14
(
300.21
299.88
299.841
299.812
299.787
299.761
299.739
299.727
299.747
299.94
300.041
300.116
300.174
300.231
)
;
    }
    Table_master
    {
        type            zeroGradient;
    }
    Table_slave
    {
        type            zeroGradient;
    }
    inlet
    {
        type            fixedValue;
        value           uniform 290.15;
    }
    outlet
    {
        type            zeroGradient;
    }
}


// ************************************************************************* //
