/*--------------------------------*- C++ -*----------------------------------*\
  =========                 |
  \\      /  F ield         | OpenFOAM: The Open Source CFD Toolbox
   \\    /   O peration     | Website:  https://openfoam.org
    \\  /    A nd           | Version:  6
     \\/     M anipulation  |
\*---------------------------------------------------------------------------*/
FoamFile
{
    version     2.0;
    format      ascii;
    class       volScalarField;
    location    "1000";
    object      T;
}
// * * * * * * * * * * * * * * * * * * * * * * * * * * * * * * * * * * * * * //

dimensions      [0 0 0 1 0 0 0];

internalField   nonuniform List<scalar> 
458
(
303.125
302.834
302.825
302.826
302.827
302.826
302.825
302.824
302.822
302.817
302.809
302.799
302.788
302.778
302.77
302.683
302.687
302.685
302.681
302.678
302.673
302.667
302.66
302.652
302.644
302.634
302.623
302.611
302.597
302.582
302.564
302.542
302.535
303.33
302.879
302.857
302.865
302.873
302.88
302.884
302.886
302.885
302.878
302.863
302.842
302.818
302.792
302.768
302.753
302.747
302.75
302.708
302.701
302.695
302.69
302.686
302.678
302.669
302.659
302.648
302.637
302.625
302.612
302.598
302.584
302.57
302.552
302.53
302.525
303.534
302.933
302.891
302.906
302.924
302.94
302.953
302.962
302.965
302.957
302.936
302.904
302.865
302.826
302.792
302.767
302.75
302.743
302.724
302.712
302.705
302.7
302.696
302.69
302.68
302.67
302.658
302.646
302.633
302.619
302.606
302.592
302.579
302.56
302.537
302.525
303.731
302.999
302.924
302.942
302.971
303
303.026
303.045
303.054
303.047
303.019
302.972
302.916
302.862
302.816
302.782
302.757
302.74
302.732
302.722
302.714
302.709
302.705
302.702
302.699
302.696
302.694
302.693
302.691
302.689
302.687
302.684
302.681
302.65
302.611
302.569
302.537
303.917
303.08
302.96
302.97
303.006
303.046
303.086
303.12
303.14
303.135
303.099
303.037
302.963
302.893
302.836
302.794
302.763
302.742
302.729
302.721
302.716
302.712
302.708
302.706
302.704
302.702
302.701
302.699
302.697
302.695
302.693
302.689
302.684
302.669
302.641
302.599
302.556
302.554
302.553
302.596
304.08
303.184
303.025
303.002
303.03
303.073
303.121
303.171
303.207
303.208
303.165
303.088
302.997
302.914
302.848
302.8
302.767
302.744
302.73
302.722
302.717
302.714
302.711
302.71
302.708
302.707
302.706
302.705
302.703
302.701
302.697
302.693
302.687
302.676
302.656
302.624
302.589
302.577
302.572
302.604
304.221
303.352
303.19
303.115
303.098
303.114
303.153
303.208
303.256
303.255
303.202
303.112
303.011
302.921
302.851
302.801
302.766
302.743
302.73
302.722
302.718
302.716
302.714
302.714
302.713
302.713
302.713
302.712
302.71
302.708
302.703
302.697
302.689
302.679
302.664
302.642
302.616
302.601
302.594
302.613
304.442
303.789
303.611
303.46
303.349
303.292
303.282
303.303
303.317
303.287
303.209
303.101
302.991
302.901
302.835
302.79
302.76
302.74
302.729
302.723
302.72
302.719
302.718
302.719
302.719
302.72
302.72
302.72
302.719
302.717
302.713
302.707
302.698
302.687
302.676
302.662
302.648
302.643
302.644
302.77
304.755
304.46
304.167
303.93
303.741
303.606
303.52
303.461
303.387
303.279
303.153
303.026
302.918
302.843
302.797
302.767
302.748
302.736
302.729
302.725
302.723
302.723
302.724
302.725
302.727
302.728
302.73
302.731
302.731
302.731
302.73
302.729
302.731
302.736
302.746
302.763
302.789
302.819
302.847
302.914
297.246
301.039
302.31
302.741
302.908
302.959
302.958
302.932
302.882
302.821
302.776
302.754
302.746
302.742
302.739
302.736
302.732
302.73
302.728
302.729
302.73
302.732
302.735
302.738
302.741
302.744
302.747
302.75
302.754
302.758
302.763
302.769
302.78
302.796
302.817
302.84
302.859
302.877
298.163
300.91
301.892
302.361
302.582
302.669
302.688
302.686
302.671
302.662
302.68
302.706
302.721
302.736
302.741
302.743
302.74
302.738
302.736
302.737
302.738
302.74
302.743
302.747
302.75
302.754
302.757
302.761
302.765
302.77
302.775
302.781
302.789
302.801
302.816
302.831
302.83
302.859
300.01
299.952
299.953
301.573
302.082
302.345
302.518
302.56
302.564
302.556
302.558
302.592
302.677
302.74
302.75
302.757
302.763
302.762
302.76
302.758
302.757
302.757
302.757
302.758
302.76
302.762
302.764
302.766
302.768
302.77
302.773
302.776
302.779
302.783
302.788
302.794
302.807
302.812
302.811
302.846
)
;

boundaryField
{
    floor
    {
        type            wallHeatTransfer;
        Tinf            uniform 305.2;
        alphaWall       uniform 0.24;
        value           nonuniform List<scalar> 
36
(
303.04
303.196
303.136
303.132
303.131
303.133
303.14
303.15
303.16
303.169
303.177
303.185
303.193
303.2
303.206
303.212
303.219
303.204
303.223
303.223
303.074
303.016
302.986
302.947
302.939
302.975
303.04
303.023
303.043
303.058
303.196
303.058
303.096
303.008
303.05
303.028
)
;
    }
    ceiling
    {
        type            wallHeatTransfer;
        Tinf            uniform 303.2;
        alphaWall       uniform 0.24;
        value           nonuniform List<scalar> 
43
(
300.208
300.141
300.133
301.659
302.145
302.396
302.562
302.605
302.613
302.61
302.618
302.655
302.74
302.8
302.809
302.815
302.825
302.828
302.828
302.826
302.825
302.824
302.824
302.823
302.823
302.823
302.823
302.823
302.823
302.823
302.823
302.823
302.824
302.826
302.828
302.833
302.842
302.848
302.85
302.883
304.684
304.411
298.419
)
;
    }
    sWall
    {
        type            wallHeatTransfer;
        Tinf            uniform 315.2;
        alphaWall       uniform 0.36;
        value           uniform 301.386;
    }
    nWall
    {
        type            wallHeatTransfer;
        Tinf            uniform 307.2;
        alphaWall       uniform 0.36;
        value           nonuniform List<scalar> 6(303.534 303.395 303.287 303.497 303.478 303.498);
    }
    sideWalls
    {
        type            empty;
    }
    glass1
    {
        type            wallHeatTransfer;
        Tinf            uniform 315.2;
        alphaWall       uniform 4.3;
        value           nonuniform List<scalar> 9(311.749 310.951 310.448 310.065 309.76 309.499 309.295 309.364 309.596);
    }
    glass2
    {
        type            wallHeatTransfer;
        Tinf            uniform 307.2;
        alphaWall       uniform 4.3;
        value           nonuniform List<scalar> 2(305.501 305.585);
    }
    sun
    {
        type            wallHeatTransfer;
        Tinf            uniform 305.2;
        alphaWall       uniform 0.24;
        value           nonuniform List<scalar> 
14
(
303.374
303.105
303.101
303.095
303.089
303.084
303.079
303.074
303.068
303.062
303.055
303.048
303.043
303.04
)
;
    }
    Table_master
    {
        type            zeroGradient;
    }
    Table_slave
    {
        type            zeroGradient;
    }
    inlet
    {
        type            fixedValue;
        value           uniform 292.15;
    }
    outlet
    {
        type            zeroGradient;
    }
}


// ************************************************************************* //
