/*--------------------------------*- C++ -*----------------------------------*\
  =========                 |
  \\      /  F ield         | OpenFOAM: The Open Source CFD Toolbox
   \\    /   O peration     | Website:  https://openfoam.org
    \\  /    A nd           | Version:  6
     \\/     M anipulation  |
\*---------------------------------------------------------------------------*/
FoamFile
{
    version     2.0;
    format      ascii;
    class       volScalarField;
    location    "500";
    object      T;
}
// * * * * * * * * * * * * * * * * * * * * * * * * * * * * * * * * * * * * * //

dimensions      [0 0 0 1 0 0 0];

internalField   nonuniform List<scalar> 
458
(
301.69
301.382
301.368
301.365
301.363
301.361
301.358
301.356
301.353
301.35
301.348
301.352
301.365
301.39
301.457
301.683
301.656
301.65
301.661
301.67
301.677
301.683
301.688
301.693
301.698
301.703
301.708
301.713
301.718
301.722
301.728
301.734
301.762
301.888
301.404
301.371
301.369
301.368
301.367
301.366
301.363
301.356
301.344
301.331
301.327
301.342
301.376
301.42
301.441
301.455
301.481
301.689
301.633
301.633
301.647
301.661
301.665
301.667
301.668
301.668
301.669
301.669
301.67
301.671
301.673
301.677
301.683
301.694
301.741
302.099
301.443
301.388
301.389
301.396
301.403
301.406
301.405
301.395
301.368
301.331
301.309
301.322
301.369
301.424
301.451
301.462
301.481
301.625
301.614
301.629
301.656
301.682
301.681
301.679
301.677
301.675
301.673
301.672
301.67
301.669
301.668
301.672
301.676
301.685
301.735
302.315
301.5
301.41
301.416
301.435
301.455
301.473
301.48
301.467
301.417
301.344
301.294
301.3
301.362
301.436
301.477
301.486
301.491
301.509
301.544
301.594
301.645
301.692
301.73
301.76
301.78
301.797
301.811
301.821
301.829
301.834
301.839
301.84
301.79
301.742
301.712
301.741
302.527
301.58
301.442
301.44
301.468
301.506
301.546
301.574
301.565
301.484
301.364
301.281
301.279
301.357
301.452
301.516
301.541
301.547
301.574
301.616
301.667
301.719
301.767
301.807
301.84
301.864
301.881
301.894
301.903
301.905
301.903
301.896
301.883
301.849
301.796
301.747
301.744
301.871
301.948
301.949
302.718
301.691
301.51
301.475
301.495
301.536
301.593
301.655
301.658
301.541
301.376
301.268
301.263
301.352
301.475
301.569
301.618
301.641
301.674
301.716
301.764
301.812
301.855
301.89
301.918
301.937
301.951
301.959
301.963
301.96
301.951
301.938
301.919
301.887
301.841
301.788
301.764
301.819
301.849
301.897
302.889
301.881
301.692
301.619
301.593
301.604
301.646
301.717
301.701
301.554
301.366
301.246
301.246
301.358
301.514
301.643
301.716
301.754
301.788
301.826
301.867
301.906
301.94
301.967
301.986
301.998
302.005
302.008
302.006
302
301.987
301.969
301.947
301.918
301.878
301.832
301.802
301.813
301.828
301.862
303.144
302.409
302.212
302.047
301.92
301.849
301.834
301.838
301.722
301.498
301.286
301.186
301.226
301.385
301.585
301.742
301.827
301.866
301.897
301.929
301.96
301.988
302.01
302.026
302.035
302.04
302.041
302.039
302.034
302.026
302.014
301.996
301.975
301.95
301.921
301.889
301.873
301.884
301.913
302.102
303.511
303.173
302.946
302.679
302.424
302.226
302.089
301.927
301.591
301.266
301.086
301.085
301.226
301.466
301.713
301.867
301.931
301.964
301.989
302.012
302.032
302.048
302.059
302.065
302.068
302.068
302.065
302.062
302.057
302.051
302.047
302.046
302.047
302.055
302.073
302.104
302.149
302.196
302.231
302.309
295.994
297.474
298.789
299.637
300.051
300.169
300.299
300.483
300.733
301.032
301.34
301.677
301.885
301.977
302.019
302.042
302.059
302.072
302.081
302.087
302.091
302.092
302.092
302.091
302.09
302.09
302.089
302.09
302.091
302.094
302.099
302.11
302.128
302.155
302.189
302.221
302.246
302.268
296.806
297.793
298.828
299.547
299.905
300.132
300.407
300.78
301.155
301.545
301.788
301.941
302.023
302.063
302.083
302.096
302.104
302.11
302.113
302.114
302.115
302.115
302.114
302.113
302.113
302.113
302.114
302.115
302.116
302.119
302.124
302.132
302.145
302.164
302.187
302.213
302.212
302.247
298.362
298.338
298.336
299.109
299.618
300.042
300.421
300.892
301.426
301.722
301.902
302.002
302.059
302.098
302.124
302.14
302.148
302.153
302.156
302.157
302.157
302.156
302.156
302.154
302.153
302.152
302.15
302.149
302.147
302.146
302.145
302.144
302.145
302.148
302.153
302.166
302.179
302.189
302.193
302.234
)
;

boundaryField
{
    floor
    {
        type            wallHeatTransfer;
        Tinf            uniform 305.2;
        alphaWall       uniform 0.24;
        value           nonuniform List<scalar> 
36
(
301.84
302.301
302.21
302.16
302.163
302.18
302.209
302.244
302.277
302.31
302.342
302.372
302.401
302.429
302.457
302.485
302.516
302.536
302.598
302.598
302.443
302.363
302.315
302.321
302.374
302.352
301.84
301.753
301.818
301.903
302.301
301.903
302.301
301.857
302.062
301.842
)
;
    }
    ceiling
    {
        type            wallHeatTransfer;
        Tinf            uniform 303.2;
        alphaWall       uniform 0.24;
        value           nonuniform List<scalar> 
43
(
298.604
298.578
298.573
299.298
299.791
300.201
300.571
301.034
301.559
301.846
302.021
302.118
302.172
302.211
302.238
302.255
302.265
302.272
302.276
302.278
302.28
302.28
302.28
302.28
302.279
302.277
302.275
302.273
302.269
302.265
302.261
302.256
302.253
302.251
302.251
302.258
302.268
302.279
302.288
302.33
303.498
303.174
297.137
)
;
    }
    sWall
    {
        type            wallHeatTransfer;
        Tinf            uniform 315.2;
        alphaWall       uniform 0.36;
        value           uniform 299.596;
    }
    nWall
    {
        type            wallHeatTransfer;
        Tinf            uniform 307.2;
        alphaWall       uniform 0.36;
        value           nonuniform List<scalar> 6(302.869 302.803 302.664 302.94 302.915 302.941);
    }
    sideWalls
    {
        type            empty;
    }
    glass1
    {
        type            wallHeatTransfer;
        Tinf            uniform 315.2;
        alphaWall       uniform 4.3;
        value           nonuniform List<scalar> 9(310.837 310.12 309.666 309.321 309.034 308.77 308.56 308.64 308.9);
    }
    glass2
    {
        type            wallHeatTransfer;
        Tinf            uniform 307.2;
        alphaWall       uniform 4.3;
        value           nonuniform List<scalar> 2(305.135 305.305);
    }
    sun
    {
        type            wallHeatTransfer;
        Tinf            uniform 305.2;
        alphaWall       uniform 0.24;
        value           nonuniform List<scalar> 
14
(
302.05
301.748
301.729
301.713
301.699
301.687
301.675
301.664
301.653
301.643
301.638
301.641
301.659
301.7
)
;
    }
    Table_master
    {
        type            zeroGradient;
    }
    Table_slave
    {
        type            zeroGradient;
    }
    inlet
    {
        type            fixedValue;
        value           uniform 295.15;
    }
    outlet
    {
        type            zeroGradient;
    }
}


// ************************************************************************* //
