/*--------------------------------*- C++ -*----------------------------------*\
  =========                 |
  \\      /  F ield         | OpenFOAM: The Open Source CFD Toolbox
   \\    /   O peration     | Website:  https://openfoam.org
    \\  /    A nd           | Version:  6
     \\/     M anipulation  |
\*---------------------------------------------------------------------------*/
FoamFile
{
    version     2.0;
    format      ascii;
    class       volScalarField;
    location    "400";
    object      nut;
}
// * * * * * * * * * * * * * * * * * * * * * * * * * * * * * * * * * * * * * //

dimensions      [0 2 -1 0 0 0 0];

internalField   nonuniform List<scalar> 
458
(
0.00119479
0.00130977
0.00134582
0.00141635
0.00148255
0.0015461
0.00161021
0.00167897
0.00174092
0.00179049
0.00181802
0.00181077
0.00175038
0.00157026
0.00121251
0.000576553
0.000678236
0.000768186
0.000794925
0.000772906
0.000713529
0.000651843
0.000598261
0.000553164
0.000515147
0.000483
0.000455842
0.000432642
0.000412421
0.000394199
0.000377428
0.000376379
0.000352412
0.0015929
0.00380627
0.0035501
0.00406577
0.00460252
0.00516109
0.00568667
0.00608946
0.00651981
0.00695384
0.00734111
0.00762565
0.00773992
0.00750859
0.00588685
0.00157369
0.00129984
0.00104736
0.000577256
0.00145845
0.00212635
0.00262295
0.00271889
0.00194551
0.00162222
0.00140675
0.00125059
0.0011335
0.00104265
0.000967947
0.000902784
0.000842051
0.000789972
0.000756316
0.000981465
0.000473599
0.00192437
0.00519015
0.00445219
0.00540272
0.00589164
0.00624659
0.00650844
0.00671653
0.00699499
0.00735452
0.00778307
0.00825291
0.00869566
0.00891178
0.00837338
0.0067121
0.00491645
0.00125501
0.000886335
0.00159853
0.00238247
0.00313937
0.00327048
0.000992062
0.000855421
0.000747226
0.000662563
0.000596015
0.000543241
0.00050102
0.000467184
0.000441058
0.000501124
0.000622304
0.00121367
0.000566545
0.00223975
0.00657749
0.00449866
0.0057899
0.00617688
0.00623273
0.006186
0.00619984
0.0063473
0.00664153
0.00709122
0.00767575
0.00831064
0.00878744
0.00879819
0.00825697
0.00690542
0.00371911
0.00144057
0.00187682
0.0026629
0.00361824
0.00442364
0.00437072
0.00114989
0.0010457
0.000972995
0.000917895
0.000870563
0.000825239
0.00078095
0.000733739
0.000679097
0.000649342
0.000711996
0.0015067
0.00064302
0.00256029
0.00838393
0.0048799
0.00564732
0.00620877
0.0061445
0.00588795
0.00574922
0.00582904
0.00609367
0.00656071
0.00719758
0.00787201
0.00832103
0.00847593
0.00834395
0.00775895
0.00635013
0.00561638
0.00569734
0.00606849
0.00649656
0.00677394
0.00665483
0.0055668
0.0050264
0.00470913
0.00446784
0.00422159
0.00388805
0.00341568
0.00285059
0.00224437
0.001716
0.0013517
0.00137674
0.00123727
0.000850582
0.000833823
0.000909441
0.00290331
0.010407
0.00673561
0.00551926
0.00590503
0.00607486
0.00597683
0.00562716
0.00565884
0.0058906
0.00636644
0.00701804
0.0076348
0.00800226
0.00809059
0.00806091
0.00800994
0.0078193
0.00792209
0.00823696
0.00847916
0.0085615
0.00845987
0.00814832
0.00758665
0.00707568
0.00663799
0.0062276
0.0058125
0.00536917
0.00485673
0.00425613
0.00357619
0.00287907
0.00228342
0.00172626
0.00146508
0.00127723
0.00149001
0.000962486
0.0032192
0.0118321
0.00957243
0.00716814
0.0062609
0.00598725
0.006061
0.00587602
0.00578791
0.00593429
0.00639473
0.00705278
0.00764567
0.00793242
0.00792949
0.00798147
0.00838884
0.00893869
0.00942756
0.00972689
0.00975125
0.00954345
0.00915914
0.00863515
0.00801263
0.00740388
0.00683011
0.00627091
0.00574408
0.0052665
0.00486622
0.00455103
0.00412777
0.00358918
0.00304391
0.00254152
0.00221901
0.00205426
0.00190482
0.00121258
0.00328088
0.0103795
0.00955771
0.00896499
0.00811855
0.00733569
0.00691961
0.0063326
0.00597936
0.00607859
0.00658551
0.00727488
0.00783592
0.00803033
0.00798443
0.00830276
0.00916473
0.00978219
0.0100926
0.010133
0.00988329
0.00940292
0.00875714
0.00800556
0.00722327
0.00648696
0.00582561
0.00525122
0.00478736
0.00445641
0.00427037
0.00422446
0.00426278
0.00411497
0.00393443
0.00389838
0.00409123
0.0042108
0.00470753
0.00172284
0.0031988
0.00379082
0.00430808
0.00472631
0.00505749
0.00517351
0.00515
0.00520305
0.00550285
0.00611521
0.00690824
0.00765406
0.00810537
0.00813543
0.00821154
0.00881633
0.00943961
0.00969624
0.00967101
0.00939331
0.00887351
0.00816494
0.00733105
0.00645718
0.0056419
0.00494734
0.00438856
0.00396066
0.00365253
0.00344555
0.00331399
0.00322737
0.00316592
0.00311895
0.00306238
0.00297743
0.0028136
0.00257386
0.00234806
0.00156766
0.000685291
0.00149358
0.00245744
0.00338205
0.00424349
0.00516896
0.00619
0.00711447
0.00778733
0.00812739
0.00810734
0.00806881
0.00818083
0.00849594
0.00857429
0.00842881
0.00810544
0.0075997
0.00693746
0.00619236
0.00545413
0.00478963
0.00423767
0.00382641
0.00353233
0.00332152
0.00316898
0.00306295
0.00300339
0.0029909
0.00300587
0.00301648
0.00298972
0.00288671
0.00266974
0.00235217
0.00197917
0.00125052
0.00282293
0.00467195
0.00511915
0.00635823
0.00740323
0.00830543
0.00859404
0.00820217
0.00773022
0.0070155
0.00647629
0.00640073
0.00643383
0.00635417
0.00618371
0.00595117
0.00564322
0.00526485
0.00485436
0.00445713
0.00409891
0.00378228
0.00352333
0.00333169
0.00319707
0.00310407
0.00304048
0.00299631
0.00297888
0.00300702
0.00307075
0.00314582
0.00319586
0.00320291
0.00311964
0.0029794
0.00250287
0.00126996
0.00287431
0.00292452
0.00298134
0.00316768
0.00300108
0.00288208
0.00264789
0.00229903
0.00192403
0.00167282
0.00148276
0.00134275
0.00122916
0.00114625
0.00109048
0.00105374
0.0010261
0.0010005
0.000973547
0.000945284
0.000917636
0.00089289
0.0008735
0.000862679
0.000859771
0.00086358
0.00087423
0.000892001
0.000917879
0.000954031
0.00100129
0.00105861
0.0011258
0.00120201
0.00128475
0.00139298
0.00141681
0.00137618
0.0012764
0.00117159
)
;

boundaryField
{
    floor
    {
        type            nutkWallFunction;
        Cmu             0.09;
        kappa           0.41;
        E               9.8;
        value           nonuniform List<scalar> 
36
(
0.000145423
6.94302e-05
8.20669e-05
9.30574e-05
9.62964e-05
9.36333e-05
8.64028e-05
7.88148e-05
7.21534e-05
6.64907e-05
6.16731e-05
5.7565e-05
5.4068e-05
5.10598e-05
4.84214e-05
4.60296e-05
4.38157e-05
4.36747e-05
4.04856e-05
4.04855e-05
5.63473e-05
6.81627e-05
7.77067e-05
0.000102972
0.000100963
0.00011
0.000145423
0.000186357
0.000155436
0.000126272
6.94301e-05
0.000126272
6.95168e-05
0.000150313
0.000107254
0.000171416
)
;
    }
    ceiling
    {
        type            nutkWallFunction;
        Cmu             0.09;
        kappa           0.41;
        E               9.8;
        value           nonuniform List<scalar> 
43
(
0.00032645
0.000331704
0.00033764
0.000357094
0.000339809
0.000327409
0.000302806
0.000265695
0.000225105
0.000197423
0.000176182
0.000160341
0.000147348
0.000137782
0.000131303
0.000127014
0.000123775
0.000120767
0.000117589
0.000114246
0.000110966
0.000108021
0.000105706
0.00010441
0.000104062
0.000104519
0.000105793
0.000107915
0.000110995
0.000115281
0.000120855
0.000127574
0.000135399
0.00014421
0.000153705
0.000166023
0.000168722
0.000164121
0.000152752
0.000140704
0.000360682
0.000421538
0.000320942
)
;
    }
    sWall
    {
        type            nutkWallFunction;
        Cmu             0.09;
        kappa           0.41;
        E               9.8;
        value           uniform 0.00032653;
    }
    nWall
    {
        type            nutkWallFunction;
        Cmu             0.09;
        kappa           0.41;
        E               9.8;
        value           nonuniform List<scalar> 6(0.000110003 0.000116291 0.000145436 0.000149803 0.000152031 0.000140715);
    }
    sideWalls
    {
        type            empty;
    }
    glass1
    {
        type            nutkWallFunction;
        Cmu             0.09;
        kappa           0.41;
        E               9.8;
        value           nonuniform List<scalar> 9(0.000143543 0.000188782 0.00022548 0.000259762 0.000294079 0.000330306 0.000363276 0.000369686 0.00036119);
    }
    glass2
    {
        type            nutkWallFunction;
        Cmu             0.09;
        kappa           0.41;
        E               9.8;
        value           nonuniform List<scalar> 2(0.00020307 0.000185794);
    }
    sun
    {
        type            nutkWallFunction;
        Cmu             0.09;
        kappa           0.41;
        E               9.8;
        value           nonuniform List<scalar> 
14
(
0.000143385
0.000156562
0.000160668
0.000168665
0.000176132
0.000183266
0.000190429
0.000198078
0.000204939
0.000210411
0.000213442
0.000212644
0.000205984
0.000185962
)
;
    }
    Table_master
    {
        type            nutkWallFunction;
        Cmu             0.09;
        kappa           0.41;
        E               9.8;
        value           nonuniform List<scalar> 9(0.000119792 0.000103572 9.05143e-05 8.01411e-05 7.18763e-05 6.52426e-05 5.98787e-05 5.55398e-05 5.21628e-05);
    }
    Table_slave
    {
        type            nutkWallFunction;
        Cmu             0.09;
        kappa           0.41;
        E               9.8;
        value           nonuniform List<scalar> 9(0.000138215 0.00012609 0.000117547 0.000111022 0.000105381 9.99464e-05 9.46019e-05 8.88653e-05 8.2171e-05);
    }
    inlet
    {
        type            calculated;
        value           uniform 0.00033541;
    }
    outlet
    {
        type            calculated;
        value           nonuniform List<scalar> 2(0.00287431 0.00292452);
    }
}


// ************************************************************************* //
