/*--------------------------------*- C++ -*----------------------------------*\
  =========                 |
  \\      /  F ield         | OpenFOAM: The Open Source CFD Toolbox
   \\    /   O peration     | Website:  https://openfoam.org
    \\  /    A nd           | Version:  6
     \\/     M anipulation  |
\*---------------------------------------------------------------------------*/
FoamFile
{
    version     2.0;
    format      ascii;
    class       volScalarField;
    location    "400";
    object      T;
}
// * * * * * * * * * * * * * * * * * * * * * * * * * * * * * * * * * * * * * //

dimensions      [0 0 0 1 0 0 0];

internalField   nonuniform List<scalar> 
458
(
301.536
301.235
301.225
301.226
301.226
301.226
301.226
301.226
301.225
301.225
301.227
301.235
301.254
301.285
301.312
301.512
301.495
301.501
301.52
301.531
301.534
301.536
301.537
301.537
301.537
301.537
301.537
301.536
301.536
301.536
301.536
301.539
301.568
301.728
301.256
301.227
301.228
301.23
301.232
301.232
301.231
301.226
301.217
301.21
301.216
301.244
301.285
301.314
301.327
301.331
301.341
301.512
301.478
301.494
301.518
301.537
301.537
301.532
301.527
301.522
301.516
301.511
301.505
301.5
301.496
301.493
301.493
301.5
301.548
301.934
301.295
301.241
301.245
301.255
301.263
301.268
301.269
301.257
301.231
301.201
301.196
301.233
301.295
301.341
301.356
301.353
301.349
301.484
301.482
301.507
301.545
301.577
301.568
301.558
301.548
301.538
301.529
301.521
301.512
301.504
301.496
301.498
301.498
301.503
301.546
302.145
301.351
301.261
301.267
301.288
301.31
301.329
301.337
301.32
301.266
301.2
301.174
301.217
301.305
301.373
301.402
301.397
301.381
301.397
301.432
301.489
301.551
301.61
301.657
301.695
301.725
301.749
301.77
301.788
301.801
301.811
301.819
301.819
301.725
301.632
301.566
301.56
302.355
301.431
301.292
301.288
301.316
301.355
301.396
301.425
301.406
301.315
301.204
301.152
301.202
301.313
301.413
301.467
301.474
301.469
301.495
301.54
301.6
301.663
301.722
301.773
301.818
301.853
301.88
301.902
301.917
301.924
301.922
301.912
301.891
301.831
301.738
301.643
301.591
301.751
301.897
301.892
302.545
301.543
301.363
301.327
301.345
301.385
301.443
301.51
301.487
301.353
301.203
301.134
301.187
301.325
301.467
301.556
301.59
301.601
301.634
301.682
301.739
301.798
301.852
301.897
301.936
301.966
301.989
302.005
302.015
302.016
302.005
301.985
301.955
301.904
301.827
301.734
301.668
301.713
301.767
301.822
302.721
301.734
301.551
301.484
301.462
301.475
301.519
301.58
301.526
301.356
301.18
301.106
301.178
301.356
301.545
301.672
301.732
301.761
301.796
301.841
301.89
301.938
301.981
302.017
302.045
302.065
302.079
302.088
302.09
302.085
302.071
302.045
302.011
301.964
301.903
301.829
301.769
301.757
301.771
301.809
302.977
302.256
302.068
301.919
301.805
301.745
301.736
301.696
301.526
301.28
301.09
301.051
301.183
301.425
301.669
301.824
301.893
301.927
301.959
301.997
302.034
302.068
302.097
302.119
302.134
302.143
302.146
302.144
302.137
302.125
302.109
302.088
302.056
302.014
301.97
301.921
301.886
301.879
301.893
302.058
303.351
303.013
302.791
302.538
302.295
302.103
301.953
301.697
301.315
301.005
300.889
300.981
301.241
301.578
301.868
301.998
302.051
302.078
302.104
302.132
302.157
302.176
302.19
302.199
302.201
302.198
302.19
302.177
302.163
302.147
302.131
302.119
302.111
302.107
302.113
302.132
302.167
302.207
302.24
302.322
295.848
297.134
298.309
299.085
299.455
299.634
299.868
300.197
300.603
301.034
301.491
301.902
302.085
302.158
302.188
302.207
302.225
302.242
302.255
302.262
302.264
302.26
302.251
302.24
302.225
302.211
302.197
302.185
302.175
302.168
302.164
302.166
302.176
302.198
302.231
302.273
302.321
302.373
296.72
297.563
298.426
299.168
299.579
299.97
300.407
300.903
301.416
301.786
302.04
302.19
302.256
302.287
302.304
302.316
302.325
302.331
302.333
302.33
302.323
302.313
302.3
302.285
302.269
302.254
302.239
302.226
302.215
302.206
302.2
302.199
302.204
302.219
302.241
302.279
302.299
302.349
298.395
298.371
298.369
299.163
299.699
300.231
300.762
301.321
301.771
302.029
302.19
302.287
302.351
302.39
302.411
302.423
302.429
302.433
302.434
302.432
302.426
302.416
302.403
302.387
302.369
302.351
302.333
302.315
302.299
302.283
302.268
302.255
302.245
302.237
302.232
302.238
302.251
302.267
302.281
302.333
)
;

boundaryField
{
    floor
    {
        type            wallHeatTransfer;
        Tinf            uniform 305.2;
        alphaWall       uniform 0.24;
        value           nonuniform List<scalar> 
36
(
301.686
302.123
302.043
302.001
302.005
302.025
302.057
302.093
302.128
302.161
302.192
302.22
302.247
302.271
302.293
302.315
302.337
302.341
302.396
302.396
302.238
302.159
302.119
302.185
302.318
302.288
301.686
301.631
301.683
301.756
302.123
301.756
302.122
301.71
301.937
301.717
)
;
    }
    ceiling
    {
        type            wallHeatTransfer;
        Tinf            uniform 303.2;
        alphaWall       uniform 0.24;
        value           nonuniform List<scalar> 
43
(
298.624
298.598
298.592
299.341
299.86
300.373
300.887
301.43
301.867
302.117
302.273
302.369
302.432
302.471
302.494
302.506
302.514
302.519
302.521
302.521
302.518
302.511
302.502
302.489
302.473
302.457
302.44
302.423
302.406
302.389
302.372
302.356
302.342
302.33
302.322
302.321
302.332
302.349
302.366
302.419
303.344
303.02
297.032
)
;
    }
    sWall
    {
        type            wallHeatTransfer;
        Tinf            uniform 315.2;
        alphaWall       uniform 0.36;
        value           uniform 299.574;
    }
    nWall
    {
        type            wallHeatTransfer;
        Tinf            uniform 307.2;
        alphaWall       uniform 0.36;
        value           nonuniform List<scalar> 6(302.792 302.698 302.553 303.025 302.997 303.023);
    }
    sideWalls
    {
        type            empty;
    }
    glass1
    {
        type            wallHeatTransfer;
        Tinf            uniform 315.2;
        alphaWall       uniform 4.3;
        value           nonuniform List<scalar> 9(310.614 309.909 309.463 309.128 308.851 308.597 308.407 308.497 308.769);
    }
    glass2
    {
        type            wallHeatTransfer;
        Tinf            uniform 307.2;
        alphaWall       uniform 4.3;
        value           nonuniform List<scalar> 2(305.081 305.285);
    }
    sun
    {
        type            wallHeatTransfer;
        Tinf            uniform 305.2;
        alphaWall       uniform 0.24;
        value           nonuniform List<scalar> 
14
(
301.892
301.595
301.578
301.564
301.553
301.542
301.532
301.522
301.513
301.506
301.505
301.514
301.539
301.593
)
;
    }
    Table_master
    {
        type            zeroGradient;
    }
    Table_slave
    {
        type            zeroGradient;
    }
    inlet
    {
        type            fixedValue;
        value           uniform 295.15;
    }
    outlet
    {
        type            zeroGradient;
    }
}


// ************************************************************************* //
