/*--------------------------------*- C++ -*----------------------------------*\
  =========                 |
  \\      /  F ield         | OpenFOAM: The Open Source CFD Toolbox
   \\    /   O peration     | Website:  https://openfoam.org
    \\  /    A nd           | Version:  6
     \\/     M anipulation  |
\*---------------------------------------------------------------------------*/
FoamFile
{
    version     2.0;
    format      ascii;
    class       surfaceScalarField;
    location    "1400";
    object      phi;
}
// * * * * * * * * * * * * * * * * * * * * * * * * * * * * * * * * * * * * * //

dimensions      [1 0 -1 0 0 0 0];

internalField   nonuniform List<scalar> 
850
(
-0.00305854
0.00311461
-0.00424227
0.00118372
-0.00507408
0.000831795
-0.00563531
0.000561216
-0.00588665
0.000251331
-0.0057952
-9.14591e-05
-0.00533886
-0.000456352
-0.00454975
-0.000789123
-0.00352317
-0.00102658
-0.00238408
-0.0011391
-0.00125845
-0.00112564
-0.000272982
-0.000985481
0.000371865
-0.000644864
0.000557632
-0.000185786
0.000559426
-0.000868242
0.000870675
-0.000647947
-0.00022034
2.63152e-05
-0.000674304
0.000702451
-0.000676177
0.00123168
-0.000529266
0.00153234
-0.000300709
0.00166344
-0.000131144
0.00173194
-6.8536e-05
0.00177532
-4.34347e-05
0.00180133
-2.60559e-05
0.00181389
-1.26092e-05
0.00181274
1.10853e-06
0.00178882
2.38646e-05
0.0017166
7.21724e-05
0.00155245
0.000164089
0.00126693
0.00028547
0.000844723
0.000422149
0.000847692
-0.00219229
0.00545867
-0.00329917
0.00229059
-0.00414117
0.00167378
-0.00470156
0.0011216
-0.00495915
0.000508905
-0.00488145
-0.000169165
-0.00445692
-0.000880886
-0.00373917
-0.00150688
-0.00284056
-0.0019252
-0.00188268
-0.00209698
-0.000975273
-0.00203306
-0.000203735
-0.00175703
0.000398644
-0.00124726
0.000848112
-0.000635271
0.00147482
-6.72987e-05
0.00136132
0.000116383
0.000929509
0.000435078
0.000939124
5.85144e-05
0.000819646
0.000516517
-0.000678384
0.00091458
-0.0010724
0.0012686
-0.00103023
0.00156069
-0.000821399
0.00163213
-0.000372183
0.00164287
-0.000141925
0.00165527
-8.09778e-05
0.00166573
-5.39419e-05
0.00167217
-3.25406e-05
0.00167573
-1.62195e-05
0.00167598
8.1047e-07
0.00166887
3.09245e-05
0.00162442
0.000116566
0.00144639
0.000342071
0.00112906
0.000602742
0.000697848
0.000853303
0.00155381
-0.00153375
0.00722557
-0.00246155
0.00321838
-0.00320567
0.00241788
-0.00369121
0.00160714
-0.00390988
0.000727562
-0.00380601
-0.000273048
-0.00336722
-0.00131968
-0.00268567
-0.00218843
-0.00189765
-0.00271323
-0.00110915
-0.00288547
-0.000398785
-0.00274343
0.000187683
-0.00234351
0.000670869
-0.00173046
0.00107326
-0.00103767
0.00138967
-0.000383729
0.00135801
0.000148025
0.00101477
0.000778296
0.00196213
0.0013568
-0.000527495
0.00163233
-0.000953953
0.00168212
-0.00112223
0.00177165
-0.00111979
0.00202274
-0.00107252
0.00165067
0.00150886
0.00142799
0.00137416
0.00134173
0.00132562
0.00132653
0.00135756
0.00147422
0.00125942
0.000556818
0.000977675
0.000884431
0.00057211
0.00125881
0.0021389
-0.00106082
0.00858952
-0.00176782
0.00392537
-0.00226142
0.00291147
-0.00257406
0.00191976
-0.00266925
0.000822742
-0.00245067
-0.000491639
-0.00195402
-0.00181633
-0.00132093
-0.00282151
-0.000683814
-0.00335034
-0.000106546
-0.00346274
0.000373931
-0.00322391
0.000752734
-0.00272232
0.00107069
-0.00204843
0.00134029
-0.00130728
0.00155066
-0.000594123
0.00165732
4.13506e-05
0.00181049
0.000625106
0.00280021
0.000972391
0.00259302
0.000215848
0.00242892
-0.000363423
0.00225429
-0.000779345
0.00206471
-0.000932679
0.00187553
-0.000930642
0.00157172
-0.000768746
0.00191049
-0.000338955
0.00206442
-0.000154129
0.00215675
-9.2522e-05
0.00221447
-5.79105e-05
0.00223418
-1.99023e-05
0.00220235
3.16304e-05
0.00209631
0.000105843
0.00187837
0.000217747
0.00148332
0.000394854
0.00129678
0.000743302
0.00101617
0.00116499
0.000632922
0.001642
0.00278874
-0.000731013
0.00968356
-0.0012388
0.00443314
-0.00134025
0.00301291
-0.00137381
0.0019533
-0.00119614
0.000645055
-0.000740166
-0.000947623
-0.000180115
-0.00237639
0.000330131
-0.00333175
0.000735723
-0.00375592
0.00102799
-0.00375499
0.00122808
-0.003424
0.00136427
-0.00285852
0.00146662
-0.0021508
0.00155699
-0.00139767
0.00165224
-0.00068939
0.00177931
-8.5736e-05
0.00202605
0.000378349
0.00243093
0.000567485
0.00244378
0.000202972
0.0023303
-0.000249967
0.00210564
-0.000554705
0.00186129
-0.000688357
0.00162292
-0.000692306
0.00143083
-0.000576699
0.00144394
-0.0003521
0.00148378
-0.000194005
0.00151392
-0.000122709
0.00154257
-8.66008e-05
0.0015701
-4.74793e-05
0.0015838
1.78818e-05
0.00156508
0.000124516
0.00149938
0.000283399
0.0013895
0.000504685
0.00130767
0.000825087
0.00125696
0.00121564
0.00122224
0.00167668
0.00211817
0.00189275
0.00145172
0.000683094
0.00137244
9.51899e-05
0.00144116
-0.00061758
0.0107149
-0.000927714
0.00474326
-0.000466608
0.00255179
-1.70609e-05
0.00150374
0.000628633
-6.61399e-07
0.00134779
-0.00166679
0.00185752
-0.00288611
0.00213361
-0.00360782
0.0022329
-0.00385521
0.00219411
-0.00371619
0.00206316
-0.00329305
0.00189013
-0.00268549
0.00171717
-0.00197786
0.00157631
-0.00125683
0.001494
-0.000607107
0.0014928
-8.45555e-05
0.00160139
0.000269733
0.0017907
0.000378144
0.00182626
0.000167392
0.00170363
-0.000127361
0.00149642
-0.000347529
0.00126715
-0.000459121
0.00104843
-0.000473628
0.000877391
-0.000405696
0.000806249
-0.000280999
0.000798413
-0.000186213
0.000819773
-0.000144114
0.000861569
-0.000128443
0.000922454
-0.000108413
0.000996967
-5.66789e-05
0.00107053
5.09048e-05
0.00113287
0.000221013
0.00119374
0.000443765
0.00129403
0.00072474
0.00148153
0.00102809
0.00178487
0.00137328
0.00213792
0.00153965
0.00176998
0.00105098
0.000996367
0.000868744
0.00249105
-0.000612554
0.0117876
-0.000390245
0.00452094
0.000932718
0.00122881
0.00209548
0.000340963
0.00311544
-0.00102064
0.00376457
-0.00231592
0.00404133
-0.00316286
0.00398349
-0.00354995
0.00367737
-0.00354907
0.00321171
-0.00325053
0.00267132
-0.00275266
0.00213182
-0.00214601
0.001645
-0.00149106
0.00124944
-0.000861308
0.000973852
-0.000331549
0.000834006
5.52586e-05
0.000835964
0.000267746
0.000914142
0.000299938
0.000923589
0.000157915
0.000829567
-3.33723e-05
0.000668073
-0.000186071
0.000479527
-0.000270616
0.000296114
-0.000290257
0.000150668
-0.000260296
7.51595e-05
-0.000205537
5.94708e-05
-0.000170573
8.15839e-05
-0.000166277
0.000131015
-0.000177925
0.00020827
-0.000185719
0.000320021
-0.000168481
0.000468364
-9.74909e-05
0.000637789
5.15366e-05
0.000826336
0.000255164
0.00105892
0.000492102
0.00135528
0.000731678
0.00173066
0.000997837
0.00215401
0.00111624
0.00232945
0.000875482
0.00186631
0.00133183
0.0044112
0.00284068
0.00946234
0.00368577
0.00367584
0.00444372
0.000470838
0.00564563
-0.000860962
0.00643376
-0.00180876
0.00661283
-0.00249498
0.00629816
-0.00284816
0.00562169
-0.00287346
0.00472034
-0.00264769
0.00371432
-0.00224451
0.00271229
-0.00175064
0.00180398
-0.00123772
0.00103412
-0.000721233
0.000443761
-0.000270995
6.74232e-05
4.4748e-05
-9.57107e-05
0.000218356
-0.000105681
0.000277682
-6.19534e-05
0.000256176
-6.01574e-05
0.000156083
-0.000126874
3.33043e-05
-0.000246075
-6.69137e-05
-0.000390001
-0.000126735
-0.000529889
-0.000150417
-0.000640084
-0.000150151
-0.000702654
-0.000143019
-0.000724603
-0.000148677
-0.000720884
-0.00017005
-0.000700041
-0.000198823
-0.000661749
-0.000224066
-0.000595889
-0.000234397
-0.000477365
-0.000216071
-0.0002805
-0.000145384
-2.74377e-05
2.04628e-06
0.000264451
0.000200159
0.000594034
0.000402039
0.000967826
0.00062399
0.00132273
0.000761278
0.00140923
0.000788924
0.000600898
0.00214011
0.00525516
0.0100292
0.013698
0.0125726
0.0015962
0.0118113
-9.96247e-05
0.0107587
-0.000756113
0.00939884
-0.00113507
0.00781334
-0.00126262
0.00613977
-0.00119987
0.00450487
-0.00101278
0.0029818
-0.000721467
0.00164064
-0.00040951
0.000521972
-0.000119104
-0.000309543
0.000110224
-0.000802417
0.000221832
-0.00101565
0.000257936
-0.00106904
0.000271709
-0.00105511
0.000263712
-0.00102602
0.000227045
-0.00102858
0.000158597
-0.00107559
8.02669e-05
-0.00115839
1.58383e-05
-0.00125998
-2.51941e-05
-0.00136202
-4.84291e-05
-0.00144969
-6.2535e-05
-0.00151634
-7.64295e-05
-0.00156907
-9.6004e-05
-0.00162115
-0.000118025
-0.00168489
-0.000135142
-0.00177146
-0.000137556
-0.00189283
-0.000113084
-0.0020618
-4.71623e-05
-0.00228411
7.68668e-05
-0.00255321
0.000271092
-0.00291044
0.000557331
-0.00346024
0.000951787
-0.00429146
0.00145515
-0.00555054
0.0020203
-0.00725567
0.00249399
-0.00731207
0.00219646
-0.00179111
0.0047101
0.00314541
0.00352013
0.00109036
0.00349453
-0.00073052
0.00311453
-0.0007551
0.00235597
-0.000504112
0.0014156
-0.000259557
0.000402169
5.88232e-07
-0.000535899
0.000216527
-0.0012437
0.000298235
-0.0016816
0.000318737
-0.00189191
0.000320485
-0.00197191
0.000301786
-0.00198812
0.000274097
-0.00196772
0.000251264
-0.00193525
0.000231188
-0.00191287
0.000204622
-0.00192017
0.000165847
-0.0019611
0.000121144
-0.00202579
8.04723e-05
-0.00209993
4.88858e-05
-0.00217489
2.64721e-05
-0.00224704
9.55663e-06
-0.00231756
-5.97053e-06
-0.00239189
-2.17345e-05
-0.00247587
-3.41062e-05
-0.00257348
-3.75904e-05
-0.0026855
-2.55925e-05
-0.00280809
9.44559e-06
-0.00293136
7.60411e-05
-0.00304368
0.000189127
-0.00314347
0.00037083
-0.00323211
0.000645913
-0.0033086
0.00102821
-0.00335298
0.00149946
-0.00330453
0.0019718
-0.00286991
0.00205931
-0.00112031
0.000446803
-0.00284115
-0.000406174
0.00362131
-1.05719e-05
0.000694712
-0.00086155
0.000120403
-0.00164237
2.56566e-05
-0.00224891
0.000102363
-0.0026991
0.000190564
-0.00296147
0.000262892
-0.00305509
0.000310082
-0.00306964
0.000312724
-0.00303303
0.000282075
-0.00295739
0.000244787
-0.00286652
0.000210869
-0.00277728
0.000184807
-0.00269479
0.000168721
-0.00262314
0.000159483
-0.00256958
0.000151011
-0.00254219
0.0001384
-0.00254277
0.000121661
-0.00256598
0.000103621
-0.00260397
8.68211e-05
-0.00264997
7.2407e-05
-0.00270046
5.99823e-05
-0.00275536
4.8869e-05
-0.00281586
3.8705e-05
-0.00287897
2.89457e-05
-0.00293821
2.15904e-05
-0.00298429
2.04192e-05
-0.00300676
3.18527e-05
-0.00299769
6.69142e-05
-0.002941
0.000132379
-0.00281063
0.000240399
-0.00257261
0.000407827
-0.00219834
0.000653887
-0.00163883
0.000939892
-0.000666586
0.000999499
0.00123623
0.000156434
0.00308704
-0.00140407
0.000322372
-0.00718203
-0.0100758
-0.00641706
-0.00570893
-0.00558352
-0.00555652
-0.00545507
-0.00526725
-0.00500871
-0.00470447
-0.00439897
-0.00412535
-0.00389
-0.00368936
-0.00351543
-0.00335812
-0.00321056
-0.00307197
-0.00294649
-0.00283822
-0.0027484
-0.00267573
-0.00261774
-0.00257238
-0.00253825
-0.00251436
-0.00250021
-0.00249329
-0.00248732
-0.00246958
-0.00241634
-0.00229714
-0.00206938
-0.00167364
-0.00103129
-0.000102488
0.000886079
0.00103032
-0.00038777
)
;

boundaryField
{
    floor
    {
        type            calculated;
        value           nonuniform List<scalar> 
36
(
0
0
0
0
0
0
0
0
0
0
0
0
0
0
0
0
0
0
0
-3.02767e-06
-8.32456e-06
-1.30443e-05
-1.69803e-05
-1.67052e-05
-1.59676e-05
-1.5246e-05
-1.81314e-06
-2.90585e-06
-3.28904e-06
-3.82459e-06
-2.47962e-06
-5.81342e-06
-7.53398e-06
-8.26191e-06
-9.70587e-06
-8.68064e-06
)
;
    }
    ceiling
    {
        type            calculated;
        value           nonuniform List<scalar> 
43
(
-3.97941e-05
-3.86562e-05
-3.74802e-05
-1.34942e-05
-5.0758e-06
-1.4152e-06
8.51395e-07
2.68006e-06
4.29354e-06
5.77966e-06
7.17132e-06
8.39125e-06
9.38583e-06
1.01747e-05
1.08135e-05
1.13603e-05
1.18653e-05
1.23612e-05
1.28552e-05
1.33269e-05
1.37455e-05
1.40898e-05
1.43561e-05
1.4552e-05
1.46837e-05
1.47481e-05
1.4732e-05
1.46158e-05
1.4387e-05
1.40476e-05
1.36147e-05
1.3116e-05
1.25768e-05
1.20218e-05
1.14831e-05
1.10269e-05
1.08717e-05
1.21347e-05
1.39583e-05
1.42594e-05
9.80537e-06
6.97436e-06
-6.9715e-05
)
;
    }
    sWall
    {
        type            calculated;
        value           uniform -0.000264216;
    }
    nWall
    {
        type            calculated;
        value           nonuniform List<scalar> 6(-5.35419e-05 -5.3585e-05 -5.39063e-05 -7.0336e-05 -7.65387e-05 -7.97201e-05);
    }
    sideWalls
    {
        type            empty;
        value           nonuniform 0();
    }
    glass1
    {
        type            calculated;
        value           nonuniform List<scalar> 9(-5.6084e-05 -0.000151783 -0.000233161 -0.000303146 -0.000363042 -0.000413792 -0.000460152 -0.000515413 -0.000576637);
    }
    glass2
    {
        type            calculated;
        value           nonuniform List<scalar> 2(-0.00024312 -0.000265852);
    }
    sun
    {
        type            calculated;
        value           uniform 0;
    }
    Table_master
    {
        type            calculated;
        value           nonuniform List<scalar> 9(-1.5282e-07 -1.53e-07 -1.53054e-07 -1.53084e-07 -1.53101e-07 -1.53108e-07 -1.53109e-07 -1.53092e-07 -1.53045e-07);
    }
    Table_slave
    {
        type            calculated;
        value           nonuniform List<scalar> 9(1.52678e-07 1.52684e-07 1.52642e-07 1.52612e-07 1.52595e-07 1.52589e-07 1.52596e-07 1.52631e-07 1.52707e-07);
    }
    inlet
    {
        type            calculated;
        value           uniform -0.00625927;
    }
    outlet
    {
        type            calculated;
        value           nonuniform List<scalar> 2(0.00748597 0.00293234);
    }
}


// ************************************************************************* //
