/*--------------------------------*- C++ -*----------------------------------*\
  =========                 |
  \\      /  F ield         | OpenFOAM: The Open Source CFD Toolbox
   \\    /   O peration     | Website:  https://openfoam.org
    \\  /    A nd           | Version:  6
     \\/     M anipulation  |
\*---------------------------------------------------------------------------*/
FoamFile
{
    version     2.0;
    format      ascii;
    class       volScalarField;
    location    "700";
    object      alphat;
}
// * * * * * * * * * * * * * * * * * * * * * * * * * * * * * * * * * * * * * //

dimensions      [1 -1 -1 0 0 0 0];

internalField   nonuniform List<scalar> 
458
(
0.000799879
0.000823415
0.000787022
0.000818104
0.000847701
0.000874258
0.000898206
0.00092028
0.000941358
0.000962555
0.000982979
0.0010001
0.00101396
0.00102601
0.00103594
0.000626713
0.000834688
0.000900871
0.000908469
0.000878607
0.000818184
0.000760733
0.000709584
0.000661375
0.000615167
0.000570828
0.000528522
0.000488446
0.000450618
0.00041471
0.000380167
0.000367049
0.000341263
0.00132024
0.00201419
0.00150419
0.00181814
0.0019276
0.00204742
0.00217125
0.00229072
0.00239401
0.00246464
0.00249843
0.00247116
0.00234407
0.00205884
0.00157854
0.00110413
0.00107468
0.000797357
0.000768669
0.00278261
0.00332006
0.00312241
0.00251848
0.00196995
0.00181006
0.00165644
0.00148887
0.0013188
0.00115982
0.00101687
0.000889959
0.000778911
0.000696394
0.000636199
0.000856598
0.000488885
0.00178834
0.00326762
0.00161157
0.00262265
0.00283433
0.00298242
0.00311519
0.00323152
0.00332848
0.00339983
0.00344366
0.00343252
0.0033334
0.00310895
0.00274561
0.00228715
0.0017396
0.00116493
0.00112507
0.00376039
0.00364979
0.00296984
0.00194142
0.000809983
0.000658302
0.000588996
0.000545819
0.00051051
0.000479344
0.000452182
0.00042951
0.00041319
0.000505451
0.000574129
0.00104142
0.000593222
0.00225465
0.00507873
0.00172045
0.00301571
0.00347454
0.00364633
0.00377473
0.00387932
0.00396431
0.00402899
0.00406987
0.0040857
0.00405113
0.00393155
0.00367317
0.00321622
0.00254698
0.00179787
0.00127685
0.00269221
0.00339327
0.00295842
0.00229677
0.00157152
0.000916766
0.000886519
0.000876244
0.000878097
0.000881858
0.00087987
0.000864899
0.00083129
0.000795929
0.000781627
0.000759697
0.00119172
0.000711521
0.00271212
0.00732578
0.00234842
0.0029142
0.00382623
0.00406282
0.00419249
0.00428686
0.00435926
0.0044157
0.0044546
0.00449337
0.00453625
0.0045693
0.00456257
0.00448532
0.00432252
0.00406324
0.00368789
0.00333595
0.00296748
0.00262642
0.00246789
0.00256982
0.00288782
0.00316738
0.00328722
0.00334906
0.00338558
0.00337626
0.00329934
0.00312383
0.00267327
0.00214578
0.00167016
0.00138573
0.00119511
0.00086427
0.000868425
0.000857336
0.0031654
0.00963766
0.0042138
0.0026921
0.00362353
0.00413215
0.0043759
0.00451611
0.00459088
0.00461428
0.00460559
0.00461208
0.00466113
0.00473133
0.004792
0.00480653
0.00472158
0.00445255
0.00395908
0.00335485
0.00281966
0.00246979
0.00230136
0.00238544
0.00276447
0.00316487
0.00339552
0.00354596
0.00365413
0.00372207
0.00374052
0.00369714
0.00348721
0.00307018
0.00253973
0.00195767
0.00155613
0.00153214
0.00209437
0.00107763
0.00360522
0.0115504
0.00780964
0.00428232
0.0030544
0.00320342
0.00378963
0.00429873
0.00462667
0.00476307
0.00464097
0.00458229
0.00459601
0.00464475
0.00470211
0.00474015
0.00470933
0.00452198
0.00412083
0.00357074
0.0030272
0.00258171
0.0022171
0.00211295
0.0024401
0.00292319
0.00318302
0.00335184
0.00349415
0.003615
0.00371656
0.00380495
0.00385744
0.00364514
0.00321901
0.00270141
0.00225196
0.00206779
0.00246315
0.00133961
0.00370713
0.0115533
0.00963051
0.00794533
0.00589789
0.00436731
0.00373322
0.00383642
0.00424366
0.00462306
0.00455149
0.004457
0.00441503
0.00441297
0.00442668
0.00443355
0.00440608
0.00429501
0.00405374
0.00369719
0.00330876
0.00289428
0.00231287
0.00192433
0.0021683
0.00276502
0.00308973
0.00324345
0.00335251
0.00346075
0.00359107
0.00376947
0.00402647
0.00431512
0.00404171
0.00383175
0.00383872
0.00387228
0.0046613
0.00178253
0.00361524
0.00435176
0.00467886
0.00502706
0.00508103
0.00476232
0.00433881
0.00403609
0.00391509
0.00391736
0.00394739
0.00398245
0.00401299
0.00403044
0.00402662
0.00399477
0.00392853
0.00381782
0.00365734
0.0034768
0.00334702
0.00321647
0.00257356
0.00180186
0.00189735
0.00260651
0.00305355
0.00319504
0.00322621
0.0032318
0.00323505
0.00324061
0.00323942
0.00321224
0.00316097
0.00310624
0.00301059
0.00283505
0.00264503
0.00172523
0.0014256
0.00264588
0.0036172
0.00407519
0.00414836
0.00406354
0.00395645
0.00386955
0.00380419
0.00375947
0.00371687
0.00366128
0.00358378
0.00348187
0.00335831
0.00321956
0.00307918
0.0029768
0.00300241
0.00316667
0.00290328
0.00170292
0.00158501
0.00231096
0.00292229
0.00312348
0.00312894
0.00308424
0.00302808
0.00297788
0.0029506
0.00295067
0.00292521
0.00284174
0.00265693
0.00235268
0.00198319
0.00138012
0.00249537
0.0039628
0.00451811
0.00467594
0.0045725
0.0044062
0.00420552
0.00400887
0.00382474
0.00361964
0.003389
0.00315169
0.00291924
0.00269899
0.0024965
0.00231798
0.00217425
0.0020927
0.00213952
0.0023381
0.00226544
0.00149874
0.00124245
0.0017837
0.00227972
0.00248554
0.00259339
0.0026934
0.00280273
0.00290548
0.00298932
0.00307698
0.00313564
0.00312539
0.00303753
0.00290369
0.00234377
0.00139176
0.00252309
0.00258055
0.00263861
0.0028278
0.00275863
0.00265042
0.00238502
0.0022212
0.00207647
0.00194611
0.00182628
0.00171895
0.00162196
0.00153045
0.00144179
0.0013547
0.00126893
0.00118515
0.00110493
0.0010309
0.000967243
0.000918268
0.000877998
0.000838385
0.00083172
0.0009184
0.000960581
0.000999308
0.00104067
0.00108696
0.00113982
0.00120223
0.00127678
0.00135772
0.00144282
0.0015272
0.00160844
0.00158044
0.00145012
0.00133346
)
;

boundaryField
{
    floor
    {
        type            compressible::alphatWallFunction;
        Prt             0.85;
        value           nonuniform List<scalar> 
36
(
0.000147306
8.82936e-05
0.000118718
0.000128196
0.000129285
0.000125026
0.00011635
0.000108027
0.000100554
9.34501e-05
8.65828e-05
7.99342e-05
7.35314e-05
6.74077e-05
6.15702e-05
5.59718e-05
5.05281e-05
4.84461e-05
4.4323e-05
4.43224e-05
6.74879e-05
8.33068e-05
0.000100826
0.000122954
0.000123555
0.000121972
0.000147304
0.000156836
0.000152735
0.000113344
8.82926e-05
0.000113343
0.000109215
0.000165283
0.000159729
0.000180689
)
;
    }
    ceiling
    {
        type            compressible::alphatWallFunction;
        Prt             0.85;
        value           nonuniform List<scalar> 
43
(
0.000344419
0.000351711
0.000359063
0.000382934
0.000374256
0.000360614
0.000326886
0.000305867
0.000287156
0.000270183
0.000254471
0.000240302
0.000227413
0.000215175
0.000203239
0.000191434
0.000179724
0.000168199
0.000157076
0.000146727
0.000137762
0.000130818
0.00012507
0.000119388
0.000118465
0.000130838
0.000136815
0.00014228
0.000148092
0.000154563
0.000161916
0.000170547
0.000180788
0.000191832
0.000203362
0.000214722
0.000225592
0.000221854
0.000204348
0.00018853
0.000480665
0.00056994
0.000340841
)
;
    }
    sWall
    {
        type            compressible::alphatWallFunction;
        Prt             0.85;
        value           uniform 0.000343245;
    }
    nWall
    {
        type            compressible::alphatWallFunction;
        Prt             0.85;
        value           nonuniform List<scalar> 6(0.000121742 0.000152884 0.000188981 0.000194512 0.000196088 0.000188166);
    }
    sideWalls
    {
        type            empty;
    }
    glass1
    {
        type            compressible::alphatWallFunction;
        Prt             0.85;
        value           nonuniform List<scalar> 9(0.000110375 0.000182018 0.000243924 0.00030399 0.000361742 0.000418036 0.000471911 0.00048444 0.000473501);
    }
    glass2
    {
        type            compressible::alphatWallFunction;
        Prt             0.85;
        value           nonuniform List<scalar> 2(0.000246447 0.000238988);
    }
    sun
    {
        type            compressible::alphatWallFunction;
        Prt             0.85;
        value           nonuniform List<scalar> 
14
(
0.000113737
0.000117114
0.000111856
0.000116347
0.000120605
0.00012441
0.00012783
0.000130973
0.000133965
0.000136967
0.000139853
0.000142266
0.000144217
0.000145911
)
;
    }
    Table_master
    {
        type            compressible::alphatWallFunction;
        Prt             0.85;
        value           nonuniform List<scalar> 9(0.000115366 9.32049e-05 8.2861e-05 7.63398e-05 7.09625e-05 6.61795e-05 6.19803e-05 5.84511e-05 5.58958e-05);
    }
    Table_slave
    {
        type            compressible::alphatWallFunction;
        Prt             0.85;
        value           nonuniform List<scalar> 9(0.000130639 0.000126312 0.000124847 0.000125113 0.000125651 0.000125366 0.000123221 0.000118395 0.000113292);
    }
    inlet
    {
        type            fixedValue;
        value           uniform 1.94e-05;
    }
    outlet
    {
        type            zeroGradient;
    }
}


// ************************************************************************* //
