/*--------------------------------*- C++ -*----------------------------------*\
  =========                 |
  \\      /  F ield         | OpenFOAM: The Open Source CFD Toolbox
   \\    /   O peration     | Website:  https://openfoam.org
    \\  /    A nd           | Version:  6
     \\/     M anipulation  |
\*---------------------------------------------------------------------------*/
FoamFile
{
    version     2.0;
    format      ascii;
    class       volScalarField;
    location    "2500";
    object      alphat;
}
// * * * * * * * * * * * * * * * * * * * * * * * * * * * * * * * * * * * * * //

dimensions      [1 -1 -1 0 0 0 0];

internalField   nonuniform List<scalar> 
458
(
0.00102857
0.00110542
0.00110924
0.00115683
0.00120004
0.00123911
0.00127553
0.00131098
0.00134704
0.00137419
0.00138845
0.00138594
0.00136561
0.00133252
0.00129467
0.000477525
0.000613004
0.000633863
0.000624352
0.000607059
0.000580992
0.000553198
0.000527239
0.000503651
0.000482301
0.000463075
0.000445526
0.000429196
0.000413504
0.000397621
0.000380038
0.000362294
0.000327469
0.00147122
0.00310476
0.00284284
0.00331305
0.00370387
0.00410766
0.00450157
0.00484886
0.00509975
0.00532084
0.00547367
0.00549389
0.00528083
0.0046425
0.00322252
0.00133258
0.00111454
0.00092077
0.00071538
0.00108455
0.00137753
0.00158079
0.00165045
0.0013793
0.00123653
0.00113307
0.00105169
0.000985197
0.000924131
0.000866248
0.000808194
0.000747821
0.000695607
0.000655055
0.000731928
0.00040021
0.00185327
0.00432035
0.00334121
0.00453262
0.00500429
0.00534239
0.00560096
0.00580578
0.00597053
0.00615766
0.0063505
0.00651604
0.00662136
0.0066375
0.00650604
0.00601993
0.0049198
0.00123411
0.00102297
0.00146177
0.00180882
0.00207349
0.00211409
0.000770481
0.000694531
0.000631027
0.000578726
0.00053566
0.000500103
0.000470662
0.000446481
0.000427436
0.000467954
0.000544054
0.000804734
0.000449016
0.0022339
0.0058914
0.00327771
0.00484774
0.00542308
0.00561109
0.0056743
0.00570887
0.00578
0.005924
0.00612388
0.00634706
0.00657409
0.00679233
0.00696476
0.0069363
0.00643634
0.00502196
0.0013123
0.00173281
0.00224217
0.00262801
0.00286226
0.00275899
0.000820425
0.000766243
0.000734688
0.000714352
0.00069733
0.000677754
0.000655751
0.000631712
0.000601787
0.000569646
0.000568458
0.00085749
0.000496272
0.0026267
0.00798306
0.00382415
0.00452021
0.00543537
0.00561212
0.00556108
0.00546432
0.00545747
0.00560035
0.00581592
0.00606137
0.00632196
0.00657396
0.00675948
0.00675263
0.00647058
0.00588573
0.0047847
0.00435886
0.00412708
0.00395538
0.00381556
0.00365263
0.00322748
0.00310247
0.00307954
0.00307115
0.00303568
0.00294554
0.00272979
0.00238876
0.00195499
0.00148102
0.00110257
0.000983457
0.000742713
0.000578065
0.000611252
0.000638275
0.00304086
0.0102774
0.00597766
0.00436369
0.00489589
0.00529686
0.00544795
0.00538001
0.00528873
0.00546386
0.0056834
0.00592851
0.00619226
0.00643794
0.0065891
0.00655584
0.00629905
0.00588153
0.00538985
0.00500641
0.00465718
0.00431967
0.00404619
0.00386822
0.00378193
0.00379845
0.00384206
0.00386601
0.00385087
0.00378561
0.00364294
0.00335668
0.00292552
0.00236836
0.00181553
0.00137643
0.00104159
0.00100024
0.00140197
0.000856397
0.00343224
0.0120325
0.00937646
0.00640438
0.00534023
0.00508152
0.00525076
0.00539577
0.00546396
0.00556972
0.00572847
0.00594592
0.00620347
0.00645114
0.00660033
0.00655395
0.0062793
0.00585361
0.00540818
0.00499275
0.00455322
0.00414037
0.00385831
0.00373404
0.00373406
0.00379922
0.00386551
0.00390369
0.00390809
0.00388167
0.00382778
0.00369508
0.00338673
0.00292317
0.00241159
0.00193475
0.0015392
0.00137743
0.00163746
0.0010386
0.00351268
0.0111684
0.00989379
0.00902375
0.00786546
0.0069137
0.00646006
0.00615099
0.00590138
0.00581537
0.00589408
0.00609099
0.00635037
0.00660289
0.00674438
0.00666529
0.00633665
0.00584188
0.00529482
0.00468416
0.00413584
0.00377443
0.00359318
0.00353269
0.00354052
0.00357473
0.00360342
0.00361503
0.00361469
0.00361628
0.00363564
0.00367216
0.00360891
0.00328189
0.00294137
0.0026843
0.00258497
0.00256949
0.00319028
0.00144781
0.00342307
0.00408051
0.00474508
0.00506821
0.0053178
0.00538086
0.0053632
0.00537723
0.00551206
0.00574806
0.0060341
0.00633525
0.00662941
0.00687177
0.00695357
0.00675878
0.0062907
0.00563776
0.00485862
0.00416219
0.00371964
0.00348375
0.00336252
0.003298
0.00325879
0.00322326
0.00317547
0.00310892
0.00302563
0.00292993
0.00282161
0.00269408
0.00255068
0.0024136
0.00231168
0.00226277
0.00223048
0.00216705
0.00207834
0.00143484
0.00251609
0.00568091
0.00586223
0.00603097
0.00623918
0.00649476
0.00668956
0.00680729
0.00688498
0.00697202
0.00708681
0.00717331
0.00705078
0.00657104
0.00578946
0.0049235
0.00422462
0.00379457
0.00355034
0.00339142
0.00326273
0.00314162
0.00302013
0.00289501
0.0027642
0.0026278
0.0024909
0.00236488
0.00226435
0.00220156
0.00217246
0.00215515
0.00214727
0.00213518
0.00208309
0.00195746
0.00177735
0.0012456
0.00257601
0.00631492
0.00676388
0.00677839
0.00692317
0.00709822
0.00719958
0.00700483
0.00682983
0.0067841
0.00685921
0.00693978
0.00669
0.00603423
0.00529112
0.00472862
0.00439472
0.00418313
0.00403919
0.00391879
0.00379066
0.00363923
0.00346043
0.00325906
0.00304631
0.00283668
0.00264444
0.00248046
0.0023498
0.00225738
0.00221676
0.0022165
0.00223884
0.00225539
0.00224644
0.00222042
0.00235882
0.00127659
0.00207397
0.00225057
0.00238359
0.00253766
0.00245132
0.00234977
0.0021796
0.00192429
0.00166047
0.00156607
0.00150889
0.00146601
0.00142174
0.0013603
0.00128047
0.00120037
0.00112444
0.00106983
0.00103548
0.00101668
0.00100213
0.000986573
0.00096895
0.000950052
0.000931917
0.000917197
0.00090843
0.000907469
0.000915311
0.000932399
0.000959265
0.000995334
0.00103684
0.00108443
0.00113831
0.0011959
0.00125586
0.0012429
0.00115791
0.00108491
)
;

boundaryField
{
    floor
    {
        type            compressible::alphatWallFunction;
        Prt             0.85;
        value           nonuniform List<scalar> 
36
(
0.000183197
6.58279e-05
8.63607e-05
8.9468e-05
8.80523e-05
8.54717e-05
8.15644e-05
7.73743e-05
7.34371e-05
6.98385e-05
6.65629e-05
6.35977e-05
6.08774e-05
5.83336e-05
5.58778e-05
5.33796e-05
5.05991e-05
4.7776e-05
4.21819e-05
4.21814e-05
5.37865e-05
6.14182e-05
6.87072e-05
8.11248e-05
8.60993e-05
9.01275e-05
0.000183195
0.00018837
0.000158366
0.00013113
6.58271e-05
0.000131128
0.000101501
0.000174894
0.000145566
0.000185601
)
;
    }
    ceiling
    {
        type            compressible::alphatWallFunction;
        Prt             0.85;
        value           nonuniform List<scalar> 
43
(
0.00028668
0.00030949
0.000326548
0.000346302
0.000335348
0.000322392
0.000300526
0.000267357
0.000232566
0.000219983
0.000212322
0.000206557
0.000200584
0.000192259
0.000181371
0.000170371
0.000159863
0.000152253
0.000147444
0.000144804
0.000142758
0.000140565
0.000138076
0.000135402
0.000132829
0.000130737
0.00012949
0.000129354
0.000130471
0.000132901
0.00013671
0.000141805
0.00014764
0.000154298
0.000161796
0.000169765
0.000178014
0.000176235
0.000164514
0.000154369
0.000457155
0.00053733
0.000350861
)
;
    }
    sWall
    {
        type            compressible::alphatWallFunction;
        Prt             0.85;
        value           uniform 0.000285487;
    }
    nWall
    {
        type            compressible::alphatWallFunction;
        Prt             0.85;
        value           nonuniform List<scalar> 6(8.99524e-05 0.000121752 0.000147571 0.000176293 0.000180541 0.00015406);
    }
    sideWalls
    {
        type            empty;
    }
    glass1
    {
        type            compressible::alphatWallFunction;
        Prt             0.85;
        value           nonuniform List<scalar> 9(0.000142774 0.000202741 0.000252999 0.000302044 0.000351798 0.000403466 0.000451667 0.000461624 0.000450867);
    }
    glass2
    {
        type            compressible::alphatWallFunction;
        Prt             0.85;
        value           nonuniform List<scalar> 2(0.000202754 0.00020105);
    }
    sun
    {
        type            compressible::alphatWallFunction;
        Prt             0.85;
        value           nonuniform List<scalar> 
14
(
0.000146375
0.000157101
0.000157632
0.000164238
0.000170208
0.000175586
0.000180581
0.000185428
0.000190342
0.000194032
0.000195968
0.000195626
0.000192866
0.000188363
)
;
    }
    Table_master
    {
        type            compressible::alphatWallFunction;
        Prt             0.85;
        value           nonuniform List<scalar> 9(0.000109607 9.8508e-05 8.91142e-05 8.12904e-05 7.47823e-05 6.93597e-05 6.48331e-05 6.10883e-05 5.81207e-05);
    }
    Table_slave
    {
        type            compressible::alphatWallFunction;
        Prt             0.85;
        value           nonuniform List<scalar> 9(0.000116836 0.000108994 0.000104397 0.000101421 9.89228e-05 9.60401e-05 9.27878e-05 8.92192e-05 8.47533e-05);
    }
    inlet
    {
        type            fixedValue;
        value           uniform 1.94e-05;
    }
    outlet
    {
        type            zeroGradient;
    }
}


// ************************************************************************* //
