/*--------------------------------*- C++ -*----------------------------------*\
  =========                 |
  \\      /  F ield         | OpenFOAM: The Open Source CFD Toolbox
   \\    /   O peration     | Website:  https://openfoam.org
    \\  /    A nd           | Version:  6
     \\/     M anipulation  |
\*---------------------------------------------------------------------------*/
FoamFile
{
    version     2.0;
    format      ascii;
    class       volVectorField;
    location    "1600";
    object      U;
}
// * * * * * * * * * * * * * * * * * * * * * * * * * * * * * * * * * * * * * //

dimensions      [0 1 -1 0 0 0 0];

internalField   nonuniform List<vector> 
458
(
(0.0753865 0.0719239 0)
(-0.142436 0.0100554 0)
(-0.142932 0.011467 0)
(-0.166382 0.00993672 0)
(-0.187304 0.00724231 0)
(-0.20505 0.00406344 0)
(-0.218895 0.000448615 0)
(-0.228137 -0.00370249 0)
(-0.231957 -0.00854658 0)
(-0.22918 -0.0142915 0)
(-0.217987 -0.0215202 0)
(-0.195287 -0.0307499 0)
(-0.159573 -0.0437775 0)
(-0.122567 -0.0643094 0)
(-0.124839 -0.092498 0)
(0.062739 -0.0286334 0)
(0.0367546 -0.0184023 0)
(0.0488677 -0.0119407 0)
(0.063063 -0.00893937 0)
(0.0728513 -0.00681781 0)
(0.0786899 -0.00388467 0)
(0.0805691 -0.00213842 0)
(0.0799111 -0.0014547 0)
(0.0785331 -0.0011778 0)
(0.0771203 -0.000977265 0)
(0.0756321 -0.000774318 0)
(0.0738942 -0.000506752 0)
(0.0716532 -1.50962e-05 0)
(0.0683165 0.00106514 0)
(0.0626677 0.00324417 0)
(0.0533694 0.00579792 0)
(0.0431371 0.00814704 0)
(-0.00649652 0.0213144 0)
(0.268649 0.154449 0)
(-0.156885 0.036012 0)
(-0.125586 0.0379053 0)
(-0.153766 0.0351844 0)
(-0.175742 0.0311155 0)
(-0.194372 0.0262781 0)
(-0.209293 0.0205382 0)
(-0.220011 0.0136151 0)
(-0.225801 0.00519474 0)
(-0.225555 -0.00500465 0)
(-0.218726 -0.0165697 0)
(-0.204683 -0.029226 0)
(-0.185184 -0.0439995 0)
(-0.168623 -0.0622199 0)
(-0.162368 -0.0734242 0)
(-0.135391 -0.0434068 0)
(-0.08042 -0.0392034 0)
(-0.0825136 -0.0393452 0)
(0.0653906 -0.0428076 0)
(0.0254481 -0.0238336 0)
(0.0354305 -0.0153855 0)
(0.0481885 -0.0134966 0)
(0.0577995 -0.0113285 0)
(0.0643739 -0.00297909 0)
(0.0654698 0.00197332 0)
(0.0648118 0.00370589 0)
(0.0645021 0.004215 0)
(0.0645801 0.00442322 0)
(0.0646645 0.00457378 0)
(0.0646295 0.00485062 0)
(0.0644516 0.00562112 0)
(0.0636317 0.00774418 0)
(0.0598744 0.0136083 0)
(0.050416 0.018953 0)
(0.0439664 0.0228794 0)
(-0.0415435 0.0448391 0)
(0.438611 0.235426 0)
(-0.196897 0.0673365 0)
(-0.098573 0.0646428 0)
(-0.130843 0.0563795 0)
(-0.15026 0.0483699 0)
(-0.167012 0.0395045 0)
(-0.180686 0.0292036 0)
(-0.190858 0.017088 0)
(-0.196786 0.00296191 0)
(-0.197268 -0.0129888 0)
(-0.191678 -0.0304003 0)
(-0.180524 -0.048443 0)
(-0.166013 -0.066542 0)
(-0.152255 -0.0832905 0)
(-0.13828 -0.0912734 0)
(-0.113742 -0.0820493 0)
(-0.0827956 -0.0864273 0)
(-0.0888356 -0.0976277 0)
(0.0397662 -0.0517944 0)
(0.00449334 -0.0343364 0)
(0.0184714 -0.0270247 0)
(0.0309239 -0.0253067 0)
(0.0403934 -0.0251265 0)
(0.0508061 -0.0162828 0)
(0.0481079 -0.00992779 0)
(0.0450058 -0.00685511 0)
(0.0450626 -0.00529506 0)
(0.0466098 -0.00431804 0)
(0.0483787 -0.00362375 0)
(0.050249 -0.00298948 0)
(0.0527874 -0.00199857 0)
(0.0572725 0.00135812 0)
(0.0573394 0.0185473 0)
(0.046579 0.030423 0)
(0.0484362 0.038761 0)
(-0.0733988 0.0694973 0)
(0.58247 0.302705 0)
(-0.245893 0.100616 0)
(-0.0653001 0.0883294 0)
(-0.102785 0.0752128 0)
(-0.117389 0.0650431 0)
(-0.130693 0.0541385 0)
(-0.142117 0.0413779 0)
(-0.151177 0.0261066 0)
(-0.15697 0.00785868 0)
(-0.157844 -0.0133389 0)
(-0.152906 -0.0363407 0)
(-0.143573 -0.0590646 0)
(-0.132013 -0.0794371 0)
(-0.120628 -0.0950186 0)
(-0.108649 -0.10216 0)
(-0.0934848 -0.101545 0)
(-0.0805101 -0.10226 0)
(-0.0799253 -0.0922125 0)
(-0.0624525 -0.0357594 0)
(-0.0144674 -0.057404 0)
(-0.00643331 -0.0480977 0)
(0.00645631 -0.0392883 0)
(0.014985 -0.0344221 0)
(0.0185532 -0.0310862 0)
(0.0256613 -0.0199297 0)
(0.0412511 -0.0152722 0)
(0.0551154 -0.0127735 0)
(0.0666538 -0.0109586 0)
(0.0761523 -0.00905843 0)
(0.0829656 -0.00665627 0)
(0.0857894 -0.00357742 0)
(0.0824019 0.000593866 0)
(0.0712657 0.00634366 0)
(0.0571109 0.0264299 0)
(0.0443357 0.0435314 0)
(0.0555881 0.0574661 0)
(-0.0963562 0.0921448 0)
(0.698705 0.357485 0)
(-0.292307 0.132884 0)
(-0.0301672 0.102962 0)
(-0.0713077 0.0879148 0)
(-0.0803497 0.0768012 0)
(-0.0890282 0.0647434 0)
(-0.0969462 0.0502852 0)
(-0.103634 0.0325489 0)
(-0.108246 0.0108236 0)
(-0.108399 -0.0149734 0)
(-0.103097 -0.0428278 0)
(-0.0948966 -0.0689748 0)
(-0.0858018 -0.0904371 0)
(-0.0773123 -0.105351 0)
(-0.0691525 -0.11265 0)
(-0.0607042 -0.114218 0)
(-0.0539552 -0.113112 0)
(-0.048263 -0.104201 0)
(-0.0351375 -0.0786794 0)
(-0.017107 -0.0716093 0)
(-0.00799505 -0.0595876 0)
(-9.79802e-05 -0.0486601 0)
(0.00588952 -0.0406497 0)
(0.0104145 -0.0339422 0)
(0.0184133 -0.0241654 0)
(0.0293645 -0.0194308 0)
(0.0400543 -0.0170919 0)
(0.0498941 -0.0149681 0)
(0.0587156 -0.0118285 0)
(0.0659068 -0.00675234 0)
(0.0705643 0.000865333 0)
(0.0707514 0.0101659 0)
(0.0660969 0.0210536 0)
(0.0586402 0.0373582 0)
(0.0484831 0.055171 0)
(0.0671978 0.0745184 0)
(0.00216666 0.101996 0)
(0.0465844 0.129941 0)
(-0.0814113 0.0501374 0)
(-0.263733 -0.0129824 0)
(0.774638 0.405658 0)
(-0.329439 0.159401 0)
(-0.00409436 0.101261 0)
(-0.0351706 0.0945558 0)
(-0.039441 0.0844617 0)
(-0.0438861 0.0712469 0)
(-0.0476999 0.0556657 0)
(-0.0506427 0.036706 0)
(-0.0524784 0.0129412 0)
(-0.049064 -0.0168056 0)
(-0.0422323 -0.0490478 0)
(-0.0354835 -0.0770846 0)
(-0.0299115 -0.0981405 0)
(-0.0260206 -0.111741 0)
(-0.0234198 -0.118335 0)
(-0.0216007 -0.119474 0)
(-0.0208357 -0.116207 0)
(-0.0199032 -0.106387 0)
(-0.0154639 -0.0907096 0)
(-0.00927596 -0.079025 0)
(-0.00634045 -0.0649864 0)
(-0.00403907 -0.0530265 0)
(-0.00208306 -0.0445506 0)
(0.000498019 -0.0382022 0)
(0.00548533 -0.0322557 0)
(0.0125207 -0.0289805 0)
(0.0201585 -0.026975 0)
(0.0279143 -0.0247357 0)
(0.0356109 -0.0210454 0)
(0.0429742 -0.0146311 0)
(0.0496362 -0.00423953 0)
(0.0546363 0.0093173 0)
(0.0556803 0.0238947 0)
(0.0556727 0.0402804 0)
(0.0541741 0.0576921 0)
(0.0728378 0.0780763 0)
(0.0620528 0.0922251 0)
(0.0912904 0.0941643 0)
(0.111971 0.0547643 0)
(-0.136443 -0.0299733 0)
(0.797932 0.448995 0)
(-0.343713 0.151716 0)
(0.0132818 0.0555018 0)
(0.0183865 0.0902122 0)
(0.0149808 0.0951587 0)
(0.0100902 0.0782422 0)
(0.00874807 0.0581187 0)
(0.00969259 0.03698 0)
(0.0111859 0.0104744 0)
(0.0223138 -0.0236864 0)
(0.029821 -0.0565419 0)
(0.0330655 -0.0824786 0)
(0.0329516 -0.100696 0)
(0.0301424 -0.111898 0)
(0.0254718 -0.117088 0)
(0.0197745 -0.117388 0)
(0.0135627 -0.113396 0)
(0.00756262 -0.10453 0)
(0.00318838 -0.092061 0)
(9.02937e-06 -0.078922 0)
(-0.00453622 -0.0636614 0)
(-0.00799907 -0.0519292 0)
(-0.0106487 -0.044512 0)
(-0.0116842 -0.0399231 0)
(-0.0107188 -0.0367225 0)
(-0.00804756 -0.0347934 0)
(-0.00440303 -0.0334542 0)
(-3.90484e-05 -0.031749 0)
(0.00499063 -0.0285781 0)
(0.0107339 -0.0226739 0)
(0.017558 -0.0122335 0)
(0.0287755 0.00412672 0)
(0.036051 0.0205678 0)
(0.0428904 0.0360905 0)
(0.0500261 0.0506249 0)
(0.0690674 0.066852 0)
(0.0824358 0.0734619 0)
(0.111774 0.06511 0)
(0.153888 0.0497784 0)
(-0.0271204 0.089412 0)
(0.89368 0.463637 0)
(-0.116453 0.132933 0)
(0.0874439 -0.0255962 0)
(0.139264 0.0224916 0)
(0.120972 0.0599292 0)
(0.101778 0.056421 0)
(0.0958834 0.0386351 0)
(0.0965246 0.01729 0)
(0.0995905 -0.0103587 0)
(0.110314 -0.037682 0)
(0.112847 -0.0619315 0)
(0.108325 -0.0812628 0)
(0.0991343 -0.0950527 0)
(0.0869914 -0.103542 0)
(0.0732725 -0.107327 0)
(0.0590629 -0.107033 0)
(0.0450475 -0.102903 0)
(0.0315022 -0.0947182 0)
(0.0188371 -0.0835559 0)
(0.00720995 -0.070589 0)
(-0.00488423 -0.0553452 0)
(-0.0136751 -0.0452486 0)
(-0.0207936 -0.0399208 0)
(-0.0258683 -0.0373332 0)
(-0.0291776 -0.0360626 0)
(-0.0311709 -0.035492 0)
(-0.0323275 -0.0350797 0)
(-0.0328965 -0.034234 0)
(-0.032845 -0.0322924 0)
(-0.0318595 -0.0285177 0)
(-0.029144 -0.0220833 0)
(-0.0224127 -0.0121249 0)
(-0.00438334 0.00232593 0)
(0.00809572 0.0165806 0)
(0.0205708 0.0243224 0)
(0.0398885 0.0306926 0)
(0.0584775 0.025257 0)
(0.0834632 0.00590285 0)
(0.148167 0.0397074 0)
(-0.389973 0.19441 0)
(1.02323 0.430974 0)
(0.485671 0.284455 0)
(0.499113 0.195777 0)
(0.493043 0.175163 0)
(0.411565 0.157958 0)
(0.336795 0.126307 0)
(0.292798 0.0896183 0)
(0.267415 0.0537674 0)
(0.252044 0.0198359 0)
(0.231347 -0.012852 0)
(0.208145 -0.0403329 0)
(0.184033 -0.0609867 0)
(0.15958 -0.0751069 0)
(0.135248 -0.0837717 0)
(0.111582 -0.088049 0)
(0.0890696 -0.0886234 0)
(0.067913 -0.0854681 0)
(0.047675 -0.0779875 0)
(0.0280655 -0.0675703 0)
(0.00918248 -0.0550864 0)
(-0.00913143 -0.0409839 0)
(-0.0216586 -0.0335615 0)
(-0.0322657 -0.0304417 0)
(-0.0410024 -0.0295266 0)
(-0.0484938 -0.0295277 0)
(-0.0552497 -0.029809 0)
(-0.0616949 -0.0299051 0)
(-0.0681801 -0.029319 0)
(-0.0750165 -0.0274417 0)
(-0.0825573 -0.0234886 0)
(-0.091227 -0.0164861 0)
(-0.101167 -0.00559499 0)
(-0.111514 0.00915294 0)
(-0.121027 0.0254954 0)
(-0.140378 0.0431777 0)
(-0.171432 0.0624865 0)
(-0.216413 0.080825 0)
(-0.267744 0.0957262 0)
(-0.338529 0.105955 0)
(-0.60567 0.110558 0)
(-0.541817 -0.00681998 0)
(0.185579 0.132174 0)
(0.254347 0.147645 0)
(0.247688 0.130603 0)
(0.248849 0.0995709 0)
(0.250074 0.063415 0)
(0.24652 0.0296162 0)
(0.237411 0.00176054 0)
(0.221757 -0.0202559 0)
(0.201063 -0.0369972 0)
(0.176931 -0.0492701 0)
(0.150906 -0.0577869 0)
(0.124413 -0.0631507 0)
(0.0986413 -0.0656562 0)
(0.0742708 -0.0647199 0)
(0.0506089 -0.0587759 0)
(0.0269799 -0.0497927 0)
(0.00307991 -0.0385261 0)
(-0.0166049 -0.0275402 0)
(-0.0302165 -0.0226045 0)
(-0.0423079 -0.0206459 0)
(-0.0533388 -0.0200966 0)
(-0.0638788 -0.0199831 0)
(-0.0742004 -0.0197272 0)
(-0.0844141 -0.0188604 0)
(-0.0945188 -0.0169167 0)
(-0.104399 -0.013454 0)
(-0.113829 -0.00811643 0)
(-0.122487 -0.000654073 0)
(-0.129692 0.00907511 0)
(-0.133919 0.0217513 0)
(-0.136396 0.0386449 0)
(-0.138695 0.0584358 0)
(-0.141659 0.0781003 0)
(-0.142407 0.0890944 0)
(-0.127187 0.0707855 0)
(-0.098905 -0.0172684 0)
(-0.271981 -0.191987 0)
(-0.238254 0.176096 0)
(0.120422 0.116163 0)
(0.090755 0.0999185 0)
(0.115609 0.0998299 0)
(0.148826 0.080896 0)
(0.173948 0.0516093 0)
(0.188351 0.024715 0)
(0.191878 0.00389258 0)
(0.186719 -0.0113624 0)
(0.173767 -0.0224412 0)
(0.155094 -0.0305218 0)
(0.132582 -0.0362838 0)
(0.107832 -0.0401917 0)
(0.0824442 -0.0423867 0)
(0.0579029 -0.0422423 0)
(0.0343711 -0.0394265 0)
(0.0123123 -0.0363282 0)
(-0.0096516 -0.034133 0)
(-0.0225868 -0.035078 0)
(-0.0337443 -0.0372568 0)
(-0.0446029 -0.0392784 0)
(-0.0554326 -0.0408464 0)
(-0.0663924 -0.0418887 0)
(-0.0774169 -0.0423894 0)
(-0.0882983 -0.0422608 0)
(-0.0986917 -0.0412523 0)
(-0.108069 -0.0388957 0)
(-0.115656 -0.0344674 0)
(-0.120392 -0.0268907 0)
(-0.121101 -0.0145149 0)
(-0.117021 0.00170029 0)
(-0.107053 0.0210312 0)
(-0.0906631 0.0428856 0)
(-0.0687157 0.0642268 0)
(-0.0436349 0.0784139 0)
(-0.00833019 0.0679707 0)
(0.146302 -0.00542523 0)
(-0.20407 -0.104933 0)
(0.0320316 -0.269306 0)
(-0.344459 -0.0935911 0)
(-0.281771 0.0879511 0)
(-0.141566 0.0303045 0)
(-0.102891 0.042316 0)
(-0.0310827 0.061774 0)
(0.0476357 0.0538596 0)
(0.0917308 0.0372571 0)
(0.123056 0.0245338 0)
(0.138175 0.0165881 0)
(0.139623 0.0120459 0)
(0.131263 0.00940851 0)
(0.115881 0.00834693 0)
(0.0956703 0.00890726 0)
(0.07199 0.0114015 0)
(0.0456577 0.0166516 0)
(0.0178873 0.0277519 0)
(-0.0155998 0.0658195 0)
(-0.0254278 0.0850562 0)
(-0.0338458 0.0939185 0)
(-0.0399541 0.100982 0)
(-0.0449029 0.10565 0)
(-0.0496341 0.108145 0)
(-0.0546333 0.108714 0)
(-0.0601635 0.107651 0)
(-0.0662917 0.105289 0)
(-0.0729112 0.101998 0)
(-0.0797296 0.0981075 0)
(-0.0862579 0.0937938 0)
(-0.0917411 0.0889973 0)
(-0.0949415 0.0834203 0)
(-0.0939393 0.0766677 0)
(-0.0856587 0.0722953 0)
(-0.0677785 0.0725665 0)
(-0.0402362 0.0777823 0)
(0.000485318 0.0870553 0)
(0.0466876 0.0903877 0)
(0.0875898 0.0782787 0)
(0.160838 0.0529899 0)
(-0.24744 0.004335 0)
)
;

boundaryField
{
    floor
    {
        type            noSlip;
    }
    ceiling
    {
        type            noSlip;
    }
    sWall
    {
        type            noSlip;
    }
    nWall
    {
        type            noSlip;
    }
    sideWalls
    {
        type            empty;
    }
    glass1
    {
        type            noSlip;
    }
    glass2
    {
        type            noSlip;
    }
    sun
    {
        type            noSlip;
    }
    Table_master
    {
        type            noSlip;
    }
    Table_slave
    {
        type            noSlip;
    }
    inlet
    {
        type            fixedValue;
        value           uniform (0.212132 -0.212132 0);
    }
    outlet
    {
        type            zeroGradient;
    }
}


// ************************************************************************* //
