/*--------------------------------*- C++ -*----------------------------------*\
  =========                 |
  \\      /  F ield         | OpenFOAM: The Open Source CFD Toolbox
   \\    /   O peration     | Website:  https://openfoam.org
    \\  /    A nd           | Version:  6
     \\/     M anipulation  |
\*---------------------------------------------------------------------------*/
FoamFile
{
    version     2.0;
    format      ascii;
    class       volVectorField;
    location    "1300";
    object      U;
}
// * * * * * * * * * * * * * * * * * * * * * * * * * * * * * * * * * * * * * //

dimensions      [0 1 -1 0 0 0 0];

internalField   nonuniform List<vector> 
458
(
(0.0800706 0.070645 0)
(-0.14043 0.00837903 0)
(-0.137636 0.0105422 0)
(-0.159696 0.00942991 0)
(-0.179646 0.00703575 0)
(-0.196771 0.00410199 0)
(-0.210298 0.000707151 0)
(-0.219513 -0.00323112 0)
(-0.22361 -0.00785654 0)
(-0.221469 -0.0133703 0)
(-0.211204 -0.0203338 0)
(-0.189686 -0.0293104 0)
(-0.155387 -0.0420899 0)
(-0.119911 -0.0623714 0)
(-0.123097 -0.0904164 0)
(0.0665401 -0.00349566 0)
(0.0111459 -0.0107206 0)
(0.0306317 -0.0130616 0)
(0.0513274 -0.0145056 0)
(0.0688362 -0.0132496 0)
(0.0817099 -0.00779301 0)
(0.0874753 -0.00449546 0)
(0.0882531 -0.00329937 0)
(0.0872552 -0.00280525 0)
(0.0860192 -0.00241324 0)
(0.0846246 -0.00203279 0)
(0.0828586 -0.00160529 0)
(0.0804689 -0.000944122 0)
(0.0768433 0.000352455 0)
(0.0706824 0.00282124 0)
(0.0604903 0.00595338 0)
(0.0477859 0.00955648 0)
(-6.42209e-05 0.0235307 0)
(0.27471 0.152504 0)
(-0.157595 0.0326375 0)
(-0.122712 0.0354413 0)
(-0.149939 0.0334074 0)
(-0.171143 0.0298734 0)
(-0.189288 0.0254838 0)
(-0.203985 0.020158 0)
(-0.214732 0.0136523 0)
(-0.220827 0.00568 0)
(-0.221234 -0.0040367 0)
(-0.21525 -0.0152258 0)
(-0.202207 -0.0276957 0)
(-0.183704 -0.0425034 0)
(-0.167719 -0.0609987 0)
(-0.16054 -0.0730814 0)
(-0.131556 -0.044904 0)
(-0.0751341 -0.0400182 0)
(-0.0832547 -0.0311939 0)
(0.0784161 -0.0264888 0)
(0.0285598 -0.0178908 0)
(0.0324136 -0.0189197 0)
(0.0463137 -0.0236122 0)
(0.059552 -0.0238174 0)
(0.0713239 -0.00878418 0)
(0.0734468 0.000244721 0)
(0.0721357 0.0035239 0)
(0.0712153 0.00464525 0)
(0.0709364 0.00519686 0)
(0.0706946 0.00550925 0)
(0.0702921 0.00581853 0)
(0.0697451 0.00658091 0)
(0.0685552 0.00871691 0)
(0.0644413 0.0145557 0)
(0.0545603 0.020607 0)
(0.0458497 0.0265196 0)
(-0.035704 0.0492104 0)
(0.444445 0.232983 0)
(-0.199232 0.0634179 0)
(-0.097456 0.0612825 0)
(-0.129437 0.0539664 0)
(-0.148476 0.0467935 0)
(-0.165059 0.0386588 0)
(-0.178761 0.0290427 0)
(-0.189176 0.0176077 0)
(-0.195615 0.00418161 0)
(-0.197004 -0.0110759 0)
(-0.192575 -0.0278805 0)
(-0.182884 -0.0456424 0)
(-0.170016 -0.063889 0)
(-0.157874 -0.0812286 0)
(-0.145095 -0.090502 0)
(-0.121393 -0.0839296 0)
(-0.0929418 -0.0903978 0)
(-0.106099 -0.10187 0)
(0.0401481 -0.0292112 0)
(-0.00597438 -0.026106 0)
(0.0107141 -0.0312491 0)
(0.026526 -0.0386336 0)
(0.0372038 -0.0450396 0)
(0.0565928 -0.0281906 0)
(0.0500287 -0.0156081 0)
(0.0424367 -0.00983666 0)
(0.0414058 -0.00694509 0)
(0.043387 -0.00509446 0)
(0.0456971 -0.00383417 0)
(0.0479977 -0.0028481 0)
(0.0509751 -0.00158078 0)
(0.0559615 0.00228724 0)
(0.0574981 0.0202163 0)
(0.0485204 0.0329843 0)
(0.0492658 0.0441933 0)
(-0.0671586 0.0770324 0)
(0.587033 0.300096 0)
(-0.248284 0.0968382 0)
(-0.065482 0.0845709 0)
(-0.103162 0.072533 0)
(-0.117779 0.0633356 0)
(-0.131152 0.0533076 0)
(-0.14274 0.0414119 0)
(-0.152093 0.0270567 0)
(-0.15842 0.00982855 0)
(-0.160334 -0.0102489 0)
(-0.15671 -0.0322288 0)
(-0.149043 -0.0543295 0)
(-0.13938 -0.0746114 0)
(-0.130074 -0.0905943 0)
(-0.120353 -0.0986334 0)
(-0.10806 -0.0993635 0)
(-0.0999172 -0.100703 0)
(-0.106179 -0.0888337 0)
(-0.0910873 -0.0302181 0)
(-0.0425855 -0.0418172 0)
(-0.0232609 -0.0433275 0)
(-0.00558576 -0.0467203 0)
(0.00543112 -0.049521 0)
(0.0048236 -0.0514666 0)
(0.0099789 -0.0252968 0)
(0.032011 -0.0193361 0)
(0.0506227 -0.0163242 0)
(0.0664423 -0.014229 0)
(0.080189 -0.0121609 0)
(0.0913006 -0.00957331 0)
(0.0983065 -0.00601436 0)
(0.0986124 -0.00115603 0)
(0.0902037 0.00571848 0)
(0.0743057 0.0260335 0)
(0.0595062 0.0450428 0)
(0.064106 0.0636667 0)
(-0.0736806 0.10679 0)
(0.701669 0.354967 0)
(-0.293845 0.129663 0)
(-0.0314638 0.0994379 0)
(-0.0729838 0.0853855 0)
(-0.0824048 0.0752262 0)
(-0.0913219 0.0640781 0)
(-0.0994699 0.050587 0)
(-0.106422 0.033945 0)
(-0.11148 0.0135086 0)
(-0.112746 -0.0107861 0)
(-0.108732 -0.0372004 0)
(-0.102001 -0.0624377 0)
(-0.0944634 -0.0836257 0)
(-0.0876412 -0.0987439 0)
(-0.0813507 -0.106618 0)
(-0.0752737 -0.10908 0)
(-0.0716774 -0.108827 0)
(-0.0690841 -0.0998169 0)
(-0.0575262 -0.072875 0)
(-0.0378458 -0.0645826 0)
(-0.0218329 -0.0611486 0)
(-0.00999775 -0.0590166 0)
(-0.0030665 -0.0553301 0)
(-0.000731057 -0.0491304 0)
(0.00806701 -0.0331734 0)
(0.0224566 -0.0266765 0)
(0.0363116 -0.0236302 0)
(0.0493168 -0.0212907 0)
(0.0614354 -0.0182382 0)
(0.0721171 -0.0133487 0)
(0.0803689 -0.00540229 0)
(0.0849418 0.00587595 0)
(0.0836605 0.019748 0)
(0.078021 0.0383078 0)
(0.0698627 0.0573747 0)
(0.0870774 0.0779918 0)
(0.0382061 0.107668 0)
(0.0958436 0.123013 0)
(0.120817 0.133377 0)
(-0.185561 0.162855 0)
(0.776109 0.403344 0)
(-0.330017 0.156964 0)
(-0.00619885 0.0987011 0)
(-0.03771 0.0925394 0)
(-0.0427552 0.0831493 0)
(-0.0475493 0.0707824 0)
(-0.0515832 0.0561969 0)
(-0.0547276 0.0384152 0)
(-0.0568922 0.0161314 0)
(-0.0549203 -0.0116327 0)
(-0.0491125 -0.0420979 0)
(-0.0432763 -0.0691702 0)
(-0.0385744 -0.0899571 0)
(-0.0355893 -0.103678 0)
(-0.0340338 -0.110594 0)
(-0.0335762 -0.112195 0)
(-0.0344807 -0.109398 0)
(-0.0347916 -0.0998843 0)
(-0.0303398 -0.085054 0)
(-0.0221477 -0.0763468 0)
(-0.0147501 -0.0709124 0)
(-0.010165 -0.0653411 0)
(-0.00777083 -0.0586434 0)
(-0.00645941 -0.0516249 0)
(-0.00176792 -0.0430236 0)
(0.00716034 -0.0381816 0)
(0.0166145 -0.035744 0)
(0.0263277 -0.0335642 0)
(0.0361899 -0.0302494 0)
(0.0458529 -0.0244799 0)
(0.0550168 -0.0145562 0)
(0.0640318 0.000922458 0)
(0.0693451 0.0195915 0)
(0.0717214 0.0395772 0)
(0.0725325 0.0584765 0)
(0.0882278 0.0771353 0)
(0.0827744 0.0831029 0)
(0.0937816 0.0410057 0)
(0.123653 -0.00139049 0)
(-0.211373 0.0854679 0)
(0.798222 0.446882 0)
(-0.34378 0.150409 0)
(0.0110614 0.0547113 0)
(0.015608 0.0892436 0)
(0.0110045 0.0945401 0)
(0.00545794 0.0779022 0)
(0.00383685 0.058701 0)
(0.0045637 0.0389734 0)
(0.00579525 0.0144549 0)
(0.0151922 -0.0172792 0)
(0.0225107 -0.0488296 0)
(0.0257058 -0.0741262 0)
(0.0255784 -0.0921751 0)
(0.022734 -0.10346 0)
(0.0179194 -0.108846 0)
(0.0118948 -0.109454 0)
(0.00523463 -0.105983 0)
(-0.000807243 -0.0979 0)
(-0.00411478 -0.0872771 0)
(-0.00527695 -0.0788418 0)
(-0.00654468 -0.0723646 0)
(-0.00948618 -0.0651849 0)
(-0.0123076 -0.0579227 0)
(-0.0146116 -0.0520917 0)
(-0.0143925 -0.0474611 0)
(-0.0116086 -0.0448471 0)
(-0.0074521 -0.0433581 0)
(-0.00245847 -0.041925 0)
(0.00351387 -0.0392375 0)
(0.0100703 -0.034152 0)
(0.0177082 -0.0248885 0)
(0.0273202 -0.009176 0)
(0.0414106 0.0127185 0)
(0.0511252 0.0332899 0)
(0.0594685 0.0502054 0)
(0.0754695 0.0651802 0)
(0.0871474 0.0679679 0)
(0.0988227 0.0479575 0)
(0.152722 0.051894 0)
(-0.144358 0.144887 0)
(0.894142 0.462508 0)
(-0.119671 0.131643 0)
(0.0854261 -0.0263001 0)
(0.136448 0.022841 0)
(0.116965 0.0606744 0)
(0.0968535 0.0572922 0)
(0.0903439 0.0401729 0)
(0.0905169 0.0203185 0)
(0.0930671 -0.00496122 0)
(0.102973 -0.0311337 0)
(0.106229 -0.0545529 0)
(0.102666 -0.0734404 0)
(0.0944212 -0.0870523 0)
(0.0831321 -0.0955104 0)
(0.0701024 -0.0993493 0)
(0.056404 -0.0992535 0)
(0.0428426 -0.0957647 0)
(0.0302103 -0.0892026 0)
(0.0192006 -0.0806846 0)
(0.0096681 -0.0726674 0)
(0.000370776 -0.0657343 0)
(-0.00989056 -0.0581844 0)
(-0.0179912 -0.0518793 0)
(-0.0249009 -0.0479316 0)
(-0.0296519 -0.0458246 0)
(-0.0325826 -0.0450355 0)
(-0.0343185 -0.0447876 0)
(-0.0352698 -0.0443067 0)
(-0.0355121 -0.0427722 0)
(-0.0348871 -0.0393889 0)
(-0.0328876 -0.0332991 0)
(-0.0282011 -0.0236085 0)
(-0.0153547 -0.00925029 0)
(0.00653209 0.0102163 0)
(0.0201301 0.0226971 0)
(0.0383715 0.0291714 0)
(0.0553021 0.0230436 0)
(0.0690148 0.00199401 0)
(0.153354 0.056269 0)
(-0.428698 0.23459 0)
(1.024 0.430403 0)
(0.485403 0.283952 0)
(0.498011 0.195948 0)
(0.490635 0.175883 0)
(0.407727 0.159027 0)
(0.331825 0.127567 0)
(0.286967 0.0912522 0)
(0.260939 0.0562023 0)
(0.24502 0.0233448 0)
(0.226201 -0.0079361 0)
(0.204786 -0.0344651 0)
(0.18241 -0.0545986 0)
(0.159598 -0.0684194 0)
(0.136715 -0.0768549 0)
(0.114233 -0.0809364 0)
(0.0926418 -0.0815138 0)
(0.0723363 -0.0791355 0)
(0.0535526 -0.0740748 0)
(0.0362108 -0.0669427 0)
(0.0200582 -0.0595535 0)
(0.00417213 -0.0527376 0)
(-0.0123966 -0.0455387 0)
(-0.0249656 -0.0407838 0)
(-0.0362227 -0.0386239 0)
(-0.0458258 -0.0382135 0)
(-0.0543193 -0.0386328 0)
(-0.0622081 -0.0391332 0)
(-0.0698868 -0.0390472 0)
(-0.0776506 -0.0376673 0)
(-0.0857861 -0.0341959 0)
(-0.0947104 -0.0276364 0)
(-0.104942 -0.0168395 0)
(-0.116422 -0.00101669 0)
(-0.12697 0.0188784 0)
(-0.142023 0.0407937 0)
(-0.170189 0.0654399 0)
(-0.213586 0.0926598 0)
(-0.265809 0.121002 0)
(-0.337264 0.147081 0)
(-0.635237 0.168864 0)
(-0.541832 -0.0049755 0)
(0.185193 0.134674 0)
(0.252862 0.150171 0)
(0.245722 0.133002 0)
(0.24696 0.102096 0)
(0.248709 0.0665363 0)
(0.246064 0.0334349 0)
(0.238261 0.00616371 0)
(0.224302 -0.0155158 0)
(0.205351 -0.0319807 0)
(0.182982 -0.0439254 0)
(0.158615 -0.0520031 0)
(0.13354 -0.0568234 0)
(0.108809 -0.0589143 0)
(0.0852016 -0.0585865 0)
(0.0631302 -0.0558179 0)
(0.0423778 -0.0506797 0)
(0.022615 -0.0447486 0)
(0.00271912 -0.038792 0)
(-0.016433 -0.0329667 0)
(-0.0314012 -0.0296784 0)
(-0.0454286 -0.0284482 0)
(-0.0585362 -0.0284777 0)
(-0.0712139 -0.0288089 0)
(-0.0837687 -0.0286953 0)
(-0.0963527 -0.0275147 0)
(-0.108954 -0.0246786 0)
(-0.121376 -0.0196364 0)
(-0.133225 -0.0119098 0)
(-0.143816 -0.0011037 0)
(-0.151665 0.0130329 0)
(-0.155668 0.0312632 0)
(-0.158625 0.053588 0)
(-0.162272 0.0770759 0)
(-0.164584 0.0936101 0)
(-0.155906 0.0826748 0)
(-0.143764 0.00286203 0)
(-0.280464 -0.19592 0)
(-0.239624 0.17797 0)
(0.119343 0.118706 0)
(0.0904724 0.102668 0)
(0.116132 0.10219 0)
(0.15027 0.0830092 0)
(0.176635 0.0540046 0)
(0.192394 0.0274439 0)
(0.197451 0.00681067 0)
(0.193802 -0.00831775 0)
(0.182613 -0.0191883 0)
(0.165872 -0.0269633 0)
(0.145389 -0.0323035 0)
(0.122666 -0.03567 0)
(0.0989727 -0.0373954 0)
(0.07545 -0.0375817 0)
(0.0531242 -0.0360656 0)
(0.0324397 -0.0334199 0)
(0.0135709 -0.0317819 0)
(-0.00466312 -0.0311093 0)
(-0.0195111 -0.0323886 0)
(-0.0332091 -0.033894 0)
(-0.0469534 -0.0348119 0)
(-0.0603872 -0.0352975 0)
(-0.0736391 -0.0355172 0)
(-0.0867939 -0.0354508 0)
(-0.0997334 -0.0348426 0)
(-0.112065 -0.0332545 0)
(-0.123103 -0.030086 0)
(-0.131816 -0.0245254 0)
(-0.136765 -0.0153752 0)
(-0.13632 -0.000798876 0)
(-0.12934 0.0180437 0)
(-0.114825 0.0414238 0)
(-0.0934894 0.0676409 0)
(-0.0673559 0.088696 0)
(-0.0415998 0.0905271 0)
(0.129319 0.00845524 0)
(-0.219524 -0.109196 0)
(0.0220769 -0.273477 0)
(-0.34787 -0.0932044 0)
(-0.284514 0.0907204 0)
(-0.14181 0.0321365 0)
(-0.101899 0.043696 0)
(-0.0277472 0.0628475 0)
(0.0511639 0.0539801 0)
(0.0971434 0.0373635 0)
(0.129922 0.0244477 0)
(0.146658 0.016112 0)
(0.149646 0.0112364 0)
(0.14317 0.00830262 0)
(0.129933 0.0069072 0)
(0.112168 0.00701849 0)
(0.0914267 0.00881885 0)
(0.0688254 0.0127452 0)
(0.0452676 0.0197914 0)
(0.0219677 0.0321348 0)
(-0.00044056 0.0540655 0)
(-0.0162402 0.0717514 0)
(-0.024434 0.0788725 0)
(-0.0324153 0.0853099 0)
(-0.0392731 0.0882844 0)
(-0.0461493 0.087328 0)
(-0.0538588 0.0833773 0)
(-0.0627262 0.0780147 0)
(-0.0725537 0.0725609 0)
(-0.0828351 0.0677087 0)
(-0.0928978 0.0636624 0)
(-0.101918 0.0603452 0)
(-0.108741 0.0575269 0)
(-0.111492 0.0549384 0)
(-0.107455 0.0525473 0)
(-0.0925435 0.0545901 0)
(-0.0658192 0.0621158 0)
(-0.0319695 0.0750715 0)
(0.0305814 0.090135 0)
(0.0745186 0.0796829 0)
(0.157808 0.0538029 0)
(-0.217476 -0.00754072 0)
)
;

boundaryField
{
    floor
    {
        type            noSlip;
    }
    ceiling
    {
        type            noSlip;
    }
    sWall
    {
        type            noSlip;
    }
    nWall
    {
        type            noSlip;
    }
    sideWalls
    {
        type            empty;
    }
    glass1
    {
        type            noSlip;
    }
    glass2
    {
        type            noSlip;
    }
    sun
    {
        type            noSlip;
    }
    Table_master
    {
        type            noSlip;
    }
    Table_slave
    {
        type            noSlip;
    }
    inlet
    {
        type            fixedValue;
        value           uniform (0.212132 -0.212132 0);
    }
    outlet
    {
        type            zeroGradient;
    }
}


// ************************************************************************* //
