/*--------------------------------*- C++ -*----------------------------------*\
  =========                 |
  \\      /  F ield         | OpenFOAM: The Open Source CFD Toolbox
   \\    /   O peration     | Website:  https://openfoam.org
    \\  /    A nd           | Version:  6
     \\/     M anipulation  |
\*---------------------------------------------------------------------------*/
FoamFile
{
    version     2.0;
    format      ascii;
    class       volScalarField;
    location    "300";
    object      alphat;
}
// * * * * * * * * * * * * * * * * * * * * * * * * * * * * * * * * * * * * * //

dimensions      [1 -1 -1 0 0 0 0];

internalField   nonuniform List<scalar> 
458
(
0.000858698
0.000882645
0.000818753
0.000848774
0.000879872
0.000908727
0.000935547
0.000961067
0.000986308
0.00101275
0.00103562
0.00105356
0.00106677
0.00107733
0.00108535
0.000537276
0.000635935
0.000648707
0.000524723
0.000422413
0.000339147
0.000317822
0.000319437
0.000330591
0.000326194
0.000308134
0.000287364
0.000273342
0.000299199
0.000363791
0.000462615
0.000505462
0.000464711
0.0014557
0.00246316
0.00183944
0.00238105
0.00256939
0.00275894
0.00295073
0.00312876
0.00327118
0.00334903
0.00337415
0.00330428
0.00308354
0.00263003
0.00189507
0.0011749
0.0011256
0.000855988
0.000777237
0.00156619
0.00184948
0.001903
0.00159144
0.00122238
0.00102217
0.000978053
0.000978539
0.000913024
0.000753675
0.000556971
0.000410857
0.000434818
0.000868937
0.00150903
0.00189471
0.000693253
0.00197987
0.00404915
0.00195477
0.00344403
0.0038799
0.00410736
0.00430131
0.00446636
0.00459698
0.00468292
0.00472973
0.00470602
0.00456439
0.00424198
0.00369645
0.00297592
0.00212086
0.001241
0.00112806
0.00326828
0.00304684
0.00253673
0.00192438
0.000727895
0.000599024
0.000530114
0.000482677
0.000444803
0.000410496
0.000376121
0.000344282
0.000448975
0.00160748
0.00223665
0.00211258
0.000772085
0.00248121
0.0061226
0.00216716
0.00371732
0.00462631
0.00487755
0.00503679
0.00516479
0.0052713
0.00535694
0.00543175
0.00549917
0.00552977
0.00545753
0.0051682
0.00452719
0.00347785
0.00223146
0.00136184
0.00335688
0.00358078
0.00305445
0.00234149
0.00161474
0.00106836
0.00109332
0.00113568
0.0011906
0.00125624
0.00134376
0.00140092
0.00142613
0.00140948
0.00177256
0.00223384
0.00279564
0.00124288
0.00295342
0.00846865
0.00293807
0.00340476
0.00486166
0.00520682
0.00533782
0.00541785
0.00547759
0.00553439
0.00560673
0.00574675
0.00595778
0.00621767
0.00647156
0.00664452
0.00667275
0.00650795
0.00615831
0.0060118
0.00565866
0.00528053
0.00503714
0.0049195
0.00490327
0.00505251
0.00527935
0.00555595
0.00584027
0.00607754
0.00619264
0.00614735
0.00596718
0.00569931
0.0050014
0.00433002
0.0031138
0.00146617
0.00139017
0.00126976
0.00340404
0.0106781
0.00474604
0.00314205
0.00437782
0.00502435
0.00528693
0.00540017
0.0054268
0.00541
0.00541203
0.00552675
0.00575238
0.00608519
0.00650224
0.006948
0.00732777
0.00750395
0.00739208
0.00708147
0.00670412
0.00640236
0.00624267
0.00619993
0.0062346
0.00634412
0.00652781
0.00675836
0.00698064
0.00713214
0.00716309
0.00704492
0.00687002
0.00672513
0.00651952
0.00605866
0.00547182
0.0049563
0.00446307
0.00152496
0.00382433
0.0123588
0.00797678
0.0044693
0.003535
0.00391511
0.00457316
0.00505855
0.00529572
0.00524692
0.00516739
0.00520177
0.00533281
0.00556861
0.00591757
0.00636222
0.00682225
0.00715045
0.00723568
0.00709288
0.00685706
0.00665189
0.00653692
0.00650998
0.00655282
0.00666586
0.00684913
0.00707112
0.00726449
0.00734695
0.00727043
0.0070671
0.00684945
0.00677131
0.00694968
0.00718305
0.00708312
0.00648794
0.00581965
0.00176707
0.00391081
0.0122326
0.00987652
0.00791697
0.00590615
0.00464586
0.00436519
0.00466044
0.00504506
0.00505743
0.00495998
0.00490996
0.00492934
0.00502013
0.00519185
0.00546221
0.00582296
0.00618934
0.0064391
0.00649443
0.00644251
0.00636722
0.00632851
0.00635936
0.00648079
0.00670092
0.00699203
0.00729705
0.00753422
0.00759856
0.00742296
0.00705264
0.00663849
0.00636157
0.00632513
0.0063845
0.00601827
0.00519404
0.00447696
0.00179894
0.00379422
0.00452995
0.00516752
0.005442
0.00535822
0.00498367
0.00461768
0.00440241
0.00432766
0.00431313
0.00434021
0.00438535
0.00443593
0.00448958
0.0045558
0.00465743
0.00482124
0.00504749
0.00528999
0.00549031
0.00563098
0.00572432
0.00580067
0.00590512
0.00610305
0.00646274
0.00694815
0.00745574
0.00787374
0.00806314
0.00789142
0.0073416
0.00651983
0.00558084
0.00470487
0.00396159
0.00338008
0.00292364
0.00253993
0.00185028
0.00330459
0.00559266
0.00551767
0.00528062
0.00500169
0.00475749
0.00457204
0.00443401
0.00433212
0.00425467
0.00418837
0.00412652
0.00407247
0.00404105
0.00405681
0.00414468
0.00431305
0.00454251
0.00479363
0.00502629
0.00522233
0.00539847
0.00560869
0.0059309
0.00641682
0.00706352
0.00780046
0.00842455
0.00875649
0.00881218
0.0087817
0.00870738
0.00835875
0.00767328
0.00681293
0.00610993
0.00564747
0.00189248
0.00310193
0.00614988
0.00593392
0.00557977
0.00527264
0.004977
0.00469774
0.00444196
0.00420864
0.00395402
0.00369592
0.00345654
0.00325425
0.00310701
0.0030349
0.00305941
0.00319492
0.00343277
0.00373305
0.00403905
0.00430703
0.0045273
0.00472576
0.00494615
0.00522746
0.00561464
0.00618039
0.00690796
0.00757292
0.00787124
0.00800397
0.00808343
0.00809007
0.00793491
0.00758673
0.00714658
0.0054164
0.00191241
0.00251982
0.00269797
0.00285502
0.00298998
0.00276481
0.00253341
0.00233762
0.00216665
0.00201212
0.00187231
0.00174558
0.00163665
0.0015403
0.00145275
0.00137242
0.00129913
0.00123373
0.00117791
0.0011339
0.00110394
0.0010891
0.00108812
0.00109755
0.00111329
0.0011326
0.00115488
0.00118153
0.00121677
0.00126917
0.00134425
0.00143169
0.00154005
0.00165748
0.00180136
0.00196117
0.00208645
0.00211953
0.00202313
0.00188618
0.00169547
)
;

boundaryField
{
    floor
    {
        type            compressible::alphatWallFunction;
        Prt             0.85;
        value           nonuniform List<scalar> 
36
(
0.000154181
7.48266e-05
8.96362e-05
9.15331e-05
7.2913e-05
5.71257e-05
4.39195e-05
4.04735e-05
4.07351e-05
4.25393e-05
4.18284e-05
3.88968e-05
3.54978e-05
3.31861e-05
3.74415e-05
4.7866e-05
6.33725e-05
6.9962e-05
6.37002e-05
6.36994e-05
9.80919e-05
0.000109612
0.000175954
0.000206337
0.000196061
0.000179652
0.00015418
0.000166615
0.000159781
0.000121759
7.48257e-05
0.000121757
0.00011038
0.000175717
0.00016011
0.000192227
)
;
    }
    ceiling
    {
        type            compressible::alphatWallFunction;
        Prt             0.85;
        value           nonuniform List<scalar> 
43
(
0.000343905
0.000366461
0.000386218
0.000403185
0.00037499
0.000345749
0.000320779
0.000298789
0.000278752
0.000260481
0.000243787
0.000229334
0.00021646
0.000204683
0.000193808
0.000183824
0.000174862
0.000167168
0.000161074
0.00015691
0.000154842
0.000154707
0.00015602
0.000158212
0.000160894
0.000163983
0.000167669
0.000172528
0.000179725
0.00018998
0.000201838
0.000216424
0.000232098
0.000251136
0.000272095
0.000288397
0.000292684
0.000280171
0.000262284
0.000237136
0.000502491
0.000591271
0.000416982
)
;
    }
    sWall
    {
        type            compressible::alphatWallFunction;
        Prt             0.85;
        value           uniform 0.000342681;
    }
    nWall
    {
        type            compressible::alphatWallFunction;
        Prt             0.85;
        value           nonuniform List<scalar> 6(0.000179383 0.000213968 0.000246187 0.000262716 0.000265323 0.000236742);
    }
    sideWalls
    {
        type            empty;
    }
    glass1
    {
        type            compressible::alphatWallFunction;
        Prt             0.85;
        value           nonuniform List<scalar> 9(0.00011847 0.000199829 0.000268397 0.00033231 0.000391375 0.000446898 0.00049805 0.000508658 0.00049481);
    }
    glass2
    {
        type            compressible::alphatWallFunction;
        Prt             0.85;
        value           nonuniform List<scalar> 2(0.000248311 0.000255133);
    }
    sun
    {
        type            compressible::alphatWallFunction;
        Prt             0.85;
        value           nonuniform List<scalar> 
14
(
0.00012217
0.000125576
0.000116405
0.000120725
0.00012518
0.000129297
0.000133109
0.000136726
0.000140291
0.000144015
0.000147227
0.000149741
0.000151587
0.000153063
)
;
    }
    Table_master
    {
        type            compressible::alphatWallFunction;
        Prt             0.85;
        value           nonuniform List<scalar> 9(0.000103403 8.43377e-05 7.39402e-05 6.6685e-05 6.08279e-05 5.5467e-05 5.00372e-05 4.49504e-05 6.14821e-05);
    }
    Table_slave
    {
        type            compressible::alphatWallFunction;
        Prt             0.85;
        value           nonuniform List<scalar> 9(0.000152009 0.000155493 0.000161384 0.000168987 0.000178019 0.00018998 0.000197747 0.000201161 0.000198909);
    }
    inlet
    {
        type            fixedValue;
        value           uniform 1.94e-05;
    }
    outlet
    {
        type            zeroGradient;
    }
}


// ************************************************************************* //
