// -*- C++ -*-
// File generated by PyFoam - sorry for the ugliness

FoamFile
{
 version 2.0;
 format ascii;
 class volScalarField;
 location "300";
 object T;
}

dimensions [ 0 0 0 1 0 0 0 ];

internalField nonuniform List<scalar> 458
(
  302.124
  301.757
  301.75
  301.755
  301.76
  301.764
  301.767
  301.77
  301.773
  301.775
  301.776
  301.775
  301.772
  301.768
  301.764
  301.312
  301.311
  301.313
  301.204
  300.962
  300.74
  300.693
  300.684
  300.687
  300.683
  300.68
  300.685
  300.704
  300.718
  300.746
  300.78
  300.786
  300.801
  302.377
  301.801
  301.768
  301.778
  301.788
  301.798
  301.806
  301.812
  301.817
  301.821
  301.821
  301.816
  301.805
  301.787
  301.764
  301.743
  301.722
  301.719
  301.39
  301.382
  301.383
  301.376
  301.261
  301.097
  300.975
  300.898
  300.833
  300.785
  300.759
  300.75
  300.751
  300.778
  300.91
  300.968
  300.911
  300.847
  302.616
  301.866
  301.801
  301.814
  301.832
  301.85
  301.866
  301.879
  301.889
  301.896
  301.897
  301.89
  301.872
  301.844
  301.807
  301.766
  301.729
  301.704
  301.51
  301.509
  301.527
  301.541
  301.53
  301.247
  301.129
  301.061
  301.012
  300.968
  300.926
  300.884
  300.839
  300.858
  301.261
  301.124
  300.97
  300.888
  302.835
  301.947
  301.837
  301.85
  301.876
  301.904
  301.929
  301.952
  301.971
  301.984
  301.989
  301.982
  301.962
  301.927
  301.881
  301.826
  301.765
  301.703
  301.657
  301.623
  301.633
  301.644
  301.65
  301.653
  301.656
  301.656
  301.658
  301.661
  301.665
  301.669
  301.67
  301.669
  301.662
  301.628
  301.527
  301.378
  301.284
  303.036
  302.042
  301.879
  301.881
  301.913
  301.949
  301.985
  302.019
  302.049
  302.071
  302.083
  302.081
  302.063
  302.028
  301.981
  301.926
  301.868
  301.812
  301.767
  301.736
  301.722
  301.715
  301.709
  301.703
  301.698
  301.695
  301.694
  301.694
  301.695
  301.697
  301.697
  301.695
  301.687
  301.667
  301.617
  301.529
  301.43
  301.435
  301.438
  301.47
  303.208
  302.155
  301.95
  301.914
  301.941
  301.981
  302.023
  302.065
  302.106
  302.141
  302.164
  302.169
  302.156
  302.125
  302.08
  302.026
  301.967
  301.91
  301.861
  301.824
  301.797
  301.778
  301.762
  301.749
  301.738
  301.73
  301.724
  301.72
  301.718
  301.718
  301.718
  301.715
  301.706
  301.687
  301.652
  301.596
  301.539
  301.517
  301.495
  301.492
  303.346
  302.338
  302.13
  302.022
  301.996
  302.016
  302.052
  302.094
  302.139
  302.186
  302.222
  302.235
  302.227
  302.201
  302.163
  302.116
  302.062
  302.006
  301.954
  301.91
  301.875
  301.846
  301.822
  301.802
  301.784
  301.768
  301.755
  301.745
  301.739
  301.736
  301.736
  301.734
  301.726
  301.708
  301.677
  301.629
  301.589
  301.565
  301.539
  301.519
  303.586
  302.818
  302.607
  302.408
  302.259
  302.18
  302.157
  302.167
  302.196
  302.241
  302.271
  302.279
  302.27
  302.247
  302.216
  302.179
  302.135
  302.086
  302.036
  301.991
  301.952
  301.918
  301.888
  301.861
  301.836
  301.812
  301.79
  301.773
  301.76
  301.754
  301.754
  301.754
  301.751
  301.738
  301.713
  301.682
  301.661
  301.656
  301.661
  301.739
  303.919
  303.591
  303.326
  303.069
  302.834
  302.653
  302.53
  302.453
  302.412
  302.383
  302.353
  302.323
  302.293
  302.262
  302.232
  302.2
  302.167
  302.132
  302.094
  302.056
  302.019
  301.985
  301.954
  301.924
  301.895
  301.864
  301.835
  301.808
  301.786
  301.773
  301.772
  301.779
  301.791
  301.805
  301.819
  301.832
  301.847
  301.866
  301.892
  301.951
  298.256
  300.984
  301.922
  302.199
  302.286
  302.309
  302.309
  302.3
  302.286
  302.268
  302.247
  302.225
  302.202
  302.179
  302.157
  302.134
  302.11
  302.084
  302.057
  302.03
  302.003
  301.977
  301.95
  301.921
  301.891
  301.859
  301.828
  301.8
  301.783
  301.777
  301.78
  301.789
  301.801
  301.813
  301.822
  301.826
  301.806
  301.831
  298.882
  300.905
  301.622
  301.934
  302.072
  302.131
  302.155
  302.161
  302.16
  302.156
  302.15
  302.142
  302.133
  302.123
  302.112
  302.101
  302.089
  302.076
  302.062
  302.046
  302.029
  302.011
  301.991
  301.969
  301.944
  301.916
  301.884
  301.85
  301.819
  301.797
  301.784
  301.78
  301.784
  301.791
  301.797
  301.794
  301.788
  301.816
  300.082
  300.028
  300.025
  301.231
  301.653
  301.907
  301.991
  302.028
  302.047
  302.056
  302.06
  302.063
  302.065
  302.066
  302.067
  302.067
  302.066
  302.065
  302.064
  302.062
  302.059
  302.054
  302.048
  302.04
  302.03
  302.017
  302.001
  301.981
  301.955
  301.923
  301.888
  301.854
  301.825
  301.805
  301.793
  301.788
  301.786
  301.784
  301.782
  301.811
)
;

boundaryField
{
  floor
  {
    type wallHeatTransfer;
    Tinf uniform 305.2;
    alphaWall uniform 0.24;
    value nonuniform List<scalar> 36
(
  302.168
  302.061
  301.981
  301.973
  301.986
  301.914
  301.883
  301.892
  301.882
  301.861
  301.867
  301.904
  301.957
  302.006
  301.952
  301.841
  301.718
  301.671
  301.732
  301.732
  301.554
  301.538
  301.701
  301.788
  301.806
  301.86
  302.168
  302.127
  302.12
  302.207
  302.061
  302.207
  301.961
  302.076
  301.932
  302.009
)
;
  }
  ceiling
  {
    type wallHeatTransfer;
    Tinf uniform 303.2;
    alphaWall uniform 0.24;
    value nonuniform List<scalar> 43
(
  300.272
  300.211
  300.2
  301.336
  301.741
  301.985
  302.069
  302.109
  302.131
  302.145
  302.153
  302.16
  302.167
  302.173
  302.178
  302.183
  302.187
  302.191
  302.193
  302.194
  302.192
  302.189
  302.182
  302.174
  302.163
  302.15
  302.134
  302.113
  302.085
  302.051
  302.013
  301.975
  301.942
  301.916
  301.898
  301.888
  301.885
  301.887
  301.891
  301.927
  303.887
  303.576
  299.104
)
;
  }
  sWall
  {
    type wallHeatTransfer;
    Tinf uniform 315.2;
    alphaWall uniform 0.36;
    value uniform 301.428;
  }
  nWall
  {
    type wallHeatTransfer;
    Tinf uniform 307.2;
    alphaWall uniform 0.36;
    value nonuniform List<scalar> 6
(
  302.325
  302.237
  302.184
  302.427
  302.409
  302.461
)
;
  }
  sideWalls
  {
    type empty;
  }
  glass1
  {
    type wallHeatTransfer;
    Tinf uniform 315.2;
    alphaWall uniform 4.3;
    value nonuniform List<scalar> 9
(
  311.916
  310.788
  310.089
  309.582
  309.211
  308.921
  308.69
  308.764
  309.022
)
;
  }
  glass2
  {
    type wallHeatTransfer;
    Tinf uniform 307.2;
    alphaWall uniform 4.3;
    value nonuniform List<scalar> 2
(
  305.074
  305.126
)
;
  }
  sun
  {
    type wallHeatTransfer;
    Tinf uniform 305.2;
    alphaWall uniform 0.24;
    value nonuniform List<scalar> 14
(
  302.553
  302.229
  302.248
  302.24
  302.232
  302.225
  302.218
  302.212
  302.206
  302.199
  302.193
  302.187
  302.18
  302.174
)
;
  }
  Table_master
  {
    type zeroGradient;
  }
  Table_slave
  {
    type zeroGradient;
  }
  inlet
  {
    type fixedValue;
    value uniform 295.15;
  }
  outlet
  {
    type zeroGradient;
  }
} 	// ************************************************************************* //

