/*--------------------------------*- C++ -*----------------------------------*\
  =========                 |
  \\      /  F ield         | OpenFOAM: The Open Source CFD Toolbox
   \\    /   O peration     | Website:  https://openfoam.org
    \\  /    A nd           | Version:  6
     \\/     M anipulation  |
\*---------------------------------------------------------------------------*/
FoamFile
{
    version     2.0;
    format      ascii;
    class       volVectorField;
    location    "800";
    object      U;
}
// * * * * * * * * * * * * * * * * * * * * * * * * * * * * * * * * * * * * * //

dimensions      [0 1 -1 0 0 0 0];

internalField   nonuniform List<vector> 
458
(
(0.096601 0.0676334 0)
(-0.136471 0.00296625 0)
(-0.121089 0.00711484 0)
(-0.137934 0.00797925 0)
(-0.154634 0.00691486 0)
(-0.169975 0.00498495 0)
(-0.182858 0.00241569 0)
(-0.192374 -0.000791687 0)
(-0.197623 -0.00471457 0)
(-0.197509 -0.00950409 0)
(-0.190066 -0.0155954 0)
(-0.172151 -0.0236583 0)
(-0.142218 -0.0353571 0)
(-0.110538 -0.0541835 0)
(-0.11246 -0.0806796 0)
(0.0533513 0.000455544 0)
(-0.010914 -0.0128732 0)
(0.012425 -0.016526 0)
(0.0288295 -0.0137246 0)
(0.0407226 -0.00641124 0)
(0.0400241 -4.01596e-05 0)
(0.0308952 0.00148897 0)
(0.0232944 0.0010816 0)
(0.019656 0.000852838 0)
(0.0171962 0.00114338 0)
(0.0142544 0.00148137 0)
(0.0117808 0.000289816 0)
(0.0149887 -0.00346893 0)
(0.0188498 -0.00199407 0)
(0.0207215 4.80592e-05 0)
(0.0215493 -0.00283587 0)
(0.0319801 -0.00474432 0)
(-0.0304548 0.0112501 0)
(0.295559 0.147978 0)
(-0.16075 0.0216141 0)
(-0.113672 0.0255857 0)
(-0.136937 0.0268286 0)
(-0.15547 0.0256314 0)
(-0.172144 0.0229778 0)
(-0.186341 0.0190519 0)
(-0.197401 0.0137694 0)
(-0.204542 0.00696203 0)
(-0.206802 -0.00160792 0)
(-0.203043 -0.012078 0)
(-0.192218 -0.0245263 0)
(-0.175098 -0.039989 0)
(-0.157435 -0.0600568 0)
(-0.142482 -0.0776991 0)
(-0.106759 -0.0631904 0)
(-0.0523925 -0.0660163 0)
(-0.0158319 0.0612869 0)
(0.104466 -0.00296311 0)
(0.0231857 -0.00605431 0)
(0.00628507 -0.0122748 0)
(0.00903249 -0.0161358 0)
(0.0217155 -0.0037593 0)
(0.0280712 0.0100965 0)
(0.019524 0.00883 0)
(0.0168409 0.00624157 0)
(0.0179643 0.00514587 0)
(0.0189044 0.00508225 0)
(0.0191354 0.00503708 0)
(0.0199802 0.00236669 0)
(0.0212752 -0.00465042 0)
(0.0191654 -0.00255506 0)
(0.0179284 0.00135754 0)
(0.0183942 -0.000672676 0)
(0.0332154 0.000874948 0)
(-0.083648 0.0269793 0)
(0.463428 0.22733 0)
(-0.205552 0.0511938 0)
(-0.0954992 0.0484305 0)
(-0.125817 0.0454821 0)
(-0.14425 0.0419696 0)
(-0.161063 0.0367724 0)
(-0.175766 0.0296071 0)
(-0.187849 0.0202862 0)
(-0.196619 0.00870937 0)
(-0.201222 -0.00507187 0)
(-0.200483 -0.0209192 0)
(-0.194825 -0.0389014 0)
(-0.185647 -0.0585861 0)
(-0.175889 -0.0783496 0)
(-0.164537 -0.0920994 0)
(-0.145775 -0.0936033 0)
(-0.132392 -0.100529 0)
(-0.154989 -0.0955915 0)
(0.0237253 0.0157783 0)
(-0.0502653 -0.000775153 0)
(-0.0486699 -0.0139754 0)
(-0.0440803 -0.0272316 0)
(-0.0435396 -0.0318205 0)
(0.0282146 0.0130595 0)
(0.0132999 0.00403302 0)
(0.0163006 -0.000943118 0)
(0.0210249 -0.00288602 0)
(0.0241551 -0.00346983 0)
(0.0266244 -0.00403216 0)
(0.0283345 -0.00662578 0)
(0.0250121 -0.010391 0)
(0.00794073 -0.00354057 0)
(0.0392462 -0.00154651 0)
(0.0333868 0.0125106 0)
(0.0444011 0.0226906 0)
(-0.142906 0.0382443 0)
(0.601149 0.294196 0)
(-0.252733 0.085722 0)
(-0.0696452 0.0713146 0)
(-0.107048 0.063988 0)
(-0.123268 0.059047 0)
(-0.138453 0.0525634 0)
(-0.152318 0.0436713 0)
(-0.164342 0.0319652 0)
(-0.173887 0.0172282 0)
(-0.180148 -0.000510451 0)
(-0.181669 -0.0207774 0)
(-0.179427 -0.0427084 0)
(-0.175153 -0.0645764 0)
(-0.170883 -0.083425 0)
(-0.166831 -0.0952823 0)
(-0.163435 -0.0987953 0)
(-0.168525 -0.0950687 0)
(-0.185729 -0.0671224 0)
(-0.175777 0.00327019 0)
(-0.124977 0.00751657 0)
(-0.111385 -0.00683675 0)
(-0.0969258 -0.0201384 0)
(-0.0963415 -0.0297003 0)
(-0.102507 -0.0311681 0)
(-0.0982411 -0.0173725 0)
(-0.0800164 -0.0152307 0)
(-0.062286 -0.016756 0)
(-0.0426611 -0.0198682 0)
(-0.0207398 -0.024216 0)
(0.00918842 -0.0290286 0)
(0.0408248 -0.0300615 0)
(0.0707488 -0.0274945 0)
(0.0975493 -0.0222258 0)
(0.109494 -0.011048 0)
(0.100257 0.015342 0)
(0.090677 0.0423101 0)
(-0.0297682 0.0738149 0)
(0.710962 0.349698 0)
(-0.294492 0.121199 0)
(-0.0407181 0.0888365 0)
(-0.0820225 0.07886 0)
(-0.0948197 0.0730974 0)
(-0.106645 0.0658586 0)
(-0.11788 0.0557877 0)
(-0.127928 0.0422485 0)
(-0.136312 0.0249558 0)
(-0.142318 0.00397545 0)
(-0.144551 -0.0199054 0)
(-0.143228 -0.0447206 0)
(-0.140698 -0.0676425 0)
(-0.138521 -0.0856871 0)
(-0.13739 -0.0968082 0)
(-0.138088 -0.101217 0)
(-0.142149 -0.098923 0)
(-0.145578 -0.0834761 0)
(-0.138843 -0.0495349 0)
(-0.120929 -0.0266015 0)
(-0.102188 -0.0218125 0)
(-0.0902391 -0.0259949 0)
(-0.0860245 -0.0302135 0)
(-0.0846298 -0.0302196 0)
(-0.0795554 -0.0240226 0)
(-0.0694024 -0.0231727 0)
(-0.0568716 -0.025716 0)
(-0.0420967 -0.0307944 0)
(-0.0249892 -0.0376702 0)
(-0.00500604 -0.0443633 0)
(0.0189444 -0.0474957 0)
(0.0427993 -0.0446603 0)
(0.0661011 -0.0337435 0)
(0.0858075 -0.0113635 0)
(0.0994329 0.0235081 0)
(0.112918 0.0577771 0)
(0.0910871 0.0837326 0)
(0.131283 0.0932954 0)
(0.130302 0.107126 0)
(-0.10439 0.15085 0)
(0.781694 0.399157 0)
(-0.328155 0.151973 0)
(-0.0179288 0.0932084 0)
(-0.0493469 0.0896638 0)
(-0.0593064 0.0843065 0)
(-0.0677744 0.0759121 0)
(-0.0754293 0.0647805 0)
(-0.0818749 0.0500456 0)
(-0.0871266 0.0311314 0)
(-0.0908705 0.00787325 0)
(-0.091234 -0.0190293 0)
(-0.0891392 -0.0462453 0)
(-0.0873771 -0.0695039 0)
(-0.0869456 -0.0863027 0)
(-0.08824 -0.095713 0)
(-0.0914119 -0.0979388 0)
(-0.0960009 -0.0925242 0)
(-0.0984807 -0.077813 0)
(-0.0945194 -0.0571309 0)
(-0.0847087 -0.0409721 0)
(-0.0741687 -0.0338312 0)
(-0.0673897 -0.0326198 0)
(-0.0648806 -0.0330532 0)
(-0.0640566 -0.0324382 0)
(-0.0618742 -0.0308305 0)
(-0.057419 -0.0320579 0)
(-0.0512379 -0.0363489 0)
(-0.0434632 -0.0432092 0)
(-0.0341934 -0.0518154 0)
(-0.023513 -0.0604812 0)
(-0.0110928 -0.066559 0)
(0.00433254 -0.0670035 0)
(0.0218652 -0.0575789 0)
(0.0417089 -0.0334802 0)
(0.0699163 0.00877086 0)
(0.0936738 0.0473781 0)
(0.103277 0.0588595 0)
(0.113116 0.0329085 0)
(0.123235 0.0382313 0)
(-0.115099 0.120281 0)
(0.804646 0.444226 0)
(-0.34158 0.15 0)
(0.00141025 0.0552028 0)
(0.00558922 0.0898483 0)
(-0.00605171 0.10055 0)
(-0.0169564 0.0877118 0)
(-0.0234149 0.0714374 0)
(-0.0265079 0.0540953 0)
(-0.0274807 0.0335898 0)
(-0.027059 0.0085042 0)
(-0.0214784 -0.0209866 0)
(-0.0180321 -0.0488998 0)
(-0.0178025 -0.0706807 0)
(-0.0204326 -0.0852784 0)
(-0.0254574 -0.0928344 0)
(-0.0322033 -0.0938888 0)
(-0.0394387 -0.0884501 0)
(-0.0446362 -0.076489 0)
(-0.0454761 -0.0612171 0)
(-0.0425006 -0.0478929 0)
(-0.038742 -0.0393885 0)
(-0.0368326 -0.0350375 0)
(-0.0373532 -0.0329132 0)
(-0.0392115 -0.0316062 0)
(-0.0410688 -0.0313939 0)
(-0.042521 -0.0337643 0)
(-0.0437678 -0.0391042 0)
(-0.0448174 -0.0470615 0)
(-0.0457262 -0.056821 0)
(-0.0463801 -0.0668747 0)
(-0.0462041 -0.0750758 0)
(-0.0441104 -0.0787469 0)
(-0.0388135 -0.0744991 0)
(-0.0286641 -0.0583119 0)
(-0.00840525 -0.024761 0)
(0.036486 0.0209857 0)
(0.0585334 0.0303189 0)
(0.0828258 0.0142076 0)
(0.124221 0.0467812 0)
(-0.100835 0.175722 0)
(0.905132 0.462574 0)
(-0.128116 0.131649 0)
(0.0814115 -0.025262 0)
(0.131824 0.0114178 0)
(0.10666 0.0562416 0)
(0.0768888 0.0653424 0)
(0.0606116 0.055113 0)
(0.0549299 0.0392299 0)
(0.0550427 0.0197035 0)
(0.0578588 -0.00541117 0)
(0.0674894 -0.0302094 0)
(0.0692589 -0.0515815 0)
(0.0652568 -0.0681485 0)
(0.0573738 -0.0792003 0)
(0.0468802 -0.084653 0)
(0.0349414 -0.0848592 0)
(0.0228826 -0.0802032 0)
(0.0124867 -0.0711552 0)
(0.00543584 -0.0595512 0)
(0.00176548 -0.0484169 0)
(-0.000315794 -0.0397398 0)
(-0.00270557 -0.0338183 0)
(-0.00623955 -0.0300349 0)
(-0.0108253 -0.0276921 0)
(-0.0161823 -0.0269337 0)
(-0.0225671 -0.0285556 0)
(-0.0308133 -0.0330471 0)
(-0.0409558 -0.0402156 0)
(-0.0531547 -0.0493375 0)
(-0.0673453 -0.0591287 0)
(-0.0828822 -0.068045 0)
(-0.0984335 -0.0741794 0)
(-0.111857 -0.0750664 0)
(-0.120063 -0.0681383 0)
(-0.117689 -0.0516141 0)
(-0.0972054 -0.026555 0)
(-0.0668136 -0.000212827 0)
(-0.0399019 0.0331209 0)
(-0.0433164 0.125334 0)
(-0.497004 0.263704 0)
(1.04146 0.428159 0)
(0.484405 0.289072 0)
(0.510865 0.294567 0)
(0.499792 0.25854 0)
(0.421504 0.21645 0)
(0.337753 0.169806 0)
(0.277821 0.122546 0)
(0.240569 0.0798927 0)
(0.218502 0.0434629 0)
(0.206173 0.0117673 0)
(0.190205 -0.0165192 0)
(0.174131 -0.0390282 0)
(0.157213 -0.0551188 0)
(0.139249 -0.0651143 0)
(0.120568 -0.0697412 0)
(0.101875 -0.0698202 0)
(0.0840871 -0.0661677 0)
(0.0682565 -0.0596745 0)
(0.0553192 -0.0515601 0)
(0.0454763 -0.0432975 0)
(0.0379556 -0.0360182 0)
(0.0316019 -0.0302062 0)
(0.0254948 -0.0258389 0)
(0.0190936 -0.0226635 0)
(0.0120114 -0.0205308 0)
(0.0036044 -0.0197056 0)
(-0.0083757 -0.0210758 0)
(-0.0239033 -0.0247646 0)
(-0.0442889 -0.0302337 0)
(-0.0703314 -0.0362083 0)
(-0.102213 -0.0412147 0)
(-0.139897 -0.0434261 0)
(-0.182572 -0.0402781 0)
(-0.228649 -0.0292972 0)
(-0.274985 -0.00970106 0)
(-0.314973 0.0152629 0)
(-0.348484 0.0360754 0)
(-0.37406 0.0434557 0)
(-0.42385 0.0340146 0)
(-0.648671 0.00141799 0)
(0.331367 -0.215879 0)
(0.356193 0.0604448 0)
(0.343962 0.165432 0)
(0.312074 0.17371 0)
(0.290664 0.141871 0)
(0.280259 0.0995838 0)
(0.27441 0.0602394 0)
(0.268577 0.0278067 0)
(0.258691 0.00203579 0)
(0.242579 -0.0181002 0)
(0.222492 -0.0326876 0)
(0.200065 -0.042103 0)
(0.1767 -0.0469673 0)
(0.153647 -0.0480375 0)
(0.131964 -0.0461159 0)
(0.11249 -0.0420418 0)
(0.0957893 -0.0367332 0)
(0.0819998 -0.0311166 0)
(0.0707724 -0.0259078 0)
(0.061466 -0.0215017 0)
(0.0534071 -0.0180122 0)
(0.0460247 -0.0153463 0)
(0.0388543 -0.0132601 0)
(0.0315112 -0.0114519 0)
(0.023364 -0.0099633 0)
(0.0137632 -0.00899206 0)
(0.00124238 -0.00886977 0)
(-0.0154158 -0.00957279 0)
(-0.0338142 -0.0104196 0)
(-0.0529284 -0.0108768 0)
(-0.0709772 -0.0098753 0)
(-0.0863081 -0.00530474 0)
(-0.0983478 0.00606958 0)
(-0.116517 0.0252738 0)
(-0.127184 0.0463029 0)
(-0.107692 0.0477967 0)
(0.0258371 -0.0270745 0)
(-0.27076 -0.246911 0)
(0.0341174 0.316631 0)
(-0.0125827 0.231312 0)
(0.0635437 0.212989 0)
(0.113924 0.18228 0)
(0.161871 0.138003 0)
(0.200851 0.0915863 0)
(0.228121 0.0543475 0)
(0.242297 0.0274527 0)
(0.244894 0.00903289 0)
(0.238877 -0.00350474 0)
(0.226513 -0.0120096 0)
(0.209946 -0.0173332 0)
(0.190898 -0.0200157 0)
(0.170877 -0.0204837 0)
(0.151162 -0.0191193 0)
(0.132742 -0.0162909 0)
(0.116275 -0.0123766 0)
(0.102051 -0.00774158 0)
(0.0900307 -0.00266803 0)
(0.0799631 0.00267033 0)
(0.0715441 0.00815287 0)
(0.0645121 0.0136297 0)
(0.0586763 0.0188436 0)
(0.0538987 0.0233418 0)
(0.0499695 0.0264684 0)
(0.0465135 0.0279653 0)
(0.0430372 0.0276948 0)
(0.0386345 0.0263687 0)
(0.0329249 0.0241422 0)
(0.0260248 0.0213055 0)
(0.0195081 0.0189929 0)
(0.0162653 0.0198917 0)
(0.014998 0.026029 0)
(0.0177938 0.0366891 0)
(0.0266057 0.0441751 0)
(0.0515101 0.0315209 0)
(0.132871 -0.0270529 0)
(-0.188659 -0.141 0)
(-0.423454 -0.510208 0)
(-0.618737 -0.12049 0)
(-0.48318 0.205523 0)
(-0.382547 0.148412 0)
(-0.220523 0.140657 0)
(-0.0958859 0.127068 0)
(0.0412933 0.0829922 0)
(0.1149 0.0484947 0)
(0.169642 0.0238195 0)
(0.201939 0.00651996 0)
(0.215365 -0.00599462 0)
(0.216095 -0.0153004 0)
(0.208787 -0.0223439 0)
(0.196229 -0.0278771 0)
(0.180496 -0.0323747 0)
(0.163268 -0.0362177 0)
(0.14594 -0.0397698 0)
(0.129606 -0.0433974 0)
(0.11503 -0.0474594 0)
(0.102623 -0.0522594 0)
(0.0924765 -0.0579665 0)
(0.0844371 -0.0645457 0)
(0.0782386 -0.0717218 0)
(0.0736112 -0.0789694 0)
(0.0703524 -0.0855238 0)
(0.0683381 -0.0904398 0)
(0.0674466 -0.0928284 0)
(0.0675534 -0.0922587 0)
(0.0684904 -0.0883593 0)
(0.0703291 -0.0824995 0)
(0.0730688 -0.0765459 0)
(0.0764631 -0.0723005 0)
(0.0802828 -0.0693152 0)
(0.0849701 -0.0623236 0)
(0.0935955 -0.0483477 0)
(0.108938 -0.0321394 0)
(0.128518 -0.0236297 0)
(0.148282 -0.0321732 0)
(0.175422 -0.055361 0)
(-0.160045 -0.109078 0)
)
;

boundaryField
{
    floor
    {
        type            noSlip;
    }
    ceiling
    {
        type            noSlip;
    }
    sWall
    {
        type            noSlip;
    }
    nWall
    {
        type            noSlip;
    }
    sideWalls
    {
        type            empty;
    }
    glass1
    {
        type            noSlip;
    }
    glass2
    {
        type            noSlip;
    }
    sun
    {
        type            noSlip;
    }
    Table_master
    {
        type            noSlip;
    }
    Table_slave
    {
        type            noSlip;
    }
    inlet
    {
        type            fixedValue;
        value           uniform (0.444456 -0.665176 0);
    }
    outlet
    {
        type            zeroGradient;
    }
}


// ************************************************************************* //
