/*--------------------------------*- C++ -*----------------------------------*\
  =========                 |
  \\      /  F ield         | OpenFOAM: The Open Source CFD Toolbox
   \\    /   O peration     | Website:  https://openfoam.org
    \\  /    A nd           | Version:  6
     \\/     M anipulation  |
\*---------------------------------------------------------------------------*/
FoamFile
{
    version     2.0;
    format      ascii;
    class       volScalarField;
    location    "1100";
    object      alphat;
}
// * * * * * * * * * * * * * * * * * * * * * * * * * * * * * * * * * * * * * //

dimensions      [1 -1 -1 0 0 0 0];

internalField   nonuniform List<scalar> 
458
(
0.00182718
0.00209211
0.0023954
0.00236988
0.00225997
0.00214576
0.00203655
0.00193384
0.00183662
0.00174814
0.00166574
0.00158465
0.00149986
0.00140304
0.00128822
0.000587586
0.000680426
0.000768115
0.000853746
0.000922079
0.000863209
0.000798398
0.000744483
0.000700726
0.000664886
0.00063524
0.000610277
0.000588193
0.000567328
0.000545696
0.000521059
0.000487712
0.000444263
0.00192822
0.0034261
0.00450182
0.00476795
0.00476529
0.00462296
0.00443732
0.00424972
0.00407018
0.00386027
0.00361094
0.00332653
0.00299457
0.00258168
0.00200983
0.00133749
0.00122325
0.00105018
0.000594098
0.00128391
0.0018248
0.00236855
0.00271108
0.00184295
0.00153589
0.00134567
0.0012217
0.00113732
0.00108518
0.00107744
0.001063
0.00100612
0.000920766
0.000830262
0.000685599
0.000450232
0.00188827
0.00361974
0.00434336
0.0046473
0.00467785
0.0045989
0.00450059
0.00440804
0.00432429
0.00424359
0.00413822
0.00397651
0.00372313
0.00334194
0.00281474
0.00225
0.00191176
0.00114081
0.000610347
0.00150361
0.00176608
0.00245335
0.00300638
0.00106221
0.000921016
0.000788699
0.000674998
0.000579129
0.000497845
0.000433408
0.000423288
0.000444101
0.000626614
0.000745812
0.000725967
0.000456314
0.00207142
0.00424169
0.0047341
0.00475094
0.00466832
0.00460191
0.00458595
0.00459835
0.00462823
0.00463425
0.0045817
0.00444823
0.00421618
0.00386864
0.00340342
0.00287434
0.00239651
0.0016508
0.00113573
0.0010303
0.00120131
0.00185186
0.00293653
0.00375284
0.00126267
0.00119382
0.00113459
0.00108115
0.0010331
0.000986977
0.000938153
0.000883148
0.000818023
0.000753835
0.000735551
0.000752953
0.000487775
0.00328772
0.0058745
0.00550632
0.00497803
0.00484066
0.0049488
0.00521407
0.00549452
0.00560797
0.00552156
0.00531708
0.00504528
0.00471791
0.00432761
0.00387412
0.00337914
0.00289537
0.0023414
0.0019931
0.0019256
0.00229647
0.00326976
0.00454445
0.00559893
0.00569772
0.0055464
0.00536556
0.00519962
0.0048969
0.00443746
0.00386054
0.00318824
0.002447
0.0017281
0.00121916
0.000964375
0.000692875
0.000536328
0.000811506
0.00087552
0.00341898
0.00802804
0.00554654
0.00473871
0.00560644
0.00669075
0.00732563
0.00737055
0.00679296
0.00633945
0.00594664
0.00557058
0.00518594
0.0047786
0.00435128
0.00392653
0.00354266
0.00321778
0.00317994
0.00363182
0.00466093
0.00597579
0.00711655
0.0078099
0.0079973
0.00793726
0.00777596
0.00743581
0.00690405
0.00620267
0.00535963
0.00440429
0.00338077
0.00239919
0.00163828
0.00121177
0.000880533
0.000704958
0.00111196
0.000896353
0.00343614
0.00736869
0.00468884
0.00522085
0.00704373
0.00788895
0.0080853
0.00784353
0.00733551
0.00685965
0.00646226
0.00610087
0.00574889
0.00539629
0.00504846
0.00477782
0.00464151
0.00476184
0.00541813
0.00662397
0.00797654
0.00899247
0.00956132
0.00968154
0.00948244
0.00916246
0.00874157
0.00819292
0.00750417
0.00668283
0.00574773
0.00472626
0.003665
0.00266713
0.00187552
0.00140028
0.00106285
0.000937338
0.000833389
0.000761801
0.00333138
0.0055641
0.00405903
0.00510455
0.00693693
0.00795162
0.00818554
0.00808098
0.00779988
0.00745981
0.00715998
0.0068979
0.00666682
0.00647502
0.00635281
0.00636926
0.00663361
0.00730473
0.00838582
0.0095772
0.0104885
0.0108557
0.0107806
0.01037
0.00975527
0.00909175
0.00842959
0.00773383
0.00697534
0.00614953
0.00526918
0.00436044
0.00346497
0.00264871
0.00198384
0.00153025
0.00120063
0.00109718
0.000963406
0.000705615
0.00316273
0.00350046
0.00422369
0.00586611
0.00653861
0.00751306
0.00795723
0.00817125
0.00822287
0.00814687
0.00803704
0.00795384
0.0079153
0.00794441
0.00807776
0.0083633
0.00885056
0.0095493
0.0103157
0.0108849
0.011057
0.0107874
0.0101755
0.00936891
0.00852322
0.00773223
0.00700242
0.00629775
0.00559169
0.00487906
0.00416987
0.00348362
0.00284668
0.00229055
0.00184189
0.00151475
0.00129769
0.00115478
0.00101878
0.000667016
0.0044558
0.00693683
0.00686291
0.00729765
0.00769645
0.00805992
0.00834417
0.00851699
0.00860163
0.00869551
0.00882219
0.0089957
0.00922705
0.00951579
0.00983967
0.0101318
0.0102691
0.010148
0.00975027
0.0091515
0.00847371
0.00782014
0.00724624
0.00675518
0.00632188
0.00592017
0.00553354
0.00515187
0.00476578
0.00436396
0.00393496
0.00347321
0.00298758
0.00250623
0.00206101
0.0016757
0.00125032
0.000648095
0.00264324
0.00717222
0.00739779
0.00728066
0.00731338
0.00739819
0.00747362
0.00751476
0.00751962
0.00757855
0.00768866
0.0078415
0.00802612
0.00822363
0.00840267
0.00851862
0.00852543
0.00840657
0.00818721
0.00791749
0.00764478
0.00739792
0.00718628
0.00700555
0.00684646
0.0067002
0.00655847
0.00641077
0.00624179
0.0060305
0.00575244
0.00538644
0.00492511
0.00438389
0.00380411
0.00324902
0.00259953
0.000843562
0.00157276
0.00164568
0.00182255
0.00179155
0.00175128
0.0017321
0.00173314
0.00174244
0.00175742
0.00177877
0.00180688
0.00183353
0.00185911
0.00188347
0.00190573
0.00192431
0.00193712
0.00194191
0.00193725
0.0019239
0.00190479
0.00188393
0.00186474
0.00184895
0.0018367
0.00182717
0.00181924
0.00181173
0.00180337
0.00179272
0.00177815
0.00175806
0.00173123
0.00169734
0.00165742
0.00161367
0.00156729
0.00151206
0.00141644
0.00111009
)
;

boundaryField
{
    floor
    {
        type            compressible::alphatWallFunction;
        Prt             0.85;
        value           nonuniform List<scalar> 
36
(
0.000182428
8.26781e-05
9.64862e-05
0.000109318
0.00012168
0.000131441
0.000123038
0.000113709
0.00010588
9.94753e-05
9.4194e-05
8.97996e-05
8.608e-05
8.27737e-05
7.9636e-05
7.63675e-05
7.26249e-05
6.75231e-05
6.08093e-05
6.08086e-05
6.17383e-05
6.26848e-05
6.75433e-05
7.49705e-05
0.000115678
0.000124898
0.000182426
0.000189152
0.000173512
0.000149492
8.26771e-05
0.00014949
8.36582e-05
0.000162121
8.60929e-05
0.000161418
)
;
    }
    ceiling
    {
        type            compressible::alphatWallFunction;
        Prt             0.85;
        value           nonuniform List<scalar> 
43
(
0.000223309
0.000232265
0.000254278
0.000250158
0.00024484
0.000242304
0.000242441
0.000243673
0.000245652
0.000248473
0.00025218
0.00025569
0.000259055
0.000262256
0.000265177
0.000267612
0.000269291
0.000269922
0.000269315
0.000267571
0.000265071
0.000262338
0.000259819
0.000257746
0.000256135
0.000254881
0.000253837
0.000252847
0.000251745
0.00025034
0.000248418
0.000245764
0.000242215
0.000237725
0.000232424
0.0002266
0.000220411
0.000213007
0.000200101
0.000158066
0.000424899
0.000466549
0.000359942
)
;
    }
    sWall
    {
        type            compressible::alphatWallFunction;
        Prt             0.85;
        value           uniform 0.000223463;
    }
    nWall
    {
        type            compressible::alphatWallFunction;
        Prt             0.85;
        value           nonuniform List<scalar> 6(0.00012479 0.00012771 0.000108333 9.16421e-05 0.000120183 0.000157837);
    }
    sideWalls
    {
        type            empty;
    }
    glass1
    {
        type            compressible::alphatWallFunction;
        Prt             0.85;
        value           nonuniform List<scalar> 9(0.000250129 0.000263308 0.000258269 0.000282333 0.000434135 0.00044994 0.000451885 0.000438912 0.000417986);
    }
    glass2
    {
        type            compressible::alphatWallFunction;
        Prt             0.85;
        value           nonuniform List<scalar> 2(0.000100062 9.43762e-05);
    }
    sun
    {
        type            compressible::alphatWallFunction;
        Prt             0.85;
        value           nonuniform List<scalar> 
14
(
0.000254661
0.000289257
0.0003283
0.00032501
0.00031091
0.000296184
0.000282025
0.000268634
0.000255888
0.000244223
0.000233301
0.000222494
0.000211127
0.000198058
)
;
    }
    Table_master
    {
        type            compressible::alphatWallFunction;
        Prt             0.85;
        value           nonuniform List<scalar> 9(0.000151151 0.000131242 0.000112255 9.56329e-05 8.13511e-05 6.90105e-05 5.90485e-05 5.74749e-05 6.07236e-05);
    }
    Table_slave
    {
        type            compressible::alphatWallFunction;
        Prt             0.85;
        value           nonuniform List<scalar> 9(0.000178906 0.000169436 0.000161238 0.000153799 0.000147076 0.000140587 0.000133679 0.000125847 0.000116498);
    }
    inlet
    {
        type            fixedValue;
        value           uniform 1.94e-05;
    }
    outlet
    {
        type            zeroGradient;
    }
}


// ************************************************************************* //
