/*--------------------------------*- C++ -*----------------------------------*\
  =========                 |
  \\      /  F ield         | OpenFOAM: The Open Source CFD Toolbox
   \\    /   O peration     | Website:  https://openfoam.org
    \\  /    A nd           | Version:  6
     \\/     M anipulation  |
\*---------------------------------------------------------------------------*/
FoamFile
{
    version     2.0;
    format      ascii;
    class       volScalarField;
    location    "1100";
    object      nut;
}
// * * * * * * * * * * * * * * * * * * * * * * * * * * * * * * * * * * * * * //

dimensions      [0 2 -1 0 0 0 0];

internalField   nonuniform List<scalar> 
458
(
0.00158562
0.00181443
0.00207714
0.00205466
0.00195932
0.00186032
0.00176568
0.00167667
0.00159243
0.00151575
0.00144435
0.00137408
0.0013006
0.00121669
0.00111718
0.000510786
0.000591344
0.000667425
0.000741723
0.000801068
0.000749985
0.000693741
0.000646958
0.000608993
0.000577902
0.000552191
0.000530545
0.000511397
0.000493307
0.00047455
0.000453181
0.000424245
0.000386546
0.00167425
0.00297277
0.00390365
0.00413352
0.004131
0.00400767
0.00384687
0.00368437
0.00352884
0.00334697
0.00313091
0.00288443
0.0025967
0.00223878
0.00174298
0.00115995
0.00106094
0.000910938
0.000516533
0.00111597
0.00158532
0.00205735
0.00235487
0.00160095
0.00133438
0.00116927
0.00106172
0.000988548
0.000943401
0.000936841
0.00092444
0.000875101
0.000800964
0.000722313
0.000596522
0.000391806
0.00164085
0.00314111
0.0037661
0.0040284
0.00405476
0.00398661
0.00390171
0.00382172
0.00374931
0.00367951
0.0035883
0.00344822
0.00322863
0.00289818
0.00244109
0.0019514
0.00165815
0.000989553
0.000530675
0.00130644
0.00153389
0.00213056
0.00261101
0.00092262
0.000800109
0.000685297
0.000586642
0.000503472
0.00043298
0.000377131
0.000368443
0.000386584
0.000545412
0.00064911
0.00063181
0.000397164
0.00180123
0.00367961
0.00410308
0.00411699
0.00404611
0.00398951
0.00397643
0.00398764
0.00401385
0.00401923
0.00397372
0.00385798
0.00365673
0.00335533
0.00295187
0.00249305
0.00207869
0.00143196
0.000985232
0.000894304
0.0010428
0.00160759
0.0025496
0.00325915
0.00109686
0.00103725
0.000985943
0.000939639
0.000898012
0.000858036
0.000815703
0.000767984
0.000711458
0.00065584
0.000640112
0.000655353
0.000424593
0.00285008
0.00508706
0.00476741
0.00431247
0.0041965
0.00429252
0.00452394
0.00476782
0.00486626
0.00479092
0.00461309
0.00437694
0.0040927
0.00375398
0.00336053
0.00293118
0.00251159
0.00203112
0.00172907
0.00167078
0.00199281
0.00283808
0.00394587
0.00486336
0.00495096
0.00482082
0.00466468
0.00452133
0.00425885
0.00385984
0.00335842
0.00277383
0.0021291
0.00150376
0.00106106
0.000839438
0.000603173
0.000467029
0.000707785
0.000764349
0.00296143
0.00694219
0.0047999
0.00410887
0.0048669
0.00581036
0.0063616
0.00639975
0.00589698
0.0055023
0.0051606
0.00483368
0.00449952
0.00414583
0.00377494
0.00340642
0.00307342
0.00279166
0.00275903
0.00315157
0.00404562
0.00518896
0.0061824
0.00678782
0.00695335
0.00690317
0.0067645
0.00646977
0.00600791
0.00539813
0.0046648
0.00383351
0.0029427
0.00208835
0.00142611
0.00105492
0.000766619
0.000613885
0.000968545
0.000781054
0.00297424
0.0063665
0.00405808
0.00453382
0.00612003
0.00685405
0.00702336
0.0068119
0.00636931
0.00595502
0.00560917
0.00529482
0.00498887
0.00468254
0.00438053
0.00414568
0.00402751
0.00413227
0.00470265
0.00575115
0.0069286
0.00781503
0.00831354
0.00842172
0.00825126
0.00797483
0.00760973
0.00713289
0.00653374
0.00581893
0.00500486
0.00411544
0.00319128
0.00232232
0.00163303
0.00121927
0.000925494
0.000816345
0.000725995
0.000663864
0.00288132
0.00480369
0.00351008
0.00443498
0.00602969
0.00691063
0.00711227
0.00701978
0.00677413
0.00647763
0.0062164
0.00598819
0.00578711
0.00562033
0.00551419
0.00552868
0.00575878
0.00634291
0.00728448
0.00832372
0.00912087
0.00944482
0.00938342
0.00902917
0.00849581
0.00791891
0.00734268
0.00673692
0.00607635
0.00535702
0.00459009
0.00379837
0.00301819
0.00230705
0.00172785
0.00133277
0.00104568
0.000955766
0.000839466
0.000615014
0.00273246
0.00301657
0.00363908
0.0050976
0.00568598
0.00653232
0.00691689
0.00710135
0.00714482
0.00707765
0.00698142
0.00690861
0.00687487
0.00690022
0.00701652
0.00726562
0.00769084
0.00830116
0.00897184
0.00947215
0.00962676
0.00939572
0.00886522
0.00816398
0.00742781
0.00673882
0.00610291
0.00548879
0.00487339
0.00425223
0.00363403
0.00303581
0.00248059
0.00199584
0.00160479
0.00131969
0.00113057
0.0010063
0.000888019
0.000581491
0.00381232
0.00602922
0.00597109
0.00634872
0.00669444
0.00700943
0.0072556
0.00740506
0.00747816
0.00755962
0.00766998
0.00782154
0.00802396
0.00827704
0.00856153
0.00881925
0.00894266
0.00884097
0.00849738
0.00797752
0.00738783
0.00681862
0.00631849
0.00589039
0.00551255
0.0051622
0.00482497
0.00449204
0.00415522
0.00380468
0.00343045
0.00302769
0.00260418
0.00218449
0.00179644
0.00146081
0.00109018
0.000565142
0.00229665
0.00624295
0.00644054
0.00633813
0.00636603
0.00643936
0.00650466
0.00654026
0.00654449
0.00659607
0.00669251
0.00682652
0.0069886
0.00716234
0.00732037
0.00742367
0.00743183
0.00733009
0.00714019
0.00690584
0.00666846
0.00645336
0.0062688
0.00611112
0.00597225
0.00584454
0.00572076
0.00559175
0.00544415
0.00525965
0.00501691
0.0046975
0.00429501
0.00382293
0.00331736
0.0028335
0.00226732
0.000735865
0.0015594
0.00155594
0.00159145
0.00156094
0.0015258
0.00150912
0.00151006
0.00151822
0.00153133
0.00155001
0.00157459
0.00159794
0.00162041
0.00164187
0.00166153
0.001678
0.00168945
0.0016939
0.00169006
0.00167858
0.00166202
0.00164388
0.00162716
0.00161338
0.00160267
0.00159433
0.00158737
0.00158078
0.00157345
0.00156412
0.00155137
0.0015338
0.00151036
0.00148078
0.00144594
0.00140778
0.00136735
0.00131922
0.0012359
0.00096872
)
;

boundaryField
{
    floor
    {
        type            nutkWallFunction;
        Cmu             0.09;
        kappa           0.41;
        E               9.8;
        value           nonuniform List<scalar> 
36
(
0.000134463
6.10554e-05
7.12413e-05
8.07057e-05
8.98237e-05
9.70285e-05
9.08309e-05
8.39488e-05
7.81734e-05
7.34497e-05
6.95547e-05
6.63144e-05
6.35718e-05
6.11343e-05
5.88209e-05
5.64108e-05
5.36505e-05
4.98863e-05
4.49327e-05
4.49327e-05
4.56264e-05
4.63324e-05
4.99299e-05
5.54394e-05
8.56785e-05
9.25888e-05
0.000134463
0.000139425
0.000127903
0.000110207
6.10553e-05
0.000110207
6.17888e-05
0.000119519
6.35895e-05
0.000119009
)
;
    }
    ceiling
    {
        type            nutkWallFunction;
        Cmu             0.09;
        kappa           0.41;
        E               9.8;
        value           nonuniform List<scalar> 
43
(
0.000186024
0.000185243
0.000188526
0.000185092
0.000181149
0.000179274
0.00017938
0.000180297
0.00018177
0.000183867
0.000186622
0.000189236
0.000191748
0.000194142
0.000196334
0.000198169
0.000199444
0.00019994
0.000199515
0.000198241
0.0001964
0.000194379
0.000192514
0.000190976
0.00018978
0.000188847
0.000188069
0.000187331
0.000186509
0.000185463
0.000184034
0.000182062
0.000179427
0.000176096
0.000172165
0.000167848
0.000163262
0.00015778
0.000148221
0.000117068
0.00031198
0.000341737
0.000265693
)
;
    }
    sWall
    {
        type            nutkWallFunction;
        Cmu             0.09;
        kappa           0.41;
        E               9.8;
        value           uniform 0.000186018;
    }
    nWall
    {
        type            nutkWallFunction;
        Cmu             0.09;
        kappa           0.41;
        E               9.8;
        value           nonuniform List<scalar> 6(9.25885e-05 9.46098e-05 8.02628e-05 6.7933e-05 8.91156e-05 0.000117072);
    }
    sideWalls
    {
        type            empty;
    }
    glass1
    {
        type            nutkWallFunction;
        Cmu             0.09;
        kappa           0.41;
        E               9.8;
        value           nonuniform List<scalar> 9(0.000188019 0.000197904 0.000194204 0.000212237 0.000324912 0.00033651 0.000337837 0.000328087 0.0003124);
    }
    glass2
    {
        type            nutkWallFunction;
        Cmu             0.09;
        kappa           0.41;
        E               9.8;
        value           nonuniform List<scalar> 2(7.41824e-05 6.99723e-05);
    }
    sun
    {
        type            nutkWallFunction;
        Cmu             0.09;
        kappa           0.41;
        E               9.8;
        value           nonuniform List<scalar> 
14
(
0.000187821
0.00021322
0.000241966
0.000239502
0.000229108
0.000218258
0.000207828
0.000197964
0.000188575
0.000179983
0.000171938
0.000163978
0.000155605
0.000145978
)
;
    }
    Table_master
    {
        type            nutkWallFunction;
        Cmu             0.09;
        kappa           0.41;
        E               9.8;
        value           nonuniform List<scalar> 9(0.000111595 9.6912e-05 8.29081e-05 7.06484e-05 6.01155e-05 5.10167e-05 4.36744e-05 4.25243e-05 4.49308e-05);
    }
    Table_slave
    {
        type            nutkWallFunction;
        Cmu             0.09;
        kappa           0.41;
        E               9.8;
        value           nonuniform List<scalar> 9(0.000132099 0.00012513 0.000119095 0.000113617 0.000108666 0.000103886 9.87955e-05 9.30196e-05 8.61222e-05);
    }
    inlet
    {
        type            calculated;
        value           uniform 0.000100623;
    }
    outlet
    {
        type            calculated;
        value           nonuniform List<scalar> 2(0.0015594 0.00155594);
    }
}


// ************************************************************************* //
