/*--------------------------------*- C++ -*----------------------------------*\
  =========                 |
  \\      /  F ield         | OpenFOAM: The Open Source CFD Toolbox
   \\    /   O peration     | Website:  https://openfoam.org
    \\  /    A nd           | Version:  6
     \\/     M anipulation  |
\*---------------------------------------------------------------------------*/
FoamFile
{
    version     2.0;
    format      ascii;
    class       volScalarField;
    location    "1100";
    object      T;
}
// * * * * * * * * * * * * * * * * * * * * * * * * * * * * * * * * * * * * * //

dimensions      [0 0 0 1 0 0 0];

internalField   nonuniform List<scalar> 
458
(
305.636
305.451
305.404
305.352
305.346
305.348
305.354
305.362
305.37
305.378
305.387
305.397
305.407
305.42
305.436
306.164
306.088
306.03
305.985
305.977
306.002
306.031
306.061
306.092
306.122
306.153
306.184
306.215
306.246
306.28
306.318
306.366
306.442
305.802
305.59
305.394
305.328
305.312
305.316
305.326
305.338
305.348
305.36
305.371
305.384
305.397
305.412
305.43
305.441
305.46
305.495
306.208
306.123
305.97
305.916
305.917
305.944
305.982
306.024
306.07
306.121
306.177
306.232
306.282
306.328
306.367
306.4
306.432
306.487
306.036
305.614
305.375
305.281
305.272
305.293
305.319
305.339
305.354
305.368
305.382
305.394
305.406
305.418
305.431
305.445
305.462
305.489
306.21
306.001
305.881
305.847
305.867
305.9
305.95
306.01
306.083
306.173
306.296
306.452
306.551
306.571
306.544
306.519
306.505
306.531
306.238
305.507
305.233
305.182
305.235
305.309
305.367
305.402
305.425
305.437
305.442
305.444
305.444
305.446
305.45
305.458
305.47
305.488
305.506
305.689
305.707
305.722
305.77
305.846
305.928
305.986
306.036
306.08
306.123
306.166
306.208
306.251
306.296
306.394
306.479
306.525
306.557
305.289
304.962
304.909
305.082
305.303
305.465
305.554
305.589
305.589
305.566
305.54
305.516
305.498
305.486
305.48
305.481
305.487
305.498
305.515
305.562
305.601
305.674
305.78
305.901
306.011
306.096
306.165
306.227
306.281
306.326
306.362
306.392
306.415
306.449
306.499
306.543
306.574
306.663
307.156
307.45
305.03
304.528
304.754
305.352
305.706
305.821
305.816
305.775
305.71
305.655
305.61
305.574
305.546
305.527
305.515
305.511
305.514
305.524
305.546
305.592
305.669
305.79
305.933
306.072
306.189
306.279
306.352
306.407
306.449
306.481
306.505
306.52
306.527
306.534
306.552
306.578
306.6
306.664
306.74
306.861
304.813
304.256
304.779
305.81
305.971
305.955
305.899
305.834
305.768
305.711
305.663
305.625
305.595
305.574
305.561
305.559
305.568
305.593
305.649
305.749
305.886
306.042
306.195
306.327
306.429
306.506
306.556
306.588
306.612
306.628
306.637
306.639
306.634
306.625
306.622
306.631
306.641
306.695
306.772
306.879
304.57
304.018
304.519
305.952
306.089
306.042
305.971
305.899
305.834
305.779
305.736
305.702
305.677
305.661
305.657
305.67
305.704
305.776
305.895
306.055
306.228
306.377
306.505
306.611
306.679
306.717
306.738
306.751
306.759
306.762
306.759
306.751
306.737
306.719
306.705
306.699
306.697
306.757
306.841
306.928
304.229
303.458
303.395
306.002
306.217
306.168
306.097
306.029
305.969
305.92
305.884
305.861
305.849
305.852
305.873
305.918
305.994
306.11
306.263
306.431
306.586
306.707
306.792
306.848
306.879
306.894
306.901
306.903
306.901
306.895
306.885
306.87
306.851
306.828
306.806
306.791
306.788
306.857
306.939
306.985
301.276
306.055
306.369
306.339
306.284
306.233
306.19
306.156
306.136
306.129
306.139
306.166
306.215
306.288
306.387
306.51
306.645
306.774
306.88
306.956
307.004
307.031
307.044
307.049
307.048
307.045
307.038
307.028
307.016
306.999
306.98
306.959
306.938
306.924
306.924
306.972
307.027
307.057
305.948
306.497
306.557
306.535
306.507
306.484
306.467
306.457
306.457
306.471
306.499
306.542
306.602
306.677
306.765
306.86
306.951
307.03
307.089
307.128
307.151
307.161
307.164
307.163
307.159
307.152
307.144
307.134
307.123
307.11
307.097
307.083
307.071
307.063
307.065
307.087
307.12
307.165
349.122
332.912
307.465
306.788
306.776
306.782
306.79
306.801
306.813
306.828
306.845
306.871
306.904
306.945
306.991
307.042
307.093
307.141
307.182
307.214
307.235
307.246
307.25
307.25
307.247
307.241
307.235
307.228
307.22
307.212
307.205
307.198
307.192
307.187
307.185
307.186
307.193
307.207
307.231
307.272
)
;

boundaryField
{
    floor
    {
        type            wallHeatTransfer;
        Tinf            uniform 305.2;
        alphaWall       uniform 0.24;
        value           nonuniform List<scalar> 
36
(
305.412
305.99
305.943
305.905
305.875
305.874
305.89
305.909
305.929
305.948
305.969
305.989
306.01
306.031
306.052
306.074
306.099
306.127
306.172
306.172
306.21
306.247
306.28
306.382
306.872
307.141
305.412
305.417
305.433
305.459
305.99
305.459
306.027
305.456
306.032
305.472
)
;
    }
    ceiling
    {
        type            wallHeatTransfer;
        Tinf            uniform 303.2;
        alphaWall       uniform 0.24;
        value           nonuniform List<scalar> 
43
(
345.082
330.381
307.129
306.501
306.485
306.488
306.496
306.506
306.52
306.536
306.556
306.583
306.616
306.657
306.703
306.751
306.8
306.846
306.883
306.91
306.927
306.935
306.937
306.934
306.929
306.923
306.916
306.908
306.9
306.891
306.882
306.873
306.864
306.854
306.846
306.84
306.838
306.841
306.844
306.801
304.177
303.446
305.787
)
;
    }
    sWall
    {
        type            wallHeatTransfer;
        Tinf            uniform 315.2;
        alphaWall       uniform 0.36;
        value           uniform 344.836;
    }
    nWall
    {
        type            wallHeatTransfer;
        Tinf            uniform 307.2;
        alphaWall       uniform 0.36;
        value           nonuniform List<scalar> 6(307.402 306.925 306.947 307.091 307.172 307.26);
    }
    sideWalls
    {
        type            empty;
    }
    glass1
    {
        type            wallHeatTransfer;
        Tinf            uniform 315.2;
        alphaWall       uniform 4.3;
        value           nonuniform List<scalar> 9(311.462 311.423 311.555 311.458 310.078 309.859 309.734 309.679 309.629);
    }
    glass2
    {
        type            wallHeatTransfer;
        Tinf            uniform 307.2;
        alphaWall       uniform 4.3;
        value           nonuniform List<scalar> 2(307.139 307.153);
    }
    sun
    {
        type            wallHeatTransfer;
        Tinf            uniform 305.2;
        alphaWall       uniform 0.24;
        value           nonuniform List<scalar> 
14
(
305.601
305.434
305.391
305.342
305.336
305.338
305.343
305.35
305.357
305.364
305.371
305.379
305.388
305.399
)
;
    }
    Table_master
    {
        type            zeroGradient;
    }
    Table_slave
    {
        type            zeroGradient;
    }
    inlet
    {
        type            fixedValue;
        value           uniform 296.15;
    }
    outlet
    {
        type            zeroGradient;
    }
}


// ************************************************************************* //
