/*--------------------------------*- C++ -*----------------------------------*\
  =========                 |
  \\      /  F ield         | OpenFOAM: The Open Source CFD Toolbox
   \\    /   O peration     | Website:  https://openfoam.org
    \\  /    A nd           | Version:  6
     \\/     M anipulation  |
\*---------------------------------------------------------------------------*/
FoamFile
{
    version     2.0;
    format      ascii;
    class       volVectorField;
    location    "2600";
    object      U;
}
// * * * * * * * * * * * * * * * * * * * * * * * * * * * * * * * * * * * * * //

dimensions      [0 1 -1 0 0 0 0];

internalField   nonuniform List<vector> 
458
(
(0.0400471 0.0808986 0)
(-0.15724 0.0221473 0)
(-0.176339 0.0164248 0)
(-0.204744 0.0123403 0)
(-0.227097 0.00774177 0)
(-0.242994 0.00293431 0)
(-0.251658 -0.00220985 0)
(-0.251845 -0.00784949 0)
(-0.24253 -0.0141319 0)
(-0.223586 -0.0207481 0)
(-0.195544 -0.0270132 0)
(-0.159816 -0.0324705 0)
(-0.11857 -0.0374768 0)
(-0.0778755 -0.0436441 0)
(-0.0568553 -0.0516113 0)
(0.00139344 0.00463935 0)
(-0.0114142 -0.0197225 0)
(0.0170785 -0.0263728 0)
(0.0356964 -0.0194151 0)
(0.0526421 -0.0129715 0)
(0.0638214 -0.00744199 0)
(0.0694108 -0.00455568 0)
(0.0715318 -0.00346262 0)
(0.0722977 -0.00301767 0)
(0.0726542 -0.0027278 0)
(0.0727088 -0.00246247 0)
(0.0723352 -0.00211368 0)
(0.0712673 -0.00148462 0)
(0.0688386 -0.000137635 0)
(0.0636706 0.00255721 0)
(0.0541707 0.00588383 0)
(0.0415298 0.0093954 0)
(-0.000500579 0.0202485 0)
(0.213551 0.166171 0)
(-0.149658 0.0586908 0)
(-0.141497 0.0473002 0)
(-0.17063 0.0388973 0)
(-0.192172 0.0296183 0)
(-0.207677 0.0196246 0)
(-0.216583 0.00843991 0)
(-0.217615 -0.00437331 0)
(-0.209633 -0.018605 0)
(-0.192976 -0.0327981 0)
(-0.168659 -0.0449764 0)
(-0.138912 -0.0535787 0)
(-0.106955 -0.0581556 0)
(-0.078018 -0.0591508 0)
(-0.0588058 -0.0532198 0)
(-0.0394544 -0.0201572 0)
(-0.00928567 0.0164465 0)
(-0.0651961 0.0391701 0)
(0.0518789 0.0226523 0)
(0.0370894 -0.0255093 0)
(0.0450911 -0.032623 0)
(0.0571687 -0.0264889 0)
(0.0672029 -0.017923 0)
(0.072251 -0.00708873 0)
(0.0730911 -0.000830104 0)
(0.0727527 0.00158375 0)
(0.072722 0.00251989 0)
(0.0729422 0.00307061 0)
(0.0731117 0.00352375 0)
(0.0731124 0.0040571 0)
(0.0729126 0.00510542 0)
(0.0719421 0.00767427 0)
(0.0676309 0.0146004 0)
(0.0569631 0.0213285 0)
(0.0447925 0.0273573 0)
(-0.0235578 0.0441765 0)
(0.371679 0.248705 0)
(-0.170127 0.0943511 0)
(-0.105574 0.0763502 0)
(-0.133613 0.0605912 0)
(-0.151751 0.0452257 0)
(-0.165279 0.029162 0)
(-0.173577 0.0112119 0)
(-0.174728 -0.00932797 0)
(-0.166947 -0.0318283 0)
(-0.151161 -0.0537188 0)
(-0.128977 -0.0716158 0)
(-0.103062 -0.0830986 0)
(-0.0765225 -0.0872929 0)
(-0.0527315 -0.0843162 0)
(-0.0336746 -0.0724178 0)
(-0.0155273 -0.0467664 0)
(0.00235444 -0.0219569 0)
(-0.0263896 -0.00471382 0)
(0.0940638 -0.0539038 0)
(0.0675334 -0.0510346 0)
(0.0663738 -0.0438741 0)
(0.070987 -0.0349618 0)
(0.0755078 -0.027482 0)
(0.0773064 -0.0203536 0)
(0.0713136 -0.0137276 0)
(0.0665783 -0.0101875 0)
(0.0648147 -0.00818875 0)
(0.0644467 -0.00687366 0)
(0.0644976 -0.00590486 0)
(0.0649489 -0.00498531 0)
(0.0663675 -0.00367451 0)
(0.0701775 0.000247749 0)
(0.0695576 0.0192262 0)
(0.0579639 0.0337896 0)
(0.0498453 0.0466969 0)
(-0.0413996 0.0726983 0)
(0.511663 0.315068 0)
(-0.206953 0.126697 0)
(-0.0679454 0.100199 0)
(-0.0945306 0.0779979 0)
(-0.106459 0.0586556 0)
(-0.115571 0.0386485 0)
(-0.121566 0.0154724 0)
(-0.121203 -0.0123595 0)
(-0.112207 -0.0432761 0)
(-0.096685 -0.0724318 0)
(-0.0770917 -0.0949713 0)
(-0.056033 -0.108143 0)
(-0.0358646 -0.111179 0)
(-0.0182649 -0.104724 0)
(-0.00327761 -0.0886503 0)
(0.0122829 -0.0627926 0)
(0.0310778 -0.0370696 0)
(0.0519551 -0.0198512 0)
(0.0834128 -0.0128487 0)
(0.0916786 -0.0415773 0)
(0.0782269 -0.0446003 0)
(0.0707939 -0.0393736 0)
(0.0679235 -0.0327414 0)
(0.0653383 -0.0249352 0)
(0.067166 -0.015454 0)
(0.0758313 -0.0109221 0)
(0.083225 -0.00843807 0)
(0.0882224 -0.00683922 0)
(0.0916376 -0.0054099 0)
(0.0934837 -0.00375089 0)
(0.092552 -0.00150961 0)
(0.0874573 0.00171101 0)
(0.0758921 0.00649297 0)
(0.0642128 0.0277153 0)
(0.0553188 0.0470835 0)
(0.0572222 0.0665974 0)
(-0.0460174 0.105078 0)
(0.628818 0.366956 0)
(-0.24841 0.154177 0)
(-0.0318771 0.11256 0)
(-0.054052 0.0868932 0)
(-0.0577563 0.065633 0)
(-0.0599339 0.0437497 0)
(-0.0613085 0.0173901 0)
(-0.0557993 -0.016533 0)
(-0.043826 -0.0549276 0)
(-0.0289374 -0.0891675 0)
(-0.0137947 -0.113637 0)
(3.13546e-05 -0.126279 0)
(0.0114214 -0.126939 0)
(0.0201871 -0.117691 0)
(0.027355 -0.100447 0)
(0.0352214 -0.0774392 0)
(0.0459532 -0.0543278 0)
(0.0586413 -0.038299 0)
(0.0695242 -0.0343555 0)
(0.0712867 -0.0412118 0)
(0.0649119 -0.0402965 0)
(0.0579624 -0.0352761 0)
(0.0534141 -0.0293784 0)
(0.0509208 -0.0224579 0)
(0.0522384 -0.0133206 0)
(0.057075 -0.00842097 0)
(0.0620697 -0.00644227 0)
(0.0663907 -0.00518756 0)
(0.0701308 -0.00339422 0)
(0.0730275 -0.00029111 0)
(0.0744333 0.00442457 0)
(0.073245 0.0109121 0)
(0.0691532 0.0198647 0)
(0.0640721 0.0358714 0)
(0.0600017 0.0548511 0)
(0.0767109 0.0765946 0)
(0.0435363 0.10669 0)
(0.0904016 0.1125 0)
(0.11721 0.115004 0)
(-0.201038 0.13745 0)
(0.709316 0.410933 0)
(-0.285391 0.173549 0)
(-0.00674449 0.105756 0)
(-0.0121302 0.0851002 0)
(-0.00535196 0.0664451 0)
(0.0010845 0.0438055 0)
(0.00631932 0.0144671 0)
(0.0225917 -0.0259705 0)
(0.0373544 -0.0679642 0)
(0.0491413 -0.102076 0)
(0.0568872 -0.124212 0)
(0.0604945 -0.133744 0)
(0.0606117 -0.131888 0)
(0.0583979 -0.120897 0)
(0.0551955 -0.103249 0)
(0.052746 -0.0817601 0)
(0.0524397 -0.0605678 0)
(0.0538176 -0.0444457 0)
(0.0542187 -0.0363634 0)
(0.0507105 -0.034909 0)
(0.0438104 -0.0331367 0)
(0.036793 -0.0296514 0)
(0.0318535 -0.0255406 0)
(0.0294129 -0.0209175 0)
(0.0300029 -0.0158803 0)
(0.033138 -0.013053 0)
(0.0371937 -0.0117536 0)
(0.0414156 -0.0105507 0)
(0.04564 -0.00844048 0)
(0.0497099 -0.00457336 0)
(0.0537949 0.00184122 0)
(0.0563106 0.0105696 0)
(0.0575389 0.0214807 0)
(0.0591156 0.0359175 0)
(0.0618073 0.0528057 0)
(0.0776594 0.0716272 0)
(0.0773087 0.080533 0)
(0.0869957 0.0427784 0)
(0.121003 0.0101247 0)
(-0.20991 0.0751625 0)
(0.753563 0.451146 0)
(-0.300894 0.160468 0)
(0.0169968 0.0530197 0)
(0.0458097 0.0595833 0)
(0.0620633 0.0574449 0)
(0.0751858 0.0372036 0)
(0.0932887 0.00279774 0)
(0.114309 -0.0405636 0)
(0.127621 -0.0795391 0)
(0.132475 -0.108304 0)
(0.129515 -0.12489 0)
(0.120252 -0.129725 0)
(0.106709 -0.124596 0)
(0.0910841 -0.111948 0)
(0.0753073 -0.0942716 0)
(0.0610635 -0.0742996 0)
(0.0494241 -0.0551171 0)
(0.0404125 -0.0400291 0)
(0.0327956 -0.0311108 0)
(0.0249941 -0.027473 0)
(0.0170829 -0.0257039 0)
(0.0102531 -0.023888 0)
(0.00552313 -0.0219681 0)
(0.00314622 -0.0199227 0)
(0.00322101 -0.017833 0)
(0.00520448 -0.0165697 0)
(0.00808699 -0.0158139 0)
(0.0113524 -0.0148394 0)
(0.0149566 -0.0129624 0)
(0.0190638 -0.00935935 0)
(0.0240197 -0.00293073 0)
(0.0309989 0.00669342 0)
(0.0369461 0.0177577 0)
(0.0438149 0.0302887 0)
(0.052095 0.0437467 0)
(0.0673537 0.0582296 0)
(0.0799824 0.0635782 0)
(0.0909787 0.0467452 0)
(0.145105 0.0516425 0)
(-0.136061 0.13274 0)
(0.854619 0.455255 0)
(-0.0731015 0.139589 0)
(0.104374 -0.0335956 0)
(0.175742 -0.0345472 0)
(0.187354 -0.0183086 0)
(0.192881 -0.0277589 0)
(0.214203 -0.0494805 0)
(0.22819 -0.072409 0)
(0.229036 -0.0923042 0)
(0.217427 -0.106117 0)
(0.196222 -0.112191 0)
(0.168735 -0.110474 0)
(0.138229 -0.102143 0)
(0.107621 -0.0889671 0)
(0.0789679 -0.0726544 0)
(0.0538075 -0.0553981 0)
(0.0328769 -0.0394682 0)
(0.0166306 -0.0273905 0)
(0.00442167 -0.0206616 0)
(-0.00547996 -0.0184437 0)
(-0.0131693 -0.0183751 0)
(-0.0192186 -0.0186841 0)
(-0.0234857 -0.0189884 0)
(-0.0260522 -0.0191182 0)
(-0.0270813 -0.0190353 0)
(-0.0269991 -0.0189241 0)
(-0.0263491 -0.0187224 0)
(-0.0254243 -0.0182105 0)
(-0.024215 -0.0170814 0)
(-0.0224468 -0.0148964 0)
(-0.0194683 -0.0110606 0)
(-0.0130132 -0.00478886 0)
(-0.00252126 0.00397753 0)
(0.00781436 0.013064 0)
(0.0195842 0.019881 0)
(0.035794 0.0254855 0)
(0.0522421 0.0218195 0)
(0.0655749 0.004098 0)
(0.14699 0.0545658 0)
(-0.399149 0.216587 0)
(0.996459 0.416252 0)
(0.468455 0.274415 0)
(0.492145 0.175946 0)
(0.522783 0.1255 0)
(0.494443 0.0918434 0)
(0.457028 0.0582831 0)
(0.420902 0.021658 0)
(0.380738 -0.013104 0)
(0.333862 -0.0409446 0)
(0.282915 -0.0592263 0)
(0.230879 -0.0677219 0)
(0.180236 -0.0679228 0)
(0.13297 -0.062077 0)
(0.0906781 -0.0523706 0)
(0.0537927 -0.0402119 0)
(0.0233001 -0.0277585 0)
(-0.0011609 -0.0170132 0)
(-0.0179471 -0.0107326 0)
(-0.0288941 -0.00878595 0)
(-0.0371082 -0.00937292 0)
(-0.0436742 -0.0110002 0)
(-0.0491538 -0.0127201 0)
(-0.053696 -0.0142527 0)
(-0.0574149 -0.0154646 0)
(-0.0604574 -0.0163274 0)
(-0.0630842 -0.0169005 0)
(-0.0656406 -0.0171724 0)
(-0.0684668 -0.0170235 0)
(-0.071896 -0.0161585 0)
(-0.076301 -0.014001 0)
(-0.0821208 -0.00968764 0)
(-0.0898088 -0.00229952 0)
(-0.0983679 0.0081628 0)
(-0.108444 0.0212414 0)
(-0.125662 0.0379162 0)
(-0.152959 0.0593261 0)
(-0.19294 0.0846185 0)
(-0.241457 0.111852 0)
(-0.309658 0.137545 0)
(-0.593573 0.158561 0)
(-0.348012 -0.0798541 0)
(0.135836 -0.00476807 0)
(0.22916 0.009066 0)
(0.225094 0.00851062 0)
(0.209587 -0.000422841 0)
(0.193252 -0.0115436 0)
(0.173059 -0.0201881 0)
(0.145802 -0.0249098 0)
(0.114365 -0.0261221 0)
(0.081122 -0.0243614 0)
(0.0482339 -0.0201657 0)
(0.017742 -0.0139134 0)
(-0.0113225 -0.00555214 0)
(-0.0321107 0.000883676 0)
(-0.0461791 0.00475196 0)
(-0.0550791 0.0061918 0)
(-0.0610974 0.00590499 0)
(-0.0661631 0.00426582 0)
(-0.0710429 0.00228688 0)
(-0.0761517 0.000579275 0)
(-0.0815348 -0.000643202 0)
(-0.0870886 -0.00121062 0)
(-0.0927178 -0.00107166 0)
(-0.0983782 -0.000246703 0)
(-0.104082 0.00123871 0)
(-0.109872 0.00334716 0)
(-0.115802 0.00601229 0)
(-0.121944 0.0091488 0)
(-0.128282 0.0126503 0)
(-0.133906 0.0171708 0)
(-0.138 0.024791 0)
(-0.141234 0.0367074 0)
(-0.144221 0.0530515 0)
(-0.147268 0.0723753 0)
(-0.148023 0.0881688 0)
(-0.137733 0.0817445 0)
(-0.122833 0.0127968 0)
(-0.258117 -0.180508 0)
(-0.00858558 0.141053 0)
(0.0622304 0.0426084 0)
(0.00196715 0.00799593 0)
(0.00902536 0.0198854 0)
(0.0121465 0.0172689 0)
(0.00921885 0.00592477 0)
(0.00351217 -0.00399583 0)
(-0.00541832 -0.00965873 0)
(-0.0194011 -0.0119225 0)
(-0.0349326 -0.012979 0)
(-0.0494882 -0.0141492 0)
(-0.0611639 -0.0162427 0)
(-0.0689805 -0.0200335 0)
(-0.0733914 -0.0259883 0)
(-0.0761226 -0.0331401 0)
(-0.0779273 -0.0404195 0)
(-0.0795732 -0.0467557 0)
(-0.0816944 -0.0514568 0)
(-0.0848535 -0.0548905 0)
(-0.0891159 -0.0575491 0)
(-0.0944449 -0.0602362 0)
(-0.100765 -0.0628994 0)
(-0.10787 -0.0653013 0)
(-0.11544 -0.067077 0)
(-0.123044 -0.0677521 0)
(-0.130141 -0.0667576 0)
(-0.136093 -0.0634169 0)
(-0.140201 -0.0568727 0)
(-0.141829 -0.045948 0)
(-0.140781 -0.0318624 0)
(-0.136358 -0.015349 0)
(-0.127112 0.00402361 0)
(-0.111862 0.0266055 0)
(-0.0903144 0.0511045 0)
(-0.0636195 0.070892 0)
(-0.0355351 0.0726118 0)
(0.123755 -0.00824238 0)
(-0.205479 -0.0949309 0)
(0.150082 -0.233565 0)
(-0.339684 -0.124697 0)
(-0.259952 0.0191586 0)
(-0.227182 -0.0147604 0)
(-0.202639 -0.00338251 0)
(-0.180313 0.0125271 0)
(-0.162125 0.0222946 0)
(-0.149468 0.0301466 0)
(-0.142399 0.0393576 0)
(-0.138555 0.0494292 0)
(-0.13556 0.0594204 0)
(-0.131969 0.0697538 0)
(-0.12721 0.0809037 0)
(-0.12124 0.0929939 0)
(-0.11452 0.105665 0)
(-0.107982 0.118211 0)
(-0.102545 0.129856 0)
(-0.0986949 0.139623 0)
(-0.096585 0.146992 0)
(-0.0959839 0.151921 0)
(-0.0965485 0.155026 0)
(-0.097972 0.1572 0)
(-0.100031 0.159708 0)
(-0.102521 0.162464 0)
(-0.105276 0.165084 0)
(-0.108161 0.166981 0)
(-0.111055 0.167472 0)
(-0.113822 0.165903 0)
(-0.116255 0.161721 0)
(-0.117975 0.154472 0)
(-0.118207 0.143796 0)
(-0.115259 0.132921 0)
(-0.10688 0.123966 0)
(-0.0905551 0.118296 0)
(-0.0652296 0.117265 0)
(-0.0335581 0.121561 0)
(0.01793 0.127574 0)
(0.0571829 0.122648 0)
(0.149022 0.115232 0)
(-0.254823 0.0729153 0)
)
;

boundaryField
{
    floor
    {
        type            noSlip;
    }
    ceiling
    {
        type            noSlip;
    }
    sWall
    {
        type            noSlip;
    }
    nWall
    {
        type            noSlip;
    }
    sideWalls
    {
        type            empty;
    }
    glass1
    {
        type            noSlip;
    }
    glass2
    {
        type            noSlip;
    }
    sun
    {
        type            noSlip;
    }
    Table_master
    {
        type            noSlip;
    }
    Table_slave
    {
        type            noSlip;
    }
    inlet
    {
        type            fixedValue;
        value           uniform (0.212132 -0.212132 0);
    }
    outlet
    {
        type            zeroGradient;
    }
}


// ************************************************************************* //
