/*--------------------------------*- C++ -*----------------------------------*\
  =========                 |
  \\      /  F ield         | OpenFOAM: The Open Source CFD Toolbox
   \\    /   O peration     | Website:  https://openfoam.org
    \\  /    A nd           | Version:  6
     \\/     M anipulation  |
\*---------------------------------------------------------------------------*/
FoamFile
{
    version     2.0;
    format      ascii;
    class       volScalarField;
    location    "2500";
    object      k;
}
// * * * * * * * * * * * * * * * * * * * * * * * * * * * * * * * * * * * * * //

dimensions      [0 2 -2 0 0 0 0];

internalField   nonuniform List<scalar> 
458
(
0.00156517
0.00180472
0.00181708
0.00197634
0.00212668
0.00226739
0.00240259
0.00253793
0.00267939
0.00278837
0.00284641
0.00283592
0.00275318
0.00262121
0.00247432
0.00033667
0.000554748
0.000593129
0.000575463
0.000544031
0.000498318
0.000451783
0.000410381
0.000374485
0.00034341
0.000316579
0.00029304
0.000271952
0.000252431
0.000233411
0.000213225
0.000193778
0.000158322
0.00320619
0.00604481
0.00281441
0.00292816
0.0031341
0.003367
0.00362116
0.00390055
0.00419952
0.00449156
0.00470838
0.00476804
0.00460541
0.00419993
0.00355425
0.00262121
0.00183364
0.0012516
0.000755574
0.000915249
0.000955301
0.000937417
0.000880066
0.000770922
0.00066441
0.000575889
0.000503644
0.000444082
0.000393951
0.000351099
0.00031378
0.000282347
0.000263549
0.000257542
0.000367523
0.000236461
0.00509401
0.0119438
0.00361383
0.00338334
0.00356491
0.00381216
0.00409083
0.00441709
0.00479151
0.00518447
0.0055042
0.00566987
0.00564871
0.00547792
0.00525045
0.00487408
0.00388519
0.00224821
0.00154482
0.00140824
0.0012895
0.00118244
0.00107732
0.000876444
0.000712164
0.000587879
0.000494461
0.000423603
0.000369226
0.000327029
0.000294284
0.00026971
0.000251186
0.000253264
0.00046857
0.000297653
0.0074105
0.0207185
0.00486311
0.00358872
0.00367681
0.0039177
0.00419816
0.00455501
0.00502099
0.00551037
0.00588257
0.00607394
0.00608267
0.00594228
0.0056804
0.0052609
0.00449621
0.0038574
0.0025421
0.002119
0.00179855
0.00155857
0.00137778
0.00123022
0.000993901
0.000866978
0.000797054
0.000753547
0.000718064
0.000678313
0.000634982
0.000589275
0.00053476
0.000416266
0.000338949
0.000559295
0.00036361
0.0102577
0.032597
0.00787536
0.00393674
0.00373772
0.00393071
0.00421287
0.0046535
0.00534032
0.00596941
0.00635884
0.00651806
0.00648507
0.00628361
0.00588227
0.00527494
0.00447976
0.00368993
0.00296779
0.00244153
0.00202987
0.0017191
0.00150255
0.00135638
0.00127014
0.0012511
0.0012602
0.00126573
0.00124908
0.00119789
0.00110362
0.000983716
0.000846594
0.000674523
0.000516592
0.000542107
0.000507631
0.000493358
0.000551637
0.000601656
0.0137616
0.0451435
0.0155166
0.00587425
0.00451027
0.00438994
0.0045866
0.00516108
0.00616654
0.006829
0.00711907
0.00716757
0.00703738
0.00673353
0.00621768
0.00547141
0.00456179
0.00365916
0.00291786
0.00240396
0.00202435
0.00173994
0.00155589
0.00146114
0.00145183
0.00150396
0.00156719
0.00161182
0.00162155
0.00158081
0.00146984
0.00130319
0.00111108
0.000906159
0.000722735
0.000618738
0.000559894
0.000676279
0.00183043
0.00108318
0.0175478
0.0533837
0.0291047
0.0142926
0.00955416
0.00759196
0.00704967
0.00757681
0.00810218
0.0082876
0.00824811
0.00807214
0.00778227
0.0073488
0.00670864
0.00582722
0.00477892
0.0037377
0.00289966
0.00233498
0.00197273
0.00174017
0.00161805
0.00158428
0.00162101
0.00170242
0.00179221
0.00187046
0.00192501
0.00194085
0.0018978
0.00174329
0.00153373
0.00130719
0.00111508
0.000987543
0.000926735
0.00106473
0.00242964
0.00159313
0.018405
0.0546563
0.0384212
0.0307421
0.0234377
0.0178028
0.0145935
0.0127176
0.0113588
0.010416
0.00974529
0.00920248
0.00867545
0.00806231
0.00725502
0.00619497
0.00496847
0.0037625
0.00283225
0.00224091
0.00194829
0.00180203
0.00174423
0.00174254
0.00178121
0.00184875
0.00193252
0.0020258
0.00212683
0.00223554
0.00235
0.00244694
0.0024346
0.0023721
0.00239219
0.00263124
0.00323966
0.00404465
0.00882207
0.00309805
0.0175112
0.0248409
0.0251788
0.0227243
0.0203163
0.0177991
0.0156166
0.0138857
0.0126526
0.011746
0.0109864
0.0102729
0.009547
0.00872459
0.00767753
0.00634132
0.00488232
0.00351701
0.00268151
0.00225959
0.00207081
0.00198624
0.00194553
0.00192575
0.00192215
0.00193557
0.0019674
0.00201989
0.00209557
0.00219594
0.00232042
0.00246495
0.00262977
0.00285226
0.0031917
0.00366219
0.00419299
0.00464196
0.00496023
0.00304488
0.0110799
0.0250938
0.0214777
0.0192402
0.0176434
0.0163817
0.0150656
0.0136697
0.0123383
0.0111555
0.0100962
0.00898832
0.00759221
0.00582157
0.00419397
0.00325206
0.00280843
0.00261554
0.00252462
0.00245825
0.00238341
0.00229154
0.00218664
0.00207871
0.0019802
0.00190425
0.00186356
0.00186999
0.00193469
0.00206856
0.00226942
0.00253163
0.00285941
0.00322299
0.00352298
0.00361394
0.00346326
0.00229448
0.00937522
0.0222143
0.0203876
0.0183145
0.0170233
0.0158142
0.0145556
0.0129752
0.0116972
0.0107782
0.0100571
0.00911646
0.00775962
0.00626745
0.00515909
0.0045796
0.00433269
0.00420572
0.00412539
0.00404095
0.00391804
0.003742
0.0035144
0.00325048
0.00297486
0.00271558
0.00249813
0.0023417
0.00225826
0.00225763
0.00235869
0.0025554
0.00283143
0.00313814
0.00341564
0.00362918
0.00388805
0.00240994
0.00620034
0.00729649
0.0081842
0.00939205
0.00879527
0.0080987
0.00697878
0.00544624
0.00405958
0.00361432
0.00335751
0.00317112
0.00298373
0.00273235
0.00242158
0.00212848
0.00186791
0.00169097
0.00158419
0.00152724
0.0014839
0.00143821
0.00138733
0.00133378
0.00128339
0.00124321
0.0012196
0.00121706
0.00123823
0.00128494
0.00136009
0.00146434
0.00158906
0.00173833
0.00191543
0.00211424
0.0023317
0.0022839
0.00198221
0.00174052
)
;

boundaryField
{
    floor
    {
        type            kqRWallFunction;
        value           nonuniform List<scalar> 
36
(
0.00247432
0.00033667
0.000554748
0.000593129
0.000575463
0.000544031
0.000498318
0.000451783
0.000410381
0.000374485
0.00034341
0.000316579
0.00029304
0.000271952
0.000252431
0.000233411
0.000213225
0.000193778
0.000158322
0.000158322
0.000236461
0.000297653
0.00036361
0.000493358
0.000551637
0.000601656
0.00247432
0.00262121
0.00183364
0.0012516
0.00033667
0.0012516
0.000755574
0.00224821
0.00154482
0.0025421
)
;
    }
    ceiling
    {
        type            kqRWallFunction;
        value           nonuniform List<scalar> 
43
(
0.00620034
0.00729649
0.0081842
0.00939205
0.00879527
0.0080987
0.00697878
0.00544624
0.00405958
0.00361432
0.00335751
0.00317112
0.00298373
0.00273235
0.00242158
0.00212848
0.00186791
0.00169097
0.00158419
0.00152724
0.0014839
0.00143821
0.00138733
0.00133378
0.00128339
0.00124321
0.0012196
0.00121706
0.00123823
0.00128494
0.00136009
0.00146434
0.00158906
0.00173833
0.00191543
0.00211424
0.0023317
0.0022839
0.00198221
0.00174052
0.0175112
0.0248409
0.00937522
)
;
    }
    sWall
    {
        type            kqRWallFunction;
        value           uniform 0.00620034;
    }
    nWall
    {
        type            kqRWallFunction;
        value           nonuniform List<scalar> 6(0.000601656 0.00108318 0.00159313 0.00229448 0.00240994 0.00174052);
    }
    sideWalls
    {
        type            empty;
    }
    glass1
    {
        type            kqRWallFunction;
        value           nonuniform List<scalar> 9(0.00156517 0.00320619 0.00509401 0.0074105 0.0102577 0.0137616 0.0175478 0.018405 0.0175112);
    }
    glass2
    {
        type            kqRWallFunction;
        value           nonuniform List<scalar> 2(0.00309805 0.00304488);
    }
    sun
    {
        type            kqRWallFunction;
        value           nonuniform List<scalar> 
14
(
0.00156517
0.00180472
0.00181708
0.00197634
0.00212668
0.00226739
0.00240259
0.00253793
0.00267939
0.00278837
0.00284641
0.00283592
0.00275318
0.00262121
)
;
    }
    Table_master
    {
        type            kqRWallFunction;
        value           nonuniform List<scalar> 9(0.000876444 0.000712164 0.000587879 0.000494461 0.000423603 0.000369226 0.000327029 0.000294284 0.00026971);
    }
    Table_slave
    {
        type            kqRWallFunction;
        value           nonuniform List<scalar> 9(0.000993901 0.000866978 0.000797054 0.000753547 0.000718064 0.000678313 0.000634982 0.000589275 0.00053476);
    }
    inlet
    {
        type            turbulentIntensityKineticEnergyInlet;
        intensity       0.05;
        value           uniform 0.0003375;
    }
    outlet
    {
        type            zeroGradient;
    }
}


// ************************************************************************* //
