/*--------------------------------*- C++ -*----------------------------------*\
  =========                 |
  \\      /  F ield         | OpenFOAM: The Open Source CFD Toolbox
   \\    /   O peration     | Website:  https://openfoam.org
    \\  /    A nd           | Version:  6
     \\/     M anipulation  |
\*---------------------------------------------------------------------------*/
FoamFile
{
    version     2.0;
    format      ascii;
    class       volScalarField;
    location    "2500";
    object      T;
}
// * * * * * * * * * * * * * * * * * * * * * * * * * * * * * * * * * * * * * //

dimensions      [0 0 0 1 0 0 0];

internalField   nonuniform List<scalar> 
458
(
304.215
303.959
303.949
303.947
303.946
303.943
303.941
303.938
303.935
303.929
303.921
303.912
303.901
303.892
303.885
303.9
303.885
303.884
303.885
303.885
303.885
303.885
303.885
303.885
303.885
303.885
303.885
303.885
303.884
303.884
303.883
303.883
303.889
304.395
303.998
303.977
303.981
303.985
303.988
303.989
303.988
303.985
303.977
303.961
303.94
303.917
303.895
303.878
303.871
303.87
303.876
303.887
303.881
303.881
303.882
303.883
303.882
303.88
303.878
303.876
303.874
303.872
303.87
303.869
303.867
303.867
303.867
303.868
303.878
304.579
304.043
304.005
304.015
304.028
304.04
304.049
304.053
304.053
304.042
304.018
303.983
303.944
303.908
303.881
303.867
303.862
303.865
303.876
303.879
303.883
303.888
303.891
303.889
303.886
303.883
303.88
303.877
303.874
303.871
303.868
303.866
303.864
303.863
303.862
303.873
304.759
304.101
304.033
304.046
304.068
304.091
304.111
304.126
304.131
304.119
304.083
304.031
303.972
303.921
303.884
303.865
303.859
303.86
303.866
303.872
303.881
303.89
303.898
303.903
303.906
303.907
303.908
303.908
303.908
303.907
303.906
303.904
303.901
303.888
303.875
303.866
303.871
304.93
304.174
304.066
304.07
304.097
304.128
304.161
304.19
304.206
304.192
304.143
304.071
303.994
303.928
303.882
303.86
303.855
303.86
303.868
303.88
303.892
303.904
303.912
303.918
303.921
303.922
303.923
303.922
303.921
303.918
303.915
303.912
303.907
303.898
303.885
303.872
303.869
303.869
303.869
303.911
305.079
304.271
304.131
304.105
304.123
304.153
304.19
304.232
304.262
304.242
304.179
304.09
303.999
303.924
303.875
303.852
303.85
303.86
303.875
303.891
303.907
303.919
303.928
303.933
303.935
303.935
303.934
303.932
303.93
303.926
303.922
303.917
303.911
303.903
303.892
303.879
303.872
303.869
303.869
303.911
305.208
304.428
304.292
304.232
304.212
304.217
304.24
304.279
304.295
304.261
304.181
304.078
303.978
303.9
303.854
303.838
303.844
303.863
303.886
303.908
303.924
303.936
303.942
303.945
303.946
303.945
303.943
303.941
303.937
303.933
303.927
303.921
303.914
303.906
303.896
303.886
303.878
303.874
303.873
303.906
305.409
304.828
304.682
304.56
304.465
304.41
304.387
304.377
304.334
304.247
304.131
304.011
303.911
303.845
303.816
303.819
303.842
303.874
303.903
303.927
303.941
303.949
303.953
303.954
303.954
303.953
303.952
303.949
303.945
303.941
303.936
303.929
303.921
303.914
303.907
303.9
303.895
303.896
303.902
304.007
305.692
305.43
305.134
304.895
304.719
304.589
304.494
304.407
304.269
304.108
303.96
303.849
303.782
303.76
303.772
303.807
303.852
303.896
303.925
303.943
303.952
303.958
303.961
303.962
303.963
303.963
303.962
303.96
303.958
303.956
303.954
303.953
303.955
303.96
303.97
303.985
304.007
304.032
304.054
304.105
296.163
300.495
302.207
302.877
303.175
303.29
303.369
303.431
303.488
303.547
303.612
303.685
303.758
303.829
303.886
303.921
303.941
303.952
303.959
303.964
303.968
303.97
303.973
303.974
303.975
303.976
303.977
303.979
303.98
303.983
303.987
303.992
304.002
304.015
304.032
304.05
304.067
304.087
297.199
300.505
301.755
302.471
302.837
303.029
303.162
303.294
303.419
303.534
303.64
303.745
303.823
303.877
303.913
303.935
303.948
303.956
303.962
303.967
303.971
303.975
303.979
303.983
303.986
303.989
303.992
303.994
303.996
303.999
304.002
304.006
304.013
304.022
304.033
304.045
304.048
304.07
300.196
300.098
300.092
301.957
302.501
302.823
303.058
303.252
303.432
303.566
303.67
303.75
303.81
303.855
303.886
303.906
303.92
303.929
303.935
303.941
303.946
303.951
303.956
303.961
303.965
303.97
303.974
303.978
303.983
303.987
303.991
303.995
303.999
304.003
304.008
304.014
304.024
304.028
304.027
304.06
)
;

boundaryField
{
    floor
    {
        type            wallHeatTransfer;
        Tinf            uniform 305.2;
        alphaWall       uniform 0.24;
        value           nonuniform List<scalar> 
36
(
304.02
304.17
304.117
304.111
304.114
304.119
304.126
304.134
304.142
304.149
304.157
304.164
304.17
304.177
304.183
304.19
304.198
304.207
304.231
304.231
304.185
304.16
304.14
304.113
304.104
304.132
304.02
304.005
304.023
304.052
304.17
304.052
304.096
304.008
304.039
304.002
)
;
    }
    ceiling
    {
        type            wallHeatTransfer;
        Tinf            uniform 303.2;
        alphaWall       uniform 0.24;
        value           nonuniform List<scalar> 
43
(
300.41
300.305
300.29
302.032
302.545
302.848
303.068
303.248
303.412
303.533
303.627
303.698
303.751
303.79
303.815
303.829
303.838
303.842
303.846
303.849
303.853
303.856
303.859
303.862
303.865
303.867
303.87
303.874
303.878
303.883
303.889
303.895
303.902
303.909
303.916
303.925
303.937
303.94
303.934
303.959
305.574
305.339
297.558
)
;
    }
    sWall
    {
        type            wallHeatTransfer;
        Tinf            uniform 315.2;
        alphaWall       uniform 0.36;
        value           uniform 301.752;
    }
    nWall
    {
        type            wallHeatTransfer;
        Tinf            uniform 307.2;
        alphaWall       uniform 0.36;
        value           nonuniform List<scalar> 6(304.692 304.556 304.473 304.558 304.536 304.584);
    }
    sideWalls
    {
        type            empty;
    }
    glass1
    {
        type            wallHeatTransfer;
        Tinf            uniform 315.2;
        alphaWall       uniform 4.3;
        value           nonuniform List<scalar> 9(312.107 311.451 311.023 310.684 310.399 310.144 309.943 309.998 310.202);
    }
    glass2
    {
        type            wallHeatTransfer;
        Tinf            uniform 307.2;
        alphaWall       uniform 4.3;
        value           nonuniform List<scalar> 2(306.092 306.132);
    }
    sun
    {
        type            wallHeatTransfer;
        Tinf            uniform 305.2;
        alphaWall       uniform 0.24;
        value           nonuniform List<scalar> 
14
(
304.335
304.103
304.094
304.088
304.082
304.077
304.072
304.067
304.061
304.054
304.046
304.038
304.03
304.023
)
;
    }
    Table_master
    {
        type            zeroGradient;
    }
    Table_slave
    {
        type            zeroGradient;
    }
    inlet
    {
        type            fixedValue;
        value           uniform 292.15;
    }
    outlet
    {
        type            zeroGradient;
    }
}


// ************************************************************************* //
