// -*- C++ -*-
// File generated by PyFoam - sorry for the ugliness

FoamFile
{
 version 2.0;
 format ascii;
 class volVectorField;
 location "2400";
 object U;
}

dimensions [ 0 1 -1 0 0 0 0 ];

internalField nonuniform List<vector> 458
(
  (0.0312061 0.0924164 0)
  (-0.180813 0.0280141 0)
  (-0.211084 0.0183911 0)
  (-0.245229 0.0105249 0)
  (-0.267868 0.00181635 0)
  (-0.27673 -0.00778231 0)
  (-0.268438 -0.0185387 0)
  (-0.241888 -0.0307556 0)
  (-0.197758 -0.0426963 0)
  (-0.14083 -0.0519306 0)
  (-0.079273 -0.0560143 0)
  (-0.0199634 -0.0514159 0)
  (0.031007 -0.0266867 0)
  (0.0469421 -0.00367089 0)
  (0.0306667 0.031903 0)
  (-0.0100935 0.0107316 0)
  (-0.0397988 -0.020873 0)
  (-0.0140264 -0.033901 0)
  (0.0189076 -0.0279256 0)
  (0.0397962 -0.0194784 0)
  (0.0556261 -0.0105128 0)
  (0.0648545 -0.00583239 0)
  (0.0687185 -0.00411607 0)
  (0.0700481 -0.00344618 0)
  (0.0706181 -0.0030278 0)
  (0.0708505 -0.00270061 0)
  (0.0706828 -0.00236117 0)
  (0.0699398 -0.00184088 0)
  (0.0681218 -0.000781587 0)
  (0.0641183 0.0012907 0)
  (0.0567259 0.00355562 0)
  (0.0507019 0.00574755 0)
  (-0.0146814 0.0247997 0)
  (0.213488 0.190599 0)
  (-0.168467 0.0771073 0)
  (-0.172799 0.0603686 0)
  (-0.209319 0.0447444 0)
  (-0.233072 0.0264897 0)
  (-0.243664 0.00494634 0)
  (-0.237781 -0.0205851 0)
  (-0.214679 -0.0483765 0)
  (-0.175978 -0.0734164 0)
  (-0.126945 -0.0899437 0)
  (-0.0752917 -0.0937309 0)
  (-0.0287333 -0.0815563 0)
  (0.0130434 -0.0473045 0)
  (0.0413098 -0.0110942 0)
  (0.0625086 0.0273886 0)
  (0.0834039 0.0396331 0)
  (0.0760452 0.054908 0)
  (-0.00692108 0.0862117 0)
  (0.0765315 0.0482235 0)
  (0.00953427 -0.0261706 0)
  (0.0277158 -0.0431538 0)
  (0.0436748 -0.0395032 0)
  (0.0571722 -0.0292879 0)
  (0.064394 -0.0126946 0)
  (0.0662345 -0.0028168 0)
  (0.0662087 0.000843282 0)
  (0.0663008 0.00216688 0)
  (0.0666063 0.00288819 0)
  (0.0668283 0.00339388 0)
  (0.0668675 0.00384165 0)
  (0.0667255 0.00461837 0)
  (0.06593 0.00656971 0)
  (0.0622162 0.0120216 0)
  (0.052805 0.0167003 0)
  (0.0520847 0.0201703 0)
  (-0.0654724 0.0532265 0)
  (0.381421 0.286 0)
  (-0.184366 0.122905 0)
  (-0.131919 0.0982347 0)
  (-0.169048 0.0706542 0)
  (-0.192093 0.0402856 0)
  (-0.203952 0.0051112 0)
  (-0.19978 -0.0356717 0)
  (-0.178454 -0.0794291 0)
  (-0.143638 -0.11672 0)
  (-0.101489 -0.138385 0)
  (-0.0591076 -0.139646 0)
  (-0.0224347 -0.119364 0)
  (0.0097782 -0.0776716 0)
  (0.0344311 -0.0361294 0)
  (0.0546108 -0.00223524 0)
  (0.0638757 0.0112938 0)
  (0.0609839 0.0304484 0)
  (-0.0241468 0.0767043 0)
  (0.138793 -0.00630274 0)
  (0.0755011 -0.0353983 0)
  (0.0652024 -0.0469146 0)
  (0.0686957 -0.0461048 0)
  (0.0737552 -0.040736 0)
  (0.0759016 -0.0296169 0)
  (0.0662101 -0.018788 0)
  (0.0588671 -0.0130835 0)
  (0.056247 -0.00996009 0)
  (0.0556671 -0.00796991 0)
  (0.055548 -0.00662554 0)
  (0.0557504 -0.00556492 0)
  (0.0567339 -0.00432492 0)
  (0.059562 -0.000790293 0)
  (0.0581464 0.0163498 0)
  (0.0453361 0.0275956 0)
  (0.0586079 0.0346773 0)
  (-0.113456 0.0801568 0)
  (0.535458 0.363294 0)
  (-0.219387 0.163637 0)
  (-0.0867195 0.132489 0)
  (-0.12405 0.0954776 0)
  (-0.143229 0.0564938 0)
  (-0.1546 0.00990553 0)
  (-0.15013 -0.0463837 0)
  (-0.128528 -0.106545 0)
  (-0.0979462 -0.154393 0)
  (-0.0641729 -0.17917 0)
  (-0.0325284 -0.177271 0)
  (-0.00623961 -0.149838 0)
  (0.0161709 -0.103231 0)
  (0.0345597 -0.0563638 0)
  (0.0493761 -0.0165355 0)
  (0.0589308 0.012087 0)
  (0.0705653 0.0387315 0)
  (0.0597126 0.0746338 0)
  (0.103325 0.0870493 0)
  (0.0964783 0.00290328 0)
  (0.0816583 -0.0327052 0)
  (0.0764801 -0.0431211 0)
  (0.0727617 -0.0433876 0)
  (0.0668221 -0.0374539 0)
  (0.0671948 -0.0225408 0)
  (0.0787284 -0.0146726 0)
  (0.0878095 -0.0104587 0)
  (0.0927691 -0.00784957 0)
  (0.0952733 -0.00567819 0)
  (0.0955568 -0.00337376 0)
  (0.0925011 -0.000513687 0)
  (0.0848302 0.00331791 0)
  (0.0703069 0.00882474 0)
  (0.054038 0.0274607 0)
  (0.0377918 0.043046 0)
  (0.0666096 0.0545703 0)
  (-0.162605 0.10082 0)
  (0.673256 0.423054 0)
  (-0.264936 0.196343 0)
  (-0.038821 0.154675 0)
  (-0.0749173 0.112185 0)
  (-0.0868233 0.0684241 0)
  (-0.094916 0.0137999 0)
  (-0.0848729 -0.0563148 0)
  (-0.0614444 -0.131221 0)
  (-0.0377619 -0.184405 0)
  (-0.0155407 -0.208286 0)
  (0.00280297 -0.20161 0)
  (0.0163053 -0.168609 0)
  (0.027297 -0.120172 0)
  (0.0369931 -0.0698292 0)
  (0.0453373 -0.0265134 0)
  (0.0530527 0.00682298 0)
  (0.0638492 0.0324511 0)
  (0.0749056 0.0431325 0)
  (0.0908663 0.0108151 0)
  (0.0900884 -0.02131 0)
  (0.0826513 -0.034452 0)
  (0.0733702 -0.038252 0)
  (0.0645517 -0.03677 0)
  (0.0570698 -0.0301095 0)
  (0.0550268 -0.0169507 0)
  (0.0584688 -0.00919754 0)
  (0.0625119 -0.00585373 0)
  (0.0657813 -0.00386133 0)
  (0.0685033 -0.00135751 0)
  (0.0705714 0.00252953 0)
  (0.0705879 0.00790449 0)
  (0.0679251 0.0149709 0)
  (0.062215 0.0243658 0)
  (0.0546938 0.0393213 0)
  (0.041833 0.055857 0)
  (0.0767533 0.0750202 0)
  (-0.0248047 0.106214 0)
  (0.0483153 0.165051 0)
  (-0.0970975 0.0833552 0)
  (-0.289573 0.00152793 0)
  (0.779215 0.472182 0)
  (-0.313125 0.217609 0)
  (0.00249331 0.15594 0)
  (-0.0237416 0.119491 0)
  (-0.0267701 0.0769025 0)
  (-0.0299897 0.0186839 0)
  (-0.00190578 -0.0704711 0)
  (0.0209633 -0.154688 0)
  (0.0337823 -0.20419 0)
  (0.0412213 -0.222134 0)
  (0.0433112 -0.210704 0)
  (0.0417509 -0.174945 0)
  (0.0389596 -0.124889 0)
  (0.0366531 -0.0734627 0)
  (0.0358364 -0.0303582 0)
  (0.0378792 0.000858019 0)
  (0.0445499 0.0211061 0)
  (0.0557974 0.0248708 0)
  (0.065372 0.00692117 0)
  (0.0656804 -0.0107412 0)
  (0.0591326 -0.022344 0)
  (0.0498639 -0.0275993 0)
  (0.0408485 -0.0277636 0)
  (0.0335866 -0.0237166 0)
  (0.0301281 -0.0165941 0)
  (0.0307589 -0.0119957 0)
  (0.0333923 -0.00999216 0)
  (0.0368561 -0.00855726 0)
  (0.0408346 -0.00605572 0)
  (0.0450494 -0.00130397 0)
  (0.0491566 0.00609973 0)
  (0.0515841 0.0156482 0)
  (0.0528141 0.0272813 0)
  (0.0543266 0.0416781 0)
  (0.0525639 0.0577293 0)
  (0.0806632 0.0792685 0)
  (0.0610757 0.0914452 0)
  (0.100819 0.100785 0)
  (0.124193 0.0560678 0)
  (-0.147257 -0.039071 0)
  (0.840047 0.516301 0)
  (-0.341513 0.200498 0)
  (0.0365827 0.107435 0)
  (0.0391468 0.105567 0)
  (0.0426902 0.0717285 0)
  (0.0593717 -0.0024025 0)
  (0.095391 -0.096826 0)
  (0.111274 -0.168064 0)
  (0.111507 -0.208641 0)
  (0.10167 -0.218996 0)
  (0.0849414 -0.202586 0)
  (0.0648217 -0.164499 0)
  (0.0449384 -0.114428 0)
  (0.0283813 -0.0645575 0)
  (0.0172475 -0.0249246 0)
  (0.0126623 0.000593573 0)
  (0.0162622 0.0141717 0)
  (0.0244258 0.0156557 0)
  (0.0301681 0.00543441 0)
  (0.0299506 -0.00647341 0)
  (0.0247574 -0.0152428 0)
  (0.0170578 -0.0195655 0)
  (0.00921174 -0.0202179 0)
  (0.00282301 -0.0182997 0)
  (-0.000571681 -0.015141 0)
  (-0.000695132 -0.0133769 0)
  (0.00123549 -0.0129744 0)
  (0.00435737 -0.0126403 0)
  (0.00847806 -0.011088 0)
  (0.0136802 -0.00708045 0)
  (0.0210913 0.000596168 0)
  (0.0290139 0.0110942 0)
  (0.0364768 0.0227682 0)
  (0.0454548 0.0354929 0)
  (0.0539542 0.0483793 0)
  (0.0774806 0.0651872 0)
  (0.0912834 0.0694225 0)
  (0.126925 0.0606925 0)
  (0.174673 0.0463934 0)
  (-0.0102102 0.0944934 0)
  (0.949999 0.517302 0)
  (-0.0694823 0.181229 0)
  (0.116754 0.0476914 0)
  (0.165853 0.0316581 0)
  (0.16201 -0.00252198 0)
  (0.19074 -0.0672365 0)
  (0.214137 -0.126555 0)
  (0.212153 -0.171708 0)
  (0.190758 -0.195057 0)
  (0.156944 -0.194765 0)
  (0.116324 -0.173434 0)
  (0.0742615 -0.134678 0)
  (0.0358409 -0.0872268 0)
  (0.00583507 -0.0425835 0)
  (-0.0123449 -0.0114357 0)
  (-0.0186063 0.00330677 0)
  (-0.0165963 0.00986002 0)
  (-0.0115117 0.00992315 0)
  (-0.00829996 0.00393427 0)
  (-0.00902733 -0.00350511 0)
  (-0.0132928 -0.00924809 0)
  (-0.0194247 -0.0123847 0)
  (-0.0256386 -0.0135129 0)
  (-0.0306662 -0.0135575 0)
  (-0.0336816 -0.0134242 0)
  (-0.0347923 -0.0139283 0)
  (-0.0347428 -0.0148874 0)
  (-0.0339985 -0.0156987 0)
  (-0.0325616 -0.0157392 0)
  (-0.0300415 -0.0143623 0)
  (-0.0253848 -0.0107693 0)
  (-0.0155175 -0.00423665 0)
  (-0.00318498 0.0044357 0)
  (0.00979059 0.0131293 0)
  (0.0220996 0.0192668 0)
  (0.0412606 0.0266051 0)
  (0.0575473 0.0223958 0)
  (0.0814145 0.0083087 0)
  (0.149756 0.0578529 0)
  (-0.495959 0.222489 0)
  (1.09887 0.45488 0)
  (0.542041 0.304415 0)
  (0.54375 0.248237 0)
  (0.520293 0.168712 0)
  (0.472263 0.0948029 0)
  (0.428156 0.0173401 0)
  (0.371677 -0.0574883 0)
  (0.310902 -0.113043 0)
  (0.247147 -0.140482 0)
  (0.180687 -0.140988 0)
  (0.113934 -0.121341 0)
  (0.0511925 -0.0861777 0)
  (-0.00111463 -0.0449312 0)
  (-0.0338156 -0.0147965 0)
  (-0.0474975 -0.00113616 0)
  (-0.0514705 0.00464392 0)
  (-0.0503234 0.0068297 0)
  (-0.0476665 0.0062126 0)
  (-0.046323 0.00300085 0)
  (-0.0473723 -0.00105817 0)
  (-0.0506471 -0.00469161 0)
  (-0.0551656 -0.00734531 0)
  (-0.0598318 -0.00917723 0)
  (-0.0640073 -0.0105369 0)
  (-0.0675287 -0.0117193 0)
  (-0.0707398 -0.0128863 0)
  (-0.0741941 -0.0138431 0)
  (-0.0783365 -0.0141986 0)
  (-0.0835195 -0.0134612 0)
  (-0.0901426 -0.0110127 0)
  (-0.0987747 -0.0060309 0)
  (-0.109944 0.00220998 0)
  (-0.121977 0.0135931 0)
  (-0.138158 0.0279439 0)
  (-0.16453 0.0449825 0)
  (-0.203314 0.063139 0)
  (-0.256986 0.0777497 0)
  (-0.317476 0.0855657 0)
  (-0.398567 0.0867363 0)
  (-0.684741 0.0781875 0)
  (0.233545 0.164535 0)
  (0.300475 0.161357 0)
  (0.3109 0.0896701 0)
  (0.28057 0.013828 0)
  (0.25002 -0.041166 0)
  (0.208759 -0.0732362 0)
  (0.157093 -0.0837631 0)
  (0.0971287 -0.0758449 0)
  (0.0333845 -0.0560301 0)
  (-0.0304075 -0.0259497 0)
  (-0.062132 -0.00930576 0)
  (-0.0779611 -0.00215896 0)
  (-0.0830012 -0.000182767 0)
  (-0.0835659 7.81238e-05 0)
  (-0.0822936 -0.00037374 0)
  (-0.0805902 -0.00177193 0)
  (-0.0797922 -0.00438952 0)
  (-0.0804947 -0.00758907 0)
  (-0.0822839 -0.0104875 0)
  (-0.0849097 -0.0127 0)
  (-0.0877901 -0.014499 0)
  (-0.0909171 -0.0159333 0)
  (-0.0944839 -0.017027 0)
  (-0.0987742 -0.0177325 0)
  (-0.104002 -0.0178117 0)
  (-0.110169 -0.0168213 0)
  (-0.116975 -0.0141441 0)
  (-0.123749 -0.00907666 0)
  (-0.129632 -0.000888104 0)
  (-0.133921 0.0100651 0)
  (-0.137241 0.0244956 0)
  (-0.139974 0.0429255 0)
  (-0.143439 0.064688 0)
  (-0.148118 0.0866551 0)
  (-0.149373 0.100751 0)
  (-0.126188 0.0921498 0)
  (-0.0378006 0.0325633 0)
  (-0.213163 -0.19141 0)
  (0.140851 0.380443 0)
  (0.0141317 0.219209 0)
  (0.0409519 0.110915 0)
  (0.0510309 0.0451825 0)
  (0.0542743 0.00975809 0)
  (0.0359357 -0.0121744 0)
  (-0.00434218 -0.00827069 0)
  (-0.0500706 0.0148271 0)
  (-0.085759 0.0304903 0)
  (-0.105799 0.0384158 0)
  (-0.112683 0.0402289 0)
  (-0.113921 0.0406011 0)
  (-0.112895 0.0411746 0)
  (-0.111109 0.0424225 0)
  (-0.109005 0.0444332 0)
  (-0.106836 0.046962 0)
  (-0.105026 0.049596 0)
  (-0.103918 0.0517911 0)
  (-0.103518 0.0526166 0)
  (-0.103656 0.0522434 0)
  (-0.104289 0.0519994 0)
  (-0.105386 0.0519059 0)
  (-0.106895 0.0518289 0)
  (-0.108769 0.0515785 0)
  (-0.110955 0.0509248 0)
  (-0.113372 0.0496143 0)
  (-0.115889 0.0473561 0)
  (-0.118154 0.0436667 0)
  (-0.119234 0.0401437 0)
  (-0.117681 0.0393148 0)
  (-0.111906 0.0426702 0)
  (-0.10064 0.0513985 0)
  (-0.0842462 0.0655485 0)
  (-0.0646039 0.0812658 0)
  (-0.0439592 0.0887715 0)
  (0.0340937 0.0391559 0)
  (0.154073 -0.0725971 0)
  (-0.0531153 -0.0632834 0)
  (-0.507315 -0.571268 0)
  (-0.704317 -0.155184 0)
  (-0.470765 0.21303 0)
  (-0.36627 0.0444479 0)
  (-0.204431 -0.0471992 0)
  (-0.145347 -0.104809 0)
  (-0.131661 -0.123954 0)
  (-0.137076 -0.117214 0)
  (-0.149567 -0.109623 0)
  (-0.153426 -0.104478 0)
  (-0.149473 -0.101373 0)
  (-0.143248 -0.102479 0)
  (-0.136478 -0.107222 0)
  (-0.130717 -0.112353 0)
  (-0.125929 -0.117137 0)
  (-0.121722 -0.12198 0)
  (-0.117865 -0.127625 0)
  (-0.1144 -0.134664 0)
  (-0.11158 -0.142861 0)
  (-0.109686 -0.150901 0)
  (-0.10898 -0.15701 0)
  (-0.109646 -0.160936 0)
  (-0.11147 -0.163327 0)
  (-0.114002 -0.16427 0)
  (-0.116857 -0.163774 0)
  (-0.11969 -0.161705 0)
  (-0.122149 -0.157781 0)
  (-0.123845 -0.151583 0)
  (-0.124363 -0.14253 0)
  (-0.123286 -0.129865 0)
  (-0.119923 -0.114935 0)
  (-0.112419 -0.0982365 0)
  (-0.097907 -0.0800763 0)
  (-0.0739324 -0.0600624 0)
  (-0.0408213 -0.0377656 0)
  (0.00746527 -0.0132637 0)
  (0.0513709 -0.0214493 0)
  (0.116981 -0.0883351 0)
  (0.131653 -0.136063 0)
  (-0.534522 -0.0215221 0)
)
;

boundaryField
{
  floor
  {
    type noSlip;
  }
  ceiling
  {
    type noSlip;
  }
  sWall
  {
    type noSlip;
  }
  nWall
  {
    type noSlip;
  }
  sideWalls
  {
    type empty;
  }
  glass1
  {
    type noSlip;
  }
  glass2
  {
    type noSlip;
  }
  sun
  {
    type noSlip;
  }
  Table_master
  {
    type noSlip;
  }
  Table_slave
  {
    type noSlip;
  }
  inlet
  {
    type fixedValue;
    value uniform (0.353553 -0.353553 0);
  }
  outlet
  {
    type zeroGradient;
  }
} 	// ************************************************************************* //

