// -*- C++ -*-
// File generated by PyFoam - sorry for the ugliness

FoamFile
{
 version 2.0;
 format ascii;
 class volVectorField;
 location "1200";
 object U;
}

dimensions [ 0 1 -1 0 0 0 0 ];

internalField nonuniform List<vector> 458
(
  (0.0961008 0.0690194 0)
  (-0.139218 0.00346582 0)
  (-0.124495 0.00714994 0)
  (-0.141028 0.0075538 0)
  (-0.156783 0.00620564 0)
  (-0.170723 0.00411434 0)
  (-0.181889 0.00148066 0)
  (-0.189499 -0.00170457 0)
  (-0.192761 -0.00552643 0)
  (-0.190704 -0.0101365 0)
  (-0.181636 -0.0159628 0)
  (-0.162942 -0.0234688 0)
  (-0.133448 -0.0341859 0)
  (-0.102966 -0.0513355 0)
  (-0.105031 -0.0752023 0)
  (0.0397319 0.0067045 0)
  (-0.0198849 -0.0101702 0)
  (-0.00480893 -0.0125491 0)
  (0.00687113 -0.0041296 0)
  (0.00699862 0.0113048 0)
  (-0.013291 0.00572721 0)
  (-0.020158 -0.00203289 0)
  (-0.0223915 -0.00459851 0)
  (-0.0203131 -0.00493782 0)
  (-0.0174317 -0.00528165 0)
  (-0.0134445 -0.00604164 0)
  (-0.00798582 -0.00756173 0)
  (0.000827658 -0.0103216 0)
  (0.0100931 -0.013098 0)
  (0.0205058 -0.0111912 0)
  (0.0279398 -0.0129878 0)
  (0.0403986 -0.00659943 0)
  (-0.0209114 0.0176772 0)
  (0.299279 0.150762 0)
  (-0.162728 0.0223765 0)
  (-0.114429 0.0255773 0)
  (-0.137079 0.0258052 0)
  (-0.154401 0.0238288 0)
  (-0.169468 0.0205783 0)
  (-0.181763 0.016227 0)
  (-0.190751 0.0106946 0)
  (-0.195757 0.0038175 0)
  (-0.195914 -0.00461206 0)
  (-0.190471 -0.0144872 0)
  (-0.178581 -0.0257564 0)
  (-0.161203 -0.039344 0)
  (-0.143854 -0.0567153 0)
  (-0.129703 -0.0709143 0)
  (-0.0962108 -0.0532443 0)
  (-0.0424209 -0.0537793 0)
  (-0.0345873 0.0685404 0)
  (0.109824 0.00378711 0)
  (0.0316358 -0.000527782 0)
  (0.00967438 -0.00518562 0)
  (0.0123673 -0.00403817 0)
  (0.0262248 0.0111254 0)
  (0.0284585 0.0166518 0)
  (0.0232883 0.0113108 0)
  (0.0191545 0.00484688 0)
  (0.0148291 8.73798e-05 0)
  (0.0115723 -0.00293559 0)
  (0.00995918 -0.00506734 0)
  (0.00948189 -0.00733012 0)
  (0.0112442 -0.0108115 0)
  (0.00781722 -0.0141778 0)
  (0.0183233 -0.0121562 0)
  (0.0204098 -0.0160422 0)
  (0.0368756 -0.00616924 0)
  (-0.0726671 0.0410932 0)
  (0.470748 0.231103 0)
  (-0.208567 0.0516856 0)
  (-0.0945163 0.0476938 0)
  (-0.124175 0.0432863 0)
  (-0.141101 0.0386145 0)
  (-0.156033 0.0325183 0)
  (-0.168575 0.024762 0)
  (-0.178334 0.0151871 0)
  (-0.18471 0.00371537 0)
  (-0.186869 -0.00953596 0)
  (-0.18421 -0.0244343 0)
  (-0.177178 -0.0406421 0)
  (-0.167424 -0.0577664 0)
  (-0.1579 -0.0746525 0)
  (-0.14756 -0.085969 0)
  (-0.1307 -0.08604 0)
  (-0.120068 -0.0916926 0)
  (-0.148254 -0.0876379 0)
  (0.0407811 0.01206 0)
  (-0.0451553 0.00319609 0)
  (-0.0404172 -0.00515292 0)
  (-0.0322591 -0.0163664 0)
  (-0.0263079 -0.0224606 0)
  (0.0329709 0.00985359 0)
  (0.0368052 0.00834913 0)
  (0.0398282 0.00488644 0)
  (0.0423558 0.00221839 0)
  (0.0425744 7.98956e-05 0)
  (0.0402308 -0.00197881 0)
  (0.0356777 -0.00432556 0)
  (0.0283892 -0.00758928 0)
  (0.00732717 -0.00836586 0)
  (0.0230079 0.00104953 0)
  (-0.00141766 0.0115757 0)
  (-0.0499931 0.0221537 0)
  (-0.157692 0.0323014 0)
  (0.610909 0.298462 0)
  (-0.257048 0.0857949 0)
  (-0.0678663 0.0696129 0)
  (-0.105074 0.0604704 0)
  (-0.119813 0.0539753 0)
  (-0.132992 0.0462111 0)
  (-0.144517 0.0364568 0)
  (-0.154 0.0243419 0)
  (-0.160857 0.00966183 0)
  (-0.164207 -0.00745999 0)
  (-0.163125 -0.0263279 0)
  (-0.159082 -0.0456984 0)
  (-0.153862 -0.0639802 0)
  (-0.149559 -0.0790496 0)
  (-0.14611 -0.0877938 0)
  (-0.143437 -0.0894017 0)
  (-0.148705 -0.0851858 0)
  (-0.165641 -0.0585389 0)
  (-0.157448 0.00940973 0)
  (-0.111834 0.00760015 0)
  (-0.101565 -0.00204982 0)
  (-0.0880916 -0.0132802 0)
  (-0.0856768 -0.0224538 0)
  (-0.0900318 -0.0259492 0)
  (-0.0863797 -0.0156699 0)
  (-0.069637 -0.0146751 0)
  (-0.0523805 -0.0169082 0)
  (-0.0326647 -0.0208294 0)
  (-0.00972034 -0.0261291 0)
  (0.0259659 -0.0305052 0)
  (0.0559538 -0.0285907 0)
  (0.0853545 -0.0241796 0)
  (0.109488 -0.0169247 0)
  (0.119382 -0.0028083 0)
  (0.107518 0.0204943 0)
  (0.0846504 0.0365627 0)
  (-0.00772 0.0459263 0)
  (0.722079 0.354175 0)
  (-0.299567 0.120947 0)
  (-0.0391422 0.0863559 0)
  (-0.081026 0.0741518 0)
  (-0.0927101 0.0663427 0)
  (-0.102596 0.0573427 0)
  (-0.111481 0.0460726 0)
  (-0.119027 0.0319263 0)
  (-0.124778 0.0145503 0)
  (-0.127724 -0.00589479 0)
  (-0.126424 -0.0280087 0)
  (-0.123254 -0.0493346 0)
  (-0.119951 -0.0675726 0)
  (-0.118098 -0.0809701 0)
  (-0.118041 -0.0884148 0)
  (-0.120144 -0.090576 0)
  (-0.1256 -0.0877023 0)
  (-0.130523 -0.0736831 0)
  (-0.126458 -0.042985 0)
  (-0.112243 -0.0219188 0)
  (-0.0963707 -0.016192 0)
  (-0.084939 -0.0194383 0)
  (-0.0796907 -0.0237138 0)
  (-0.0769377 -0.025165 0)
  (-0.0711596 -0.0215321 0)
  (-0.0607355 -0.0222393 0)
  (-0.0475297 -0.0260865 0)
  (-0.0314316 -0.0327363 0)
  (-0.0125994 -0.0414324 0)
  (0.0134872 -0.0486051 0)
  (0.0386307 -0.0475121 0)
  (0.0640915 -0.0413568 0)
  (0.0878431 -0.0269597 0)
  (0.107558 -0.00178112 0)
  (0.118199 0.0290898 0)
  (0.123125 0.0533365 0)
  (0.103239 0.0693989 0)
  (0.124843 0.107605 0)
  (0.109855 0.152005 0)
  (-0.385764 0.0743525 0)
  (0.793567 0.403836 0)
  (-0.333461 0.151718 0)
  (-0.0174172 0.0909912 0)
  (-0.0504853 0.0839489 0)
  (-0.0597545 0.0756642 0)
  (-0.0661904 0.0650905 0)
  (-0.0712765 0.0525335 0)
  (-0.0751814 0.0370946 0)
  (-0.0779534 0.0179258 0)
  (-0.0781953 -0.00519403 0)
  (-0.074934 -0.0300777 0)
  (-0.0716949 -0.0523327 0)
  (-0.0698105 -0.0694817 0)
  (-0.0701422 -0.0806389 0)
  (-0.0727613 -0.0857928 0)
  (-0.0775493 -0.0855248 0)
  (-0.0839099 -0.0794729 0)
  (-0.0884302 -0.0658854 0)
  (-0.087086 -0.0475212 0)
  (-0.0801732 -0.03326 0)
  (-0.0716808 -0.0269286 0)
  (-0.06538 -0.0263634 0)
  (-0.0621246 -0.027787 0)
  (-0.0600273 -0.0287522 0)
  (-0.0565475 -0.0290667 0)
  (-0.0507057 -0.0319875 0)
  (-0.0426807 -0.0381005 0)
  (-0.0323014 -0.0474573 0)
  (-0.0194395 -0.0592602 0)
  (-0.00344837 -0.0694221 0)
  (0.0149106 -0.0711298 0)
  (0.0336897 -0.0665804 0)
  (0.0542846 -0.0520972 0)
  (0.0764236 -0.0231828 0)
  (0.100383 0.0168632 0)
  (0.115615 0.0487311 0)
  (0.118734 0.0623996 0)
  (0.122201 0.0657828 0)
  (0.13409 0.0956588 0)
  (-0.0644326 0.0530263 0)
  (0.814696 0.449111 0)
  (-0.347067 0.150122 0)
  (0.000694113 0.0558515 0)
  (0.00162982 0.0863358 0)
  (-0.0101345 0.0892473 0)
  (-0.0182762 0.0720993 0)
  (-0.0209681 0.0551632 0)
  (-0.0209155 0.038107 0)
  (-0.0196648 0.0174462 0)
  (-0.013777 -0.00825825 0)
  (-0.00775461 -0.0345904 0)
  (-0.00539327 -0.0555331 0)
  (-0.00631515 -0.0699814 0)
  (-0.010177 -0.0783002 0)
  (-0.0164414 -0.0812573 0)
  (-0.0244273 -0.0796272 0)
  (-0.0329903 -0.0734005 0)
  (-0.0397498 -0.0622851 0)
  (-0.0424869 -0.0489202 0)
  (-0.0415347 -0.0377608 0)
  (-0.0392791 -0.0312684 0)
  (-0.037881 -0.0288542 0)
  (-0.0379475 -0.028698 0)
  (-0.0386697 -0.0295066 0)
  (-0.0389097 -0.0314562 0)
  (-0.0382007 -0.0359745 0)
  (-0.0365503 -0.0438818 0)
  (-0.0337877 -0.0555951 0)
  (-0.0290439 -0.0702302 0)
  (-0.0218573 -0.0826515 0)
  (-0.0145524 -0.0858085 0)
  (-0.00709164 -0.084523 0)
  (0.00381487 -0.0745983 0)
  (0.0195522 -0.0499949 0)
  (0.0459251 -0.008603 0)
  (0.0723497 0.0309328 0)
  (0.0852193 0.0499475 0)
  (0.0972027 0.0572738 0)
  (0.140086 0.0883465 0)
  (-0.0617082 0.142491 0)
  (0.914627 0.468604 0)
  (-0.130391 0.132781 0)
  (0.078457 -0.0189946 0)
  (0.124642 0.0295539 0)
  (0.0980283 0.0637827 0)
  (0.073076 0.0568599 0)
  (0.0639161 0.0392533 0)
  (0.0627227 0.0218018 0)
  (0.0643812 0.00102743 0)
  (0.0724466 -0.0211691 0)
  (0.0760933 -0.040426 0)
  (0.0737075 -0.0553792 0)
  (0.0670915 -0.0655087 0)
  (0.057619 -0.0709611 0)
  (0.0463228 -0.0722176 0)
  (0.0341029 -0.0698801 0)
  (0.0219513 -0.0643418 0)
  (0.0113455 -0.0558558 0)
  (0.00379939 -0.0458315 0)
  (-0.000632158 -0.0368043 0)
  (-0.00340302 -0.0306746 0)
  (-0.00614232 -0.0275333 0)
  (-0.00951592 -0.0265774 0)
  (-0.0133553 -0.0271472 0)
  (-0.0173316 -0.0293483 0)
  (-0.0215872 -0.0340531 0)
  (-0.0266443 -0.0422829 0)
  (-0.0327065 -0.0550327 0)
  (-0.0372539 -0.0714427 0)
  (-0.0392426 -0.0843607 0)
  (-0.0454736 -0.0852889 0)
  (-0.0548466 -0.0847411 0)
  (-0.0629139 -0.0803892 0)
  (-0.0654743 -0.0681493 0)
  (-0.0558349 -0.046945 0)
  (-0.0193976 -0.0186715 0)
  (-0.00429375 0.00568963 0)
  (0.0183309 0.0138397 0)
  (0.119411 0.0918911 0)
  (-0.477551 0.25646 0)
  (1.05069 0.432686 0)
  (0.497611 0.283498 0)
  (0.501947 0.20344 0)
  (0.483375 0.183383 0)
  (0.392588 0.164848 0)
  (0.311715 0.130646 0)
  (0.263637 0.0924517 0)
  (0.235428 0.0576068 0)
  (0.217789 0.0269109 0)
  (0.200613 -0.000573292 0)
  (0.181604 -0.0233201 0)
  (0.162595 -0.0399956 0)
  (0.143708 -0.0507149 0)
  (0.125015 -0.0562981 0)
  (0.106789 -0.0577233 0)
  (0.0894346 -0.0559014 0)
  (0.0734375 -0.0516119 0)
  (0.0594262 -0.0455851 0)
  (0.0480315 -0.0387891 0)
  (0.0393079 -0.0324543 0)
  (0.0324603 -0.0275498 0)
  (0.0263797 -0.0244568 0)
  (0.02033 -0.0230999 0)
  (0.0140515 -0.0232122 0)
  (0.00746913 -0.024655 0)
  (-0.000208525 -0.027914 0)
  (-0.0105052 -0.0342792 0)
  (-0.0248206 -0.0456731 0)
  (-0.0371532 -0.0618274 0)
  (-0.0453696 -0.0727239 0)
  (-0.0667644 -0.0648224 0)
  (-0.0996852 -0.0582423 0)
  (-0.139324 -0.0478521 0)
  (-0.183043 -0.0275274 0)
  (-0.227826 0.00385215 0)
  (-0.267795 0.0415298 0)
  (-0.300015 0.075785 0)
  (-0.338446 0.104134 0)
  (-0.397351 0.123083 0)
  (-0.687368 0.124779 0)
  (-0.522754 0.0276452 0)
  (0.178471 0.15565 0)
  (0.244628 0.163485 0)
  (0.235094 0.140335 0)
  (0.235744 0.105853 0)
  (0.238096 0.0696967 0)
  (0.236654 0.0377847 0)
  (0.230906 0.0122665 0)
  (0.219866 -0.00742679 0)
  (0.204328 -0.0215754 0)
  (0.186057 -0.0308839 0)
  (0.166471 -0.0360876 0)
  (0.146771 -0.0379415 0)
  (0.127909 -0.0371845 0)
  (0.110589 -0.0345257 0)
  (0.095314 -0.0306767 0)
  (0.0823631 -0.0264089 0)
  (0.0716593 -0.0224907 0)
  (0.0626918 -0.0194623 0)
  (0.0547307 -0.0174823 0)
  (0.0471801 -0.0164131 0)
  (0.0397522 -0.0160134 0)
  (0.0323356 -0.0160825 0)
  (0.0242726 -0.0165905 0)
  (0.0135102 -0.0181536 0)
  (-0.00472313 -0.0242521 0)
  (-0.0186765 -0.0391672 0)
  (-0.0229774 -0.0536559 0)
  (-0.0418565 -0.0322725 0)
  (-0.0687541 -0.0241326 0)
  (-0.0977035 -0.0178767 0)
  (-0.122962 -0.00561615 0)
  (-0.145173 0.014178 0)
  (-0.1662 0.0401044 0)
  (-0.176142 0.0631966 0)
  (-0.165232 0.0566434 0)
  (-0.136714 -0.0273097 0)
  (-0.279236 -0.232042 0)
  (-0.24748 0.20439 0)
  (0.109456 0.142009 0)
  (0.0875984 0.118561 0)
  (0.116398 0.111187 0)
  (0.152701 0.0884106 0)
  (0.181402 0.0603453 0)
  (0.198999 0.0367701 0)
  (0.205995 0.0200965 0)
  (0.204583 0.00953036 0)
  (0.197049 0.00240194 0)
  (0.185334 -0.00218195 0)
  (0.171078 -0.00453918 0)
  (0.155592 -0.00488032 0)
  (0.139954 -0.00338819 0)
  (0.125012 -0.000239801 0)
  (0.111389 0.00436111 0)
  (0.0994714 0.0101048 0)
  (0.0893878 0.0164839 0)
  (0.0809972 0.022755 0)
  (0.07394 0.0280046 0)
  (0.0677378 0.0313588 0)
  (0.0619169 0.0323352 0)
  (0.0560932 0.0313726 0)
  (0.0497457 0.0304229 0)
  (0.0414841 0.0313539 0)
  (0.0287651 0.0273304 0)
  (0.0174548 -0.00464477 0)
  (0.00374151 -0.0519459 0)
  (-0.0176683 0.00282644 0)
  (-0.0239058 0.0263453 0)
  (-0.0327414 0.0256842 0)
  (-0.0406095 0.0275468 0)
  (-0.0455366 0.0371798 0)
  (-0.0424528 0.0542812 0)
  (-0.0313574 0.0749673 0)
  (-0.00647831 0.081198 0)
  (0.138877 0.0114595 0)
  (-0.198778 -0.14591 0)
  (-0.0647587 -0.312739 0)
  (-0.383767 -0.0933416 0)
  (-0.309607 0.114724 0)
  (-0.142636 0.0353057 0)
  (-0.0947774 0.0355745 0)
  (-0.00737559 0.0480323 0)
  (0.0686947 0.0303505 0)
  (0.119472 0.00970745 0)
  (0.154497 -0.00794791 0)
  (0.173665 -0.0223469 0)
  (0.180307 -0.0345521 0)
  (0.178707 -0.0443878 0)
  (0.171642 -0.0525284 0)
  (0.161173 -0.0597286 0)
  (0.148912 -0.0665593 0)
  (0.136143 -0.0734964 0)
  (0.123871 -0.0809284 0)
  (0.112831 -0.0891065 0)
  (0.103468 -0.0980535 0)
  (0.0959253 -0.107459 0)
  (0.0900502 -0.116639 0)
  (0.0854601 -0.124694 0)
  (0.0816214 -0.130884 0)
  (0.0779194 -0.134995 0)
  (0.0737991 -0.13735 0)
  (0.0691901 -0.138415 0)
  (0.0650425 -0.138917 0)
  (0.0619805 -0.141667 0)
  (0.0560484 -0.151677 0)
  (0.0190581 -0.167217 0)
  (-0.0344276 -0.151331 0)
  (-0.026383 -0.131908 0)
  (-0.0201517 -0.113217 0)
  (-0.0101253 -0.0777901 0)
  (0.0147497 -0.0395345 0)
  (0.0485016 -0.018368 0)
  (0.0861492 -0.00520894 0)
  (0.126579 -0.0159736 0)
  (0.177878 -0.0565308 0)
  (-0.159743 -0.126406 0)
)
;

boundaryField
{
  floor
  {
    type noSlip;
  }
  ceiling
  {
    type noSlip;
  }
  sWall
  {
    type noSlip;
  }
  nWall
  {
    type noSlip;
  }
  sideWalls
  {
    type empty;
  }
  glass1
  {
    type noSlip;
  }
  glass2
  {
    type noSlip;
  }
  sun
  {
    type noSlip;
  }
  Table_master
  {
    type noSlip;
  }
  Table_slave
  {
    type noSlip;
  }
  inlet
  {
    type fixedValue;
    value uniform (0.212132 -0.212132 0);
  }
  outlet
  {
    type zeroGradient;
  }
} 	// ************************************************************************* //

