// -*- C++ -*-
// File generated by PyFoam - sorry for the ugliness

FoamFile
{
 version 2.0;
 format ascii;
 class volScalarField;
 location "2700";
 object T;
}

dimensions [ 0 0 0 1 0 0 0 ];

internalField nonuniform List<scalar> 458
(
  304.11
  303.853
  303.842
  303.84
  303.838
  303.836
  303.833
  303.83
  303.826
  303.819
  303.811
  303.801
  303.79
  303.781
  303.775
  303.796
  303.781
  303.778
  303.779
  303.779
  303.779
  303.779
  303.78
  303.78
  303.78
  303.78
  303.779
  303.779
  303.779
  303.778
  303.778
  303.777
  303.784
  304.289
  303.893
  303.87
  303.874
  303.878
  303.881
  303.881
  303.88
  303.876
  303.866
  303.849
  303.827
  303.804
  303.782
  303.767
  303.762
  303.763
  303.771
  303.785
  303.775
  303.774
  303.774
  303.774
  303.773
  303.771
  303.769
  303.767
  303.764
  303.762
  303.76
  303.758
  303.757
  303.756
  303.756
  303.757
  303.772
  304.471
  303.939
  303.9
  303.909
  303.922
  303.933
  303.941
  303.945
  303.944
  303.931
  303.904
  303.867
  303.827
  303.792
  303.769
  303.756
  303.753
  303.757
  303.768
  303.77
  303.774
  303.778
  303.78
  303.778
  303.775
  303.772
  303.769
  303.766
  303.763
  303.76
  303.756
  303.754
  303.752
  303.751
  303.751
  303.766
  304.651
  303.998
  303.929
  303.94
  303.962
  303.985
  304.006
  304.02
  304.024
  304.007
  303.967
  303.912
  303.853
  303.802
  303.77
  303.753
  303.749
  303.751
  303.757
  303.763
  303.772
  303.781
  303.788
  303.793
  303.796
  303.798
  303.799
  303.8
  303.801
  303.8
  303.799
  303.797
  303.795
  303.779
  303.764
  303.754
  303.763
  304.822
  304.074
  303.964
  303.966
  303.993
  304.025
  304.059
  304.089
  304.101
  304.081
  304.025
  303.949
  303.871
  303.807
  303.767
  303.749
  303.746
  303.751
  303.76
  303.771
  303.783
  303.795
  303.804
  303.81
  303.814
  303.817
  303.819
  303.819
  303.819
  303.817
  303.814
  303.81
  303.804
  303.793
  303.777
  303.761
  303.761
  303.806
  303.858
  303.863
  304.972
  304.172
  304.033
  304.006
  304.023
  304.054
  304.093
  304.138
  304.161
  304.131
  304.058
  303.965
  303.874
  303.802
  303.758
  303.741
  303.742
  303.753
  303.768
  303.784
  303.8
  303.813
  303.822
  303.829
  303.833
  303.835
  303.836
  303.836
  303.834
  303.831
  303.826
  303.82
  303.812
  303.801
  303.786
  303.77
  303.764
  303.783
  303.8
  303.83
  305.105
  304.331
  304.197
  304.14
  304.122
  304.128
  304.152
  304.19
  304.196
  304.147
  304.056
  303.948
  303.849
  303.776
  303.737
  303.727
  303.738
  303.759
  303.782
  303.803
  303.82
  303.833
  303.842
  303.847
  303.85
  303.851
  303.851
  303.85
  303.847
  303.843
  303.837
  303.828
  303.819
  303.808
  303.795
  303.781
  303.771
  303.776
  303.784
  303.806
  305.308
  304.731
  304.586
  304.469
  304.379
  304.326
  304.303
  304.283
  304.225
  304.123
  303.996
  303.874
  303.778
  303.721
  303.702
  303.712
  303.739
  303.773
  303.803
  303.827
  303.842
  303.852
  303.859
  303.862
  303.864
  303.865
  303.864
  303.863
  303.86
  303.856
  303.85
  303.842
  303.831
  303.821
  303.812
  303.802
  303.797
  303.801
  303.814
  303.93
  305.595
  305.332
  305.037
  304.796
  304.617
  304.484
  304.382
  304.285
  304.128
  303.956
  303.807
  303.703
  303.65
  303.642
  303.665
  303.709
  303.756
  303.801
  303.83
  303.848
  303.86
  303.867
  303.872
  303.875
  303.877
  303.878
  303.878
  303.877
  303.875
  303.874
  303.872
  303.873
  303.876
  303.882
  303.894
  303.913
  303.939
  303.967
  303.989
  304.04
  296.035
  300.224
  301.937
  302.614
  302.918
  303.039
  303.145
  303.237
  303.323
  303.41
  303.499
  303.587
  303.668
  303.745
  303.797
  303.831
  303.851
  303.864
  303.872
  303.878
  303.882
  303.886
  303.889
  303.891
  303.893
  303.895
  303.897
  303.899
  303.901
  303.904
  303.909
  303.916
  303.927
  303.942
  303.961
  303.981
  303.996
  304.01
  297.097
  300.286
  301.548
  302.271
  302.644
  302.852
  303.012
  303.167
  303.31
  303.442
  303.567
  303.671
  303.744
  303.796
  303.829
  303.849
  303.862
  303.871
  303.877
  303.882
  303.887
  303.892
  303.896
  303.9
  303.904
  303.907
  303.911
  303.913
  303.916
  303.919
  303.923
  303.929
  303.937
  303.947
  303.96
  303.973
  303.969
  303.993
  300.136
  300.038
  300.032
  301.874
  302.42
  302.741
  302.986
  303.194
  303.375
  303.502
  303.6
  303.677
  303.735
  303.777
  303.804
  303.824
  303.837
  303.846
  303.852
  303.857
  303.862
  303.867
  303.872
  303.877
  303.881
  303.886
  303.891
  303.895
  303.9
  303.905
  303.909
  303.914
  303.919
  303.924
  303.93
  303.938
  303.947
  303.951
  303.949
  303.986
)
;

boundaryField
{
  floor
  {
    type wallHeatTransfer;
    Tinf uniform 305.2;
    alphaWall uniform 0.24;
    value nonuniform List<scalar> 36
(
  303.918
  304.089
  304.037
  304.026
  304.03
  304.037
  304.047
  304.058
  304.069
  304.079
  304.089
  304.099
  304.108
  304.117
  304.125
  304.134
  304.144
  304.152
  304.178
  304.178
  304.113
  304.079
  304.056
  304.04
  304.065
  304.057
  303.918
  303.903
  303.926
  303.959
  304.089
  303.959
  304.021
  303.908
  303.941
  303.899
)
;
  }
  ceiling
  {
    type wallHeatTransfer;
    Tinf uniform 303.2;
    alphaWall uniform 0.24;
    value nonuniform List<scalar> 43
(
  300.356
  300.25
  300.236
  301.955
  302.469
  302.771
  303
  303.195
  303.36
  303.476
  303.565
  303.633
  303.684
  303.719
  303.741
  303.754
  303.762
  303.767
  303.77
  303.774
  303.778
  303.781
  303.785
  303.788
  303.791
  303.794
  303.797
  303.801
  303.805
  303.81
  303.816
  303.823
  303.83
  303.838
  303.846
  303.857
  303.867
  303.869
  303.864
  303.894
  305.483
  305.245
  297.466
)
;
  }
  sWall
  {
    type wallHeatTransfer;
    Tinf uniform 315.2;
    alphaWall uniform 0.36;
    value uniform 301.707;
  }
  nWall
  {
    type wallHeatTransfer;
    Tinf uniform 307.2;
    alphaWall uniform 0.36;
    value nonuniform List<scalar> 6
(
  304.54
  304.503
  304.429
  304.482
  304.458
  304.525
)
;
  }
  sideWalls
  {
    type empty;
  }
  glass1
  {
    type wallHeatTransfer;
    Tinf uniform 315.2;
    alphaWall uniform 4.3;
    value nonuniform List<scalar> 9
(
  311.993
  311.335
  310.91
  310.576
  310.298
  310.05
  309.859
  309.92
  310.13
)
;
  }
  glass2
  {
    type wallHeatTransfer;
    Tinf uniform 307.2;
    alphaWall uniform 4.3;
    value nonuniform List<scalar> 2
(
  306.037
  306.096
)
;
  }
  sun
  {
    type wallHeatTransfer;
    Tinf uniform 305.2;
    alphaWall uniform 0.24;
    value nonuniform List<scalar> 14
(
  304.239
  304.004
  303.994
  303.987
  303.981
  303.975
  303.97
  303.964
  303.958
  303.95
  303.941
  303.932
  303.925
  303.919
)
;
  }
  Table_master
  {
    type zeroGradient;
  }
  Table_slave
  {
    type zeroGradient;
  }
  inlet
  {
    type fixedValue;
    value uniform 292.15;
  }
  outlet
  {
    type zeroGradient;
  }
} 	// ************************************************************************* //

