/*--------------------------------*- C++ -*----------------------------------*\
  =========                 |
  \\      /  F ield         | OpenFOAM: The Open Source CFD Toolbox
   \\    /   O peration     | Website:  https://openfoam.org
    \\  /    A nd           | Version:  6
     \\/     M anipulation  |
\*---------------------------------------------------------------------------*/
FoamFile
{
    version     2.0;
    format      ascii;
    class       volScalarField;
    location    "2900";
    object      nut;
}
// * * * * * * * * * * * * * * * * * * * * * * * * * * * * * * * * * * * * * //

dimensions      [0 2 -1 0 0 0 0];

internalField   nonuniform List<scalar> 
458
(
0.00113132
0.00124131
0.00126706
0.00133019
0.00138986
0.00144718
0.00150563
0.00155348
0.00158193
0.00158592
0.00156226
0.0015089
0.001423
0.00129628
0.00109346
0.000507946
0.000617878
0.000716248
0.000742328
0.000732364
0.000689346
0.000640912
0.000596812
0.000558102
0.00052415
0.000494266
0.000467949
0.000444433
0.000422808
0.000402015
0.000380488
0.000360428
0.000324548
0.0015324
0.00390528
0.00380599
0.00444688
0.00508116
0.00568788
0.00615994
0.00655269
0.00688391
0.00712652
0.00725698
0.00725489
0.00709373
0.00669776
0.00553581
0.00130976
0.00106245
0.000835054
0.000518998
0.0013149
0.00199156
0.00249245
0.00261089
0.00188439
0.00158841
0.00139096
0.00124527
0.00113311
0.00104373
0.000965704
0.000891396
0.000815598
0.000745949
0.000687364
0.000760193
0.000391772
0.00186255
0.00533922
0.00477115
0.00589533
0.00646868
0.00689861
0.00722416
0.00752516
0.00783097
0.00811862
0.00835512
0.00850387
0.00852072
0.00833111
0.00775294
0.00629914
0.0048335
0.00109991
0.000922218
0.00164848
0.00244683
0.00314807
0.00322666
0.000942593
0.000820647
0.000721535
0.000642316
0.000578861
0.000527632
0.000486146
0.000452853
0.000427549
0.000477646
0.000561687
0.000858254
0.000439947
0.00217631
0.00675395
0.00486874
0.00623424
0.00668532
0.00688057
0.00704014
0.0072622
0.00754897
0.00787247
0.00819206
0.00845476
0.00859651
0.00856821
0.00836255
0.00787082
0.00682101
0.00398308
0.00134261
0.00185867
0.00273965
0.00369283
0.00440615
0.00424885
0.00105086
0.000951394
0.000883711
0.000834241
0.000793841
0.000755501
0.000718843
0.000680895
0.000637246
0.000599525
0.000595814
0.000939255
0.000492229
0.00249497
0.0085457
0.00543495
0.00615195
0.00665933
0.0067268
0.0067754
0.00695422
0.00722501
0.00757083
0.0079381
0.00824718
0.00842157
0.00843357
0.00831104
0.00808054
0.00765817
0.00668924
0.00597192
0.00592196
0.00614182
0.00637926
0.00646408
0.00619174
0.00503043
0.00447223
0.00416653
0.00395744
0.00376605
0.00354201
0.00318116
0.00270938
0.00216397
0.00162955
0.0012192
0.00108525
0.00080383
0.000593653
0.000621389
0.0006292
0.00283171
0.0105081
0.00744599
0.0065001
0.00683463
0.00682415
0.00683199
0.00691068
0.00711362
0.00745286
0.00785589
0.00820313
0.00838592
0.00836377
0.00819068
0.00798563
0.00785563
0.00781509
0.00789821
0.00804084
0.00809051
0.00797844
0.00769706
0.0072441
0.00661413
0.00609877
0.00570277
0.00537039
0.00506231
0.0047529
0.0043963
0.00393074
0.00335006
0.00269121
0.00208092
0.00158423
0.00119822
0.00118576
0.00163734
0.000838884
0.00312568
0.0118288
0.0101735
0.00840134
0.00790044
0.0074405
0.00710418
0.00700927
0.00717901
0.00756032
0.00802324
0.00840225
0.00856552
0.00847574
0.00822926
0.00803714
0.00811976
0.00848758
0.00887255
0.00903
0.00889955
0.00852641
0.00798482
0.00734364
0.00667952
0.00610912
0.00564956
0.00526795
0.00493765
0.00464829
0.00439863
0.00417526
0.00381232
0.00330908
0.00276861
0.00225898
0.0018437
0.00169935
0.00198207
0.0010484
0.00317238
0.0101931
0.00936035
0.00849075
0.0077431
0.00714413
0.00686127
0.00694692
0.0073504
0.00793553
0.00850689
0.00887454
0.00893283
0.00870289
0.00838133
0.00828537
0.00860001
0.00905083
0.0092618
0.00913185
0.00870736
0.00806403
0.00729169
0.00648931
0.00576611
0.00519629
0.00476796
0.00444036
0.00418932
0.00400831
0.00390001
0.00386925
0.0038772
0.00361393
0.00333748
0.00314316
0.00311189
0.00311432
0.00365802
0.00141244
0.00308055
0.00361162
0.00392105
0.00407484
0.0044239
0.00506268
0.00595624
0.00701567
0.00808573
0.00897238
0.00949503
0.00956183
0.00924029
0.00873309
0.00851525
0.00860206
0.00877025
0.00880431
0.00860944
0.00816485
0.00749042
0.00666787
0.0058061
0.00502672
0.00441374
0.00397278
0.00365707
0.00342243
0.0032424
0.00309996
0.00297931
0.00286327
0.00274441
0.00264168
0.00255085
0.00247935
0.0023922
0.00226081
0.00212206
0.00137077
0.00136567
0.00476882
0.00777628
0.00956226
0.0106523
0.011215
0.0113039
0.0110112
0.0104413
0.00966752
0.00883134
0.00820078
0.00795873
0.00787017
0.00768356
0.00733255
0.00681687
0.00616196
0.0054327
0.0047
0.00405619
0.00355934
0.00320022
0.00294116
0.00274885
0.0026029
0.00249259
0.00241219
0.00235863
0.00233249
0.00233075
0.00232911
0.00231598
0.00227094
0.00215926
0.00196056
0.00170623
0.00111756
0.00209328
0.00796351
0.00988582
0.0104099
0.0104867
0.0102059
0.00962795
0.00888169
0.0080906
0.00734985
0.00672996
0.006286
0.00596541
0.00564551
0.00528554
0.004887
0.00445611
0.00402092
0.00362499
0.00329798
0.00303908
0.00282802
0.00264809
0.00249498
0.00237447
0.002285
0.0022252
0.00219283
0.00218315
0.00220054
0.0022413
0.00229539
0.00234484
0.0023599
0.00232224
0.00224449
0.00216992
0.0011369
0.00179548
0.00194224
0.0020479
0.00222348
0.00216964
0.00213207
0.00206877
0.00196006
0.00181344
0.00164058
0.00145769
0.00128851
0.00115247
0.00105328
0.000983419
0.00093248
0.000891994
0.000856421
0.00082323
0.00079258
0.00076586
0.000744285
0.000728376
0.000718539
0.000715855
0.000720565
0.000731473
0.000748762
0.000772688
0.000803741
0.000843014
0.000889125
0.000940852
0.00099822
0.00106076
0.00112609
0.00118197
0.00115923
0.00106839
0.000985898
)
;

boundaryField
{
    floor
    {
        type            nutkWallFunction;
        Cmu             0.09;
        kappa           0.41;
        E               9.8;
        value           nonuniform List<scalar> 
36
(
0.000131651
6.07246e-05
7.45762e-05
8.67178e-05
8.99031e-05
8.86883e-05
8.34194e-05
7.74398e-05
7.19476e-05
6.70859e-05
6.27878e-05
5.89762e-05
5.55959e-05
5.2555e-05
4.97409e-05
4.70179e-05
4.41797e-05
4.15162e-05
3.67033e-05
3.67032e-05
4.56682e-05
5.19703e-05
5.87124e-05
7.15486e-05
7.50104e-05
7.59815e-05
0.000131651
0.000156597
0.000128051
0.000101122
6.07245e-05
0.000101122
6.21312e-05
0.000132418
0.000111526
0.000160338
)
;
    }
    ceiling
    {
        type            nutkWallFunction;
        Cmu             0.09;
        kappa           0.41;
        E               9.8;
        value           nonuniform List<scalar> 
43
(
0.000210909
0.000227
0.000238505
0.00025759
0.000251813
0.000247765
0.000240912
0.000229081
0.000213006
0.000193869
0.00017338
0.000154171
0.000138522
0.000126981
0.000118777
0.000112754
0.00010794
0.000103688
9.97021e-05
9.60044e-05
9.27671e-05
9.01432e-05
8.82024e-05
8.69994e-05
8.66701e-05
8.72457e-05
8.85777e-05
9.06845e-05
9.35909e-05
9.73476e-05
0.000102075
0.000107592
0.000113742
0.000120517
0.000127853
0.000135464
0.000141933
0.000139304
0.000128744
0.000119066
0.000348527
0.000403394
0.000243219
)
;
    }
    sWall
    {
        type            nutkWallFunction;
        Cmu             0.09;
        kappa           0.41;
        E               9.8;
        value           uniform 0.000210967;
    }
    nWall
    {
        type            nutkWallFunction;
        Cmu             0.09;
        kappa           0.41;
        E               9.8;
        value           nonuniform List<scalar> 6(7.59775e-05 0.000101579 0.000126412 0.000134483 0.000136728 0.000119072);
    }
    sideWalls
    {
        type            empty;
    }
    glass1
    {
        type            nutkWallFunction;
        Cmu             0.09;
        kappa           0.41;
        E               9.8;
        value           nonuniform List<scalar> 9(0.00013619 0.000182018 0.000218725 0.000252955 0.000287183 0.000322854 0.000353636 0.000358508 0.000348958);
    }
    glass2
    {
        type            nutkWallFunction;
        Cmu             0.09;
        kappa           0.41;
        E               9.8;
        value           nonuniform List<scalar> 2(0.000168334 0.000163608);
    }
    sun
    {
        type            nutkWallFunction;
        Cmu             0.09;
        kappa           0.41;
        E               9.8;
        value           nonuniform List<scalar> 
14
(
0.000136073
0.000148763
0.000151716
0.000158929
0.00016571
0.000172194
0.000178778
0.000184146
0.000187329
0.000187774
0.000185127
0.000179142
0.000169459
0.000155053
)
;
    }
    Table_master
    {
        type            nutkWallFunction;
        Cmu             0.09;
        kappa           0.41;
        E               9.8;
        value           nonuniform List<scalar> 9(0.000113949 9.93875e-05 8.73651e-05 7.76147e-05 6.97001e-05 6.32334e-05 5.79398e-05 5.36511e-05 5.03652e-05);
    }
    Table_slave
    {
        type            nutkWallFunction;
        Cmu             0.09;
        kappa           0.41;
        E               9.8;
        value           nonuniform List<scalar> 9(0.000126697 0.000114993 0.000106948 0.000101023 9.61538e-05 9.15055e-05 8.70352e-05 8.23789e-05 7.69843e-05);
    }
    inlet
    {
        type            calculated;
        value           uniform 0.000100623;
    }
    outlet
    {
        type            calculated;
        value           nonuniform List<scalar> 2(0.00179548 0.00194224);
    }
}


// ************************************************************************* //
