/*--------------------------------*- C++ -*----------------------------------*\
  =========                 |
  \\      /  F ield         | OpenFOAM: The Open Source CFD Toolbox
   \\    /   O peration     | Website:  https://openfoam.org
    \\  /    A nd           | Version:  6
     \\/     M anipulation  |
\*---------------------------------------------------------------------------*/
FoamFile
{
    version     2.0;
    format      ascii;
    class       volScalarField;
    location    "2000";
    object      k;
}
// * * * * * * * * * * * * * * * * * * * * * * * * * * * * * * * * * * * * * //

dimensions      [0 2 -2 0 0 0 0];

internalField   nonuniform List<scalar> 
458
(
0.000906814
0.000933721
0.000707181
0.000744465
0.000795633
0.000847629
0.000899709
0.000952801
0.00100901
0.00106842
0.00112211
0.00116808
0.00120692
0.00124243
0.00127048
0.000185354
0.000216472
0.000212947
0.000154308
0.000117853
9.66984e-05
7.90324e-05
7.24449e-05
8.21833e-05
0.000104271
0.000133031
0.000155913
0.00016796
0.000192772
0.000245359
0.000308568
0.000317881
0.000222389
0.00292171
0.00596162
0.00141962
0.00120041
0.00125973
0.00134588
0.00143831
0.00153419
0.0016324
0.00173369
0.00182681
0.00190023
0.00193291
0.00188303
0.00170556
0.00152508
0.00137513
0.000709099
0.000320737
0.000695254
0.000636217
0.000477024
0.000277207
0.000137944
0.0001063
0.000126298
0.000184841
0.000276718
0.00038177
0.000487759
0.000595427
0.000711124
0.000816521
0.000845143
0.000970154
0.000308423
0.00573993
0.0150594
0.00270575
0.00162614
0.00163333
0.00173495
0.00185493
0.00198135
0.00210991
0.00223745
0.00235592
0.00245236
0.0025121
0.00251092
0.00242469
0.002264
0.00199466
0.00163024
0.000964874
0.00142009
0.00103648
0.000838956
0.00065149
0.000179373
0.000138774
0.000173928
0.000217664
0.000270204
0.000334912
0.000419482
0.000542145
0.000749082
0.00112906
0.00109934
0.00102307
0.000688487
0.00927496
0.0280709
0.00547934
0.00215592
0.00197542
0.00207469
0.0022234
0.00238653
0.0025534
0.0027173
0.00286692
0.00299291
0.00309004
0.0031421
0.00311289
0.00296455
0.00266599
0.00220731
0.00181234
0.00172615
0.00138454
0.0011408
0.000974081
0.000863738
0.000813148
0.000814808
0.000824085
0.000840897
0.000869856
0.000917117
0.000990505
0.0011007
0.00130331
0.00187672
0.00220649
0.00235158
0.0015692
0.0132939
0.0430129
0.0111017
0.00341863
0.00252213
0.00250678
0.00265509
0.00284733
0.00305175
0.00325545
0.00342875
0.0035765
0.00371406
0.0038431
0.00393394
0.00394351
0.00383316
0.00355433
0.00306195
0.00244611
0.0020255
0.00178963
0.0016745
0.00161762
0.0015953
0.00159323
0.00161312
0.0016607
0.00174551
0.00187976
0.00207525
0.00233918
0.00267117
0.00300146
0.00339461
0.00369322
0.00360967
0.00299841
0.00243469
0.0019296
0.0176812
0.0559071
0.021199
0.0076983
0.00439189
0.00359579
0.00353053
0.00365806
0.00383559
0.00400628
0.00411071
0.00418356
0.00427213
0.00440423
0.004562
0.00469222
0.00471532
0.00452286
0.00406953
0.00349309
0.00299117
0.00263708
0.00241953
0.00229242
0.00221817
0.0021783
0.00217138
0.00220134
0.00227883
0.00242011
0.00264049
0.00294425
0.00331831
0.00373005
0.00417176
0.00461364
0.00482394
0.00442754
0.00309285
0.00209403
0.0218572
0.0621951
0.0358894
0.0189567
0.0113743
0.0075357
0.00617856
0.00570431
0.00550874
0.0053478
0.00514955
0.00495122
0.00481573
0.00479708
0.00489603
0.00506001
0.00518645
0.00513759
0.00484153
0.0043789
0.00389933
0.00350411
0.00322144
0.00303484
0.00291789
0.00285325
0.00283382
0.00285699
0.0029258
0.00305035
0.00324222
0.00349967
0.00380538
0.00412444
0.00440719
0.0045693
0.00445606
0.00395914
0.00306328
0.00198658
0.0221647
0.0608337
0.0456219
0.0376796
0.0267543
0.0185269
0.0136578
0.0107938
0.00895216
0.00770974
0.00678103
0.00605984
0.00552568
0.00518688
0.00504824
0.00508598
0.00521925
0.00530473
0.0052117
0.00493864
0.00458913
0.00425391
0.00398161
0.00378449
0.00365772
0.00359618
0.00359904
0.00366685
0.00380056
0.00400087
0.00425833
0.00451981
0.00472131
0.00482182
0.00483367
0.00479434
0.00469826
0.00464443
0.00452374
0.00306101
0.0203086
0.0269441
0.0587128
0.0536576
0.0406966
0.0297675
0.0219261
0.0165634
0.0129379
0.0103592
0.0085109
0.00718614
0.00624551
0.00560548
0.00521861
0.00505209
0.00505571
0.00513545
0.00517857
0.00512247
0.00498018
0.00479807
0.00461929
0.0044706
0.00436523
0.00431163
0.00431936
0.00439987
0.00456644
0.00482924
0.00515968
0.0055776
0.00608876
0.00670049
0.00727409
0.00745384
0.00729874
0.00752722
0.00913912
0.00448957
0.154585
0.139634
0.0576929
0.0351893
0.0243429
0.017925
0.0137902
0.0109795
0.00900397
0.00759703
0.00661009
0.00594082
0.00551791
0.00529074
0.00521442
0.00524023
0.00531116
0.00537444
0.00540076
0.00538701
0.00534582
0.00529413
0.00524679
0.00521571
0.00521155
0.00524502
0.00532806
0.00545299
0.00561788
0.00582117
0.00605578
0.00630409
0.00652105
0.00662506
0.00645393
0.00604615
0.00754023
0.00461432
0.0785241
0.0878524
0.0437198
0.0279196
0.0200853
0.0153421
0.0122485
0.0101757
0.00879549
0.00791522
0.00738311
0.00710131
0.0070018
0.00702743
0.0071123
0.00720772
0.00728302
0.00732426
0.00733129
0.0073124
0.00727842
0.00723802
0.00719494
0.00714723
0.00708781
0.00700771
0.00689172
0.00673003
0.00653309
0.00633322
0.00616678
0.00604887
0.00597536
0.00585024
0.00559743
0.00524542
0.00804233
0.00407683
0.0144351
0.0240289
0.0428672
0.0268349
0.0160322
0.012175
0.00962409
0.00773632
0.00633191
0.00528007
0.00448915
0.00390203
0.00348576
0.00319959
0.00301081
0.0028969
0.00284645
0.00283911
0.00285431
0.00287556
0.002892
0.00289858
0.00289482
0.00288293
0.00286619
0.00284779
0.00283046
0.00281664
0.00281007
0.00281232
0.00282075
0.0028288
0.00282501
0.00279183
0.00270515
0.0025929
0.00246334
0.00229835
0.00238762
0.00209052
)
;

boundaryField
{
    floor
    {
        type            kqRWallFunction;
        value           nonuniform List<scalar> 
36
(
0.00127048
0.000185354
0.000216472
0.000212947
0.000154308
0.000117853
9.66984e-05
7.90324e-05
7.24449e-05
8.21833e-05
0.000104271
0.000133031
0.000155913
0.00016796
0.000192772
0.000245359
0.000308568
0.000317881
0.000222389
0.000222389
0.000308423
0.000688487
0.0015692
0.00299841
0.00243469
0.0019296
0.00127048
0.00152508
0.00137513
0.000709099
0.000185354
0.000709099
0.000320737
0.00163024
0.000964874
0.00181234
)
;
    }
    ceiling
    {
        type            kqRWallFunction;
        value           nonuniform List<scalar> 
43
(
0.0144351
0.0240289
0.0428672
0.0268349
0.0160322
0.012175
0.00962409
0.00773632
0.00633191
0.00528007
0.00448915
0.00390203
0.00348576
0.00319959
0.00301081
0.0028969
0.00284645
0.00283911
0.00285431
0.00287556
0.002892
0.00289858
0.00289482
0.00288293
0.00286619
0.00284779
0.00283046
0.00281664
0.00281007
0.00281232
0.00282075
0.0028288
0.00282501
0.00279183
0.00270515
0.0025929
0.00246334
0.00229835
0.00238762
0.00209052
0.0203086
0.0269441
0.0785241
)
;
    }
    sWall
    {
        type            kqRWallFunction;
        value           uniform 0.0144351;
    }
    nWall
    {
        type            kqRWallFunction;
        value           nonuniform List<scalar> 6(0.0019296 0.00209403 0.00198658 0.00461432 0.00407683 0.00209052);
    }
    sideWalls
    {
        type            empty;
    }
    glass1
    {
        type            kqRWallFunction;
        value           nonuniform List<scalar> 9(0.000906814 0.00292171 0.00573993 0.00927496 0.0132939 0.0176812 0.0218572 0.0221647 0.0203086);
    }
    glass2
    {
        type            kqRWallFunction;
        value           nonuniform List<scalar> 2(0.00306101 0.00448957);
    }
    sun
    {
        type            kqRWallFunction;
        value           nonuniform List<scalar> 
14
(
0.000906814
0.000933721
0.000707181
0.000744465
0.000795633
0.000847629
0.000899709
0.000952801
0.00100901
0.00106842
0.00112211
0.00116808
0.00120692
0.00124243
)
;
    }
    Table_master
    {
        type            kqRWallFunction;
        value           nonuniform List<scalar> 9(0.000179373 0.000138774 0.000173928 0.000217664 0.000270204 0.000334912 0.000419482 0.000542145 0.000749082);
    }
    Table_slave
    {
        type            kqRWallFunction;
        value           nonuniform List<scalar> 9(0.000813148 0.000814808 0.000824085 0.000840897 0.000869856 0.000917117 0.000990505 0.0011007 0.00130331);
    }
    inlet
    {
        type            turbulentIntensityKineticEnergyInlet;
        intensity       0.05;
        value           uniform 3.75e-05;
    }
    outlet
    {
        type            zeroGradient;
    }
}


// ************************************************************************* //
