/*--------------------------------*- C++ -*----------------------------------*\
  =========                 |
  \\      /  F ield         | OpenFOAM: The Open Source CFD Toolbox
   \\    /   O peration     | Website:  https://openfoam.org
    \\  /    A nd           | Version:  6
     \\/     M anipulation  |
\*---------------------------------------------------------------------------*/
FoamFile
{
    version     2.0;
    format      ascii;
    class       volVectorField;
    location    "2000";
    object      U;
}
// * * * * * * * * * * * * * * * * * * * * * * * * * * * * * * * * * * * * * //

dimensions      [0 1 -1 0 0 0 0];

internalField   nonuniform List<vector> 
458
(
(0.0983357 0.0621504 0)
(-0.128514 -0.000639891 0)
(-0.103736 0.00158831 0)
(-0.110413 0.003039 0)
(-0.11765 0.00277769 0)
(-0.124316 0.00174622 0)
(-0.129559 0.000240154 0)
(-0.13282 -0.00168242 0)
(-0.13361 -0.00405583 0)
(-0.131344 -0.0070123 0)
(-0.12494 -0.0107954 0)
(-0.112458 -0.0157884 0)
(-0.0926875 -0.0231902 0)
(-0.0720054 -0.0353766 0)
(-0.0738661 -0.0525763 0)
(0.0203037 0.0128212 0)
(-0.0341757 -0.00341156 0)
(-0.0273971 -0.00467821 0)
(-0.026048 -0.00372113 0)
(-0.0224408 -0.00556277 0)
(-0.0145885 -0.0103431 0)
(-0.00863255 -0.011994 0)
(0.00143562 -0.00787543 0)
(0.00664521 -0.00624053 0)
(0.010742 -0.0051779 0)
(0.0140342 -0.00438026 0)
(0.0164614 -0.00322711 0)
(0.0177078 -0.00121059 0)
(0.0168908 0.000926041 0)
(0.0161124 0.000454359 0)
(0.0181998 -0.00500515 0)
(0.0308648 -0.00474412 0)
(-0.0163788 0.0116511 0)
(0.289773 0.136781 0)
(-0.152831 0.0123977 0)
(-0.0947487 0.00940162 0)
(-0.106401 0.0114314 0)
(-0.114489 0.0113291 0)
(-0.121508 0.00986671 0)
(-0.1271 0.00749945 0)
(-0.13098 0.00435291 0)
(-0.132797 0.000399115 0)
(-0.132079 -0.00445329 0)
(-0.128469 -0.0102261 0)
(-0.121243 -0.017129 0)
(-0.110776 -0.026151 0)
(-0.100552 -0.0387017 0)
(-0.0924489 -0.0504955 0)
(-0.0692296 -0.0405189 0)
(-0.031319 -0.0411608 0)
(-0.0218544 0.0439328 0)
(0.101133 0.0160799 0)
(0.0296876 0.0114735 0)
(0.00456227 0.00711505 0)
(-0.00330389 0.00495837 0)
(-0.0104216 0.00143631 0)
(-0.00973788 -0.0102559 0)
(-0.0142083 -0.011716 0)
(-0.0104743 -0.0068097 0)
(-0.00885828 -0.00473947 0)
(-0.00973239 -0.00375453 0)
(-0.0114324 -0.0020576 0)
(-0.0141619 0.00110782 0)
(-0.0175877 0.00377628 0)
(-0.0190689 0.00199456 0)
(-0.0163266 -0.00611967 0)
(-0.00855707 -0.0132763 0)
(0.0113679 -0.00648396 0)
(-0.0978006 0.0284966 0)
(0.44563 0.208769 0)
(-0.194686 0.0362937 0)
(-0.0778588 0.0212662 0)
(-0.0960339 0.0197065 0)
(-0.104478 0.018041 0)
(-0.111075 0.0150946 0)
(-0.116281 0.011033 0)
(-0.120069 0.00590338 0)
(-0.122282 -0.000287192 0)
(-0.122573 -0.00749209 0)
(-0.120913 -0.0157447 0)
(-0.117403 -0.0251636 0)
(-0.112941 -0.0361278 0)
(-0.109191 -0.0483215 0)
(-0.104969 -0.0580657 0)
(-0.0953412 -0.060582 0)
(-0.0888617 -0.0668664 0)
(-0.109822 -0.0657603 0)
(0.0346179 0.0169858 0)
(-0.0311029 0.0130211 0)
(-0.027763 0.0116539 0)
(-0.0215669 0.00666551 0)
(-0.0189601 0.000685329 0)
(-0.000733602 -0.00856824 0)
(-0.0245848 -0.0113469 0)
(-0.0326351 -0.00745663 0)
(-0.0375115 -0.00545918 0)
(-0.0410033 -0.0040625 0)
(-0.0430277 -0.00290783 0)
(-0.0431867 -0.00195923 0)
(-0.0420875 -0.00180852 0)
(-0.0386048 -0.00429348 0)
(-0.0243394 -0.00950268 0)
(-0.0241766 -0.00462398 0)
(-0.0443518 0.00213094 0)
(-0.11804 0.00747632 0)
(0.567796 0.267912 0)
(-0.2337 0.0647072 0)
(-0.0578428 0.0345702 0)
(-0.0819678 0.0287246 0)
(-0.0909002 0.0250125 0)
(-0.096236 0.0206602 0)
(-0.100172 0.0154131 0)
(-0.10293 0.00906845 0)
(-0.104531 0.0015469 0)
(-0.104815 -0.00707769 0)
(-0.104043 -0.0165416 0)
(-0.102839 -0.0266998 0)
(-0.102223 -0.0374656 0)
(-0.103207 -0.0479535 0)
(-0.10531 -0.0558516 0)
(-0.10805 -0.0597613 0)
(-0.116566 -0.0599072 0)
(-0.133666 -0.0437365 0)
(-0.129989 0.00555945 0)
(-0.0928763 0.0126638 0)
(-0.0868895 0.00947284 0)
(-0.0768775 0.0047661 0)
(-0.0739409 -0.00102212 0)
(-0.0735008 -0.00627521 0)
(-0.0715969 -0.0068459 0)
(-0.0648759 -0.00728983 0)
(-0.0577328 -0.0079907 0)
(-0.0499818 -0.00851368 0)
(-0.0417626 -0.0089632 0)
(-0.0330779 -0.00950061 0)
(-0.0237628 -0.0103559 0)
(-0.0132186 -0.0116773 0)
(0.00254203 -0.0133677 0)
(0.006694 -0.016731 0)
(0.0174457 -0.00996827 0)
(0.0298485 -0.00315836 0)
(-0.0234356 0.00509731 0)
(0.659587 0.316136 0)
(-0.263401 0.0949381 0)
(-0.0396945 0.0466234 0)
(-0.0635614 0.037112 0)
(-0.0736758 0.0306143 0)
(-0.0775111 0.0243831 0)
(-0.0794599 0.017836 0)
(-0.0802551 0.0104557 0)
(-0.0801015 0.00200216 0)
(-0.0789411 -0.00735822 0)
(-0.0776888 -0.0170368 0)
(-0.0770523 -0.0266474 0)
(-0.0779381 -0.035996 0)
(-0.0809364 -0.0444435 0)
(-0.0858327 -0.0509012 0)
(-0.092525 -0.0549775 0)
(-0.101793 -0.0559789 0)
(-0.110781 -0.0485929 0)
(-0.112436 -0.0275183 0)
(-0.104669 -0.0096703 0)
(-0.0939169 -0.00179529 0)
(-0.0844779 -0.00146914 0)
(-0.0783099 -0.00366573 0)
(-0.0741592 -0.00643507 0)
(-0.0704085 -0.00783936 0)
(-0.0660395 -0.00928315 0)
(-0.0614128 -0.0103591 0)
(-0.056518 -0.01118 0)
(-0.0513427 -0.0119033 0)
(-0.0458272 -0.0128198 0)
(-0.0397699 -0.0143658 0)
(-0.0327334 -0.0169737 0)
(-0.0241506 -0.0206542 0)
(-0.0146746 -0.0258822 0)
(-0.000164914 -0.0272419 0)
(0.0268641 -0.0230084 0)
(0.0555972 -0.00940043 0)
(0.0978247 0.00471834 0)
(0.121774 0.0398645 0)
(-0.0149322 0.0978357 0)
(0.71368 0.358673 0)
(-0.28452 0.120356 0)
(-0.0268891 0.0487002 0)
(-0.0346648 0.0435646 0)
(-0.0462919 0.0366646 0)
(-0.0508322 0.026788 0)
(-0.051306 0.0180131 0)
(-0.0500821 0.00948787 0)
(-0.0476514 0.000320166 0)
(-0.0444909 -0.00917712 0)
(-0.0423234 -0.0181534 0)
(-0.0416149 -0.0262514 0)
(-0.0430735 -0.0334401 0)
(-0.0470168 -0.0395116 0)
(-0.0531947 -0.0439742 0)
(-0.0612483 -0.0463492 0)
(-0.0705848 -0.0454141 0)
(-0.0785923 -0.0387081 0)
(-0.0817724 -0.026831 0)
(-0.0794846 -0.0160163 0)
(-0.074179 -0.00990345 0)
(-0.0688154 -0.00800083 0)
(-0.0648017 -0.0085202 0)
(-0.0621068 -0.0100277 0)
(-0.0601611 -0.0113606 0)
(-0.0585055 -0.0126299 0)
(-0.0570884 -0.0136941 0)
(-0.0559182 -0.0145301 0)
(-0.055042 -0.0152736 0)
(-0.0544803 -0.0162759 0)
(-0.0541404 -0.0181012 0)
(-0.0537816 -0.0213664 0)
(-0.0529761 -0.0265511 0)
(-0.050902 -0.0337997 0)
(-0.0448552 -0.041852 0)
(-0.0314839 -0.0508679 0)
(-0.0110844 -0.0616654 0)
(0.0161526 -0.0634436 0)
(0.0859745 0.00131641 0)
(-0.0593014 0.116704 0)
(0.731067 0.397732 0)
(-0.288856 0.113487 0)
(-0.00515199 0.0100989 0)
(0.0212072 0.040681 0)
(0.00897353 0.0475198 0)
(-0.00247376 0.0307288 0)
(-0.00481574 0.0164944 0)
(-0.00410559 0.00631562 0)
(-0.00134344 -0.00363879 0)
(0.00137427 -0.012803 0)
(0.00277589 -0.0202736 0)
(0.00250147 -0.026073 0)
(2.84687e-05 -0.0306018 0)
(-0.00491477 -0.0341305 0)
(-0.0120396 -0.0366609 0)
(-0.0208293 -0.0379047 0)
(-0.0303261 -0.0368668 0)
(-0.0385834 -0.0322678 0)
(-0.0435332 -0.0249471 0)
(-0.0447759 -0.0178812 0)
(-0.0437247 -0.0131613 0)
(-0.0420935 -0.0109728 0)
(-0.0409251 -0.0105694 0)
(-0.0405368 -0.0111109 0)
(-0.0408502 -0.011895 0)
(-0.0417568 -0.0126517 0)
(-0.0433253 -0.0131465 0)
(-0.0457599 -0.0132721 0)
(-0.0494071 -0.0131571 0)
(-0.0546615 -0.0132807 0)
(-0.0617459 -0.014439 0)
(-0.0706831 -0.017459 0)
(-0.0810196 -0.0230313 0)
(-0.0919405 -0.0317936 0)
(-0.101956 -0.0441872 0)
(-0.109198 -0.0605386 0)
(-0.110876 -0.0782235 0)
(-0.0984552 -0.0819275 0)
(-0.0548876 -0.0272565 0)
(-0.134358 0.190305 0)
(0.82615 0.412579 0)
(-0.0871583 0.085331 0)
(0.0878868 -0.063534 0)
(0.139702 0.00178257 0)
(0.111216 0.0325884 0)
(0.0851389 0.0244875 0)
(0.0755758 0.0115592 0)
(0.0706283 0.00164354 0)
(0.0652885 -0.00745699 0)
(0.061598 -0.0150091 0)
(0.0581129 -0.0206668 0)
(0.0539504 -0.0244309 0)
(0.0486935 -0.0267274 0)
(0.042096 -0.0280314 0)
(0.0341043 -0.0286793 0)
(0.0249149 -0.0287364 0)
(0.0151572 -0.0277702 0)
(0.00611959 -0.0250384 0)
(-0.000752362 -0.020686 0)
(-0.00480192 -0.0162416 0)
(-0.00690494 -0.0129005 0)
(-0.00818687 -0.0109387 0)
(-0.00942606 -0.0101191 0)
(-0.0110176 -0.0100079 0)
(-0.0130786 -0.0101466 0)
(-0.01564 -0.0101769 0)
(-0.0187994 -0.00973147 0)
(-0.0227972 -0.00849566 0)
(-0.0281321 -0.00635599 0)
(-0.0355852 -0.00358529 0)
(-0.0459641 -0.000923244 0)
(-0.0615673 -0.000138422 0)
(-0.0835125 -0.00337429 0)
(-0.111367 -0.0117607 0)
(-0.142943 -0.0242258 0)
(-0.176121 -0.0382645 0)
(-0.209353 -0.0506063 0)
(-0.238105 -0.0524012 0)
(-0.296071 -0.0319533 0)
(-0.495773 0.0288431 0)
(0.959347 0.386075 0)
(0.453148 0.22745 0)
(0.353369 0.12675 0)
(0.372642 0.131198 0)
(0.278307 0.111171 0)
(0.213172 0.0786618 0)
(0.183356 0.050911 0)
(0.164706 0.0298559 0)
(0.149217 0.013602 0)
(0.134101 0.000688101 0)
(0.120589 -0.00853188 0)
(0.108888 -0.0142192 0)
(0.0984169 -0.0172348 0)
(0.0886732 -0.0184432 0)
(0.079222 -0.0185363 0)
(0.0697748 -0.0179671 0)
(0.0603368 -0.0168799 0)
(0.0513849 -0.0151935 0)
(0.0436999 -0.0129781 0)
(0.0377541 -0.0106578 0)
(0.0333083 -0.00868298 0)
(0.0298031 -0.00728961 0)
(0.0267224 -0.00647484 0)
(0.0237152 -0.00607575 0)
(0.0206053 -0.00584429 0)
(0.017345 -0.00549708 0)
(0.0139717 -0.00468482 0)
(0.0105847 -0.00302396 0)
(0.00735715 -0.000226199 0)
(0.00489869 0.00390896 0)
(0.00206479 0.00909601 0)
(-0.00129945 0.014538 0)
(-0.00574061 0.0181817 0)
(-0.0116261 0.0178456 0)
(-0.0218289 0.011033 0)
(-0.0417343 -0.00343205 0)
(-0.0551229 -0.0232757 0)
(-0.0513877 -0.0575017 0)
(-0.0732571 -0.124428 0)
(-0.440019 -0.20192 0)
(-1.20263 0.0404895 0)
(0.194957 0.137986 0)
(0.117172 0.103726 0)
(0.125026 0.0786327 0)
(0.143878 0.0563217 0)
(0.152383 0.0372486 0)
(0.152243 0.022602 0)
(0.148447 0.0124577 0)
(0.142975 0.00592601 0)
(0.136252 0.00174424 0)
(0.128866 -0.000752063 0)
(0.12112 -0.00184279 0)
(0.113246 -0.00190237 0)
(0.105402 -0.00133813 0)
(0.0976712 -0.000468899 0)
(0.0901875 0.000493108 0)
(0.0832377 0.00140848 0)
(0.077096 0.00213849 0)
(0.0718213 0.00258396 0)
(0.0672786 0.00272013 0)
(0.0632565 0.00259601 0)
(0.0595543 0.00232098 0)
(0.0560328 0.00204953 0)
(0.0526403 0.00197063 0)
(0.0494344 0.00231962 0)
(0.0465928 0.0033515 0)
(0.0445452 0.00514586 0)
(0.0434004 0.00788528 0)
(0.0434469 0.0116103 0)
(0.044886 0.0155091 0)
(0.0473823 0.0180883 0)
(0.0504141 0.0179486 0)
(0.053381 0.0140883 0)
(0.0567148 0.00589247 0)
(0.0606657 -0.00514844 0)
(0.0708279 -0.0180359 0)
(0.118271 -0.0656896 0)
(-0.112897 -0.152294 0)
(-0.564368 0.123789 0)
(0.205816 0.0447289 0)
(0.0576752 0.0220616 0)
(0.075774 0.0306902 0)
(0.109708 0.0237664 0)
(0.130895 0.00932428 0)
(0.14142 -0.00565189 0)
(0.146168 -0.0192912 0)
(0.147474 -0.0314112 0)
(0.146109 -0.0416024 0)
(0.142434 -0.049212 0)
(0.137141 -0.0546227 0)
(0.130974 -0.0583428 0)
(0.124478 -0.060664 0)
(0.118036 -0.0614265 0)
(0.111969 -0.0609534 0)
(0.10652 -0.0597255 0)
(0.1018 -0.0582158 0)
(0.0977721 -0.0567755 0)
(0.0942955 -0.0555836 0)
(0.0911961 -0.0546676 0)
(0.088324 -0.0539526 0)
(0.0855899 -0.0533043 0)
(0.0829875 -0.052557 0)
(0.0806134 -0.0515188 0)
(0.0787111 -0.0499432 0)
(0.0775336 -0.0472953 0)
(0.0773943 -0.0432015 0)
(0.0787746 -0.0379783 0)
(0.0820185 -0.0326985 0)
(0.0869361 -0.0290606 0)
(0.0926945 -0.0288913 0)
(0.0980809 -0.0337847 0)
(0.101912 -0.041654 0)
(0.101195 -0.0495757 0)
(0.0939937 -0.0586113 0)
(0.125066 -0.0775012 0)
(-0.174807 -0.0967697 0)
(0.248193 -0.103766 0)
(-0.127636 -0.0318658 0)
(-0.247933 0.171621 0)
(0.175054 0.0504285 0)
(0.0527776 0.0548787 0)
(0.0445039 0.0819808 0)
(0.0759829 0.0931007 0)
(0.100194 0.10039 0)
(0.114253 0.109253 0)
(0.121484 0.120524 0)
(0.124336 0.13368 0)
(0.124382 0.147413 0)
(0.122952 0.159662 0)
(0.120985 0.169888 0)
(0.11905 0.178053 0)
(0.117459 0.184032 0)
(0.116365 0.187183 0)
(0.115772 0.18779 0)
(0.11559 0.186554 0)
(0.115671 0.184238 0)
(0.11585 0.181497 0)
(0.115977 0.178776 0)
(0.115952 0.176302 0)
(0.115734 0.174118 0)
(0.115343 0.172143 0)
(0.114854 0.170214 0)
(0.114394 0.168109 0)
(0.114153 0.165538 0)
(0.114412 0.161975 0)
(0.11559 0.157006 0)
(0.118119 0.150715 0)
(0.122193 0.143741 0)
(0.127454 0.137135 0)
(0.13274 0.132055 0)
(0.136185 0.129672 0)
(0.1349 0.127249 0)
(0.126539 0.122542 0)
(0.108364 0.115972 0)
(0.140375 0.0990464 0)
(-0.26069 0.095016 0)
)
;

boundaryField
{
    floor
    {
        type            noSlip;
    }
    ceiling
    {
        type            noSlip;
    }
    sWall
    {
        type            noSlip;
    }
    nWall
    {
        type            noSlip;
    }
    sideWalls
    {
        type            empty;
    }
    glass1
    {
        type            noSlip;
    }
    glass2
    {
        type            noSlip;
    }
    sun
    {
        type            noSlip;
    }
    Table_master
    {
        type            noSlip;
    }
    Table_slave
    {
        type            noSlip;
    }
    inlet
    {
        type            fixedValue;
        value           uniform (0.0707107 -0.0707107 0);
    }
    outlet
    {
        type            zeroGradient;
    }
}


// ************************************************************************* //
