/*--------------------------------*- C++ -*----------------------------------*\
  =========                 |
  \\      /  F ield         | OpenFOAM: The Open Source CFD Toolbox
   \\    /   O peration     | Website:  https://openfoam.org
    \\  /    A nd           | Version:  6
     \\/     M anipulation  |
\*---------------------------------------------------------------------------*/
FoamFile
{
    version     2.0;
    format      ascii;
    class       surfaceScalarField;
    location    "100";
    object      phi;
}
// * * * * * * * * * * * * * * * * * * * * * * * * * * * * * * * * * * * * * //

dimensions      [1 0 -1 0 0 0 0];

internalField   nonuniform List<scalar> 
850
(
-0.00244471
0.00251036
-0.00258771
0.000143096
-0.0028956
0.000307969
-0.00326226
0.000366747
-0.00361355
0.000351367
-0.00391508
0.00030161
-0.00414373
0.000228723
-0.00427881
0.000135158
-0.00429925
2.05181e-05
-0.00418065
-0.000118533
-0.00389896
-0.000281622
-0.00343662
-0.000462264
-0.00275969
-0.000676863
-0.00172454
-0.00103509
-0.00172199
-0.000391559
0.000395597
-9.36021e-05
-0.000297887
0.000347313
-0.000440865
0.000684197
-0.000336841
0.000766144
-8.19023e-05
0.000617641
0.000148551
0.000495259
0.000122434
0.000392396
0.000102915
0.000309274
8.31714e-05
0.000257841
5.14777e-05
0.000238568
1.93136e-05
0.000247148
-8.54446e-06
0.000275341
-2.81641e-05
0.000294648
-1.92779e-05
0.000449402
-0.000154731
0.000696043
-0.000246609
0.000772244
-7.61743e-05
0.000777629
-0.00182033
0.00450074
-0.00240056
0.000723419
-0.00290566
0.000813155
-0.0033403
0.000801472
-0.00372804
0.000739184
-0.00405869
0.000632339
-0.00431714
0.000487248
-0.00448699
0.000305078
-0.00455196
8.55636e-05
-0.00449913
-0.000171294
-0.00431689
-0.000463788
-0.00398991
-0.000789175
-0.00350872
-0.00115798
-0.00296953
-0.00157421
-0.00285157
-0.00183989
-0.00115467
-0.00169209
0.000483037
-0.00163264
0.000498086
0.000556248
-0.000150173
0.000225329
3.30979e-05
-1.66456e-05
-0.000198855
0.000101473
-0.000454936
0.000199883
-0.000180294
0.000102898
0.000245566
0.000113739
0.000111626
0.000115493
0.000101197
0.000122118
7.65818e-05
0.000136565
3.70613e-05
0.000150092
5.81074e-06
0.000163015
-2.14514e-05
0.000178972
-4.41082e-05
0.000126593
3.31234e-05
0.000230181
-0.000258221
0.000481737
-0.000498073
0.00045295
-4.73251e-05
0.00124337
-0.00137978
0.00613322
-0.00214409
0.00148782
-0.00272588
0.00139503
-0.00318443
0.0012601
-0.00358651
0.00114135
-0.00393318
0.000979086
-0.00421481
0.000768962
-0.00441877
0.00050911
-0.0045323
0.000199171
-0.00454688
-0.000156632
-0.00445959
-0.000550999
-0.0042765
-0.000972192
-0.00403074
-0.00140367
-0.00380354
-0.00180135
-0.00359021
-0.00205315
-0.0031373
-0.00214493
-0.00258518
-0.0021847
-0.00207472
-0.00127817
0.00114106
-0.00143877
0.000193737
-0.00138673
-0.000250868
-0.00122769
-0.000613963
-0.000539924
-0.000868046
-0.000294171
-0.000182344
-8.09488e-05
-4.17394e-06
3.30689e-05
3.90528e-05
1.77707e-05
-2.61689e-05
7.15038e-06
6.25218e-05
-0.000313412
-0.000646554
0.000211097
-0.00113909
0.000445264
0.000123805
-0.00105459
0.00750795
-0.00187342
0.00230674
-0.00240904
0.00193073
-0.00283367
0.00168481
-0.00320813
0.0015159
-0.00353488
0.00130592
-0.00380882
0.00104298
-0.00402093
0.000721313
-0.00415971
0.000338032
-0.00421562
-0.000100639
-0.00419285
-0.000573676
-0.00411942
-0.00104554
-0.00404389
-0.00147911
-0.00401716
-0.001828
-0.00402877
-0.00204147
-0.00405139
-0.00212225
-0.00418695
-0.00204908
-0.00476263
-0.00149899
-0.00408772
-0.000660487
-0.00300336
5.67451e-05
-0.00279698
-1.25984e-05
-0.00271294
-0.000334854
-0.00272351
-0.000603345
-0.00291898
-0.00067251
-0.00240551
-0.000513556
-0.00187706
-0.000528533
-0.00122996
-0.000647177
-0.000419063
-0.000810959
0.000498319
-0.000917433
0.00135919
-0.00086093
0.00214368
-0.000784553
0.00280362
-0.000659998
0.00323796
-0.000434405
0.0029907
-6.60472e-05
0.00263629
0.000565593
0.00192666
0.00115499
0.00206878
-0.000794273
0.00867942
-0.00160829
0.00312085
-0.00199411
0.00231665
-0.00233744
0.00202823
-0.00263945
0.00181801
-0.00289791
0.00156447
-0.0031133
0.00125846
-0.0032822
0.000890305
-0.00339594
0.000451868
-0.00344198
-5.44949e-05
-0.00342446
-0.000591103
-0.00338317
-0.00108673
-0.00336316
-0.00149902
-0.00339239
-0.00179868
-0.0034651
-0.00196868
-0.00357997
-0.0020073
-0.00376146
-0.0018675
-0.00382938
-0.00143101
-0.00362234
-0.000867468
-0.00309903
-0.0004665
-0.00270469
-0.000406886
-0.00250629
-0.000533192
-0.00243178
-0.000677793
-0.00235846
-0.000745757
-0.00208502
-0.000786917
-0.00169821
-0.000915254
-0.00120482
-0.00114048
-0.000595855
-0.00141982
0.000123295
-0.00163646
0.000866925
-0.00160446
0.0015599
-0.00147743
0.00219527
-0.00129526
0.002708
-0.00094703
0.00297543
-0.000333383
0.00304993
0.000491201
0.00298748
0.00121755
0.00361726
0.00143911
0.00282287
0.000814044
0.00208772
0.000755564
0.00216657
-0.000704
0.00981045
-0.0014534
0.00387034
-0.00151535
0.0023787
-0.00173294
0.00224592
-0.00193812
0.00202327
-0.00208997
0.00171642
-0.00219867
0.00136726
-0.0022724
0.00096414
-0.00231089
0.000490461
-0.0023009
-6.43836e-05
-0.00225058
-0.000641317
-0.00220738
-0.00112982
-0.00220503
-0.00150127
-0.00225508
-0.00174853
-0.00235097
-0.00187268
-0.00248479
-0.00187339
-0.00262734
-0.00172486
-0.00265104
-0.00140722
-0.00250094
-0.0010175
-0.00223727
-0.000730097
-0.00202075
-0.000623328
-0.00190774
-0.000646136
-0.00186678
-0.000718676
-0.00181412
-0.000798329
-0.00168466
-0.000916294
-0.00147162
-0.00112819
-0.00116597
-0.00144602
-0.00075838
-0.00182729
-0.000257568
-0.00213714
0.000291385
-0.0021533
0.000838033
-0.00202398
0.0013868
-0.00184393
0.00192846
-0.00148858
0.00242379
-0.000828602
0.00279236
0.000122745
0.00305131
0.000958703
0.00312778
0.00136274
0.00257083
0.00137111
0.0015578
0.00176871
0.00378688
-0.000987891
0.0112696
-0.0012422
0.00412474
-0.000791615
0.00192821
-0.000908297
0.0023627
-0.00107076
0.00218583
-0.00111898
0.00176473
-0.00109014
0.00133853
-0.00101845
0.000892547
-0.00091587
0.00038799
-0.000802974
-0.000177173
-0.00071307
-0.000731112
-0.000680747
-0.00116204
-0.000716408
-0.0014655
-0.000813527
-0.0016513
-0.00095655
-0.00172955
-0.00112389
-0.00170594
-0.00127309
-0.00157555
-0.00133694
-0.00134327
-0.00128969
-0.00106465
-0.00118226
-0.000837432
-0.00109577
-0.000709732
-0.00107111
-0.000670702
-0.00109942
-0.000690277
-0.00114252
-0.000755143
-0.00116909
-0.000889621
-0.00115831
-0.00113885
-0.00107881
-0.00152539
-0.000902105
-0.00200385
-0.000631794
-0.00240729
-0.000336474
-0.00244851
-4.45082e-05
-0.00231585
0.000290131
-0.00217846
0.000697618
-0.00189595
0.00119453
-0.0013254
0.00168802
-0.000370622
0.00208433
0.0005625
0.00231931
0.00112788
0.00237423
0.00131629
0.00187831
0.00226474
0.0057296
0.00173905
0.0100549
0.00208605
0.00377782
0.00156081
0.00245355
0.00099951
0.0029241
0.000599888
0.00258556
0.000468446
0.00189627
0.000544347
0.00126273
0.000714095
0.000722904
0.000940012
0.000162179
0.00114212
-0.000379175
0.00121203
-0.000800921
0.00116981
-0.0011197
0.00104396
-0.00133953
0.000858169
-0.0014654
0.00063337
-0.00150463
0.000393257
-0.00146571
0.000174283
-0.00135646
2.05176e-05
-0.00118939
-4.88701e-05
-0.000995143
-6.40602e-05
-0.000822131
-7.5956e-05
-0.000697729
-0.000119561
-0.000626991
-0.000205803
-0.000603929
-0.000332647
-0.000628189
-0.00049989
-0.000722259
-0.000697958
-0.000940657
-0.000876411
-0.0013468
-0.000970333
-0.00190976
-0.000944788
-0.00243265
-0.000925884
-0.00246729
-0.00100756
-0.00223407
-0.00109956
-0.00208636
-0.00111102
-0.00188438
-0.000932142
-0.00150416
-0.000430443
-0.000872204
9.65345e-05
3.56374e-05
0.000479302
0.00074522
0.000834915
0.00096078
0.000554642
0.00254511
0.00660128
0.0106327
0.0144057
0.0107219
0.00613738
0.00844774
0.00519839
0.00675259
0.0042808
0.00558673
0.00306224
0.00487417
0.00197538
0.00447005
0.00112713
0.00417024
0.000462091
0.00387119
-8.00296e-05
0.00357873
-0.000508352
0.00327685
-0.000817713
0.00295688
-0.00101946
0.00262079
-0.0011292
0.00227806
-0.00116179
0.00194345
-0.00113097
0.00163735
-0.00105024
0.00138278
-0.000934699
0.0011922
-0.000804443
0.00105319
-0.000682997
0.000941223
-0.00058564
0.000831898
-0.000517546
0.000705854
-0.000477764
0.000542922
-0.000465135
0.00030889
-0.000488098
-3.70479e-05
-0.000594569
-0.000476005
-0.000907686
-0.000860536
-0.00152505
-0.0010649
-0.00222806
-0.00129147
-0.00224057
-0.00183006
-0.0016954
-0.00256499
-0.00135134
-0.0034201
-0.00102916
-0.004348
-0.000576157
-0.00530113
8.10297e-05
-0.00620859
0.000943204
-0.00734076
0.00187749
-0.00892585
0.00254596
-0.00848269
0.00210204
-0.00153234
0.0065949
0.00611992
0.00589644
0.00589691
0.00593848
0.00423883
0.00600048
0.00300032
0.00598759
0.00198836
0.00593784
0.00117697
0.00583466
0.000565374
0.00563628
0.000118443
0.00533637
-0.000208341
0.00496429
-0.000445531
0.00454961
-0.000604663
0.00411697
-0.00069646
0.00368731
-0.000732014
0.0032785
-0.00072205
0.00290572
-0.000677335
0.00258066
-0.000609515
0.00230795
-0.000531608
0.00208149
-0.000456412
0.00188841
-0.00039244
0.00171358
-0.000342585
0.00154163
-0.000305687
0.00135454
-0.000277907
0.00112145
-0.000254879
0.000780569
-0.000253542
0.00024866
-0.00037563
-0.000374634
-0.000901557
-0.000761153
-0.00184126
-0.00100275
-0.00199877
-0.0016135
-0.00108455
-0.00238142
-0.000583336
-0.00311171
-0.000298786
-0.00370717
1.93896e-05
-0.00417982
0.000553784
-0.00454667
0.00131015
-0.00476522
0.00209613
-0.00468947
0.00247029
-0.00298713
0.000399783
-0.00442891
8.68381e-05
0.00604748
0.00226651
0.00371729
0.00363496
0.00287046
0.00463929
0.00199606
0.00534952
0.00127822
0.00576665
0.000759935
0.00594069
0.000391426
0.00592929
0.000129932
0.0057757
-5.46471e-05
0.00551524
-0.000184977
0.00518243
-0.000271745
0.00480867
-0.000322599
0.00442052
-0.000343757
0.00403961
-0.000341034
0.00368248
-0.000320092
0.00335994
-0.000286853
0.00307614
-0.00024769
0.0028286
-0.000208757
0.00261074
-0.000174446
0.00241481
-0.000146536
0.00223366
-0.000124407
0.00205978
-0.000103896
0.00187941
-7.43736e-05
0.00166069
-3.46876e-05
0.00134322
-5.80258e-05
0.000797965
-0.000356163
2.62812e-05
-0.00106922
-0.000504097
-0.00146802
-0.000910236
-0.000678329
-0.00127881
-0.00021469
-0.00157807
5.41983e-07
-0.00179275
0.000234155
-0.00182229
0.000583406
-0.00162421
0.00111215
-0.000921456
0.00139346
0.000607389
0.000941529
0.00144393
-0.000436678
-0.00288545
-0.00932613
-0.0115109
-0.00545095
-0.00172677
0.00114874
0.00314919
0.00443162
0.00519576
0.00559149
0.00572588
0.00567589
0.00549575
0.00522906
0.00491175
0.00457353
0.00423833
0.0039244
0.00364407
0.00340331
0.00320193
0.00303535
0.00289718
0.00278168
0.00268723
0.00262282
0.0025986
0.00255157
0.00220707
0.00115093
-0.000300013
-0.000961011
-0.00115933
-0.00114343
-0.000895146
-0.000298738
0.000825321
0.00223012
0.00318309
0.00275865
)
;

boundaryField
{
    floor
    {
        type            calculated;
        value           nonuniform List<scalar> 
36
(
0
0
0
0
0
0
0
0
0
0
0
0
0
0
0
0
0
0
0
-5.36172e-06
-1.27548e-05
-1.94886e-05
-1.82047e-05
-1.95401e-05
-2.02993e-05
-2.11747e-05
-2.48412e-06
-4.74681e-06
-5.00901e-06
-5.96092e-06
-3.96037e-06
-9.01815e-06
-1.03935e-05
-1.23171e-05
-1.30181e-05
-1.4376e-05
)
;
    }
    ceiling
    {
        type            calculated;
        value           nonuniform List<scalar> 
43
(
-1.28003e-05
-1.27575e-05
-1.23968e-05
-6.82117e-06
-4.97474e-06
-4.3036e-06
-4.12502e-06
-4.12139e-06
-4.21353e-06
-4.3684e-06
-4.55495e-06
-4.7477e-06
-4.95522e-06
-5.18378e-06
-5.43907e-06
-5.72628e-06
-6.04987e-06
-6.41305e-06
-6.81718e-06
-7.26129e-06
-7.74191e-06
-8.25292e-06
-8.78499e-06
-9.32368e-06
-9.84807e-06
-1.03465e-05
-1.08685e-05
-1.15364e-05
-1.28326e-05
-1.64458e-05
-1.725e-05
-1.63101e-05
-1.52906e-05
-1.40593e-05
-1.29276e-05
-1.1824e-05
-1.1266e-05
-1.13615e-05
-1.21635e-05
-1.24068e-05
7.83381e-06
4.89621e-06
-1.43578e-05
)
;
    }
    sWall
    {
        type            calculated;
        value           uniform -0.000208848;
    }
    nWall
    {
        type            calculated;
        value           nonuniform List<scalar> 6(-5.75617e-05 -6.24114e-05 -6.4304e-05 -9.04846e-05 -9.94553e-05 -0.000114325);
    }
    sideWalls
    {
        type            empty;
        value           nonuniform 0();
    }
    glass1
    {
        type            calculated;
        value           nonuniform List<scalar> 9(-6.55543e-05 -0.000169962 -0.000252609 -0.000320047 -0.00037711 -0.00042694 -0.000471221 -0.000524222 -0.000585506);
    }
    glass2
    {
        type            calculated;
        value           nonuniform List<scalar> 2(-0.000316935 -0.000348986);
    }
    sun
    {
        type            calculated;
        value           uniform 0;
    }
    Table_master
    {
        type            calculated;
        value           nonuniform List<scalar> 9(-1.54482e-07 -1.54649e-07 -1.5472e-07 -1.54784e-07 -1.54829e-07 -1.54851e-07 -1.54867e-07 -1.54874e-07 -1.54846e-07);
    }
    Table_slave
    {
        type            calculated;
        value           nonuniform List<scalar> 9(1.53448e-07 1.53623e-07 1.53796e-07 1.54008e-07 1.54114e-07 1.53967e-07 1.53708e-07 1.53494e-07 1.53356e-07);
    }
    inlet
    {
        type            calculated;
        value           uniform -0.0065774;
    }
    outlet
    {
        type            calculated;
        value           nonuniform List<scalar> 2(0.00954783 0.00219755);
    }
}


// ************************************************************************* //
