/*--------------------------------*- C++ -*----------------------------------*\
  =========                 |
  \\      /  F ield         | OpenFOAM: The Open Source CFD Toolbox
   \\    /   O peration     | Website:  https://openfoam.org
    \\  /    A nd           | Version:  6
     \\/     M anipulation  |
\*---------------------------------------------------------------------------*/
FoamFile
{
    version     2.0;
    format      ascii;
    class       surfaceScalarField;
    location    "2700";
    object      phi;
}
// * * * * * * * * * * * * * * * * * * * * * * * * * * * * * * * * * * * * * //

dimensions      [1 0 -1 0 0 0 0];

internalField   nonuniform List<scalar> 
850
(
-0.00299232
0.00304571
-0.00419205
0.0011997
-0.00512586
0.000933778
-0.00585068
0.00072479
-0.00633516
0.000484448
-0.00654333
0.000208144
-0.00642981
-0.000113547
-0.00594084
-0.000489005
-0.00505624
-0.00088462
-0.00382936
-0.00122691
-0.00239343
-0.00143596
-0.0009506
-0.00144286
0.000216183
-0.00116682
0.000593388
-0.000377236
0.00059438
-0.000771447
0.000772806
-0.000748675
-2.28192e-05
-0.000257453
-0.000491268
0.000329339
-0.000586837
0.000831354
-0.00050206
0.00113501
-0.000303699
0.00127595
-0.000140992
0.0013551
-7.91969e-05
0.00140984
-5.47919e-05
0.00144787
-3.80688e-05
0.00147307
-2.52552e-05
0.00148585
-1.28276e-05
0.00147838
7.41288e-06
0.00142932
4.90146e-05
0.0013015
0.000127765
0.00106688
0.00023457
0.000700643
0.000366182
0.00070221
-0.00218943
0.00538091
-0.00333669
0.00234693
-0.00429393
0.001891
-0.0050249
0.00145573
-0.00552203
0.000981549
-0.00575879
0.000444878
-0.00569036
-0.000182011
-0.00527044
-0.00090895
-0.00448941
-0.00166567
-0.00342295
-0.00229341
-0.00222068
-0.00263826
-0.00106566
-0.0025979
-0.00010934
-0.00212317
0.000656215
-0.00114282
0.001527
-0.00027644
0.00146145
6.71557e-05
0.000977499
0.000485767
0.000982964
-7.06023e-05
0.000847608
0.000285651
-0.00037912
0.000663954
-0.000869616
0.000982176
-0.000905103
0.00123862
-0.000758548
0.00130309
-0.000368217
0.00131486
-0.000152808
0.00132856
-9.29396e-05
0.00134003
-6.63072e-05
0.00134744
-4.55289e-05
0.00135222
-3.00819e-05
0.00135476
-1.54183e-05
0.0013517
1.04164e-05
0.00131803
8.26325e-05
0.00117711
0.000268638
0.000920962
0.000490661
0.000566628
0.000720459
0.00127337
-0.00155768
0.0071637
-0.00253027
0.00331949
-0.00339613
0.00275683
-0.00405345
0.00211302
-0.00452414
0.0014522
-0.004779
0.000699708
-0.00475954
-0.000201493
-0.00439922
-0.00126929
-0.00369984
-0.00236509
-0.00276622
-0.00322705
-0.00175058
-0.00365393
-0.000802096
-0.00354642
-1.06055e-05
-0.00291469
0.000696163
-0.00184963
0.00126613
-0.000846444
0.00139016
-5.68995e-05
0.00110417
0.000771717
0.00209182
0.00105886
-0.000205384
0.00141962
-0.00073992
0.001514
-0.000964037
0.00160191
-0.000993062
0.00180446
-0.000961142
0.00143635
0.00128365
0.00119082
0.00112462
0.00107919
0.00104922
0.0010339
0.00104442
0.00112715
0.000961412
0.000434317
0.000745155
0.000706862
0.000440411
0.00102515
0.00172104
-0.0010863
0.0085439
-0.00183007
0.00406323
-0.0024436
0.00337034
-0.00292379
0.00259317
-0.00330041
0.0018288
-0.0035358
0.000935073
-0.00354759
-0.00018973
-0.00322458
-0.00159234
-0.00260271
-0.00298697
-0.00182461
-0.00400518
-0.00102348
-0.00445508
-0.000301364
-0.00426856
0.000301638
-0.00351773
0.000861263
-0.00240929
0.00131356
-0.00129878
0.00159091
-0.00033428
0.00186528
0.000497305
0.00292613
0.00103095
0.00257862
0.000352388
0.00253586
-0.000162659
0.00234541
-0.000549508
0.00212074
-0.000739403
0.00189911
-0.000771474
0.0015829
-0.000644972
0.00185146
-0.000268759
0.00195248
-0.000101218
0.0019941
-4.18154e-05
0.00199913
-5.2281e-06
0.00196664
3.22827e-05
0.00189092
7.55253e-05
0.00175806
0.000132659
0.00153984
0.000218014
0.00118345
0.000356178
0.000990882
0.000626832
0.000738539
0.000959149
0.00043345
0.00133018
0.00216407
-0.00073652
0.00963361
-0.00125668
0.00458336
-0.00145828
0.00357191
-0.00166292
0.00279778
-0.00186455
0.0020304
-0.00201333
0.00108382
-0.00200462
-0.000198463
-0.00167845
-0.00191854
-0.0011609
-0.00350455
-0.000600223
-0.00456587
-8.09058e-05
-0.00497442
0.000354833
-0.00470433
0.000718495
-0.00388143
0.0010574
-0.00274823
0.00134958
-0.00159099
0.00161616
-0.0006009
0.00195944
0.000153989
0.00242772
0.000562629
0.00246698
0.000313093
0.00238277
-7.84788e-05
0.00218521
-0.000351987
0.00193914
-0.000493374
0.00168636
-0.000518746
0.0014719
-0.000430555
0.00143978
-0.000236689
0.00142966
-9.11489e-05
0.0014053
-1.74983e-05
0.00137458
2.54362e-05
0.0013425
6.43083e-05
0.00130359
0.000114378
0.00124685
0.000189343
0.00116103
0.000303781
0.00104545
0.000471699
0.000947902
0.000724324
0.000861471
0.00104552
0.000731102
0.00146049
0.000994433
0.00190068
-0.000701439
0.00170383
-0.00127233
0.000576938
-0.00122915
-0.000602154
0.0106393
-0.000889749
0.00487093
-0.000508224
0.00319035
-0.000344169
0.0026337
-0.000327403
0.0020136
-0.000315111
0.0010715
-0.000140468
-0.000373137
0.000206245
-0.00226528
0.000557506
-0.00385583
0.00083305
-0.00484143
0.00100521
-0.00514659
0.00109915
-0.0047983
0.00115235
-0.00393467
0.00119483
-0.00279074
0.00123906
-0.00163526
0.00132313
-0.000685011
0.00149411
-1.70324e-05
0.00173568
0.000321022
0.00181076
0.000237975
0.00171828
1.39577e-05
0.00153856
-0.000172312
0.0013232
-0.000278058
0.00110593
-0.000301527
0.000923544
-0.000248221
0.000823933
-0.000137131
0.000776091
-4.33613e-05
0.00075048
8.05721e-06
0.000741818
3.40409e-05
0.000749127
5.69411e-05
0.000768558
9.48892e-05
0.000795221
0.00016262
0.000826756
0.000272187
0.000864852
0.000433542
0.000933159
0.000655958
0.00106224
0.000916377
0.00128068
0.00124199
0.00166808
0.00151323
0.00194451
0.00142734
0.00155252
0.000968867
0.000369105
-0.000692748
0.0117799
-0.000461147
0.0046393
0.000686134
0.00204304
0.00110685
0.00221295
0.00128191
0.00183851
0.00156261
0.000790768
0.00199036
-0.000800912
0.00230987
-0.00258482
0.00243313
-0.0039791
0.0023678
-0.00477612
0.00214554
-0.00492435
0.00183028
-0.00448307
0.00148641
-0.00359084
0.00116645
-0.00247083
0.000906906
-0.00137577
0.000763971
-0.000542122
0.000759987
-1.30927e-05
0.000853627
0.000227338
0.000886396
0.00020516
0.000822812
7.7495e-05
0.000693987
-4.35375e-05
0.000530237
-0.00011436
0.000360176
-0.00013152
0.000214528
-0.000102629
0.000123782
-4.64429e-05
8.28004e-05
-2.43952e-06
7.6492e-05
1.43051e-05
9.74825e-05
1.29891e-05
0.000143785
1.05765e-05
0.000215725
2.28869e-05
0.000313281
6.50004e-05
0.000438934
0.00014647
0.000596266
0.000276147
0.000797966
0.000454194
0.00106195
0.000652333
0.00142174
0.00088214
0.00192575
0.00100916
0.00250444
0.000848589
0.00259801
0.000875228
0.0030159
0.00270549
0.00957401
0.00340244
0.00394232
0.0035584
0.00188704
0.00356024
0.00221107
0.00367496
0.00172376
0.00407134
0.00039435
0.00453117
-0.00126078
0.0046533
-0.00270697
0.00440435
-0.00373016
0.00386022
-0.004232
0.00312596
-0.00419011
0.00231547
-0.00367262
0.00151836
-0.00279377
0.000818446
-0.00177096
0.00027632
-0.000833693
-2.40224e-05
-0.000241832
-0.000113056
7.58894e-05
-8.39064e-05
0.000198138
-6.68654e-05
0.000188067
-0.00010673
0.000117305
-0.000195591
4.5266e-05
-0.0003118
1.78947e-06
-0.000433145
-1.02368e-05
-0.000535496
-3.41173e-07
-0.000598954
1.69508e-05
-0.000624242
2.27838e-05
-0.000622963
1.29615e-05
-0.00060316
-6.87969e-06
-0.000562203
-3.04456e-05
-0.000490702
-4.86808e-05
-0.000380021
-4.57473e-05
-0.000230727
-2.8906e-06
-3.67086e-05
8.20629e-05
0.000210937
0.000206483
0.000499844
0.000363362
0.000839375
0.000542545
0.00122021
0.000628264
0.0014901
0.000578628
0.000827633
0.00153764
0.00403211
0.0101166
0.0140485
0.0121985
0.003737
0.0108317
0.00357787
0.00996869
0.00258669
0.00924626
0.00111675
0.00839487
-0.000409397
0.00736795
-0.00168005
0.00617198
-0.00253419
0.00484929
-0.00290932
0.00347059
-0.00281143
0.00214607
-0.00234815
0.000941861
-0.00158962
-3.517e-05
-0.000793996
-0.000639424
-0.000229498
-0.000907924
2.661e-05
-0.000981268
0.000149176
-0.00097454
0.000191352
-0.000968322
0.00018179
-0.000996093
0.000145014
-0.00105704
0.000106153
-0.0011348
7.94836e-05
-0.00121212
6.70083e-05
-0.00127591
6.33857e-05
-0.00132051
6.14751e-05
-0.00135318
5.53914e-05
-0.00138543
4.51399e-05
-0.00142789
3.55104e-05
-0.00149231
3.38994e-05
-0.00159054
4.94794e-05
-0.00173064
9.42777e-05
-0.00191617
0.000182571
-0.00216704
0.000332865
-0.00252341
0.000562792
-0.00304473
0.000884612
-0.00380509
0.00130284
-0.00492995
0.00175306
-0.00635594
0.00200455
-0.00621029
0.00139192
-0.00197538
0.0122995
0.00648628
0.0104961
0.00538131
0.00948667
0.00359613
0.00875466
0.0018488
0.00791382
0.000431482
0.0067773
-0.000543507
0.00535487
-0.00111175
0.0037797
-0.00133417
0.00216637
-0.00119814
0.000662357
-0.000844199
-0.000549838
-0.000377497
-0.00130578
-3.81218e-05
-0.00164137
0.000106027
-0.00176937
0.000154547
-0.00179331
0.000173046
-0.00178323
0.000181213
-0.00177662
0.00017511
-0.00178931
0.000157635
-0.00182016
0.000136928
-0.00186012
0.000119376
-0.00190015
0.000106959
-0.00193532
9.84801e-05
-0.00196552
9.16089e-05
-0.001995
8.47946e-05
-0.00202888
7.89391e-05
-0.00207102
7.75817e-05
-0.00212365
8.64542e-05
-0.00218757
0.000113322
-0.00226168
0.00016832
-0.00234393
0.000264754
-0.00243013
0.000418996
-0.00251251
0.0006451
-0.00257267
0.000944702
-0.00257214
0.00130224
-0.00248875
0.0016696
-0.00205711
0.00157284
-0.000821294
0.000156043
-0.00274744
-0.000274141
0.00678936
0.00126764
0.00383954
0.00212089
0.0027429
0.00244283
0.00152687
0.00237513
0.000499171
0.00194396
-0.000112366
0.00116267
-0.000330514
0.00014742
-0.000318987
-0.000883054
-0.000167755
-0.00171423
-1.30961e-05
-0.00220062
0.000108821
-0.00239547
0.000156651
-0.00244988
0.000160369
-0.00244437
0.000148964
-0.00241206
0.000140659
-0.00236858
0.000137666
-0.00232746
0.000133908
-0.00229631
0.000126419
-0.00227588
0.000116419
-0.002263
0.000106422
-0.00225434
9.8211e-05
-0.00224834
9.24074e-05
-0.00224562
8.88081e-05
-0.00224797
8.70661e-05
-0.00225664
8.75304e-05
-0.00227073
9.16013e-05
-0.0022861
0.000101748
-0.00229439
0.000121534
-0.00228196
0.000155814
-0.00222863
0.000211351
-0.00210761
0.000297909
-0.00188974
0.000427163
-0.00153932
0.000594203
-0.000985008
0.000747868
-6.09201e-05
0.000745444
0.0011469
0.000364957
0.00181935
-0.000516484
-0.000875738
-0.0142686
-0.0179604
-0.0111545
-0.0073057
-0.00455714
-0.00302871
-0.00253358
-0.00265556
-0.00299884
-0.00333317
-0.00351865
-0.00355183
-0.00346507
-0.00333215
-0.00319657
-0.003073
-0.00295811
-0.0028465
-0.00273891
-0.00263908
-0.0025495
-0.00247014
-0.00239917
-0.00233415
-0.00227289
-0.00221354
-0.00215394
-0.00209054
-0.00201731
-0.00192462
-0.00179796
-0.00161596
-0.00134746
-0.000949585
-0.00038439
0.000334816
0.00105152
0.00138691
0.000840004
)
;

boundaryField
{
    floor
    {
        type            calculated;
        value           nonuniform List<scalar> 
36
(
0
0
0
0
0
0
0
0
0
0
0
0
0
0
0
0
0
0
0
-1.62264e-06
-4.58961e-06
-7.31557e-06
-9.64227e-06
-8.02223e-06
-6.11276e-06
-5.69369e-06
-1.02381e-06
-1.62967e-06
-1.85333e-06
-2.16858e-06
-1.40876e-06
-3.32906e-06
-4.2484e-06
-4.71637e-06
-5.91785e-06
-4.91809e-06
)
;
    }
    ceiling
    {
        type            calculated;
        value           nonuniform List<scalar> 
43
(
-1.69343e-05
-1.68527e-05
-1.66303e-05
-9.26522e-06
-5.71181e-06
-1.62893e-06
3.94374e-06
9.53686e-06
1.26851e-05
1.52624e-05
1.76504e-05
2.00017e-05
2.19819e-05
2.36564e-05
2.47133e-05
2.53164e-05
2.56876e-05
2.59702e-05
2.6238e-05
2.65064e-05
2.67596e-05
2.69789e-05
2.71592e-05
2.73123e-05
2.74615e-05
2.76339e-05
2.78513e-05
2.81232e-05
2.84406e-05
2.87736e-05
2.90728e-05
2.92787e-05
2.93354e-05
2.92121e-05
2.89358e-05
2.85896e-05
2.8672e-05
2.9491e-05
3.03474e-05
3.17299e-05
1.41683e-05
1.04082e-05
-2.89301e-05
)
;
    }
    sWall
    {
        type            calculated;
        value           uniform -0.000194083;
    }
    nWall
    {
        type            calculated;
        value           nonuniform List<scalar> 6(-3.75515e-05 -4.58048e-05 -4.88499e-05 -4.93081e-05 -5.2422e-05 -6.75406e-05);
    }
    sideWalls
    {
        type            empty;
        value           nonuniform 0();
    }
    glass1
    {
        type            calculated;
        value           nonuniform List<scalar> 9(-5.34154e-05 -0.000145802 -0.000225137 -0.000293918 -0.000353213 -0.000403579 -0.000447835 -0.000499647 -0.000556754);
    }
    glass2
    {
        type            calculated;
        value           nonuniform List<scalar> 2(-0.000188633 -0.000202873);
    }
    sun
    {
        type            calculated;
        value           uniform 0;
    }
    Table_master
    {
        type            calculated;
        value           nonuniform List<scalar> 9(-1.52043e-07 -1.52207e-07 -1.5226e-07 -1.52289e-07 -1.52306e-07 -1.52314e-07 -1.52315e-07 -1.52306e-07 -1.52267e-07);
    }
    Table_slave
    {
        type            calculated;
        value           nonuniform List<scalar> 9(1.51877e-07 1.51886e-07 1.51863e-07 1.51851e-07 1.51842e-07 1.51846e-07 1.51866e-07 1.51907e-07 1.51979e-07);
    }
    inlet
    {
        type            calculated;
        value           uniform -0.0150488;
    }
    outlet
    {
        type            calculated;
        value           nonuniform List<scalar> 2(0.0144796 0.00370865);
    }
}


// ************************************************************************* //
