/*--------------------------------*- C++ -*----------------------------------*\
  =========                 |
  \\      /  F ield         | OpenFOAM: The Open Source CFD Toolbox
   \\    /   O peration     | Website:  https://openfoam.org
    \\  /    A nd           | Version:  6
     \\/     M anipulation  |
\*---------------------------------------------------------------------------*/
FoamFile
{
    version     2.0;
    format      ascii;
    class       surfaceScalarField;
    location    "400";
    object      phi;
}
// * * * * * * * * * * * * * * * * * * * * * * * * * * * * * * * * * * * * * //

dimensions      [1 0 -1 0 0 0 0];

internalField   nonuniform List<scalar> 
850
(
-0.00244829
0.00251405
-0.0025869
0.000138669
-0.00290499
0.000318152
-0.00327817
0.000373235
-0.00363567
0.000357559
-0.00394418
0.000308562
-0.0041803
0.000236169
-0.00432254
0.000142296
-0.00434871
2.62275e-05
-0.00423311
-0.00011555
-0.00394996
-0.000283099
-0.00348008
-0.000469824
-0.00278916
-0.000690865
-0.0017361
-0.00105302
-0.00173357
-0.000452587
0.000456393
-0.000193212
-0.00025933
0.000121789
-0.000314964
0.000345459
-0.000223638
0.000324765
2.07314e-05
0.000100442
0.00022436
-0.000112606
0.000213065
-0.000323601
0.000210969
-0.000493067
0.00016942
-0.0005969
0.000103792
-0.000637756
4.08298e-05
-0.000616798
-2.09688e-05
-0.000525804
-9.09908e-05
-0.000353245
-0.000172534
1.5053e-05
-0.000368228
0.000510564
-0.000495435
0.000750576
-0.000239949
0.000755359
-0.00182249
0.00450738
-0.00239557
0.00071182
-0.00290838
0.000831023
-0.00334971
0.000814623
-0.00374416
0.00075207
-0.00408224
0.000646701
-0.00434857
0.000502558
-0.00452599
0.000319773
-0.00459721
9.75059e-05
-0.00454784
-0.000164857
-0.00436452
-0.000466362
-0.00402974
-0.000804548
-0.00353326
-0.00118729
-0.00297186
-0.00161437
-0.00281938
-0.00188599
-0.00108664
-0.00172792
0.000531462
-0.00161299
0.000546504
4.85698e-05
0.000418081
-0.000286517
7.57916e-05
-0.000382213
-0.00021925
-0.000264069
-0.000341779
-0.000182865
-6.04757e-05
-0.00023898
0.000280489
-0.00022759
0.000201691
-0.000208035
0.000191419
-0.000193617
0.000154993
-0.000184576
9.47359e-05
-0.000185418
4.16569e-05
-0.000195062
-1.13354e-05
-0.000196281
-8.97674e-05
-0.000195773
-0.000172995
-4.9781e-05
-0.000514074
0.000138022
-0.00068313
0.000125849
-0.000227692
0.000894115
-0.00138314
0.00614452
-0.00214305
0.0014718
-0.00272688
0.00141492
-0.00319033
0.00127814
-0.00359961
0.00116141
-0.00395524
0.0010024
-0.00424713
0.000794508
-0.00446178
0.000534483
-0.00458533
0.000221109
-0.00460805
-0.000142071
-0.0045254
-0.000548958
-0.00434162
-0.000988266
-0.00408883
-0.00144002
-0.00384703
-0.00185611
-0.00361276
-0.00212021
-0.00313501
-0.00220562
-0.00254849
-0.00219945
-0.00198939
-0.00106671
0.00149845
-0.00134438
0.000353487
-0.00143428
-0.000129346
-0.00134472
-0.000431332
-0.000793001
-0.000612193
-0.000512349
-0.000310491
-0.000118902
3.62591e-05
0.000131158
0.000172979
0.000161808
7.22055e-05
-0.000100577
-0.000201578
-0.00041286
-0.000990021
0.000105444
-0.00133188
0.000114292
-0.000419491
-0.00105716
0.00752329
-0.00187353
0.00228825
-0.00240296
0.00194442
-0.00282824
0.00170349
-0.00320846
0.0015417
-0.0035445
0.0013385
-0.00383069
0.00108076
-0.00405735
0.000761205
-0.00421176
0.000375591
-0.00428295
-7.08227e-05
-0.00427342
-0.000558419
-0.00421082
-0.00105081
-0.0041439
-0.00150688
-0.00412346
-0.00187648
-0.00413891
-0.0021047
-0.00415873
-0.00218574
-0.00426913
-0.002089
-0.00476141
-0.00149706
-0.00415957
-0.000587187
-0.00299421
0.00033314
-0.00288215
0.000241487
-0.0028854
-0.000126044
-0.00291414
-0.000402522
-0.00303366
-0.000492604
-0.00262597
-0.000407749
-0.00218481
-0.000441217
-0.00163215
-0.000552698
-0.000922106
-0.000710079
-3.59746e-05
-0.000886142
0.000942348
-0.000978338
0.00187149
-0.000929161
0.00268689
-0.000815425
0.00328391
-0.000597032
0.00312927
-0.000258088
0.00288368
0.000351175
0.00209372
0.00090439
0.00169322
-0.000794761
0.00869657
-0.00160545
0.00309903
-0.00197486
0.0023139
-0.00231299
0.00204169
-0.00261629
0.00184507
-0.00288058
0.00160286
-0.00310602
0.00130628
-0.0032892
0.000944457
-0.00342083
0.000507295
-0.00348684
-4.7437e-06
-0.00348782
-0.000557362
-0.00346496
-0.0010736
-0.00346617
-0.0015056
-0.00352244
-0.00182015
-0.00363016
-0.00199691
-0.00378611
-0.00202972
-0.00400684
-0.00186821
-0.00411165
-0.00139218
-0.00394927
-0.000749497
-0.00336444
-0.00025163
-0.00293052
-0.000192368
-0.00272247
-0.000334016
-0.00263974
-0.00048517
-0.00256114
-0.00057111
-0.00233414
-0.000634643
-0.00201301
-0.000762226
-0.00159437
-0.000971205
-0.00105603
-0.00124827
-0.000390717
-0.00155129
0.000388965
-0.00175785
0.00120237
-0.00174242
0.00195984
-0.00157276
0.00258321
-0.00122026
0.00291722
-0.000591948
0.00299752
0.000271022
0.00286925
0.00103281
0.00321336
0.00134925
0.00183996
0.00139435
-0.000438311
0.00230039
-0.000360671
-0.000699844
0.00982442
-0.00144702
0.00384629
-0.00148468
0.00235165
-0.00169073
0.00224782
-0.00189155
0.00204597
-0.00204387
0.00175526
-0.00215756
0.00142004
-0.00224153
0.00102851
-0.00229561
0.000561448
-0.002305
4.73467e-06
-0.00227075
-0.000591529
-0.00224246
-0.00110181
-0.00225729
-0.0014907
-0.00232952
-0.00174784
-0.0024538
-0.00187256
-0.00262071
-0.00186274
-0.00279799
-0.00169085
-0.00285614
-0.00133395
-0.00272029
-0.000885267
-0.00242878
-0.000543069
-0.00219734
-0.000423724
-0.00207967
-0.000451598
-0.00203452
-0.000530227
-0.00198848
-0.000617037
-0.00188886
-0.000734142
-0.00172573
-0.000925218
-0.0014861
-0.00121068
-0.00115479
-0.00157942
-0.000728171
-0.00197772
-0.000196381
-0.00228945
0.000417834
-0.00235648
0.0010444
-0.00219918
0.00165456
-0.00183027
0.00219862
-0.00113585
0.00257451
-0.000104704
0.00278877
0.000818693
0.00283525
0.00130291
0.00259998
0.00162977
0.0024943
0.0024062
0.00220429
-0.000997077
0.0112931
-0.00124991
0.0040992
-0.000768375
0.0018702
-0.000860964
0.00234049
-0.00101487
0.00219995
-0.00106158
0.00180206
-0.00103385
0.0013924
-0.000967318
0.00096207
-0.000876047
0.000470268
-0.000773675
-9.75458e-05
-0.000691391
-0.000673724
-0.000666721
-0.00112639
-0.000711973
-0.00144537
-0.000822045
-0.00163768
-0.000981517
-0.001713
-0.0011675
-0.00167668
-0.00133537
-0.00152291
-0.00141388
-0.00125536
-0.00136614
-0.000932933
-0.00124392
-0.000665199
-0.00114778
-0.000519778
-0.00112117
-0.000478114
-0.00115077
-0.000500517
-0.00120124
-0.00056644
-0.00124699
-0.000688248
-0.00127434
-0.000897711
-0.00126226
-0.00122258
-0.0011847
-0.00165678
-0.00102483
-0.00213737
-0.000781484
-0.00253258
-0.000474672
-0.00266312
-0.00012556
-0.00254815
0.000297823
-0.0022535
0.000801053
-0.00163892
0.0013193
-0.000622789
0.00175515
0.000382995
0.00202242
0.00103579
0.00233416
0.00131818
0.00254384
0.00219666
0.00482213
0.00171279
0.0101046
0.00204871
0.00376335
0.00157763
0.00234137
0.00104824
0.00286997
0.000650192
0.00259809
0.000512025
0.00194032
0.000584916
0.0013196
0.00075623
0.000790851
0.000984154
0.000242441
0.00119459
-0.000307886
0.00127111
-0.000750152
0.00123151
-0.00108671
0.00110373
-0.00131751
0.000912853
-0.00144672
0.000681173
-0.00148124
0.000433962
-0.00142938
0.000210382
-0.00129925
5.9216e-05
-0.00110411
4.31884e-06
-0.00087795
1.26593e-05
-0.000673452
2.22353e-05
-0.000529261
-7.31885e-06
-0.000448457
-8.57629e-05
-0.000421956
-0.000208384
-0.000443685
-0.000373902
-0.000522575
-0.00058473
-0.000686704
-0.000823054
-0.00098405
-0.00104483
-0.00143478
-0.0012105
-0.00197145
-0.00129757
-0.00244526
-0.00136334
-0.00259717
-0.00149575
-0.0024156
-0.0015783
-0.0021708
-0.00145364
-0.00176342
-0.000975291
-0.00110098
-0.000401171
-0.000190939
8.36569e-05
0.000551106
0.000656332
0.000745633
0.000579947
0.00227317
0.005732
0.0106817
0.01444
0.0108611
0.00592036
0.00859525
0.00513585
0.00688365
0.00430977
0.00569859
0.00312545
0.00496953
0.00204874
0.00455849
0.00120198
0.00426795
0.000533066
0.00397949
-1.93441e-05
0.00369092
-0.000461499
0.00338864
-0.000784343
0.00306669
-0.000995479
0.00272874
-0.00110869
0.00238556
-0.00113798
0.0020532
-0.00109694
0.0017537
-0.000999663
0.00151247
-0.000862783
0.00134355
-0.000708946
0.001235
-0.000564805
0.00115609
-0.000450259
0.00107873
-0.000370989
0.000982384
-0.000325495
0.000850138
-0.000311309
0.000658007
-0.000330292
0.000367245
-0.000395759
-5.51636e-05
-0.000561399
-0.000578536
-0.000911161
-0.00108275
-0.00146695
-0.0014992
-0.0020285
-0.00194166
-0.00215444
-0.00276627
-0.00159087
-0.00386623
-0.00107071
-0.00503642
-0.000593092
-0.0061379
6.30079e-07
-0.00710403
0.000775326
-0.00820195
0.00164916
-0.00965101
0.00219481
-0.00880152
0.00142379
-0.00270863
0.00641542
0.0056711
0.00580963
0.00574167
0.00591683
0.00420262
0.00600842
0.00303392
0.00601104
0.00204619
0.00597705
0.00123604
0.00589403
0.000616155
0.00571592
0.000158837
0.00543221
-0.000177718
0.00507131
-0.000423369
0.00466438
-0.000588469
0.00423823
-0.000682456
0.00381606
-0.000715737
0.00341807
-0.000698872
0.00306149
-0.000643003
0.00275961
-0.000560816
0.00251782
-0.000467067
0.00232983
-0.000376718
0.00218016
-0.000300495
0.00205139
-0.000242112
0.00192647
-0.000200458
0.0017877
-0.000172416
0.00161252
-0.000154968
0.00136701
-0.000150079
0.00099081
-0.000185001
0.000402579
-0.000322696
-0.000303886
-0.000760154
-0.000833694
-0.00149829
-0.00105376
-0.0019339
-0.00155499
-0.00108953
-0.00233633
-0.000289276
-0.00300434
7.50155e-05
-0.00358124
0.000577645
-0.00400583
0.00120002
-0.00416739
0.00181083
-0.00387508
0.0019026
-0.00217972
-0.000271497
-0.00479706
-1.91163e-05
0.00570399
0.00217672
0.00354586
0.00355625
0.00282312
0.00457483
0.00201539
0.0053092
0.00131188
0.0057533
0.000792002
0.00595125
0.00041826
0.00596032
0.000149842
0.00582325
-4.05894e-05
0.00557506
-0.000175107
0.00525145
-0.000264785
0.00488588
-0.000316814
0.00450733
-0.000337112
0.00413996
-0.000331428
0.00380262
-0.000305587
0.00350783
-0.000265938
0.00326041
-0.000219562
0.00305726
-0.000173488
0.00288979
-0.000132924
0.00274774
-9.99656e-05
0.00262142
-7.40246e-05
0.00250175
-5.26323e-05
0.00237835
-3.14441e-05
0.00223437
-5.947e-06
0.00203211
1.74257e-05
0.00171311
-3.52103e-06
0.00117061
-0.000217437
0.000434021
-0.000761234
-6.826e-05
-0.00143071
-0.000282314
-0.000875271
-0.000546632
-2.48897e-05
-0.000795192
0.000323643
-0.000911167
0.000693703
-0.000697888
0.000986823
-3.38573e-06
0.00111641
0.00128968
0.000609611
0.00170103
-0.000682768
-0.0029962
-0.00897152
-0.011101
-0.00538547
-0.00183359
0.000993698
0.00301249
0.00432753
0.00512262
0.005544
0.00569704
0.00565977
0.0054881
0.00522688
0.00491377
0.00458053
0.00425316
0.00395183
0.00369039
0.00347559
0.00330715
0.00317961
0.00308537
0.00301745
0.00297133
0.00294682
0.00294825
0.0029735
0.00297831
0.00276989
0.00201919
0.000603402
-0.000253879
-0.000261802
7.73196e-05
0.000784899
0.00178457
0.00291334
0.00353548
0.00286593
)
;

boundaryField
{
    floor
    {
        type            calculated;
        value           nonuniform List<scalar> 
36
(
0
0
0
0
0
0
0
0
0
0
0
0
0
0
0
0
0
0
0
-4.73354e-06
-1.28479e-05
-1.8163e-05
-1.88505e-05
-2.08049e-05
-2.19923e-05
-2.07622e-05
-2.47968e-06
-4.76386e-06
-5.06462e-06
-5.96769e-06
-3.74983e-06
-9.02831e-06
-1.02039e-05
-1.25433e-05
-1.36246e-05
-1.4602e-05
)
;
    }
    ceiling
    {
        type            calculated;
        value           nonuniform List<scalar> 
43
(
-1.18619e-05
-1.18652e-05
-1.15259e-05
-5.97874e-06
-4.12381e-06
-3.34423e-06
-3.10147e-06
-3.03294e-06
-3.05665e-06
-3.13888e-06
-3.25303e-06
-3.37096e-06
-3.49869e-06
-3.64046e-06
-3.80009e-06
-3.98113e-06
-4.1867e-06
-4.41928e-06
-4.68039e-06
-4.97055e-06
-5.28942e-06
-5.63611e-06
-6.0092e-06
-6.40624e-06
-6.82297e-06
-7.2542e-06
-7.70073e-06
-8.20334e-06
-8.85883e-06
-1.01802e-05
-1.38804e-05
-1.74331e-05
-1.6904e-05
-1.5418e-05
-1.38037e-05
-1.27722e-05
-1.22887e-05
-1.24589e-05
-1.31492e-05
-1.33647e-05
8.08156e-06
5.09892e-06
-1.37685e-05
)
;
    }
    sWall
    {
        type            calculated;
        value           uniform -0.000209903;
    }
    nWall
    {
        type            calculated;
        value           nonuniform List<scalar> 6(-5.67166e-05 -7.05375e-05 -7.38646e-05 -9.12237e-05 -9.97598e-05 -0.000116836);
    }
    sideWalls
    {
        type            empty;
        value           nonuniform 0();
    }
    glass1
    {
        type            calculated;
        value           nonuniform List<scalar> 9(-6.56957e-05 -0.000170776 -0.000253946 -0.00032155 -0.000378466 -0.000427948 -0.000471582 -0.00052417 -0.000585147);
    }
    glass2
    {
        type            calculated;
        value           nonuniform List<scalar> 2(-0.000329804 -0.000360786);
    }
    sun
    {
        type            calculated;
        value           uniform 0;
    }
    Table_master
    {
        type            calculated;
        value           nonuniform List<scalar> 9(-1.5444e-07 -1.54575e-07 -1.54668e-07 -1.54748e-07 -1.54784e-07 -1.54792e-07 -1.54813e-07 -1.54836e-07 -1.54827e-07);
    }
    Table_slave
    {
        type            calculated;
        value           nonuniform List<scalar> 9(1.53466e-07 1.53604e-07 1.53748e-07 1.53928e-07 1.54161e-07 1.54144e-07 1.5385e-07 1.53587e-07 1.53398e-07);
    }
    inlet
    {
        type            calculated;
        value           uniform -0.00616616;
    }
    outlet
    {
        type            calculated;
        value           nonuniform List<scalar> 2(0.00919331 0.00214138);
    }
}


// ************************************************************************* //
