/*--------------------------------*- C++ -*----------------------------------*=========                 |
  \      /  F ield         | OpenFOAM: The Open Source CFD Toolbox
   \    /   O peration     | Website:  https://openfoam.org
    \  /    A nd           | Version:  6
     \/     M anipulation  |
\*---------------------------------------------------------------------------*/
FoamFile
{
    version     2.0;
    format      ascii;
    class       volScalarField;
    location    "400";
    object      PMV;
}
// * * * * * * * * * * * * * * * * * * * * * * * * * * * * * * * * * * * * * //

dimensions      [0 0 0 0 0 0 0];

internalField   nonuniform List<scalar> 
458
(
1.687714615602402
1.5050311134982994
1.5197958663473945
1.503119663469493
1.4889181457733482
1.4762712711924264
1.466599356964344
1.4601378487802972
1.457168989821341
1.457704566884193
1.4631269701228997
1.4755262840366763
1.4971789946347158
1.5177155148095356
1.4988392804541908
1.4716162503638692
1.4653937821692338
1.4673084118668165
1.4673084118668165
1.4644364593346928
1.4591710892176104
1.4495972844935774
1.4318844067111918
1.4084242493461279
1.385440193846078
1.3672427108231462
1.3538330864831998
1.3437753584663685
1.3365910073818146
1.3351541116754817
1.3313223487662447
1.3294064450946446
1.3365910073818146
1.690265988810587
1.4980669123779076
1.5324340075606617
1.5105191266179592
1.4978819762598123
1.4875296820064587
1.4802405320292518
1.4754416328512963
1.472720073615827
1.4723678619027587
1.4748288392483184
1.4782900342410075
1.482265632774506
1.482050624032034
1.476063208802728
1.5041517656892298
1.5536514229480693
1.5631487539565072
1.3924019922179047
1.4644364593346928
1.4663510996841553
1.4639577959265178
1.4534268684444542
1.4385867775884056
1.4256605620494556
1.412254672188582
1.3954960336244469
1.3777782812944162
1.3614958257087384
1.3471279820805604
1.3356330778473293
1.3294064450946446
1.3456911491720964
1.3389858147677807
1.3327592668234463
1.2705021223550998
1.7644573526099763
1.4897272239554016
1.556711566828158
1.5318405231406402
1.5240657254208005
1.5187633864034322
1.5156946744991548
1.5141069236623745
1.5129149548769056
1.5122306141769155
1.5120847766234804
1.5082594052221434
1.499506480021405
1.4831320290005912
1.462817042468764
1.4484471968932695
1.431609375659062
1.4046706582335684
1.472462238362424
1.4693448776172162
1.47557022723645
1.4641143576266498
1.4591710892176104
1.420394073085453
1.4065090102972688
1.3969325425171053
1.385440193846078
1.372989448153367
1.36293256071054
1.3538330864831998
1.3442543075845794
1.3385068551760084
1.3835247413966207
1.3581434087664561
1.3599669903473188
1.2510793953983563
1.8567674104466525
1.4953149719580068
1.5803795616576268
1.5566478387865097
1.5572946273765669
1.5602570028915521
1.564179257773729
1.5683459493736742
1.5716101833079572
1.5734215237692268
1.5734919852552365
1.5671652936506737
1.5524319720768762
1.5278556903173042
1.4951164651221895
1.4575104616823495
1.4136245133532437
1.3691474704572855
1.3496926022187243
1.38797459959429
1.397822306097151
1.4141022446965221
1.411226008097111
1.4038766930360675
1.4094434822558612
1.4290096883166266
1.4554520939463669
1.4922891799517848
1.4912394462972087
1.4854963133471477
1.4681075635808687
1.41528293127644
1.3764759892496912
1.3554164407787916
1.351347856068835
1.3600848910734598
1.4361931014608595
1.9528726500704514
1.5147735546172634
1.5975792034951768
1.580202789565663
1.5910480301036691
1.603307292495876
1.6171124316290364
1.6302658380494983
1.6413945852471434
1.6492121253021816
1.6524251600077553
1.6483035228724663
1.634613967238575
1.6112842031645036
1.5788839017051046
1.5396536564240835
1.4954957657305241
1.4558903696634033
1.4333034741526698
1.4308819573270435
1.4486825174948725
1.4630758485775774
1.4628272935000846
1.459467963986532
1.4614314381501081
1.4693122999856416
1.482098860527865
1.4960688218132363
1.5029910454097684
1.498210816098993
1.481115446687871
1.4515997356487031
1.4213671303328386
1.3949446528854286
1.3712267383770491
1.347848298764276
1.3440709466623286
1.2996476075899956
1.2798764249306402
1.2085605723034205
2.042064464824372
1.5479342693552451
1.6166340317032963
1.6005127003345032
1.619292612658512
1.6420793743021997
1.6663293294599937
1.6905585275539012
1.7125194685582548
1.7299449759453396
1.7390935078576608
1.7373505599216519
1.726030908735331
1.7065448170255781
1.681162450795481
1.6500900279765975
1.6158491882085546
1.5840610528071901
1.562208045406802
1.553540290610122
1.5520684068826671
1.5491470628127066
1.540542446049284
1.529842989167663
1.5218451077799424
1.5158185211054442
1.508387239997056
1.496876230287265
1.4791294555430763
1.4609450387934582
1.4539702329892799
1.4544920683333882
1.4537047843323176
1.4454380699346159
1.4117348769865838
1.3739654672372783
1.3525372666706525
1.3381539770687614
1.3008902347924571
1.3838150561319777
2.113082531891774
1.6241576605463577
1.699073449044437
1.6339517092131641
1.6455228751182696
1.6774337318462114
1.7136496605189202
1.7534938803685156
1.7847535756886648
1.8043232962802287
1.8210255057029392
1.8278346377094132
1.8094257679716765
1.791376929463247
1.7726834593129153
1.7525449048778092
1.731676039353656
1.7135730205660042
1.700573917856595
1.6926405399685809
1.682062821391884
1.6634238802665695
1.6462159002233683
1.6299615355843526
1.6078638376717984
1.5818752995117236
1.5508136363245226
1.5145149159841886
1.476156443435384
1.4443205850679324
1.4309599079761683
1.4372222829696042
1.453483946002349
1.4856278763714506
1.4912394462972087
1.4457383172157245
1.402470108348185
1.3737741147751958
1.301475973669498
1.3179430851878597
2.2405529643287263
1.927630959408054
1.9155643818267878
1.7805552358230194
1.7442620376774318
1.7581289902706592
1.770908882006672
1.7837988399933298
1.7990733297986206
1.8200711863708212
1.8188615067317881
1.8162176059976682
1.8129384733090341
1.8100316093151088
1.8073476860055229
1.8055525047355407
1.804524423875852
1.8019369889104513
1.7828440937325605
1.7627920162364663
1.7436906394913751
1.7245853569690892
1.704998541651486
1.6849300628803934
1.6648577585575155
1.6438256957088933
1.6203990952399434
1.5580084449815594
1.4983694759079904
1.4492212452334188
1.4234845551303243
1.4252843623366689
1.4306093127118955
1.4393844266254483
1.4608045914296792
1.4854963133471477
1.4716162503638692
1.4630004651360724
1.3225005253822688
1.2219120390277167
2.4199968817566178
2.263292048505434
2.1371240589681113
1.9968427023990645
1.8895076269444344
1.8246875974365446
1.7884845252377692
1.769827591114958
1.762432031336052
1.7609787272011617
1.7610419218902915
1.7618781486947388
1.7630087087624526
1.7657138944735329
1.7689179189600412
1.7737743627601625
1.7792131256485777
1.7845874229717549
1.7882363046561618
1.788430195155981
1.7839425197114185
1.770431439803312
1.7541968895476194
1.7370042273295576
1.7174198989924807
1.695442610287648
1.6682034016488418
1.633786295982161
1.5546601563375277
1.4847160946020763
1.4399516892674284
1.4299269203604419
1.4103577066845385
1.3821547144811965
1.3538580054007765
1.332937579973601
1.319884280287409
1.3137948078708688
1.3068427447345
1.2710029171312691
0.9731036712969006
1.405072179285976
1.6183254704823717
1.6959130557587487
1.7186354933016361
1.7223351247878373
1.7213254892982595
1.71985684725743
1.7196176382434667
1.719519979878333
1.7205208807429264
1.7230580254004781
1.7264154082914118
1.7308039605744674
1.7362686450616935
1.741168850817344
1.7447057591092863
1.7462092710899386
1.7450803724852
1.7418168280031325
1.7372016793610587
1.7311900986796238
1.7249915094199448
1.7192111175784492
1.714553569464485
1.6882750792528594
1.650040123266368
1.5756352712811323
1.5006741607554497
1.5009912327095885
1.4833503780562751
1.4577910924681878
1.4389666868894344
1.4180183270189666
1.4086964630929548
1.4258187868854701
1.4664934066337094
1.3180061354392607
0.9422950467763672
1.4340098356793647
1.5954758917496619
1.6594431121364226
1.6770643663538658
1.6786266934423402
1.6767119223387703
1.6750210138124464
1.674996010213702
1.6765738981921803
1.6797518843769668
1.6841269821100555
1.6892769853225784
1.6952302964758144
1.7014540809649683
1.7068846319720576
1.7110168685255591
1.7140207757507957
1.7153423892232866
1.7146730244158852
1.7128000973234767
1.7090408848324632
1.7037041913507427
1.6968763379312408
1.6897881030969457
1.6870305919141417
1.6985980749738965
1.6739385505629774
1.5582645159062287
1.5209089880786912
1.521865974992361
1.5295216499247244
1.5381338096609671
1.5347971376649296
1.5145525810579252
1.517224571240191
1.4353788085046453
1.369183942719499
1.1241060769652869
1.0955244982654544
1.1360486621393056
1.4722163790789458
1.666276356654903
1.7094590837286683
1.680341259728084
1.6588514211675955
1.6472159025606217
1.6418269011982642
1.6408138068659601
1.6427772479641451
1.6477603787569217
1.6535052629949993
1.6604646395439238
1.668033342920939
1.6750920889416596
1.6810545508411368
1.6859176500351754
1.6883189136560344
1.6891407433283745
1.687950094128243
1.6849312990955916
1.6802924313759524
1.6742218514515275
1.6663354756379603
1.6575040070400153
1.6466188977969076
1.6351399452857132
1.6129815511343089
1.524231514516773
1.3935326056599717
1.4067661398704823
1.4568044187220073
1.5270639539492596
1.5304482915285893
1.4831593564646026
1.4348978903008807
1.3824488179975745
1.3915379145072855
)
;

boundaryField
{
    ".*"
    {
        type            zeroGradient;
    }
}


// ************************************************************************* //
