/*--------------------------------*- C++ -*----------------------------------*\
  =========                 |
  \\      /  F ield         | OpenFOAM: The Open Source CFD Toolbox
   \\    /   O peration     | Website:  https://openfoam.org
    \\  /    A nd           | Version:  6
     \\/     M anipulation  |
\*---------------------------------------------------------------------------*/
FoamFile
{
    version     2.0;
    format      ascii;
    class       volVectorField;
    location    "400";
    object      U;
}
// * * * * * * * * * * * * * * * * * * * * * * * * * * * * * * * * * * * * * //

dimensions      [0 1 -1 0 0 0 0];

internalField   nonuniform List<vector> 
458
(
(0.104038 0.0669039 0)
(-0.136003 0.000856745 0)
(-0.116863 0.00658237 0)
(-0.133214 0.0075475 0)
(-0.14928 0.00652369 0)
(-0.163839 0.00459836 0)
(-0.175728 0.00205478 0)
(-0.184037 -0.00106118 0)
(-0.187901 -0.0048018 0)
(-0.186341 -0.00930552 0)
(-0.177579 -0.0149864 0)
(-0.159076 -0.0222995 0)
(-0.129889 -0.0326577 0)
(-0.0997225 -0.0490462 0)
(-0.100901 -0.0715902 0)
(0.0317352 0.00705186 0)
(-0.0234121 -0.00717391 0)
(-0.00329625 -0.0128788 0)
(0.00789481 -0.0119058 0)
(0.015424 -0.00589586 0)
(0.0129612 0.000173578 0)
(0.00253863 0.00335176 0)
(-0.00946136 0.0054584 0)
(-0.0185783 0.00490971 0)
(-0.0242888 0.00270282 0)
(-0.0272509 0.000332329 0)
(-0.027705 -0.00187826 0)
(-0.0249029 -0.0041092 0)
(-0.0192335 -0.00742924 0)
(-0.00700399 -0.014993 0)
(0.0118784 -0.0249721 0)
(0.0350088 -0.0153948 0)
(-0.0163724 0.0108062 0)
(0.310058 0.147655 0)
(-0.164681 0.0172504 0)
(-0.111313 0.02472 0)
(-0.135013 0.026021 0)
(-0.153127 0.0246549 0)
(-0.169083 0.021669 0)
(-0.182225 0.0173583 0)
(-0.19192 0.0117315 0)
(-0.197446 0.00467508 0)
(-0.197958 -0.004016 0)
(-0.192594 -0.0143021 0)
(-0.180384 -0.026129 0)
(-0.16207 -0.0402857 0)
(-0.142374 -0.0579855 0)
(-0.123585 -0.0727379 0)
(-0.0870805 -0.0579977 0)
(-0.0302132 -0.054452 0)
(-0.019014 0.0570599 0)
(0.108691 0.0232169 0)
(-0.0245074 0.00033083 0)
(-0.0177597 -0.00912552 0)
(-0.018695 -0.0111666 0)
(-0.0104844 -0.00146132 0)
(-0.0017794 0.0120117 0)
(-0.00919404 0.010318 0)
(-0.009758 0.00979246 0)
(-0.00934297 0.00808776 0)
(-0.0086427 0.0056117 0)
(-0.00816545 0.00327892 0)
(-0.00806726 0.000791779 0)
(-0.00826323 -0.00298049 0)
(-0.0121256 -0.00829508 0)
(0.0032612 -0.0210025 0)
(4.02894e-05 -0.0270324 0)
(0.0198321 -0.0126269 0)
(-0.0961214 0.0354026 0)
(0.482627 0.227619 0)
(-0.21408 0.0462128 0)
(-0.095034 0.0478698 0)
(-0.127843 0.044696 0)
(-0.146541 0.0406561 0)
(-0.163174 0.0347011 0)
(-0.177213 0.0267815 0)
(-0.188249 0.0168689 0)
(-0.195696 0.00496699 0)
(-0.198785 -0.00880183 0)
(-0.196941 -0.0243779 0)
(-0.190601 -0.041583 0)
(-0.181168 -0.0599359 0)
(-0.171075 -0.0780805 0)
(-0.159156 -0.0907274 0)
(-0.140894 -0.0919018 0)
(-0.129279 -0.0928107 0)
(-0.155022 -0.0777597 0)
(0.0357242 0.0520769 0)
(-0.0630388 0.0126725 0)
(-0.061123 -0.00485963 0)
(-0.0634511 -0.0156484 0)
(-0.0560061 -0.0158286 0)
(-0.013141 0.0085264 0)
(-0.0174983 0.00490625 0)
(-0.00997933 0.00394591 0)
(-0.00246037 0.0021816 0)
(0.00344346 -0.000398525 0)
(0.00647228 -0.00255242 0)
(0.00760546 -0.00469023 0)
(0.005328 -0.00687139 0)
(-0.0150934 -0.00503913 0)
(0.0243587 -0.0117141 0)
(-0.0230152 -0.00263816 0)
(-0.0637425 0.000840763 0)
(-0.141601 0.00531502 0)
(0.623674 0.295492 0)
(-0.264563 0.0813107 0)
(-0.070684 0.0723394 0)
(-0.113292 0.0642803 0)
(-0.130332 0.0582567 0)
(-0.145839 0.0503863 0)
(-0.159318 0.0402296 0)
(-0.17048 0.0275778 0)
(-0.178862 0.0123248 0)
(-0.183797 -0.00536363 0)
(-0.184284 -0.0248566 0)
(-0.182184 -0.045152 0)
(-0.179156 -0.0647398 0)
(-0.177103 -0.081404 0)
(-0.176041 -0.0916832 0)
(-0.176229 -0.0933312 0)
(-0.184253 -0.0843518 0)
(-0.202565 -0.0473125 0)
(-0.194088 0.0334449 0)
(-0.132034 0.040749 0)
(-0.135759 0.0124219 0)
(-0.125151 -0.00725121 0)
(-0.126455 -0.0195635 0)
(-0.129342 -0.0240065 0)
(-0.122498 -0.0181392 0)
(-0.103858 -0.0189788 0)
(-0.0820619 -0.0230517 0)
(-0.0552482 -0.0286008 0)
(-0.02346 -0.034872 0)
(0.0226291 -0.0364306 0)
(0.0603861 -0.0328379 0)
(0.0974282 -0.0279061 0)
(0.129159 -0.0214664 0)
(0.142727 -0.0128334 0)
(0.133796 0.00863352 0)
(0.112701 0.0240271 0)
(0.0186422 0.0326133 0)
(0.737917 0.35216 0)
(-0.309305 0.11828 0)
(-0.0422717 0.0929496 0)
(-0.0930788 0.0810475 0)
(-0.106625 0.0733384 0)
(-0.11877 0.0637399 0)
(-0.129378 0.0516743 0)
(-0.138298 0.0367616 0)
(-0.145288 0.0187712 0)
(-0.149776 -0.00205001 0)
(-0.150072 -0.0243822 0)
(-0.149032 -0.046109 0)
(-0.148279 -0.0652653 0)
(-0.149364 -0.0801418 0)
(-0.152773 -0.0893418 0)
(-0.158959 -0.0927042 0)
(-0.168557 -0.0892206 0)
(-0.177034 -0.0718266 0)
(-0.174844 -0.0336726 0)
(-0.156599 0.000285098 0)
(-0.134938 0.00192298 0)
(-0.120658 -0.00911483 0)
(-0.115486 -0.0181576 0)
(-0.112555 -0.0223768 0)
(-0.105933 -0.0223616 0)
(-0.0939449 -0.0265206 0)
(-0.0777513 -0.0340095 0)
(-0.0571724 -0.0441488 0)
(-0.0323673 -0.0553707 0)
(-0.000381952 -0.0622547 0)
(0.0346183 -0.059705 0)
(0.0673982 -0.0522458 0)
(0.0972076 -0.0380652 0)
(0.119711 -0.0153738 0)
(0.131574 0.0162613 0)
(0.135084 0.0437404 0)
(0.115343 0.0654653 0)
(0.131759 0.112616 0)
(0.118212 0.165198 0)
(-0.407975 0.0870367 0)
(0.817437 0.403002 0)
(-0.347222 0.152056 0)
(-0.0173887 0.104302 0)
(-0.068141 0.0939773 0)
(-0.0779319 0.0845072 0)
(-0.0852624 0.0731118 0)
(-0.0909636 0.059564 0)
(-0.0953771 0.0431867 0)
(-0.0986826 0.0234167 0)
(-0.100081 0.000195971 0)
(-0.0980031 -0.0245211 0)
(-0.0961289 -0.0467485 0)
(-0.0957191 -0.0644321 0)
(-0.0976483 -0.0766165 0)
(-0.102085 -0.0828149 0)
(-0.10894 -0.0828589 0)
(-0.117256 -0.0757938 0)
(-0.12297 -0.0600353 0)
(-0.121144 -0.0385421 0)
(-0.11118 -0.020319 0)
(-0.0991177 -0.0148581 0)
(-0.0913736 -0.0178954 0)
(-0.0883575 -0.0230429 0)
(-0.0868741 -0.0274186 0)
(-0.0838858 -0.0315588 0)
(-0.078098 -0.0386582 0)
(-0.0692094 -0.0494395 0)
(-0.0568258 -0.0633954 0)
(-0.0407737 -0.0785461 0)
(-0.0210224 -0.0901318 0)
(0.00481225 -0.0919542 0)
(0.0305223 -0.0850748 0)
(0.0561391 -0.0690101 0)
(0.0808402 -0.0389386 0)
(0.106133 0.00464585 0)
(0.119509 0.0417101 0)
(0.11968 0.061024 0)
(0.119967 0.0692271 0)
(0.138057 0.103431 0)
(-0.092864 0.0506786 0)
(0.836918 0.44879 0)
(-0.368355 0.156872 0)
(0.00176465 0.0861844 0)
(-0.029957 0.104774 0)
(-0.0418694 0.093998 0)
(-0.0459709 0.0775362 0)
(-0.0459075 0.0617186 0)
(-0.0440785 0.0443673 0)
(-0.0415499 0.0237199 0)
(-0.0358708 -0.00133162 0)
(-0.0298264 -0.0277164 0)
(-0.027407 -0.0488309 0)
(-0.0281437 -0.0640396 0)
(-0.0318362 -0.0735702 0)
(-0.038041 -0.0777287 0)
(-0.0460315 -0.0766565 0)
(-0.0543595 -0.0697614 0)
(-0.0602041 -0.0566659 0)
(-0.0609121 -0.0404975 0)
(-0.0567313 -0.0269981 0)
(-0.0513133 -0.0207542 0)
(-0.0483812 -0.0202805 0)
(-0.0486247 -0.0227485 0)
(-0.0506368 -0.0266262 0)
(-0.0528434 -0.0323832 0)
(-0.0543272 -0.0416201 0)
(-0.054494 -0.055229 0)
(-0.0526097 -0.0727161 0)
(-0.0476815 -0.0918043 0)
(-0.0390058 -0.107532 0)
(-0.0268381 -0.113069 0)
(-0.0138533 -0.108938 0)
(0.000310467 -0.0961978 0)
(0.0177832 -0.0686982 0)
(0.0443737 -0.0221307 0)
(0.0727842 0.0262242 0)
(0.082457 0.0511658 0)
(0.0919072 0.0614196 0)
(0.145661 0.0922463 0)
(-0.0853482 0.143576 0)
(0.937736 0.47523 0)
(-0.171386 0.136375 0)
(0.0615365 0.0327021 0)
(0.0764261 0.0627588 0)
(0.0381619 0.0710127 0)
(0.0201805 0.0561296 0)
(0.0209938 0.0402839 0)
(0.0272863 0.0250483 0)
(0.0340987 0.00553837 0)
(0.0489483 -0.0163903 0)
(0.0557183 -0.0351625 0)
(0.0558753 -0.0502247 0)
(0.0517085 -0.0610628 0)
(0.0444508 -0.0675223 0)
(0.0349916 -0.0697269 0)
(0.0242538 -0.0679129 0)
(0.0135183 -0.0621014 0)
(0.00479003 -0.0523269 0)
(7.79839e-05 -0.0402958 0)
(-0.000558106 -0.0295374 0)
(0.000469861 -0.0227169 0)
(0.000486869 -0.01964 0)
(-0.0017223 -0.0194129 0)
(-0.0060706 -0.0214765 0)
(-0.0122372 -0.0262913 0)
(-0.0201558 -0.0352431 0)
(-0.0297996 -0.0497595 0)
(-0.0403011 -0.0694795 0)
(-0.0488039 -0.0916481 0)
(-0.0532381 -0.110268 0)
(-0.0556585 -0.116764 0)
(-0.0604453 -0.111457 0)
(-0.0684968 -0.102018 0)
(-0.0724245 -0.0859779 0)
(-0.0632819 -0.06117 0)
(-0.0204436 -0.0281584 0)
(-0.00287891 0.00388391 0)
(0.0176232 0.013257 0)
(0.140564 0.0942176 0)
(-0.51662 0.262649 0)
(1.06786 0.446584 0)
(0.516249 0.302434 0)
(0.498887 0.270289 0)
(0.430095 0.219044 0)
(0.335301 0.172728 0)
(0.264688 0.124558 0)
(0.223806 0.0814445 0)
(0.201515 0.0470754 0)
(0.189927 0.0189722 0)
(0.178057 -0.00570448 0)
(0.165831 -0.0259032 0)
(0.15311 -0.0409017 0)
(0.139596 -0.0508035 0)
(0.125232 -0.0561508 0)
(0.110335 -0.05755 0)
(0.0955014 -0.0555783 0)
(0.0815348 -0.0508009 0)
(0.0694924 -0.0439004 0)
(0.0604347 -0.0359699 0)
(0.0546026 -0.0284988 0)
(0.050958 -0.0226686 0)
(0.047966 -0.0188034 0)
(0.0444804 -0.016789 0)
(0.0397614 -0.0165084 0)
(0.0330686 -0.0182284 0)
(0.0232899 -0.0230187 0)
(0.00807339 -0.0339346 0)
(-0.0145282 -0.053653 0)
(-0.0367509 -0.0772833 0)
(-0.0533166 -0.0969859 0)
(-0.0700049 -0.0998878 0)
(-0.0969787 -0.0841494 0)
(-0.140882 -0.0644967 0)
(-0.192293 -0.0378017 0)
(-0.244737 -0.00129121 0)
(-0.288255 0.0406044 0)
(-0.321776 0.0773372 0)
(-0.359937 0.105338 0)
(-0.416486 0.121223 0)
(-0.710972 0.115939 0)
(0.0941309 0.173393 0)
(0.232148 0.218534 0)
(0.262046 0.189159 0)
(0.256413 0.142442 0)
(0.255517 0.0978539 0)
(0.256898 0.0608635 0)
(0.256137 0.0314976 0)
(0.251981 0.00848721 0)
(0.241435 -0.00978707 0)
(0.227072 -0.0233946 0)
(0.210228 -0.0326069 0)
(0.191996 -0.0378893 0)
(0.17343 -0.0398013 0)
(0.155487 -0.038938 0)
(0.138986 -0.0359343 0)
(0.124595 -0.0315124 0)
(0.112772 -0.0265173 0)
(0.103565 -0.0218153 0)
(0.0964907 -0.018037 0)
(0.0907429 -0.0154144 0)
(0.0855155 -0.0139077 0)
(0.0800712 -0.0133706 0)
(0.0735946 -0.0137033 0)
(0.0648902 -0.0150509 0)
(0.0517649 -0.0183904 0)
(0.0306517 -0.026333 0)
(0.000270776 -0.0467466 0)
(-0.0205318 -0.0714346 0)
(-0.0388639 -0.0764731 0)
(-0.0550906 -0.0486313 0)
(-0.0845874 -0.0303656 0)
(-0.115673 -0.0148143 0)
(-0.140449 0.0078536 0)
(-0.166163 0.0367525 0)
(-0.178715 0.0624459 0)
(-0.16743 0.0563148 0)
(-0.132057 -0.03005 0)
(-0.281735 -0.244107 0)
(0.0192664 0.280866 0)
(0.0766293 0.223924 0)
(0.123684 0.168211 0)
(0.170727 0.120592 0)
(0.210923 0.0802481 0)
(0.238864 0.0488933 0)
(0.253951 0.025722 0)
(0.258633 0.00927578 0)
(0.255521 -0.00196394 0)
(0.2467 -0.00956086 0)
(0.233971 -0.0143303 0)
(0.218763 -0.0167741 0)
(0.202385 -0.0172563 0)
(0.186004 -0.0160832 0)
(0.17057 -0.0135506 0)
(0.15678 -0.00998555 0)
(0.145022 -0.00576716 0)
(0.135342 -0.00128211 0)
(0.127467 0.00317913 0)
(0.120944 0.00749064 0)
(0.115307 0.011655 0)
(0.11015 0.0157573 0)
(0.105089 0.0199521 0)
(0.0995266 0.0242802 0)
(0.0922796 0.0274663 0)
(0.0805801 0.026436 0)
(0.0631861 0.00832397 0)
(0.0427693 -0.0361441 0)
(0.00620547 -0.0725896 0)
(-0.0150701 -0.0252033 0)
(-0.0176925 0.0227188 0)
(-0.0265071 0.0288785 0)
(-0.0349611 0.0376792 0)
(-0.0347092 0.0555646 0)
(-0.0260009 0.0769665 0)
(-0.00151874 0.0825936 0)
(0.144949 0.0108853 0)
(-0.19787 -0.153539 0)
(-0.240372 -0.388753 0)
(-0.467873 -0.0854487 0)
(-0.309933 0.213258 0)
(-0.179723 0.146929 0)
(-0.0292869 0.106203 0)
(0.0855494 0.0689735 0)
(0.155798 0.0429938 0)
(0.204293 0.0236809 0)
(0.232455 0.00951917 0)
(0.244931 -0.000990228 0)
(0.246756 -0.00893148 0)
(0.241602 -0.0150245 0)
(0.231761 -0.019843 0)
(0.218962 -0.023731 0)
(0.204655 -0.026944 0)
(0.190085 -0.0297169 0)
(0.176267 -0.0322884 0)
(0.163952 -0.0349073 0)
(0.153595 -0.0378213 0)
(0.145334 -0.0412423 0)
(0.139025 -0.0453003 0)
(0.134352 -0.0500209 0)
(0.130961 -0.0553353 0)
(0.128579 -0.0610822 0)
(0.127085 -0.0669856 0)
(0.126592 -0.0726629 0)
(0.127045 -0.0775209 0)
(0.128219 -0.0835345 0)
(0.12638 -0.0916443 0)
(0.113148 -0.107614 0)
(0.0618935 -0.150331 0)
(-0.0107436 -0.170722 0)
(-0.0116436 -0.142622 0)
(-0.00119537 -0.102357 0)
(0.0221627 -0.0575365 0)
(0.0558506 -0.0281951 0)
(0.0942473 -0.013227 0)
(0.135435 -0.0254343 0)
(0.184821 -0.0680153 0)
(-0.154705 -0.139583 0)
)
;

boundaryField
{
    floor
    {
        type            noSlip;
    }
    ceiling
    {
        type            noSlip;
    }
    sWall
    {
        type            noSlip;
    }
    nWall
    {
        type            noSlip;
    }
    sideWalls
    {
        type            empty;
    }
    glass1
    {
        type            noSlip;
    }
    glass2
    {
        type            noSlip;
    }
    sun
    {
        type            noSlip;
    }
    Table_master
    {
        type            noSlip;
    }
    Table_slave
    {
        type            noSlip;
    }
    inlet
    {
        type            fixedValue;
        value           uniform (0.277164 -0.114805 0);
    }
    outlet
    {
        type            zeroGradient;
    }
}


// ************************************************************************* //
