/*--------------------------------*- C++ -*----------------------------------*\
  =========                 |
  \\      /  F ield         | OpenFOAM: The Open Source CFD Toolbox
   \\    /   O peration     | Website:  https://openfoam.org
    \\  /    A nd           | Version:  6
     \\/     M anipulation  |
\*---------------------------------------------------------------------------*/
FoamFile
{
    version     2.0;
    format      ascii;
    class       volScalarField;
    location    "3000";
    object      alphat;
}
// * * * * * * * * * * * * * * * * * * * * * * * * * * * * * * * * * * * * * //

dimensions      [1 -1 -1 0 0 0 0];

internalField   nonuniform List<scalar> 
458
(
0.00132604
0.00146003
0.0014969
0.00157332
0.00164551
0.00171534
0.00178745
0.00184455
0.00187779
0.00188148
0.00185226
0.00178776
0.00168393
0.00152269
0.00123512
0.000581023
0.000699286
0.000813734
0.000854305
0.000840599
0.000783821
0.000721748
0.00066653
0.000618993
0.000577984
0.000542406
0.000511206
0.00048374
0.000458819
0.000435129
0.000410874
0.000387643
0.000348134
0.00177616
0.00456587
0.00448368
0.00524863
0.00601602
0.00674296
0.00728863
0.00775791
0.00815266
0.00844178
0.00860055
0.00860644
0.00842482
0.00795514
0.0065492
0.00157653
0.00128731
0.0010073
0.000582535
0.00150642
0.00227447
0.00283789
0.00297295
0.0020992
0.00174343
0.00150722
0.00133527
0.00120485
0.00110254
0.00102069
0.000943059
0.000862625
0.000786931
0.000722638
0.000790783
0.000413462
0.00214587
0.00623698
0.00564873
0.00691652
0.00758775
0.0080921
0.00846564
0.00882933
0.00920368
0.00956088
0.00986582
0.0100775
0.0101218
0.0099158
0.0092364
0.00750415
0.00568516
0.00133374
0.00100019
0.00182114
0.0027221
0.00352208
0.00364855
0.00108973
0.000940281
0.000818707
0.000721651
0.000644123
0.0005818
0.000531326
0.000491036
0.000460439
0.000509119
0.000592554
0.000898869
0.000461155
0.00249702
0.0078415
0.00577151
0.0072966
0.00778798
0.00800447
0.00818134
0.00845492
0.00881033
0.00921573
0.00962912
0.00998999
0.0101843
0.0101921
0.009978
0.00940125
0.00809827
0.00460567
0.00158994
0.00207469
0.00298547
0.00404845
0.00490546
0.00483266
0.00123892
0.00111623
0.00102712
0.000957529
0.000898175
0.000846121
0.000796943
0.000746755
0.000690899
0.000638679
0.000624896
0.00100387
0.000512531
0.0028551
0.00987978
0.00640713
0.00721346
0.0077325
0.00776524
0.00784174
0.00806209
0.00840121
0.00883538
0.00930596
0.0097106
0.00996066
0.0100237
0.00992555
0.00968061
0.00914131
0.00787269
0.00704659
0.00693686
0.00714992
0.00741559
0.00753274
0.00726111
0.00596646
0.00526348
0.00482925
0.00450763
0.0042087
0.00382921
0.00336458
0.00282125
0.00222491
0.00164932
0.00121196
0.00112588
0.000822593
0.000664166
0.00074988
0.000825731
0.00323574
0.012129
0.00872074
0.00765379
0.00799501
0.00790752
0.00789818
0.00798886
0.00825734
0.0087019
0.00922288
0.00967246
0.0099281
0.00995228
0.00981001
0.00962374
0.00948183
0.00935222
0.00942978
0.00957272
0.0096317
0.00952467
0.00923087
0.00873837
0.00802316
0.00739087
0.00686816
0.00640442
0.00595431
0.00545972
0.00489082
0.00423503
0.00349415
0.00271613
0.00203847
0.00153442
0.00115735
0.000935102
0.00119451
0.00085166
0.00356692
0.0136282
0.0118411
0.00984006
0.00918203
0.0085577
0.00815262
0.00807965
0.00834695
0.00886851
0.00947238
0.0099593
0.0101871
0.0101345
0.00992591
0.00978609
0.00992307
0.0103258
0.0107424
0.0109231
0.0108045
0.0104262
0.00986192
0.00918146
0.00845187
0.00777415
0.00716606
0.00660902
0.00608873
0.00560395
0.00515589
0.00464895
0.00405556
0.00338363
0.00274129
0.0021769
0.00175261
0.00152379
0.00141501
0.000996262
0.00361814
0.0116628
0.0107589
0.00965656
0.00873229
0.00806653
0.00782357
0.00803852
0.0086288
0.00941085
0.0101399
0.0106009
0.0106973
0.0104928
0.0102352
0.0102385
0.0106306
0.0110943
0.0113248
0.0112271
0.0108164
0.0101694
0.00937464
0.00851636
0.00767662
0.00692088
0.00625947
0.00567967
0.00518078
0.00477839
0.00449155
0.00430288
0.00402137
0.00361152
0.00324547
0.00299948
0.00294047
0.00298073
0.00347698
0.00154669
0.00351166
0.00411982
0.00445264
0.00463876
0.00508834
0.00591191
0.00705369
0.00838942
0.00971568
0.0107876
0.0113943
0.0114651
0.011125
0.0106735
0.0105999
0.0106997
0.0108226
0.0108341
0.0106404
0.0102049
0.00954964
0.00871933
0.00780888
0.00690888
0.00609196
0.00538842
0.00478476
0.00426258
0.00381726
0.00344856
0.00314702
0.0029064
0.00272549
0.00258427
0.00249014
0.00243754
0.00237898
0.00227591
0.00214115
0.00149039
0.00149285
0.00546964
0.00907993
0.0112254
0.0125359
0.013224
0.0133535
0.013038
0.0124371
0.0115984
0.0107603
0.0101804
0.00994283
0.00975635
0.00947257
0.00906928
0.00852744
0.00784932
0.00708845
0.00632482
0.00561193
0.00498612
0.00444983
0.00398829
0.00358155
0.00322279
0.00291945
0.00268652
0.00253003
0.0024385
0.00239166
0.00237477
0.00237237
0.00235759
0.00228989
0.00214996
0.00195939
0.00129302
0.00239246
0.00955137
0.0116719
0.0123123
0.0124056
0.0120867
0.0114328
0.0106126
0.00977641
0.00899503
0.00833922
0.00783033
0.00740821
0.00700471
0.00661055
0.00621477
0.00580249
0.00538354
0.00498801
0.00463939
0.00434045
0.00407928
0.00383862
0.00360382
0.00337021
0.00314267
0.00293159
0.00274883
0.00260547
0.00250873
0.00246024
0.0024537
0.00246967
0.00247615
0.00243776
0.00243081
0.00261624
0.00133395
0.00207117
0.00224719
0.00237414
0.00259085
0.00252721
0.00248211
0.00241148
0.00228771
0.00212287
0.00193298
0.00173688
0.00156176
0.00142569
0.00132906
0.00126261
0.00121558
0.00117931
0.00114778
0.00111774
0.0010886
0.00106107
0.00103568
0.00101235
0.000990727
0.000970928
0.000953685
0.000940655
0.000933923
0.000935386
0.000946001
0.000966027
0.000995425
0.00103414
0.00108205
0.00113805
0.00120063
0.00123633
0.00121072
0.00114319
0.00108451
)
;

boundaryField
{
    floor
    {
        type            compressible::alphatWallFunction;
        Prt             0.85;
        value           nonuniform List<scalar> 
36
(
0.000175029
8.15561e-05
9.91241e-05
0.000115784
0.00012162
0.000119652
0.000111458
0.000102418
9.42973e-05
8.72406e-05
8.10994e-05
7.57279e-05
7.09813e-05
6.67727e-05
6.2928e-05
5.92485e-05
5.54547e-05
5.17942e-05
4.55022e-05
4.55016e-05
5.58621e-05
6.32915e-05
7.11867e-05
9.39582e-05
0.000106543
0.000117531
0.000175027
0.000221271
0.000182169
0.000143343
8.15551e-05
0.000143341
8.17835e-05
0.000188509
0.000142354
0.00022307
)
;
    }
    ceiling
    {
        type            compressible::alphatWallFunction;
        Prt             0.85;
        value           nonuniform List<scalar> 
43
(
0.000286334
0.000309071
0.000325356
0.00035306
0.000345024
0.000339307
0.000330316
0.000314478
0.000293234
0.000268536
0.000242748
0.000219447
0.000201139
0.00018802
0.000178936
0.000172473
0.00016747
0.000163106
0.000158937
0.00015488
0.000151035
0.00014748
0.000144202
0.000141157
0.000138362
0.000135923
0.000134075
0.00013312
0.000133327
0.000134833
0.000137668
0.000141818
0.000147262
0.000153965
0.000161759
0.000170415
0.00017533
0.000171807
0.000162472
0.000154313
0.000468017
0.00054205
0.000327408
)
;
    }
    sWall
    {
        type            compressible::alphatWallFunction;
        Prt             0.85;
        value           uniform 0.000285154;
    }
    nWall
    {
        type            compressible::alphatWallFunction;
        Prt             0.85;
        value           nonuniform List<scalar> 6(0.000117343 0.000121066 0.000141613 0.00018279 0.000188375 0.000154004);
    }
    sideWalls
    {
        type            empty;
    }
    glass1
    {
        type            compressible::alphatWallFunction;
        Prt             0.85;
        value           nonuniform List<scalar> 9(0.000183068 0.000242633 0.00029043 0.00033509 0.00038001 0.000427159 0.000467764 0.00047414 0.000461381);
    }
    glass2
    {
        type            compressible::alphatWallFunction;
        Prt             0.85;
        value           nonuniform List<scalar> 2(0.000215974 0.000208498);
    }
    sun
    {
        type            compressible::alphatWallFunction;
        Prt             0.85;
        value           nonuniform List<scalar> 
14
(
0.000187477
0.000205629
0.000210595
0.000220844
0.000230475
0.000239748
0.000249278
0.000256796
0.00026116
0.000261644
0.000257809
0.00024932
0.000235582
0.000214063
)
;
    }
    Table_master
    {
        type            compressible::alphatWallFunction;
        Prt             0.85;
        value           nonuniform List<scalar> 9(0.000154988 0.000133974 0.000116589 0.000102489 9.10622e-05 8.17538e-05 7.41248e-05 6.79701e-05 6.32534e-05);
    }
    Table_slave
    {
        type            compressible::alphatWallFunction;
        Prt             0.85;
        value           nonuniform List<scalar> 9(0.000175641 0.000158682 0.000146231 0.000136421 0.000127987 0.000120537 0.000113447 0.000106159 9.79771e-05);
    }
    inlet
    {
        type            fixedValue;
        value           uniform 1.94e-05;
    }
    outlet
    {
        type            zeroGradient;
    }
}


// ************************************************************************* //
