/*--------------------------------*- C++ -*----------------------------------*\
  =========                 |
  \\      /  F ield         | OpenFOAM: The Open Source CFD Toolbox
   \\    /   O peration     | Website:  https://openfoam.org
    \\  /    A nd           | Version:  6
     \\/     M anipulation  |
\*---------------------------------------------------------------------------*/
FoamFile
{
    version     2.0;
    format      ascii;
    class       volScalarField;
    location    "1000";
    object      epsilon;
}
// * * * * * * * * * * * * * * * * * * * * * * * * * * * * * * * * * * * * * //

dimensions      [0 2 -3 0 0 0 0];

internalField   nonuniform List<scalar> 
458
(
0.00173621
0.00444386
0.00397408
0.0034713
0.00305814
0.00271573
0.00242392
0.00216478
0.00192228
0.00168584
0.00144748
0.00119913
0.000928214
0.000611855
0.000259851
3.39088e-06
4.00153e-06
4.19576e-06
2.83074e-06
1.81646e-06
1.27052e-06
1.08924e-06
1.20579e-06
1.49637e-06
1.96837e-06
2.60448e-06
3.20517e-06
3.32207e-06
3.47486e-06
4.09703e-06
4.4798e-06
4.26571e-06
3.20855e-06
0.00552032
0.00549607
0.00447649
0.00346128
0.00272021
0.00221939
0.00187333
0.00163332
0.00146167
0.00132812
0.00120478
0.00106191
0.000865158
0.000582836
0.000271711
0.000125373
3.98525e-05
1.75141e-05
1.48882e-05
1.19716e-05
9.2079e-06
6.88379e-06
4.70481e-06
2.67433e-06
1.56679e-06
1.81795e-06
2.60036e-06
3.82442e-06
5.21443e-06
6.38261e-06
7.6472e-06
8.99886e-06
1.06975e-05
1.16401e-05
1.27321e-05
7.31473e-06
0.00810976
0.00806214
0.00543385
0.00358271
0.00258359
0.00205105
0.00170209
0.0014633
0.00129978
0.00118089
0.0010752
0.000946787
0.000758411
0.000493332
0.000236887
0.000107506
4.53447e-05
2.36954e-05
3.73743e-05
2.26309e-05
1.70913e-05
1.49015e-05
1.3757e-05
7.8528e-06
2.51886e-06
3.14745e-06
4.33518e-06
5.89695e-06
8.04063e-06
1.12203e-05
1.67028e-05
2.96674e-05
2.95664e-05
2.84515e-05
3.40277e-05
3.1125e-05
0.00938883
0.010507
0.0053138
0.00266174
0.00164768
0.00126379
0.00112622
0.00107522
0.00103802
0.000989269
0.000914428
0.00079427
0.000610901
0.000372742
0.000176661
8.44785e-05
4.14903e-05
3.15296e-05
6.0205e-05
3.26934e-05
2.30242e-05
2.26484e-05
2.50466e-05
3.04214e-05
4.18775e-05
4.53345e-05
4.91323e-05
5.32952e-05
5.84099e-05
6.51787e-05
7.45033e-05
8.78231e-05
0.000111179
7.38217e-05
7.64543e-05
7.17463e-05
0.000113357
0.0103815
0.0124562
0.00413096
0.00143163
0.000752923
0.000604584
0.000703069
0.000784177
0.000811663
0.000794049
0.000728877
0.000615145
0.000452455
0.000262756
0.000125382
6.51476e-05
4.12086e-05
3.72255e-05
3.90959e-05
3.12695e-05
2.79913e-05
2.77225e-05
2.87543e-05
3.06106e-05
3.30123e-05
3.54967e-05
3.86833e-05
4.30193e-05
4.91503e-05
5.79118e-05
7.02852e-05
8.71953e-05
0.000108859
0.000130786
0.000161464
0.000194938
0.000206338
0.000328002
0.000237344
0.000159431
0.0113766
0.0136878
0.00300386
0.000667677
0.00044835
0.000450719
0.000530477
0.000593727
0.00062001
0.000606092
0.000550141
0.000454487
0.000324625
0.000184764
9.32943e-05
5.57703e-05
4.31387e-05
4.14314e-05
4.17238e-05
4.05121e-05
4.03025e-05
4.07206e-05
4.15456e-05
4.28424e-05
4.47168e-05
4.72701e-05
5.08506e-05
5.61985e-05
6.44722e-05
7.72475e-05
9.63658e-05
0.000123596
0.000160053
0.000205809
0.000262368
0.000331371
0.000404838
0.000392852
0.00025768
0.000215606
0.0126681
0.013945
0.00409607
0.000559872
0.000377982
0.000368653
0.000411402
0.000450125
0.00046686
0.000453846
0.000408612
0.000333068
0.000233629
0.000134513
7.61114e-05
5.43615e-05
4.946e-05
5.14907e-05
5.54031e-05
5.91383e-05
6.21999e-05
6.42754e-05
6.56797e-05
6.69513e-05
6.85528e-05
7.09186e-05
7.4406e-05
8.01599e-05
9.0175e-05
0.00010729
0.000134529
0.000174049
0.000225965
0.000288527
0.000358932
0.000429697
0.000477469
0.000465531
0.000383552
0.000213485
0.014667
0.0164865
0.0103846
0.000666747
0.000351477
0.000308562
0.000329815
0.000352238
0.000360681
0.000348149
0.000311807
0.000252625
0.000177726
0.000110663
7.57727e-05
6.56147e-05
6.76144e-05
7.52747e-05
8.5174e-05
9.49984e-05
0.000103091
0.00010875
0.000112308
0.000114568
0.000116266
0.000118117
0.000120568
0.000125037
0.000134664
0.000154706
0.000190731
0.000247418
0.000323214
0.000407962
0.0004894
0.000562665
0.000635829
0.000729346
0.000845208
0.000718434
0.0188064
0.0279239
0.0392138
0.00561822
0.000595532
0.000322512
0.00029984
0.000305499
0.000306154
0.000293768
0.000264835
0.000220141
0.000168088
0.000128103
0.000111871
0.000113099
0.000124302
0.000141131
0.000160932
0.000180279
0.000197186
0.000210331
0.000219464
0.000225163
0.000228221
0.000229168
0.000229097
0.000229235
0.000232784
0.000241397
0.000260874
0.000299552
0.000364142
0.000461676
0.000602895
0.000794567
0.000986179
0.0010931
0.00173628
0.00118559
0.0924279
0.0173234
0.00142324
0.000509318
0.0003887
0.000362791
0.000354552
0.000344597
0.000326346
0.000300571
0.000275768
0.000265451
0.000274523
0.000297923
0.000330279
0.000366635
0.000405117
0.000443485
0.000478847
0.000508616
0.000531263
0.000546448
0.000554632
0.000556555
0.000553297
0.000545693
0.000532922
0.000516167
0.000499975
0.00049307
0.000505492
0.000545313
0.000615146
0.000699525
0.000761299
0.000764086
0.000893624
0.00131368
0.0147783
0.00244752
0.00171123
0.000744675
0.000517827
0.000423901
0.000389923
0.000382702
0.000392721
0.000423636
0.00048222
0.000564902
0.000657743
0.000757586
0.000855834
0.000955424
0.00105642
0.00115503
0.00124642
0.00132602
0.00139052
0.00143825
0.00146884
0.00148233
0.0014781
0.00145396
0.00140559
0.00132844
0.00122432
0.00110837
0.00100848
0.000953962
0.000964052
0.00101591
0.00104506
0.00101419
0.00126988
0.00152693
0.00160354
0.00226231
0.00476404
0.000705216
0.000602577
0.000542401
0.000544089
0.000571233
0.000589749
0.000607518
0.000627775
0.000653251
0.000683844
0.000714693
0.000745639
0.000779775
0.000815017
0.000847031
0.000876025
0.000901553
0.00092263
0.000938402
0.000948569
0.000953539
0.000954259
0.000951889
0.000947478
0.000941443
0.000933452
0.000922969
0.000909691
0.000893928
0.000876048
0.00085448
0.000822274
0.000784171
0.0007428
0.000666636
0.000630436
0.000723725
)
;

boundaryField
{
    floor
    {
        Cmu             0.09;
        kappa           0.41;
        E               9.8;
        type            epsilonWallFunction;
        value           nonuniform List<scalar> 
36
(
0.000259851
3.39088e-06
4.00153e-06
4.19576e-06
2.83074e-06
1.81646e-06
1.27052e-06
1.08924e-06
1.20579e-06
1.49637e-06
1.96837e-06
2.60448e-06
3.20517e-06
3.32207e-06
3.47486e-06
4.09703e-06
4.4798e-06
4.26571e-06
3.20855e-06
3.20855e-06
7.31473e-06
3.1125e-05
0.000113357
0.000328002
0.000237344
0.000159431
0.000259851
0.000125373
3.98525e-05
1.75141e-05
3.39088e-06
1.75141e-05
1.48882e-05
2.36954e-05
3.73743e-05
6.0205e-05
)
;
    }
    ceiling
    {
        Cmu             0.09;
        kappa           0.41;
        E               9.8;
        type            epsilonWallFunction;
        value           nonuniform List<scalar> 
43
(
0.00160354
0.00226231
0.00476404
0.000705216
0.000602577
0.000542401
0.000544089
0.000571233
0.000589749
0.000607518
0.000627775
0.000653251
0.000683844
0.000714693
0.000745639
0.000779775
0.000815017
0.000847031
0.000876025
0.000901553
0.00092263
0.000938402
0.000948569
0.000953539
0.000954259
0.000951889
0.000947478
0.000941443
0.000933452
0.000922969
0.000909691
0.000893928
0.000876048
0.00085448
0.000822274
0.000784171
0.0007428
0.000666636
0.000630436
0.000723725
0.0188064
0.0279239
0.0147783
)
;
    }
    sWall
    {
        Cmu             0.09;
        kappa           0.41;
        E               9.8;
        type            epsilonWallFunction;
        value           uniform 0.00160354;
    }
    nWall
    {
        Cmu             0.09;
        kappa           0.41;
        E               9.8;
        type            epsilonWallFunction;
        value           nonuniform List<scalar> 6(0.000159431 0.000215606 0.000213485 0.00131368 0.00152693 0.000723725);
    }
    sideWalls
    {
        type            empty;
    }
    glass1
    {
        Cmu             0.09;
        kappa           0.41;
        E               9.8;
        type            epsilonWallFunction;
        value           nonuniform List<scalar> 9(0.00173621 0.00552032 0.00810976 0.00938883 0.0103815 0.0113766 0.0126681 0.014667 0.0188064);
    }
    glass2
    {
        Cmu             0.09;
        kappa           0.41;
        E               9.8;
        type            epsilonWallFunction;
        value           nonuniform List<scalar> 2(0.000718434 0.00118559);
    }
    sun
    {
        Cmu             0.09;
        kappa           0.41;
        E               9.8;
        type            epsilonWallFunction;
        value           nonuniform List<scalar> 
14
(
0.00173621
0.00444386
0.00397408
0.0034713
0.00305814
0.00271573
0.00242392
0.00216478
0.00192228
0.00168584
0.00144748
0.00119913
0.000928214
0.000611855
)
;
    }
    Table_master
    {
        Cmu             0.09;
        kappa           0.41;
        E               9.8;
        type            epsilonWallFunction;
        value           nonuniform List<scalar> 9(7.8528e-06 2.51886e-06 3.14745e-06 4.33518e-06 5.89695e-06 8.04063e-06 1.12203e-05 1.67028e-05 2.96674e-05);
    }
    Table_slave
    {
        Cmu             0.09;
        kappa           0.41;
        E               9.8;
        type            epsilonWallFunction;
        value           nonuniform List<scalar> 9(4.18775e-05 4.53345e-05 4.91323e-05 5.32952e-05 5.84099e-05 6.51787e-05 7.45033e-05 8.78231e-05 0.000111179);
    }
    inlet
    {
        type            turbulentMixingLengthDissipationRateInlet;
        mixingLength    0.01;
        phi             phi;
        k               k;
        value           uniform 0.000101881;
    }
    outlet
    {
        type            zeroGradient;
    }
}


// ************************************************************************* //
