/*--------------------------------*- C++ -*----------------------------------*\
  =========                 |
  \\      /  F ield         | OpenFOAM: The Open Source CFD Toolbox
   \\    /   O peration     | Website:  https://openfoam.org
    \\  /    A nd           | Version:  6
     \\/     M anipulation  |
\*---------------------------------------------------------------------------*/
FoamFile
{
    version     2.0;
    format      ascii;
    class       volVectorField;
    location    "400";
    object      U;
}
// * * * * * * * * * * * * * * * * * * * * * * * * * * * * * * * * * * * * * //

dimensions      [0 1 -1 0 0 0 0];

internalField   nonuniform List<vector> 
458
(
(0.0678195 0.0740873 0)
(-0.145835 0.0127787 0)
(-0.150601 0.0126847 0)
(-0.175402 0.0107685 0)
(-0.197273 0.00783125 0)
(-0.215641 0.00446699 0)
(-0.229814 0.000669714 0)
(-0.239056 -0.00369265 0)
(-0.242423 -0.00879357 0)
(-0.238559 -0.0148616 0)
(-0.22573 -0.0224521 0)
(-0.201028 -0.0319595 0)
(-0.163136 -0.0449868 0)
(-0.123133 -0.0649366 0)
(-0.12021 -0.0917105 0)
(0.0625284 -0.0273957 0)
(0.0359133 -0.0167214 0)
(0.0448511 -0.00843841 0)
(0.0531969 -0.00298709 0)
(0.0534654 0.00096444 0)
(0.048104 0.0043067 0)
(0.0393581 0.00743445 0)
(0.0278183 0.00886684 0)
(0.0161953 0.00524807 0)
(0.0103777 0.000101889 0)
(0.00890058 -0.00223174 0)
(0.00871529 -0.00291522 0)
(0.00901092 -0.00297079 0)
(0.00914691 -0.00247248 0)
(0.00877797 -0.00147077 0)
(0.00816893 -0.00331436 0)
(0.0280576 -0.00750863 0)
(-0.0450351 0.00770592 0)
(0.257352 0.15743 0)
(-0.155338 0.041085 0)
(-0.129385 0.0401333 0)
(-0.157989 0.0366723 0)
(-0.180527 0.0320543 0)
(-0.199526 0.0267572 0)
(-0.21462 0.020537 0)
(-0.225248 0.0130344 0)
(-0.230552 0.00388513 0)
(-0.229205 -0.00720858 0)
(-0.220738 -0.0197176 0)
(-0.204463 -0.0331264 0)
(-0.182183 -0.0479889 0)
(-0.162245 -0.0651411 0)
(-0.153458 -0.0740878 0)
(-0.127841 -0.0407703 0)
(-0.0756702 -0.0318026 0)
(-0.0719451 -0.0317256 0)
(0.0686248 -0.048267 0)
(0.0279107 -0.0249018 0)
(0.0342912 -0.0100056 0)
(0.0423684 -0.00181101 0)
(0.0453867 0.00337877 0)
(0.0460089 0.00761667 0)
(0.0462424 0.0107696 0)
(0.0471035 0.0117807 0)
(0.0489578 0.00974035 0)
(0.0504953 0.00678394 0)
(0.0502063 0.00467461 0)
(0.0487635 0.00345112 0)
(0.0468429 0.00283219 0)
(0.0445676 0.00324936 0)
(0.0401325 0.0068694 0)
(0.0298848 0.00644551 0)
(0.0386192 -0.00106591 0)
(-0.101582 0.0198165 0)
(0.425389 0.238984 0)
(-0.191389 0.0734285 0)
(-0.100291 0.0674723 0)
(-0.131646 0.0584103 0)
(-0.151368 0.0497703 0)
(-0.168425 0.0403885 0)
(-0.182367 0.0294884 0)
(-0.192629 0.0165625 0)
(-0.198263 0.00133587 0)
(-0.197761 -0.0160376 0)
(-0.190542 -0.0351271 0)
(-0.176928 -0.0546354 0)
(-0.159089 -0.0733572 0)
(-0.141211 -0.0893603 0)
(-0.123382 -0.0949865 0)
(-0.0968573 -0.0808775 0)
(-0.0635579 -0.0770169 0)
(-0.0594105 -0.0792443 0)
(0.0529495 -0.0624644 0)
(0.0159731 -0.0331863 0)
(0.0209854 -0.014798 0)
(0.0272208 -0.00547819 0)
(0.0307007 -0.000365477 0)
(0.0368177 0.00229953 0)
(0.0443723 0.00446349 0)
(0.0527572 0.00504026 0)
(0.0607166 0.00373416 0)
(0.0665152 0.00173224 0)
(0.0697884 6.8236e-05 0)
(0.0715719 -0.00101848 0)
(0.0730441 -0.00158758 0)
(0.0749759 -0.000348671 0)
(0.072477 0.0141566 0)
(0.0576588 0.0230777 0)
(0.0613382 0.0263059 0)
(-0.115283 0.0355624 0)
(0.568662 0.306276 0)
(-0.238141 0.106625 0)
(-0.0656884 0.0910241 0)
(-0.100518 0.0772198 0)
(-0.115174 0.0665304 0)
(-0.128701 0.0552198 0)
(-0.140537 0.0417745 0)
(-0.14995 0.0253683 0)
(-0.155762 0.00546702 0)
(-0.155889 -0.0179065 0)
(-0.149483 -0.0434591 0)
(-0.137772 -0.0685763 0)
(-0.122909 -0.0904522 0)
(-0.107312 -0.106149 0)
(-0.0905453 -0.111611 0)
(-0.0699608 -0.10659 0)
(-0.0485552 -0.100561 0)
(-0.0355208 -0.0863371 0)
(-0.00972375 -0.0254247 0)
(0.0194607 -0.0565947 0)
(0.0135833 -0.0370437 0)
(0.0130578 -0.0179446 0)
(0.0140504 -0.00697402 0)
(0.0141435 -0.000772626 0)
(0.00948822 0.000156012 0)
(0.00933888 -0.00385661 0)
(0.0139688 -0.00707937 0)
(0.0220115 -0.00997311 0)
(0.0335272 -0.0123844 0)
(0.0477577 -0.0137814 0)
(0.0628552 -0.0133321 0)
(0.0756194 -0.00989828 0)
(0.0816712 -0.00328367 0)
(0.0798977 0.0184766 0)
(0.0703731 0.0370922 0)
(0.075166 0.0512926 0)
(-0.0660721 0.067084 0)
(0.684104 0.360687 0)
(-0.283281 0.138004 0)
(-0.0298957 0.10444 0)
(-0.0655168 0.0894079 0)
(-0.074367 0.078199 0)
(-0.0832976 0.0661422 0)
(-0.091916 0.0511502 0)
(-0.0993169 0.0321257 0)
(-0.104337 0.00830535 0)
(-0.104044 -0.0203749 0)
(-0.097572 -0.0516743 0)
(-0.0875189 -0.0811145 0)
(-0.0759434 -0.104923 0)
(-0.0643342 -0.120809 0)
(-0.0524146 -0.127274 0)
(-0.0394162 -0.125166 0)
(-0.0269741 -0.117416 0)
(-0.0169223 -0.101564 0)
(-0.00232229 -0.0704308 0)
(0.00952362 -0.0588866 0)
(0.00831187 -0.0370103 0)
(0.00554235 -0.0174266 0)
(0.00352988 -0.00546113 0)
(0.00200206 0.00063245 0)
(0.00121475 0.00127779 0)
(0.0029858 -0.0031187 0)
(0.00693653 -0.00879214 0)
(0.0132871 -0.0144152 0)
(0.0223662 -0.0193472 0)
(0.0338496 -0.0224326 0)
(0.0469098 -0.0219907 0)
(0.0601133 -0.0155066 0)
(0.0719877 -0.000485919 0)
(0.0794765 0.0218678 0)
(0.0803066 0.0442846 0)
(0.0943484 0.0645457 0)
(0.0594516 0.0749682 0)
(0.0997782 0.088334 0)
(0.115246 0.10079 0)
(-0.15674 0.135321 0)
(0.758247 0.408137 0)
(-0.31888 0.162555 0)
(-0.00428678 0.0988959 0)
(-0.024305 0.0945631 0)
(-0.0276214 0.0868607 0)
(-0.0330211 0.0739787 0)
(-0.0385265 0.0575594 0)
(-0.0429745 0.0369472 0)
(-0.0457918 0.0105781 0)
(-0.0421817 -0.022794 0)
(-0.0345971 -0.0591516 0)
(-0.0268413 -0.0910181 0)
(-0.0200029 -0.114874 0)
(-0.0144892 -0.129951 0)
(-0.00972963 -0.136336 0)
(-0.00524329 -0.134421 0)
(-0.0015952 -0.124877 0)
(0.000833615 -0.106487 0)
(0.0045894 -0.079683 0)
(0.00651927 -0.057296 0)
(0.00271904 -0.0333333 0)
(-0.0020794 -0.0138211 0)
(-0.00555627 -0.00277643 0)
(-0.00755571 0.00166848 0)
(-0.00775218 0.000393365 0)
(-0.00659822 -0.00519375 0)
(-0.00434215 -0.0125285 0)
(-0.000548112 -0.0204037 0)
(0.00529209 -0.0279634 0)
(0.0131323 -0.0335081 0)
(0.0230394 -0.0351513 0)
(0.0348561 -0.0298926 0)
(0.0488423 -0.0141321 0)
(0.0656855 0.0122829 0)
(0.0767206 0.0384932 0)
(0.0922226 0.0595532 0)
(0.0941716 0.0593719 0)
(0.0993298 0.0325172 0)
(0.115333 0.0268583 0)
(-0.151944 0.0906376 0)
(0.786608 0.451023 0)
(-0.330656 0.151746 0)
(0.0162728 0.0435778 0)
(0.0363626 0.0833946 0)
(0.0357946 0.0981251 0)
(0.0289413 0.0854124 0)
(0.0241762 0.0640902 0)
(0.0222175 0.0397759 0)
(0.0220324 0.00924955 0)
(0.0317591 -0.0295436 0)
(0.0390042 -0.0669201 0)
(0.0420608 -0.0968269 0)
(0.0417712 -0.117992 0)
(0.0389761 -0.130932 0)
(0.0347953 -0.13627 0)
(0.0298599 -0.133717 0)
(0.024175 -0.123238 0)
(0.0178201 -0.104832 0)
(0.0119824 -0.0793862 0)
(0.00563962 -0.0524703 0)
(-0.00267726 -0.0264319 0)
(-0.00944311 -0.00884365 0)
(-0.0140743 0.000404334 0)
(-0.0166998 0.00298626 0)
(-0.0179485 0.000250175 0)
(-0.0184573 -0.00618605 0)
(-0.0186468 -0.014536 0)
(-0.0182455 -0.0237349 0)
(-0.0169579 -0.0328541 0)
(-0.0144295 -0.0405588 0)
(-0.010221 -0.0450809 0)
(-0.00377947 -0.0437882 0)
(0.00706616 -0.0320891 0)
(0.0252314 -0.00782896 0)
(0.0479269 0.0220477 0)
(0.0669963 0.0429943 0)
(0.080568 0.0452927 0)
(0.0914791 0.0353448 0)
(0.132746 0.0558648 0)
(-0.103664 0.14591 0)
(0.883425 0.461081 0)
(-0.0974856 0.132714 0)
(0.103215 -0.0512857 0)
(0.167638 -0.00062048 0)
(0.151871 0.0507021 0)
(0.128277 0.0584207 0)
(0.117205 0.0440568 0)
(0.113839 0.0208242 0)
(0.114268 -0.0108667 0)
(0.121901 -0.0425761 0)
(0.122596 -0.071216 0)
(0.116227 -0.0944496 0)
(0.10517 -0.111319 0)
(0.0914104 -0.121893 0)
(0.0767083 -0.126243 0)
(0.0617621 -0.123073 0)
(0.0465277 -0.112111 0)
(0.0310353 -0.0938965 0)
(0.0163979 -0.0691791 0)
(0.00271711 -0.0413206 0)
(-0.00926652 -0.0167394 0)
(-0.0169733 -0.00243336 0)
(-0.0220128 0.00446853 0)
(-0.0251518 0.0054446 0)
(-0.0277076 0.00196063 0)
(-0.0302851 -0.00463241 0)
(-0.0334844 -0.0130112 0)
(-0.0372673 -0.0224278 0)
(-0.0415541 -0.0320184 0)
(-0.0461364 -0.0406115 0)
(-0.0505805 -0.046788 0)
(-0.0539615 -0.0487934 0)
(-0.0541338 -0.0447348 0)
(-0.0473917 -0.0337277 0)
(-0.0260189 -0.0164342 0)
(-0.000104317 0.00218126 0)
(0.0137259 0.00407283 0)
(0.0289489 -0.00173405 0)
(0.108119 0.0685512 0)
(-0.423299 0.236846 0)
(1.01687 0.424329 0)
(0.472987 0.280132 0)
(0.518271 0.222551 0)
(0.534165 0.202053 0)
(0.456534 0.180014 0)
(0.374323 0.14667 0)
(0.320748 0.107064 0)
(0.28811 0.0662026 0)
(0.267819 0.026452 0)
(0.243371 -0.012365 0)
(0.216084 -0.0454535 0)
(0.188019 -0.0707767 0)
(0.159975 -0.0886169 0)
(0.132716 -0.100135 0)
(0.107243 -0.105736 0)
(0.0830951 -0.102997 0)
(0.0591728 -0.0920467 0)
(0.0349412 -0.0744987 0)
(0.0125511 -0.05108 0)
(-0.00604729 -0.0245176 0)
(-0.01793 -0.0058195 0)
(-0.0249038 0.00448859 0)
(-0.0286116 0.00880547 0)
(-0.0312124 0.00890717 0)
(-0.0340682 0.00568968 0)
(-0.0381009 -3.8294e-06 0)
(-0.0437122 -0.00728289 0)
(-0.051294 -0.0152453 0)
(-0.0612219 -0.02312 0)
(-0.0740296 -0.0297477 0)
(-0.0901603 -0.0336472 0)
(-0.10984 -0.0328137 0)
(-0.133016 -0.0249548 0)
(-0.159029 -0.00859201 0)
(-0.185553 0.0156742 0)
(-0.211506 0.0429515 0)
(-0.245581 0.0696245 0)
(-0.285265 0.0944912 0)
(-0.342233 0.115924 0)
(-0.607717 0.131145 0)
(-0.39831 -0.314411 0)
(0.213022 0.0621204 0)
(0.273985 0.14088 0)
(0.266169 0.14461 0)
(0.261125 0.117418 0)
(0.257474 0.0779213 0)
(0.250885 0.0382983 0)
(0.239378 0.00469832 0)
(0.221048 -0.0223177 0)
(0.196823 -0.0432673 0)
(0.168862 -0.0593539 0)
(0.139496 -0.0715384 0)
(0.111218 -0.0795755 0)
(0.0834093 -0.0781724 0)
(0.0547466 -0.0679866 0)
(0.0235582 -0.0518797 0)
(-0.00457624 -0.0298769 0)
(-0.0211944 -0.00908331 0)
(-0.0291093 0.00315143 0)
(-0.0322183 0.00894472 0)
(-0.0330834 0.0113213 0)
(-0.0333131 0.0111253 0)
(-0.0341084 0.00888348 0)
(-0.0364595 0.00516054 0)
(-0.041056 0.000381981 0)
(-0.0481051 -0.0050249 0)
(-0.0575982 -0.0100511 0)
(-0.0697802 -0.0135504 0)
(-0.0842063 -0.014687 0)
(-0.099829 -0.0125136 0)
(-0.115166 -0.00597674 0)
(-0.128017 0.00595581 0)
(-0.139503 0.0237465 0)
(-0.148196 0.0454904 0)
(-0.150752 0.062063 0)
(-0.136236 0.05408 0)
(-0.108997 -0.0177251 0)
(-0.255094 -0.198189 0)
(-0.0467332 0.189912 0)
(0.00221762 0.0881369 0)
(0.0543675 0.117858 0)
(0.0902722 0.124423 0)
(0.126888 0.102885 0)
(0.155707 0.0684707 0)
(0.173133 0.0352856 0)
(0.178421 0.00933913 0)
(0.173721 -0.00971793 0)
(0.159469 -0.0239526 0)
(0.137958 -0.0352812 0)
(0.111989 -0.0449946 0)
(0.0847402 -0.0534507 0)
(0.055079 -0.0518046 0)
(0.0280451 -0.0460122 0)
(-0.00535362 -0.0384499 0)
(-0.026869 -0.0333599 0)
(-0.0366829 -0.0281826 0)
(-0.0396331 -0.0221884 0)
(-0.0388122 -0.0174385 0)
(-0.0363391 -0.0147049 0)
(-0.0332729 -0.013755 0)
(-0.0305467 -0.0142307 0)
(-0.028924 -0.0157714 0)
(-0.028982 -0.018051 0)
(-0.0313886 -0.0205591 0)
(-0.0366409 -0.0227468 0)
(-0.0439598 -0.0238488 0)
(-0.0523456 -0.0235308 0)
(-0.0602413 -0.0209849 0)
(-0.0650366 -0.0136833 0)
(-0.0663953 -0.000674268 0)
(-0.0621645 0.0168472 0)
(-0.0515747 0.0364229 0)
(-0.0352992 0.0533772 0)
(-0.00512075 0.0523916 0)
(0.130974 -0.00994127 0)
(-0.192711 -0.105195 0)
(0.146759 -0.214867 0)
(-0.310617 -0.104256 0)
(-0.268109 0.0307401 0)
(-0.233947 0.0274523 0)
(-0.164672 0.0597291 0)
(-0.0898636 0.0760782 0)
(-0.00707346 0.0685666 0)
(0.057877 0.0440606 0)
(0.0969071 0.0257149 0)
(0.117867 0.013377 0)
(0.122152 0.00566962 0)
(0.11372 0.000396281 0)
(0.0952381 -0.00354542 0)
(0.0688862 -0.00713956 0)
(0.0364745 -0.0103565 0)
(-0.017213 0.0344928 0)
(-0.0374371 0.0826966 0)
(-0.0458463 0.0973295 0)
(-0.0507259 0.106448 0)
(-0.0507613 0.110042 0)
(-0.047646 0.10979 0)
(-0.0424244 0.109435 0)
(-0.0360072 0.109623 0)
(-0.0292523 0.110028 0)
(-0.0229185 0.110337 0)
(-0.0176026 0.11035 0)
(-0.0136997 0.109955 0)
(-0.0114005 0.108868 0)
(-0.0107607 0.106709 0)
(-0.0115581 0.103405 0)
(-0.0133247 0.0992837 0)
(-0.0141867 0.0955716 0)
(-0.0127961 0.0886855 0)
(-0.00745388 0.0807163 0)
(0.00764833 0.0754323 0)
(0.031367 0.0763543 0)
(0.0608897 0.0783727 0)
(0.0932382 0.0726079 0)
(0.152527 0.0519342 0)
(-0.218538 0.00548806 0)
)
;

boundaryField
{
    floor
    {
        type            noSlip;
    }
    ceiling
    {
        type            noSlip;
    }
    sWall
    {
        type            noSlip;
    }
    nWall
    {
        type            noSlip;
    }
    sideWalls
    {
        type            empty;
    }
    glass1
    {
        type            noSlip;
    }
    glass2
    {
        type            noSlip;
    }
    sun
    {
        type            noSlip;
    }
    Table_master
    {
        type            noSlip;
    }
    Table_slave
    {
        type            noSlip;
    }
    inlet
    {
        type            fixedValue;
        value           uniform (0.156072 -0.784628 0);
    }
    outlet
    {
        type            zeroGradient;
    }
}


// ************************************************************************* //
