/*--------------------------------*- C++ -*----------------------------------*\
  =========                 |
  \\      /  F ield         | OpenFOAM: The Open Source CFD Toolbox
   \\    /   O peration     | Website:  https://openfoam.org
    \\  /    A nd           | Version:  6
     \\/     M anipulation  |
\*---------------------------------------------------------------------------*/
FoamFile
{
    version     2.0;
    format      ascii;
    class       volScalarField;
    location    "1100";
    object      epsilon;
}
// * * * * * * * * * * * * * * * * * * * * * * * * * * * * * * * * * * * * * //

dimensions      [0 2 -3 0 0 0 0];

internalField   nonuniform List<scalar> 
458
(
0.000108149
0.000118326
0.000105409
0.000116404
0.000127022
0.000136732
0.00014562
0.000153928
0.000162005
0.000170371
0.000177563
0.000182544
0.000185318
0.000186975
0.000187766
2.84818e-05
5.85425e-05
7.26513e-05
7.76352e-05
7.57904e-05
6.75103e-05
5.91527e-05
5.21053e-05
4.62581e-05
4.12438e-05
3.68546e-05
3.2953e-05
2.94309e-05
2.6179e-05
2.30863e-05
1.99895e-05
1.7347e-05
1.29806e-05
0.000462419
0.00108994
0.000113444
9.0758e-05
9.0532e-05
9.19804e-05
9.43363e-05
9.82719e-05
0.000104541
0.000113867
0.000124905
0.000136082
0.000146191
0.000154968
0.000169313
0.000211799
0.000181754
0.000126214
6.99455e-05
8.0988e-05
6.58118e-05
5.86817e-05
5.38426e-05
5.13926e-05
4.36313e-05
3.89406e-05
3.51237e-05
3.13345e-05
2.76464e-05
2.4142e-05
2.08546e-05
1.79061e-05
1.6048e-05
1.54261e-05
3.00496e-05
2.2518e-05
0.00114372
0.00367438
0.000227398
9.94175e-05
9.45684e-05
9.80436e-05
0.000103538
0.00011114
0.000121031
0.000133069
0.00014602
0.000156489
0.000162224
0.000163525
0.000165146
0.000174423
0.000195271
0.000262159
0.000136525
0.00011171
7.44478e-05
5.04739e-05
4.42616e-05
7.85328e-05
5.42935e-05
3.93635e-05
3.12127e-05
2.64297e-05
2.31793e-05
2.0741e-05
1.89357e-05
1.79605e-05
1.56229e-05
1.5169e-05
5.17329e-05
3.29126e-05
0.00231561
0.00864842
0.000554817
0.000122731
0.000105967
0.000113372
0.000124004
0.00013701
0.000152551
0.000170579
0.000189952
0.000204237
0.000208971
0.000203715
0.000191581
0.000179595
0.000182771
0.000222401
0.000295941
0.000163375
7.21868e-05
4.48648e-05
3.19985e-05
3.53015e-05
7.01283e-05
7.21523e-05
7.62255e-05
8.04176e-05
8.30922e-05
8.25721e-05
7.7546e-05
7.05861e-05
6.28074e-05
4.46446e-05
3.19e-05
7.9407e-05
4.90176e-05
0.00409735
0.0159647
0.00140682
0.000180023
0.000119555
0.000127074
0.000142898
0.000163527
0.000189445
0.000221201
0.000256044
0.000280363
0.000287098
0.000276682
0.000252233
0.000219361
0.000187436
0.0001595
0.000121387
7.02896e-05
4.36633e-05
3.09463e-05
2.8501e-05
3.35134e-05
4.37784e-05
5.1247e-05
5.75134e-05
6.34412e-05
6.74031e-05
6.75346e-05
6.27338e-05
5.54232e-05
4.99098e-05
4.36122e-05
3.63777e-05
5.58569e-05
7.16551e-05
8.31412e-05
9.24421e-05
9.56897e-05
0.00662482
0.0233875
0.00361388
0.000448174
0.000182124
0.000158142
0.000169402
0.000193813
0.000230495
0.000285814
0.000348172
0.000383067
0.000387205
0.000367643
0.00033105
0.000283814
0.000233417
0.00017822
0.00011864
7.01978e-05
4.29335e-05
2.99195e-05
2.97169e-05
3.58983e-05
4.33441e-05
5.35987e-05
6.48761e-05
7.69479e-05
8.76832e-05
9.36728e-05
9.1418e-05
7.73555e-05
6.27066e-05
5.05955e-05
4.18941e-05
4.49484e-05
5.37695e-05
8.14973e-05
0.000351013
0.00020646
0.00990541
0.0274653
0.00883274
0.00225979
0.00082542
0.000428197
0.00033239
0.000318593
0.000340424
0.000426897
0.000508314
0.000530716
0.000512171
0.000469844
0.000413742
0.000349397
0.000284555
0.000216316
0.000147147
9.03639e-05
5.38171e-05
3.32951e-05
3.19672e-05
4.00007e-05
4.87869e-05
6.04242e-05
7.55765e-05
9.40746e-05
0.000114135
0.000131329
0.000141367
0.000137162
0.000110581
8.77211e-05
7.47933e-05
7.44948e-05
8.70051e-05
0.000132869
0.000604299
0.000376944
0.0108114
0.0332683
0.0171488
0.0108318
0.00587156
0.00298889
0.00168946
0.00114366
0.000925515
0.000868775
0.000819255
0.000748957
0.00066551
0.000577832
0.000490923
0.000407331
0.000327988
0.000251686
0.000179497
0.000117934
7.15297e-05
3.93497e-05
3.49809e-05
4.55723e-05
5.7569e-05
7.24436e-05
9.16754e-05
0.000115504
0.00014361
0.000175272
0.000209423
0.000243188
0.000260354
0.000256575
0.000291555
0.000399559
0.00065692
0.00106056
0.00398383
0.000981958
0.0100677
0.0174184
0.0156156
0.0118222
0.00857082
0.00590336
0.0040157
0.00280124
0.00206451
0.00158165
0.00124551
0.00100191
0.000816591
0.000668737
0.000545891
0.000440793
0.00034919
0.000268419
0.000197749
0.000138797
9.27261e-05
4.69354e-05
3.79315e-05
5.11251e-05
6.66239e-05
8.42084e-05
0.000105745
0.000132409
0.00016532
0.000206303
0.00025813
0.000324449
0.000409146
0.000515611
0.000675185
0.000911142
0.00120515
0.00149856
0.00175802
0.000911701
0.00821852
0.0147928
0.008969
0.00614592
0.00434582
0.00313904
0.00232954
0.00177508
0.00137609
0.00108169
0.000859201
0.000686141
0.000547502
0.000433607
0.000338488
0.000258698
0.000192672
0.000139976
9.78875e-05
5.27995e-05
3.91352e-05
5.32918e-05
7.07942e-05
8.90859e-05
0.000109197
0.000132547
0.000160102
0.000193322
0.00023465
0.00028808
0.000359815
0.000456968
0.000583212
0.00073314
0.000869645
0.000927086
0.000871638
0.000474875
0.00646022
0.0118943
0.00742421
0.00525542
0.003872
0.00289707
0.00218588
0.00166804
0.00128903
0.00100548
0.000789443
0.000621175
0.000487143
0.000378349
0.00028904
0.00021575
0.000156581
0.000110395
7.39083e-05
4.5678e-05
3.84385e-05
4.90035e-05
6.09313e-05
7.59899e-05
9.37554e-05
0.000115117
0.000141347
0.000174293
0.000216605
0.000271933
0.000344827
0.000439465
0.000557525
0.000689284
0.000819195
0.000928753
0.000640393
0.00048514
0.00320291
0.00408087
0.00496247
0.00595432
0.00478478
0.00390329
0.00297633
0.00233659
0.00183873
0.00144614
0.00113417
0.000907294
0.000729577
0.000584221
0.000462624
0.000360152
0.000274242
0.000203443
0.000146875
0.000103799
7.28076e-05
5.17181e-05
4.51298e-05
5.95811e-05
7.5563e-05
9.34816e-05
0.000113585
0.000136213
0.000161833
0.000191248
0.000225942
0.00026885
0.00032245
0.000386333
0.000462082
0.000549676
0.00066032
0.000631518
0.000489884
0.000383504
)
;

boundaryField
{
    floor
    {
        Cmu             0.09;
        kappa           0.41;
        E               9.8;
        type            epsilonWallFunction;
        value           nonuniform List<scalar> 
36
(
0.000187766
2.84818e-05
5.85425e-05
7.26513e-05
7.76352e-05
7.57904e-05
6.75103e-05
5.91527e-05
5.21053e-05
4.62581e-05
4.12438e-05
3.68546e-05
3.2953e-05
2.94309e-05
2.6179e-05
2.30863e-05
1.99895e-05
1.7347e-05
1.29806e-05
1.29806e-05
2.2518e-05
3.29126e-05
4.90176e-05
8.31412e-05
9.24421e-05
9.56897e-05
0.000187766
0.000211799
0.000181754
0.000126214
2.84818e-05
0.000126214
6.99455e-05
0.000262159
0.000136525
0.000295941
)
;
    }
    ceiling
    {
        Cmu             0.09;
        kappa           0.41;
        E               9.8;
        type            epsilonWallFunction;
        value           nonuniform List<scalar> 
43
(
0.00320291
0.00408087
0.00496247
0.00595432
0.00478478
0.00390329
0.00297633
0.00233659
0.00183873
0.00144614
0.00113417
0.000907294
0.000729577
0.000584221
0.000462624
0.000360152
0.000274242
0.000203443
0.000146875
0.000103799
7.28076e-05
5.17181e-05
4.51298e-05
5.95811e-05
7.5563e-05
9.34816e-05
0.000113585
0.000136213
0.000161833
0.000191248
0.000225942
0.00026885
0.00032245
0.000386333
0.000462082
0.000549676
0.00066032
0.000631518
0.000489884
0.000383504
0.0100677
0.0174184
0.00646022
)
;
    }
    sWall
    {
        Cmu             0.09;
        kappa           0.41;
        E               9.8;
        type            epsilonWallFunction;
        value           uniform 0.00320291;
    }
    nWall
    {
        Cmu             0.09;
        kappa           0.41;
        E               9.8;
        type            epsilonWallFunction;
        value           nonuniform List<scalar> 6(9.56897e-05 0.00020646 0.000376944 0.000474875 0.00048514 0.000383504);
    }
    sideWalls
    {
        type            empty;
    }
    glass1
    {
        Cmu             0.09;
        kappa           0.41;
        E               9.8;
        type            epsilonWallFunction;
        value           nonuniform List<scalar> 9(0.000108149 0.000462419 0.00114372 0.00231561 0.00409735 0.00662482 0.00990541 0.0108114 0.0100677);
    }
    glass2
    {
        Cmu             0.09;
        kappa           0.41;
        E               9.8;
        type            epsilonWallFunction;
        value           nonuniform List<scalar> 2(0.000981958 0.000911701);
    }
    sun
    {
        Cmu             0.09;
        kappa           0.41;
        E               9.8;
        type            epsilonWallFunction;
        value           nonuniform List<scalar> 
14
(
0.000108149
0.000118326
0.000105409
0.000116404
0.000127022
0.000136732
0.00014562
0.000153928
0.000162005
0.000170371
0.000177563
0.000182544
0.000185318
0.000186975
)
;
    }
    Table_master
    {
        Cmu             0.09;
        kappa           0.41;
        E               9.8;
        type            epsilonWallFunction;
        value           nonuniform List<scalar> 9(7.85328e-05 5.42935e-05 3.93635e-05 3.12127e-05 2.64297e-05 2.31793e-05 2.0741e-05 1.89357e-05 1.79605e-05);
    }
    Table_slave
    {
        Cmu             0.09;
        kappa           0.41;
        E               9.8;
        type            epsilonWallFunction;
        value           nonuniform List<scalar> 9(7.01283e-05 7.21523e-05 7.62255e-05 8.04176e-05 8.30922e-05 8.25721e-05 7.7546e-05 7.05861e-05 6.28074e-05);
    }
    inlet
    {
        type            turbulentMixingLengthDissipationRateInlet;
        mixingLength    0.01;
        phi             phi;
        k               k;
        value           uniform 0.000101881;
    }
    outlet
    {
        type            zeroGradient;
    }
}


// ************************************************************************* //
