/*--------------------------------*- C++ -*----------------------------------*\
  =========                 |
  \\      /  F ield         | OpenFOAM: The Open Source CFD Toolbox
   \\    /   O peration     | Website:  https://openfoam.org
    \\  /    A nd           | Version:  6
     \\/     M anipulation  |
\*---------------------------------------------------------------------------*/
FoamFile
{
    version     2.0;
    format      ascii;
    class       volScalarField;
    location    "100";
    object      epsilon;
}
// * * * * * * * * * * * * * * * * * * * * * * * * * * * * * * * * * * * * * //

dimensions      [0 2 -3 0 0 0 0];

internalField   nonuniform List<scalar> 
458
(
0.00014989
0.00015963
0.000121736
0.000135773
0.000151982
0.000168413
0.000184957
0.000201925
0.00021998
0.000240042
0.000258026
0.000272574
0.000283179
0.000290953
0.000295394
9.40966e-05
0.000190511
0.000216763
0.000206168
0.000171117
0.000124041
9.16934e-05
6.80235e-05
5.04481e-05
3.73358e-05
2.76246e-05
2.0584e-05
1.56686e-05
1.24217e-05
1.07815e-05
1.45532e-05
4.5701e-05
3.04986e-05
0.000788879
0.00191614
0.000166563
0.000109604
0.000113727
0.000121491
0.000130589
0.000141816
0.000156151
0.000174459
0.000195284
0.000217738
0.000240107
0.000260623
0.000289857
0.000383316
0.000322889
0.000175894
0.000138482
0.000321042
0.000216401
0.000197828
0.000176257
9.98193e-05
6.84198e-05
4.9369e-05
3.58818e-05
2.63771e-05
1.98275e-05
1.53933e-05
1.24012e-05
1.04062e-05
1.15188e-05
3.44637e-05
0.000201374
9.35968e-05
0.00202635
0.00641456
0.000410047
0.000128173
0.000118721
0.000125994
0.000136414
0.000149646
0.000165969
0.000185421
0.000206977
0.000228859
0.000249926
0.00027036
0.00029411
0.000330125
0.000375229
0.000438258
0.000517293
0.000443379
0.000275197
0.000240184
0.000227162
7.68151e-05
3.87814e-05
3.13211e-05
2.5424e-05
2.10912e-05
1.79129e-05
1.55279e-05
1.36767e-05
1.31838e-05
4.26014e-05
0.000121251
0.000738039
0.000149283
0.0039996
0.0141131
0.000990545
0.000169366
0.000131074
0.000138515
0.000151621
0.000167922
0.00018732
0.000209732
0.000233936
0.000256153
0.00027531
0.000292769
0.000312202
0.000341985
0.000399855
0.000517794
0.000697533
0.000417132
0.000258683
0.00021784
0.000232067
0.000294921
0.000439874
0.000460085
0.000469635
0.000443969
0.000438573
0.000441163
0.000437545
0.0004142
0.000362578
0.000282654
0.000241725
0.00052764
0.000391661
0.00670494
0.0242321
0.00216157
0.000248742
0.000147218
0.000153335
0.000171734
0.000195724
0.000224641
0.00025779
0.000291825
0.000319095
0.000338818
0.000352657
0.000360509
0.000361398
0.000355835
0.000343211
0.000309412
0.0002303
0.000189052
0.000185319
0.00020241
0.000233238
0.000275017
0.000313375
0.000342279
0.000331266
0.000326964
0.000336086
0.000341638
0.000330865
0.000296116
0.000253521
0.000225517
0.00029493
0.000400178
0.00050995
0.000448073
0.000377152
0.0101554
0.0333601
0.00435277
0.000473576
0.000196091
0.000183427
0.000204655
0.000239018
0.00028357
0.000337413
0.000385625
0.000414705
0.000430695
0.000441213
0.000448077
0.000447482
0.000431004
0.000388278
0.00032224
0.000255562
0.000215925
0.000209883
0.000224483
0.000246897
0.0002746
0.000307619
0.000345273
0.000349455
0.000358214
0.000388016
0.000422156
0.000444096
0.000432185
0.000359029
0.000292759
0.000269979
0.000287116
0.000329708
0.00071651
0.000604232
0.0143104
0.0373757
0.0090106
0.00180728
0.000606234
0.000368515
0.000337071
0.000366231
0.000423039
0.0005066
0.000549253
0.000552585
0.000540483
0.000528572
0.000521798
0.000516688
0.000501133
0.000459624
0.000393141
0.000323459
0.00027792
0.000267049
0.000279883
0.000298471
0.000311168
0.000327714
0.000377902
0.000404097
0.000422505
0.000470917
0.000539195
0.000616458
0.000678646
0.000668921
0.000558833
0.000512987
0.000554723
0.000655362
0.00161605
0.00109996
0.0153569
0.0462571
0.0213176
0.0108354
0.00489227
0.00214591
0.00123556
0.000980908
0.000922355
0.000911517
0.000838464
0.000751994
0.000675694
0.00061783
0.000579377
0.000557168
0.000540464
0.000510064
0.000460608
0.000404793
0.000364843
0.000356265
0.000376732
0.000405009
0.000398436
0.000376436
0.00043999
0.000513008
0.000546583
0.000602676
0.000698519
0.000842149
0.00103651
0.00128256
0.00148793
0.00185739
0.00277272
0.00356777
0.0100382
0.00192851
0.0141015
0.0242389
0.0192236
0.0139101
0.00945438
0.00609117
0.00392277
0.0026523
0.00194234
0.00147485
0.00116144
0.000948561
0.000802411
0.000701945
0.000634485
0.000592243
0.000567849
0.000550148
0.00052931
0.000505247
0.000488365
0.000493534
0.000531805
0.000597171
0.00056713
0.000456632
0.000522786
0.000682836
0.000747225
0.000791238
0.000871731
0.00101957
0.00124885
0.00155763
0.00193276
0.00237015
0.00290463
0.00337677
0.00382788
0.00178238
0.00906189
0.0111007
0.00811076
0.00571294
0.00399081
0.00283691
0.00208824
0.00159753
0.00127263
0.00105475
0.000906067
0.000804157
0.000736645
0.000697211
0.00068169
0.000684224
0.000696694
0.000712164
0.000729016
0.000757876
0.00082701
0.000958126
0.000902418
0.000575712
0.000612531
0.00090703
0.00106189
0.00109372
0.00109327
0.00112725
0.00123041
0.00142933
0.0016952
0.00194663
0.00211047
0.00206288
0.00179164
0.00108444
0.0070838
0.00972649
0.00707718
0.0050747
0.00373367
0.00278775
0.00212716
0.00166814
0.00134731
0.00112062
0.000963256
0.00086009
0.000802442
0.000785721
0.00080686
0.000860786
0.000936996
0.00101929
0.00109243
0.00115703
0.00123273
0.00126553
0.00112308
0.000724816
0.000699546
0.00116625
0.00131809
0.0013185
0.00128979
0.00128992
0.00136389
0.00156026
0.00185151
0.00216135
0.0024128
0.00254861
0.00131745
0.00115206
0.00421547
0.00497332
0.00573876
0.00648698
0.00521523
0.00379556
0.00302654
0.00244282
0.00199547
0.00165051
0.00138155
0.00118069
0.00102445
0.000900567
0.000802762
0.000728001
0.000675054
0.000643337
0.000631562
0.000636357
0.000652079
0.000674768
0.000709005
0.000761985
0.000754474
0.000636646
0.000617102
0.000779046
0.000842521
0.000864999
0.000894445
0.000960538
0.00109174
0.00127197
0.00151732
0.0018041
0.00197873
0.00186162
0.0014461
0.00113814
)
;

boundaryField
{
    floor
    {
        Cmu             0.09;
        kappa           0.41;
        E               9.8;
        type            epsilonWallFunction;
        value           nonuniform List<scalar> 
36
(
0.000295394
9.40966e-05
0.000190511
0.000216763
0.000206168
0.000171117
0.000124041
9.16934e-05
6.80235e-05
5.04481e-05
3.73358e-05
2.76246e-05
2.0584e-05
1.56686e-05
1.24217e-05
1.07815e-05
1.45532e-05
4.5701e-05
3.04986e-05
3.04986e-05
9.35968e-05
0.000149283
0.000391661
0.00050995
0.000448073
0.000377152
0.000295394
0.000383316
0.000322889
0.000175894
9.40966e-05
0.000175894
0.000138482
0.000438258
0.000517293
0.000697533
)
;
    }
    ceiling
    {
        Cmu             0.09;
        kappa           0.41;
        E               9.8;
        type            epsilonWallFunction;
        value           nonuniform List<scalar> 
43
(
0.00421547
0.00497332
0.00573876
0.00648698
0.00521523
0.00379556
0.00302654
0.00244282
0.00199547
0.00165051
0.00138155
0.00118069
0.00102445
0.000900567
0.000802762
0.000728001
0.000675054
0.000643337
0.000631562
0.000636357
0.000652079
0.000674768
0.000709005
0.000761985
0.000754474
0.000636646
0.000617102
0.000779046
0.000842521
0.000864999
0.000894445
0.000960538
0.00109174
0.00127197
0.00151732
0.0018041
0.00197873
0.00186162
0.0014461
0.00113814
0.0141015
0.0242389
0.0070838
)
;
    }
    sWall
    {
        Cmu             0.09;
        kappa           0.41;
        E               9.8;
        type            epsilonWallFunction;
        value           uniform 0.00421547;
    }
    nWall
    {
        Cmu             0.09;
        kappa           0.41;
        E               9.8;
        type            epsilonWallFunction;
        value           nonuniform List<scalar> 6(0.000377152 0.000604232 0.00109996 0.00108444 0.00115206 0.00113814);
    }
    sideWalls
    {
        type            empty;
    }
    glass1
    {
        Cmu             0.09;
        kappa           0.41;
        E               9.8;
        type            epsilonWallFunction;
        value           nonuniform List<scalar> 9(0.00014989 0.000788879 0.00202635 0.0039996 0.00670494 0.0101554 0.0143104 0.0153569 0.0141015);
    }
    glass2
    {
        Cmu             0.09;
        kappa           0.41;
        E               9.8;
        type            epsilonWallFunction;
        value           nonuniform List<scalar> 2(0.00192851 0.00178238);
    }
    sun
    {
        Cmu             0.09;
        kappa           0.41;
        E               9.8;
        type            epsilonWallFunction;
        value           nonuniform List<scalar> 
14
(
0.00014989
0.00015963
0.000121736
0.000135773
0.000151982
0.000168413
0.000184957
0.000201925
0.00021998
0.000240042
0.000258026
0.000272574
0.000283179
0.000290953
)
;
    }
    Table_master
    {
        Cmu             0.09;
        kappa           0.41;
        E               9.8;
        type            epsilonWallFunction;
        value           nonuniform List<scalar> 9(7.68151e-05 3.87814e-05 3.13211e-05 2.5424e-05 2.10912e-05 1.79129e-05 1.55279e-05 1.36767e-05 1.31838e-05);
    }
    Table_slave
    {
        Cmu             0.09;
        kappa           0.41;
        E               9.8;
        type            epsilonWallFunction;
        value           nonuniform List<scalar> 9(0.000439874 0.000460085 0.000469635 0.000443969 0.000438573 0.000441163 0.000437545 0.0004142 0.000362578);
    }
    inlet
    {
        type            turbulentMixingLengthDissipationRateInlet;
        mixingLength    0.01;
        phi             phi;
        k               k;
        value           uniform 0.000101881;
    }
    outlet
    {
        type            zeroGradient;
    }
}


// ************************************************************************* //
