/*--------------------------------*- C++ -*----------------------------------*\
  =========                 |
  \\      /  F ield         | OpenFOAM: The Open Source CFD Toolbox
   \\    /   O peration     | Website:  https://openfoam.org
    \\  /    A nd           | Version:  6
     \\/     M anipulation  |
\*---------------------------------------------------------------------------*/
FoamFile
{
    version     2.0;
    format      ascii;
    class       volScalarField;
    location    "100";
    object      nut;
}
// * * * * * * * * * * * * * * * * * * * * * * * * * * * * * * * * * * * * * //

dimensions      [0 2 -1 0 0 0 0];

internalField   nonuniform List<scalar> 
458
(
0.000751019
0.000766951
0.000700697
0.000726657
0.000754497
0.000780765
0.00080554
0.00082946
0.000853482
0.00087868
0.000900097
0.000916705
0.000928439
0.000936851
0.000941581
0.000643017
0.000813468
0.000849137
0.000834945
0.000784589
0.000704804
0.000637266
0.000576878
0.000522153
0.000472288
0.000427144
0.000387219
0.000353531
0.000327184
0.000312147
0.00034528
0.000505479
0.000441854
0.00130637
0.00216213
0.00153448
0.00203997
0.00220222
0.0023656
0.00253179
0.00268632
0.00281037
0.0028841
0.00291147
0.0028578
0.00267648
0.00229751
0.00167418
0.00102699
0.000969868
0.000792112
0.000731414
0.00239085
0.0026916
0.00241604
0.001933
0.00155434
0.00130025
0.00109536
0.000924751
0.000795055
0.000703133
0.000643226
0.000610255
0.000598981
0.000602283
0.00065528
0.00126252
0.000641875
0.00178909
0.00361211
0.00161329
0.00291367
0.00328171
0.00346812
0.00363153
0.00377331
0.00388631
0.00396
0.00399489
0.00395619
0.00380291
0.00348842
0.00299855
0.00240161
0.00174696
0.00107377
0.00113482
0.00333205
0.00298983
0.00232722
0.00166433
0.000600688
0.000478303
0.000445437
0.000415493
0.000390401
0.000369716
0.000352524
0.000337922
0.000333842
0.000593523
0.000993944
0.00215978
0.000749915
0.0022442
0.00546422
0.00181479
0.00314764
0.00392088
0.00413422
0.00428626
0.00442071
0.00453842
0.00463284
0.00470937
0.00475402
0.00472711
0.00456197
0.00417571
0.00351742
0.00264157
0.00178084
0.0012536
0.00250062
0.00311159
0.00273643
0.00217588
0.00158149
0.00107509
0.00109136
0.00109911
0.00107875
0.00107434
0.00107646
0.00107353
0.00105412
0.00100842
0.00109261
0.00123253
0.00187624
0.00103464
0.00266595
0.00750201
0.00243281
0.00290784
0.00416097
0.00444676
0.00458616
0.00470313
0.00481318
0.00492042
0.00503915
0.00520482
0.00540093
0.00557982
0.00566994
0.00560561
0.00536295
0.0049778
0.00453013
0.00414504
0.00395987
0.00370306
0.00355202
0.00351311
0.00359095
0.00379514
0.00407749
0.00431307
0.00437014
0.00437846
0.00431805
0.00417932
0.00394497
0.00341969
0.002839
0.00234254
0.00187782
0.00112949
0.00108185
0.00102147
0.00306162
0.00935559
0.0037765
0.00261038
0.00386669
0.00437749
0.00457977
0.0046919
0.00475881
0.00480777
0.00489231
0.00508797
0.00538441
0.00574372
0.00609504
0.00634723
0.00640845
0.00620275
0.00573808
0.0051401
0.00458195
0.00418771
0.00395026
0.00379263
0.00372439
0.00380806
0.00416723
0.00461828
0.00480299
0.00483979
0.00479143
0.00470493
0.00459932
0.00437051
0.00392748
0.00331491
0.0027039
0.00237682
0.00264846
0.00119516
0.00343242
0.0107353
0.00629672
0.00328911
0.00289847
0.00350909
0.00410955
0.00446717
0.0046144
0.00456023
0.00454799
0.00467277
0.00492669
0.00529664
0.00573776
0.00616128
0.00644118
0.00644874
0.00615067
0.00564382
0.0050993
0.00465978
0.00431747
0.00397532
0.00363495
0.00347137
0.00384056
0.00447178
0.00472119
0.00474265
0.00467909
0.00464079
0.00468174
0.00477888
0.00463416
0.00421506
0.00370329
0.0032967
0.0032874
0.00145925
0.00351412
0.0108049
0.00835378
0.00621965
0.0044171
0.00353526
0.00365537
0.00413564
0.00449456
0.00435509
0.00424861
0.0042575
0.00438316
0.00462506
0.00497894
0.00541173
0.00582743
0.00605805
0.00601561
0.00575988
0.0054185
0.00511138
0.00483198
0.00442713
0.00379653
0.00324096
0.00354963
0.00445448
0.00476122
0.00470875
0.00457172
0.0045277
0.00466942
0.00504776
0.00560048
0.00546333
0.0053733
0.00500924
0.00540714
0.00175952
0.00341562
0.0040915
0.00457943
0.00471511
0.00447156
0.00403808
0.00370216
0.00355046
0.00352868
0.00355794
0.00362772
0.00372949
0.00386438
0.00404153
0.00427653
0.00458063
0.0049311
0.00524451
0.00542718
0.0054539
0.00538365
0.00531741
0.00529572
0.00510461
0.00426266
0.00311518
0.00322891
0.00451007
0.00497389
0.00481285
0.00447213
0.00418549
0.00401938
0.00393141
0.00384637
0.00372998
0.00347955
0.00311963
0.00280876
0.00171399
0.00290547
0.00440586
0.00449046
0.00428363
0.00403253
0.00383042
0.00369444
0.0036143
0.00359189
0.00361793
0.00368065
0.00377682
0.00391369
0.00410454
0.00435392
0.0046367
0.00489952
0.00509369
0.00520855
0.00530536
0.0055182
0.00577015
0.00508216
0.00305477
0.00279526
0.00441034
0.00526052
0.00518307
0.00476329
0.00431745
0.00397771
0.00377732
0.00362024
0.00338925
0.0030363
0.0025678
0.00207778
0.00145243
0.00271517
0.00486329
0.00486254
0.00458895
0.00433867
0.00410667
0.00390697
0.00374598
0.00362284
0.00349438
0.0033871
0.00332477
0.00332807
0.00341313
0.00358579
0.00383258
0.00411649
0.00438513
0.00459118
0.00474577
0.00497764
0.00529278
0.00492728
0.00292738
0.00226553
0.00382653
0.00474013
0.00483565
0.00467067
0.0044431
0.00420001
0.00407998
0.00400991
0.0038853
0.00367225
0.00337676
0.0025792
0.001482
0.00228378
0.00241318
0.00253113
0.00263667
0.0024517
0.00220529
0.00204498
0.00190401
0.00177987
0.00167075
0.00157456
0.00149422
0.00142517
0.00136523
0.00131389
0.00127176
0.00124014
0.0012204
0.0012129
0.00121596
0.0012259
0.00123995
0.00126055
0.00129111
0.00128749
0.00121661
0.00120323
0.00130057
0.00133519
0.00134701
0.00136211
0.00139484
0.00145566
0.00153172
0.00162449
0.00172102
0.00177486
0.00173914
0.0015987
0.00147604
)
;

boundaryField
{
    floor
    {
        type            nutkWallFunction;
        Cmu             0.09;
        kappa           0.41;
        E               9.8;
        value           nonuniform List<scalar> 
36
(
0.000113803
7.77193e-05
9.85166e-05
0.000102809
0.000101119
9.50582e-05
8.53489e-05
7.70283e-05
6.94985e-05
6.25918e-05
5.62203e-05
5.03795e-05
4.51491e-05
4.06823e-05
3.715e-05
3.51121e-05
3.9547e-05
6.04491e-05
5.22575e-05
5.22575e-05
7.75799e-05
9.08337e-05
0.000124732
0.000135804
0.000130266
0.000123211
0.000113803
0.000123863
0.000117151
9.59415e-05
7.77193e-05
9.59415e-05
8.85775e-05
0.00012934
0.00013643
0.000150126
)
;
    }
    ceiling
    {
        type            nutkWallFunction;
        Cmu             0.09;
        kappa           0.41;
        E               9.8;
        value           nonuniform List<scalar> 
43
(
0.000263922
0.000277764
0.000290317
0.000301556
0.000281943
0.000255552
0.000238211
0.000222842
0.000209204
0.000197133
0.000186421
0.000177419
0.000169639
0.000162852
0.000157014
0.000152203
0.000148581
0.000146314
0.000145453
0.000145805
0.000146946
0.000148559
0.000150922
0.000154424
0.000153956
0.000145836
0.000144361
0.000155501
0.000159427
0.000160766
0.000162483
0.000166195
0.000173064
0.00018161
0.00019197
0.000202681
0.000208627
0.000204683
0.000189095
0.000175358
0.000383018
0.000451977
0.000309727
)
;
    }
    sWall
    {
        type            nutkWallFunction;
        Cmu             0.09;
        kappa           0.41;
        E               9.8;
        value           uniform 0.000263992;
    }
    nWall
    {
        type            nutkWallFunction;
        Cmu             0.09;
        kappa           0.41;
        E               9.8;
        value           nonuniform List<scalar> 6(0.000123217 0.000143405 0.000173482 0.000172719 0.000176049 0.000175376);
    }
    sideWalls
    {
        type            empty;
    }
    glass1
    {
        type            nutkWallFunction;
        Cmu             0.09;
        kappa           0.41;
        E               9.8;
        value           nonuniform List<scalar> 9(9.09412e-05 0.000156357 0.00021057 0.000260208 0.000305246 0.00034682 0.000385278 0.000393708 0.000383585);
    }
    glass2
    {
        type            nutkWallFunction;
        Cmu             0.09;
        kappa           0.41;
        E               9.8;
        value           nonuniform List<scalar> 2(0.000207116 0.000202075);
    }
    sun
    {
        type            nutkWallFunction;
        Cmu             0.09;
        kappa           0.41;
        E               9.8;
        value           nonuniform List<scalar> 
14
(
9.09587e-05
9.28926e-05
8.48187e-05
8.79928e-05
9.13817e-05
9.45657e-05
9.75571e-05
0.000100435
0.000103315
0.000106327
0.000108878
0.000110852
0.000112245
0.000113242
)
;
    }
    Table_master
    {
        type            nutkWallFunction;
        Cmu             0.09;
        kappa           0.41;
        E               9.8;
        value           nonuniform List<scalar> 9(7.24905e-05 5.70097e-05 5.27721e-05 4.88806e-05 4.55909e-05 4.28584e-05 4.05724e-05 3.86198e-05 3.80701e-05);
    }
    Table_slave
    {
        type            nutkWallFunction;
        Cmu             0.09;
        kappa           0.41;
        E               9.8;
        value           nonuniform List<scalar> 9(0.000129485 0.000131375 0.000132253 0.000129881 0.000129369 0.000129615 0.000129271 0.000127004 0.000121649);
    }
    inlet
    {
        type            calculated;
        value           uniform 0.000100623;
    }
    outlet
    {
        type            calculated;
        value           nonuniform List<scalar> 2(0.00228378 0.00241318);
    }
}


// ************************************************************************* //
