/*--------------------------------*- C++ -*----------------------------------*\
  =========                 |
  \\      /  F ield         | OpenFOAM: The Open Source CFD Toolbox
   \\    /   O peration     | Website:  https://openfoam.org
    \\  /    A nd           | Version:  6
     \\/     M anipulation  |
\*---------------------------------------------------------------------------*/
FoamFile
{
    version     2.0;
    format      ascii;
    class       volScalarField;
    location    "100";
    object      k;
}
// * * * * * * * * * * * * * * * * * * * * * * * * * * * * * * * * * * * * * //

dimensions      [0 2 -2 0 0 0 0];

internalField   nonuniform List<scalar> 
458
(
0.00107517
0.00114051
0.0010569
0.00113108
0.00120056
0.00126249
0.00131795
0.00136884
0.00141752
0.00146715
0.00151146
0.00154649
0.00157453
0.00160423
0.00164016
0.00121153
0.00108916
0.00102284
0.00100788
0.000986422
0.000912341
0.00082949
0.000755524
0.000688593
0.000628026
0.000573262
0.000523695
0.000478605
0.00043703
0.000397645
0.0003585
0.000336711
0.000286664
0.00281521
0.00535158
0.00152772
0.00150586
0.00154615
0.00160252
0.00166687
0.00174173
0.00182843
0.00192485
0.00202059
0.00209183
0.00211307
0.00205466
0.00192414
0.00184352
0.0017421
0.00169464
0.00172061
0.00169918
0.00176075
0.00183085
0.00175863
0.00150735
0.0012979
0.00112784
0.000982418
0.000855828
0.000746552
0.000652576
0.000571465
0.000503499
0.000459451
0.000438266
0.000839607
0.000499644
0.00506389
0.0121747
0.00217786
0.00186048
0.00187333
0.00194091
0.00202413
0.00212394
0.00223969
0.00236526
0.00248888
0.00258238
0.00262489
0.00261618
0.0025864
0.00254393
0.00236928
0.00229231
0.00227038
0.00226484
0.0023288
0.00226313
0.00206336
0.00150993
0.00111448
0.000869903
0.000713668
0.000608517
0.000533635
0.000477954
0.000436111
0.000407387
0.000401953
0.000427923
0.00125484
0.0006895
0.00797347
0.0229393
0.0033324
0.00215114
0.00212178
0.00221137
0.00231635
0.00243611
0.00257266
0.00272405
0.00287924
0.00299503
0.00304258
0.0030165
0.00292528
0.00278819
0.00265867
0.00265722
0.00264265
0.00321805
0.00269232
0.00249042
0.0022744
0.00204042
0.0014746
0.00136739
0.00135747
0.0013695
0.00137183
0.00134238
0.0012648
0.00116624
0.00105549
0.000823192
0.00067254
0.0016225
0.000903513
0.0114871
0.0372238
0.00580131
0.00242903
0.00227903
0.0023842
0.0025205
0.00268163
0.00287236
0.0030931
0.0033214
0.00348451
0.00355121
0.0035197
0.00339247
0.00319477
0.00300731
0.00295898
0.00312957
0.00299775
0.00286989
0.0026158
0.00241433
0.00229047
0.00226811
0.00233188
0.00242005
0.00249344
0.00251794
0.0024613
0.00230208
0.00203887
0.00174968
0.00140907
0.00109328
0.00134766
0.0014888
0.00137936
0.0015304
0.00148216
0.0155943
0.0514638
0.0116626
0.00318092
0.00250291
0.00254078
0.00269012
0.00289822
0.00316337
0.00349864
0.00383059
0.00402636
0.00408964
0.0040456
0.00389835
0.00365094
0.00331346
0.00292788
0.00278704
0.00297707
0.00310065
0.00285345
0.00267712
0.00260014
0.00263611
0.00275413
0.00289953
0.00303392
0.0031213
0.00312582
0.00300722
0.00269898
0.00231413
0.00190242
0.00153358
0.00139478
0.00140436
0.00181466
0.00392037
0.0022544
0.0202898
0.060593
0.0245869
0.00782196
0.00397369
0.00320672
0.00317511
0.00337925
0.00370503
0.00419122
0.00454342
0.00466417
0.00464685
0.00455457
0.00440052
0.00417423
0.00381484
0.00319761
0.002749
0.00300161
0.00345226
0.00322022
0.00306035
0.00299601
0.00302108
0.00312348
0.00327026
0.00343233
0.00358107
0.0036962
0.00374592
0.00365521
0.00324662
0.00277606
0.00238906
0.0021989
0.00224483
0.00278525
0.00617413
0.00354227
0.0215829
0.0680674
0.0421952
0.0270278
0.0157417
0.00921543
0.00644921
0.00561422
0.00557338
0.00571388
0.00561604
0.00541688
0.00520343
0.00500504
0.00482096
0.00464092
0.00439687
0.00369809
0.00287283
0.0030158
0.0039365
0.00373089
0.00360904
0.00355598
0.00355215
0.003601
0.00368982
0.00380958
0.00396799
0.00418805
0.00448893
0.00485834
0.00513258
0.00508947
0.00526432
0.00616642
0.00827045
0.0110329
0.0231485
0.00586129
0.0207132
0.0304265
0.0277332
0.0244747
0.0202451
0.0157609
0.012154
0.00972698
0.00827373
0.00727028
0.00654473
0.00602191
0.00564434
0.00536573
0.00515717
0.00501409
0.00489166
0.00433524
0.00314967
0.00301443
0.00458021
0.0044211
0.00440633
0.00439363
0.00434176
0.00429095
0.00424942
0.00422401
0.00424477
0.00436071
0.00461528
0.0050206
0.00554929
0.00616813
0.00698936
0.00803865
0.00904271
0.00964446
0.00992815
0.00539728
0.0108949
0.0155676
0.0162536
0.0146323
0.0124389
0.0104914
0.00899293
0.00787972
0.00706873
0.00648621
0.00605584
0.00572783
0.00548801
0.0053689
0.00536184
0.00483383
0.00341471
0.00302752
0.00541364
0.00526794
0.00556058
0.0057318
0.005687
0.00557078
0.00541461
0.0052117
0.00498481
0.00479387
0.00472045
0.00484707
0.00521493
0.00575691
0.00638968
0.00696216
0.0071784
0.00674563
0.00570559
0.00369195
0.0104614
0.0177643
0.0177314
0.0154507
0.0132239
0.0112919
0.00969958
0.00842457
0.00739944
0.00651578
0.00578429
0.00521047
0.00480549
0.00459278
0.00453743
0.00431745
0.00336123
0.00297721
0.00564408
0.00586536
0.00651021
0.00678604
0.00674425
0.00659015
0.00638225
0.00614618
0.00592605
0.00577202
0.00571899
0.00579376
0.00607362
0.00653864
0.00711481
0.00766397
0.00805192
0.00826091
0.0053711
0.00381343
0.00957472
0.0101446
0.0106835
0.0122419
0.0115127
0.00980608
0.00836589
0.00728763
0.00639093
0.00563616
0.00499439
0.00448292
0.00405133
0.00367619
0.00334799
0.00306609
0.00283254
0.0026295
0.00240689
0.00238253
0.00288261
0.00268889
0.00277123
0.00280634
0.00280408
0.00279721
0.00280053
0.00282446
0.00288016
0.00297996
0.00314035
0.00337778
0.00367076
0.00402545
0.004431
0.00487421
0.00522671
0.00505653
0.00431456
0.00369208
)
;

boundaryField
{
    floor
    {
        type            kqRWallFunction;
        value           nonuniform List<scalar> 
36
(
0.00164016
0.00121153
0.00108916
0.00102284
0.00100788
0.000986422
0.000912341
0.00082949
0.000755524
0.000688593
0.000628026
0.000573262
0.000523695
0.000478605
0.00043703
0.000397645
0.0003585
0.000336711
0.000286664
0.000286664
0.000499644
0.0006895
0.000903513
0.00137936
0.0015304
0.00148216
0.00164016
0.00184352
0.0017421
0.00169464
0.00121153
0.00169464
0.00172061
0.00229231
0.00227038
0.00264265
)
;
    }
    ceiling
    {
        type            kqRWallFunction;
        value           nonuniform List<scalar> 
43
(
0.00957472
0.0101446
0.0106835
0.0122419
0.0115127
0.00980608
0.00836589
0.00728763
0.00639093
0.00563616
0.00499439
0.00448292
0.00405133
0.00367619
0.00334799
0.00306609
0.00283254
0.0026295
0.00240689
0.00238253
0.00288261
0.00268889
0.00277123
0.00280634
0.00280408
0.00279721
0.00280053
0.00282446
0.00288016
0.00297996
0.00314035
0.00337778
0.00367076
0.00402545
0.004431
0.00487421
0.00522671
0.00505653
0.00431456
0.00369208
0.0207132
0.0304265
0.0104614
)
;
    }
    sWall
    {
        type            kqRWallFunction;
        value           uniform 0.00957472;
    }
    nWall
    {
        type            kqRWallFunction;
        value           nonuniform List<scalar> 6(0.00148216 0.0022544 0.00354227 0.00369195 0.00381343 0.00369208);
    }
    sideWalls
    {
        type            empty;
    }
    glass1
    {
        type            kqRWallFunction;
        value           nonuniform List<scalar> 9(0.00107517 0.00281521 0.00506389 0.00797347 0.0114871 0.0155943 0.0202898 0.0215829 0.0207132);
    }
    glass2
    {
        type            kqRWallFunction;
        value           nonuniform List<scalar> 2(0.00586129 0.00539728);
    }
    sun
    {
        type            kqRWallFunction;
        value           nonuniform List<scalar> 
14
(
0.00107517
0.00114051
0.0010569
0.00113108
0.00120056
0.00126249
0.00131795
0.00136884
0.00141752
0.00146715
0.00151146
0.00154649
0.00157453
0.00160423
)
;
    }
    Table_master
    {
        type            kqRWallFunction;
        value           nonuniform List<scalar> 9(0.00150993 0.00111448 0.000869903 0.000713668 0.000608517 0.000533635 0.000477954 0.000436111 0.000407387);
    }
    Table_slave
    {
        type            kqRWallFunction;
        value           nonuniform List<scalar> 9(0.0014746 0.00136739 0.00135747 0.0013695 0.00137183 0.00134238 0.0012648 0.00116624 0.00105549);
    }
    inlet
    {
        type            turbulentIntensityKineticEnergyInlet;
        intensity       0.05;
        value           uniform 0.000937498;
    }
    outlet
    {
        type            zeroGradient;
    }
}


// ************************************************************************* //
