/*--------------------------------*- C++ -*----------------------------------*=========                 |
  \      /  F ield         | OpenFOAM: The Open Source CFD Toolbox
   \    /   O peration     | Website:  https://openfoam.org
    \  /    A nd           | Version:  6
     \/     M anipulation  |
\*---------------------------------------------------------------------------*/
FoamFile
{
    version     2.0;
    format      ascii;
    class       volScalarField;
    location    "100";
    object      PPD;
}
// * * * * * * * * * * * * * * * * * * * * * * * * * * * * * * * * * * * * * //

dimensions      [0 0 0 0 0 0 0];

internalField   nonuniform List<scalar> 
458
(
30.700848464486242
21.28259463384198
21.60302581193301
20.59673804942753
19.805610682142444
19.177710072391633
18.7235756716301
18.43634030480031
18.3004368186985
18.36944667803499
18.658595132242596
19.367218870839736
20.582583056074654
21.68734901186464
20.449297184202678
23.736691633588578
26.059508424808243
25.839928779752896
24.277433904465482
23.12782615269407
22.46903161463446
22.243347039919144
22.258483777835124
22.329339903201188
22.387818241109926
22.418613211743576
22.455186936494385
22.501641656974314
22.59831668902187
22.898710925944513
23.17529537633058
22.673873982596916
22.563348136121135
28.600369459023398
20.35905778469028
21.737479600367493
20.468920186619613
19.704351843468203
19.10704289647036
18.682547553985614
18.414572935735208
18.282393452108266
18.315181032960027
18.47714180037947
18.811368181664776
19.247898210910392
19.461869826831233
19.409236482138382
21.09300076820817
24.422731204676182
22.23939422738573
22.630507178989674
25.542184537368698
25.266050814418023
25.069858627621414
24.310977435567608
23.425134587912382
23.11127399116272
23.019882897958823
22.85585479570132
22.625912134398988
22.373655814970732
22.112258698251722
21.82284789213648
21.60066967094137
21.609678159851356
22.08821001816979
21.708982171691645
19.98887537606062
31.447438504337754
19.22417504924465
22.546198509781803
21.137586718467716
20.582720332292894
20.163970684183496
19.891663462513122
19.73478090159226
19.654510186171848
19.696940156813923
19.802525582155184
19.937723298894042
19.96179115880541
19.79049980089519
19.70934639510311
20.44349498185997
20.98198308221761
19.39352845612656
24.494156627817503
25.482869560832597
25.246392288909504
25.069858627621414
24.91353512473087
24.660708834836072
24.351585611627
24.02563109773432
23.702255326035527
23.34390448068187
22.988811740219774
22.636995525300634
22.040945646316544
21.173185916404307
20.651736513210167
21.059883109947037
19.89067007030586
16.699827908926494
35.970554033111185
18.69836096942531
23.25977393239512
21.999786825223467
21.8484477623102
21.758439361832842
21.75479470963269
21.80367245601532
21.89142314510218
22.012832489832363
22.127132354400914
22.095867034957024
21.815261483990568
21.314700301401516
20.883638059049687
20.69326826951776
20.33180825905916
20.119753195348096
23.130747819009983
24.786943515966357
25.680889637177145
25.443369666640237
25.226742489445755
25.050287510904866
24.796661231108942
24.641322330009388
24.525188755134337
23.028848210058428
21.824545930634926
20.9549976542516
20.408466661345926
20.34093389998108
20.87765771190999
20.99557231510572
20.55335433119302
18.238078679784905
15.249300645320957
41.2234071060028
18.956430628781817
23.721230046398702
22.87239175759956
23.239732818867992
23.637153453747658
24.08119158984806
24.554011115961217
24.984431905994597
25.297245979407222
25.475280801568488
25.252214443849894
24.58312017618283
23.664704119274205
22.71652732172508
21.820857980628944
20.944017116411317
20.618991251114764
21.838362001262496
23.03995936710946
24.757436579473705
25.680889637177145
25.46311526912787
25.246392288909504
25.069858627621414
24.933044861075402
24.83558402680123
24.718921273618605
23.659495683608853
22.67798041527051
21.9520194204422
21.487919454256073
21.258620860410787
20.75153846649303
19.83460921209678
17.055344647349216
17.525193717841304
14.592911910942647
13.727493159771697
13.260187658270652
46.390624630176895
20.09616220329525
24.76143782865087
23.76466906707394
24.492841162552423
25.49888522513116
26.651853263795132
27.925615970559264
29.111268541090766
30.003361756015025
30.226866032024745
29.447030124234658
28.10244208097275
26.571938473258356
25.065645539372568
23.628602817800754
22.315656473295988
21.462742747735874
21.47021901067326
22.265829434049778
23.993180549705215
25.087960306715075
25.680889637177145
25.482869560832597
25.325078714016456
25.18746908190259
25.08943849997668
24.99162672714263
24.874541999863624
24.7383430508294
24.386442228837453
23.353625000391474
22.40675113744429
21.193323190785165
19.829504809379245
17.457039076066437
17.393789914877175
18.00674481175689
16.840728207404155
14.073719268757031
50.768266982305676
23.775613085399527
31.10132621441528
25.963411608177992
25.441079245173114
27.021144113528365
29.18295519325416
30.88070641476719
31.828350638728608
32.969935429296314
33.878237271052015
33.23037739785738
30.961105291564735
29.010279565461502
27.258526948422315
25.587961057541378
23.934541829741846
22.3659676828496
21.40892174118028
21.84097127376741
23.751379706215005
24.761305258374108
25.63861154276094
25.720597582120718
25.561973552031745
25.46311526912787
25.384185028225417
25.285718062657082
25.167845480428497
25.01117155741713
24.796661231108942
24.486548287357664
24.121233032141276
23.143430109057746
21.128866199120296
18.85579742574471
17.939855811241358
17.740652004795805
15.315842182603447
14.40400080103268
58.72769301236086
43.65461587026575
43.44063036614003
33.884893019236515
30.394680479323895
30.045942472836245
31.275719629902568
32.20678389376259
32.834659679994644
33.05262208287613
32.28124460521275
31.405593948976332
30.309837102989604
29.169035092675657
28.02474365129578
26.848057646610116
25.52249939968935
23.585285993073086
21.651503391559388
21.658021269831792
23.96763277302486
24.846094524814816
25.619218486668927
25.95957043611891
25.82001866678837
25.74046452343802
25.680889637177145
25.601577594642464
25.52240419834689
25.384185028225417
25.18746908190259
24.91353512473087
24.486548287357664
24.044733650175772
23.664381319248037
23.268876729012533
23.044661649154435
23.100593174481716
16.79154219560327
12.35238756153069
69.95745403486782
61.80026258884393
53.19109051766171
44.03649172219725
36.983039179334774
32.748732273767516
30.480457735788022
29.39729122928385
28.990075789731236
28.871869989555663
28.44768976533075
27.890405721843862
27.349354162069417
26.947894813976376
26.67112319989512
26.48672635441146
26.194098790300686
25.168648562660266
22.46853622699072
21.942843097257594
25.06333179936277
25.569449745009848
26.046394474649233
25.963699262393064
25.531589106276243
24.953256029368916
24.30110855650493
23.621497137027504
22.94415074897354
22.257747500368524
21.59819900376729
20.900888894272015
20.18404058613801
19.58253083433273
18.79620314881005
17.91617695152243
17.151045219278686
16.689475982435752
16.187179569658383
14.808106908408718
20.108708805521744
5.238944200240795
10.085281650740981
17.252861126762028
21.06962557203032
22.677566015329845
23.218870306535038
23.327992347291442
23.42517737694523
23.532867544880048
23.69404359550397
23.992069808195993
24.45188802500435
25.122538294984224
26.114618327833824
27.189650804581035
24.50634284273086
23.377814604625826
26.94816646792556
26.907416761293163
26.704174628380088
26.527387975716707
25.352892704755234
24.360609183563184
23.447462478309916
22.553500556974754
21.722074099302347
20.96896149059225
20.40723104142168
20.025557067086737
19.826200511189285
19.713323504233088
19.61870698892895
19.54536183409938
19.79568131528194
20.92250699986738
22.77700952634767
17.80725061253817
26.69335179253342
5.041594833155941
9.950288733228959
15.507762323185133
18.48251691154644
19.568312457516924
19.87545117276231
19.966405261773446
20.153498332479586
20.491540585561893
20.92933372975577
21.48500962313841
22.129005805740405
22.888196003339388
23.794869362695692
25.35430914676735
25.24068676386213
24.33380073655907
27.193371090488412
27.336964531728526
26.43176779617194
24.66337444261451
23.674112046358317
22.923618535631107
22.276463498124528
21.76213332421449
21.357398920489004
21.06193785637049
20.91354162717147
20.940337207512385
21.138298567771457
21.592693382865548
22.222965935421627
22.745948730070438
23.19526961100425
24.355358778977546
24.284375162273136
19.997019330397904
11.553752649475072
11.972187932497391
10.069835359450678
5.606085902308109
12.779174544909523
22.361571974137576
22.352513230040245
19.461165235018512
18.122143393754996
17.43882773672017
17.04766867255273
16.915728675004274
16.89531650200172
16.960300056213867
17.004105552662466
17.019649857213935
16.98317558906615
16.853124270759082
16.625896026117758
17.346007798079285
18.6918151568197
17.752679697811004
17.778473071179576
17.735186529000345
17.644824834497797
17.560588334360716
17.49853553599756
17.506711774245986
17.58499648859751
17.81088755255196
18.2303608351138
18.904454900685735
19.949548968381677
21.645954837516612
24.78042600989788
28.58440109500468
28.522593454226197
23.698925101225853
19.891617484694862
20.56927565012441
)
;

boundaryField
{
    ".*"
    {
        type            zeroGradient;
    }
}


// ************************************************************************* //
