/*--------------------------------*- C++ -*----------------------------------*\
  =========                 |
  \\      /  F ield         | OpenFOAM: The Open Source CFD Toolbox
   \\    /   O peration     | Website:  https://openfoam.org
    \\  /    A nd           | Version:  6
     \\/     M anipulation  |
\*---------------------------------------------------------------------------*/
FoamFile
{
    version     2.0;
    format      ascii;
    class       volVectorField;
    location    "100";
    object      U;
}
// * * * * * * * * * * * * * * * * * * * * * * * * * * * * * * * * * * * * * //

dimensions      [0 1 -1 0 0 0 0];

internalField   nonuniform List<vector> 
458
(
(0.100459 0.0752444 0)
(-0.150686 0.00527055 0)
(-0.140479 0.00978306 0)
(-0.162865 0.0093974 0)
(-0.18376 0.00723721 0)
(-0.202119 0.0042878 0)
(-0.216887 0.000742755 0)
(-0.227192 -0.00342475 0)
(-0.232172 -0.00833081 0)
(-0.23073 -0.0141654 0)
(-0.220653 -0.0215102 0)
(-0.198355 -0.031054 0)
(-0.16247 -0.0448635 0)
(-0.127759 -0.0670664 0)
(-0.142124 -0.097213 0)
(0.0926534 -0.0420703 0)
(0.0504465 -0.025848 0)
(0.0649944 -0.0162818 0)
(0.083853 -0.0123512 0)
(0.0974308 -0.00973135 0)
(0.105807 -0.00536189 0)
(0.107975 -0.00263278 0)
(0.106081 -0.00143556 0)
(0.103097 -0.000859651 0)
(0.100103 -0.000439055 0)
(0.0970671 -6.78088e-05 0)
(0.0937872 0.000331774 0)
(0.0899966 0.000960848 0)
(0.0850058 0.00229444 0)
(0.0773405 0.00495764 0)
(0.0654649 0.00763292 0)
(0.0561769 0.00893877 0)
(-0.0227936 0.0277572 0)
(0.317718 0.164709 0)
(-0.17605 0.0291582 0)
(-0.130921 0.0356742 0)
(-0.16067 0.0349495 0)
(-0.183793 0.0320845 0)
(-0.203868 0.0279309 0)
(-0.220337 0.0225769 0)
(-0.232603 0.015882 0)
(-0.239932 0.00762981 0)
(-0.241317 -0.00241168 0)
(-0.23592 -0.0139699 0)
(-0.223049 -0.0268248 0)
(-0.204621 -0.0421585 0)
(-0.189522 -0.0609517 0)
(-0.183205 -0.0698656 0)
(-0.150165 -0.0307096 0)
(-0.0905224 -0.0291078 0)
(-0.128688 -0.0300624 0)
(0.0961651 -0.0591721 0)
(0.0325233 -0.0296327 0)
(0.0435167 -0.0183659 0)
(0.0603723 -0.0180124 0)
(0.0739611 -0.0166533 0)
(0.0841655 -0.00398096 0)
(0.0858217 0.00333885 0)
(0.0845512 0.00574591 0)
(0.0838353 0.00635383 0)
(0.0837646 0.00649497 0)
(0.0837773 0.00651265 0)
(0.0836948 0.00664604 0)
(0.0834971 0.00736058 0)
(0.0825093 0.0098055 0)
(0.0776691 0.0172038 0)
(0.0652405 0.023376 0)
(0.0617774 0.0263747 0)
(-0.076352 0.0586826 0)
(0.50418 0.253264 0)
(-0.225133 0.0629243 0)
(-0.107237 0.0640963 0)
(-0.144393 0.0576536 0)
(-0.166162 0.0509456 0)
(-0.185233 0.0427094 0)
(-0.201042 0.0326075 0)
(-0.21317 0.0204535 0)
(-0.220965 0.00620975 0)
(-0.223473 -0.00986475 0)
(-0.219804 -0.0274716 0)
(-0.210651 -0.0462977 0)
(-0.19826 -0.0661176 0)
(-0.186323 -0.0855623 0)
(-0.171685 -0.0968653 0)
(-0.142951 -0.092278 0)
(-0.111443 -0.104714 0)
(-0.141677 -0.125421 0)
(0.0543297 -0.0661136 0)
(-0.00136909 -0.0405663 0)
(0.0162095 -0.0329499 0)
(0.0335016 -0.034426 0)
(0.0467732 -0.0372967 0)
(0.0642231 -0.0215282 0)
(0.0608117 -0.0109005 0)
(0.0572813 -0.00593445 0)
(0.0585799 -0.0036023 0)
(0.0619322 -0.00229643 0)
(0.0654505 -0.00148738 0)
(0.0689491 -0.000844571 0)
(0.0731269 0.000145424 0)
(0.0794963 0.00412395 0)
(0.0798388 0.025343 0)
(0.0649618 0.0395493 0)
(0.0727156 0.0488128 0)
(-0.121481 0.0929 0)
(0.65944 0.327997 0)
(-0.279672 0.101353 0)
(-0.0747612 0.0915574 0)
(-0.120425 0.0795794 0)
(-0.138336 0.0705382 0)
(-0.154799 0.0600562 0)
(-0.168929 0.0473378 0)
(-0.180274 0.0319789 0)
(-0.188101 0.0137239 0)
(-0.191261 -0.00731871 0)
(-0.188497 -0.0303156 0)
(-0.181474 -0.0536637 0)
(-0.172282 -0.0755307 0)
(-0.163024 -0.0934083 0)
(-0.15201 -0.103935 0)
(-0.136904 -0.109171 0)
(-0.12603 -0.11766 0)
(-0.128707 -0.109988 0)
(-0.10166 -0.0372452 0)
(-0.0374696 -0.0727169 0)
(-0.0223702 -0.0583777 0)
(-0.00467094 -0.0503192 0)
(0.00870967 -0.0473185 0)
(0.0128814 -0.0458146 0)
(0.0215139 -0.0264319 0)
(0.0453455 -0.0203923 0)
(0.066206 -0.0174209 0)
(0.0841563 -0.0153569 0)
(0.0998313 -0.0131379 0)
(0.112387 -0.0100859 0)
(0.119907 -0.00571284 0)
(0.119093 0.000318456 0)
(0.107219 0.00868939 0)
(0.0888247 0.0346585 0)
(0.0705531 0.0573821 0)
(0.0882089 0.0767072 0)
(-0.140283 0.127896 0)
(0.785703 0.389779 0)
(-0.330021 0.140166 0)
(-0.0384614 0.111681 0)
(-0.0915376 0.0963909 0)
(-0.104407 0.0860491 0)
(-0.11694 0.0738902 0)
(-0.128113 0.0589382 0)
(-0.137452 0.0406409 0)
(-0.144278 0.01859 0)
(-0.147093 -0.00709232 0)
(-0.144015 -0.0348282 0)
(-0.137834 -0.0616566 0)
(-0.130494 -0.0847656 0)
(-0.123561 -0.102209 0)
(-0.116754 -0.113489 0)
(-0.110081 -0.121814 0)
(-0.105802 -0.13018 0)
(-0.0991774 -0.12993 0)
(-0.0769963 -0.107704 0)
(-0.0469575 -0.0981496 0)
(-0.0278555 -0.077047 0)
(-0.0141811 -0.0651092 0)
(-0.0031407 -0.0571335 0)
(0.00437261 -0.0493221 0)
(0.0164146 -0.0359651 0)
(0.0326409 -0.0298915 0)
(0.04852 -0.0269867 0)
(0.0635047 -0.0246063 0)
(0.0774986 -0.0210923 0)
(0.0897746 -0.0150333 0)
(0.0989613 -0.00513738 0)
(0.103239 0.00846955 0)
(0.10048 0.0251213 0)
(0.0931156 0.0483113 0)
(0.0817819 0.0722215 0)
(0.111891 0.0973206 0)
(0.0275682 0.128795 0)
(0.118225 0.171181 0)
(0.143736 0.191423 0)
(-0.176022 0.239868 0)
(0.87135 0.444657 0)
(-0.37231 0.173763 0)
(-0.00779034 0.117322 0)
(-0.0571778 0.107993 0)
(-0.0658115 0.0973372 0)
(-0.0740804 0.0838111 0)
(-0.081074 0.0674001 0)
(-0.086705 0.0473154 0)
(-0.0908004 0.0226842 0)
(-0.0911446 -0.00694032 0)
(-0.0860854 -0.039082 0)
(-0.0803915 -0.068114 0)
(-0.0754135 -0.0910037 0)
(-0.0720501 -0.107021 0)
(-0.070322 -0.117198 0)
(-0.0704354 -0.124424 0)
(-0.0725881 -0.130544 0)
(-0.0725639 -0.13314 0)
(-0.0596771 -0.130887 0)
(-0.041757 -0.118129 0)
(-0.0269648 -0.0902897 0)
(-0.0187121 -0.0755933 0)
(-0.0111017 -0.0651375 0)
(-0.00524674 -0.0566478 0)
(0.00300575 -0.0477997 0)
(0.0135705 -0.0430518 0)
(0.0246883 -0.0406189 0)
(0.0360591 -0.0384233 0)
(0.0475914 -0.0346609 0)
(0.0590248 -0.027466 0)
(0.0697787 -0.0148644 0)
(0.0801378 0.00415197 0)
(0.0849389 0.0261733 0)
(0.0871883 0.0501632 0)
(0.0871843 0.0734363 0)
(0.110835 0.0972544 0)
(0.0979326 0.0987387 0)
(0.116497 0.0382645 0)
(0.141661 -0.0255902 0)
(-0.230652 0.116641 0)
(0.89439 0.494297 0)
(-0.392369 0.170549 0)
(0.0144586 0.0796225 0)
(-0.00407647 0.113873 0)
(-0.0156885 0.111654 0)
(-0.024121 0.0919107 0)
(-0.0278096 0.0715285 0)
(-0.0287357 0.0496908 0)
(-0.0282855 0.0232011 0)
(-0.0211333 -0.0103988 0)
(-0.0127622 -0.0454956 0)
(-0.00891456 -0.0735974 0)
(-0.00842678 -0.0938855 0)
(-0.0109191 -0.107099 0)
(-0.0159339 -0.114921 0)
(-0.0231956 -0.120028 0)
(-0.0324605 -0.125161 0)
(-0.0429191 -0.132922 0)
(-0.0396387 -0.143515 0)
(-0.0315227 -0.133573 0)
(-0.0229172 -0.0978139 0)
(-0.0213664 -0.0814029 0)
(-0.0185559 -0.0694197 0)
(-0.0171382 -0.0608583 0)
(-0.0145458 -0.0546219 0)
(-0.0104051 -0.0510892 0)
(-0.00538098 -0.0493725 0)
(0.000500299 -0.0480082 0)
(0.00730126 -0.0452196 0)
(0.0152143 -0.0390616 0)
(0.0246676 -0.0271857 0)
(0.0368233 -0.00718231 0)
(0.0522376 0.0185329 0)
(0.0632922 0.0426951 0)
(0.07292 0.0630926 0)
(0.0942003 0.0817912 0)
(0.107196 0.0804305 0)
(0.124123 0.0491162 0)
(0.184786 0.0533701 0)
(-0.165006 0.183289 0)
(0.998275 0.514467 0)
(-0.141171 0.156628 0)
(0.085602 0.0158567 0)
(0.123132 0.0554078 0)
(0.0901649 0.084079 0)
(0.0627121 0.0746036 0)
(0.052918 0.0529172 0)
(0.0529279 0.0300279 0)
(0.0563047 0.00196327 0)
(0.0710881 -0.0275313 0)
(0.0775714 -0.0529838 0)
(0.075657 -0.0737558 0)
(0.068325 -0.089137 0)
(0.0571905 -0.0991985 0)
(0.0433388 -0.104918 0)
(0.0275898 -0.108103 0)
(0.0105044 -0.111613 0)
(-0.0119835 -0.122707 0)
(-0.0175959 -0.145851 0)
(-0.0188657 -0.143654 0)
(-0.0170298 -0.0986149 0)
(-0.0233192 -0.082451 0)
(-0.0261273 -0.0695725 0)
(-0.0306814 -0.0607819 0)
(-0.0344983 -0.0554421 0)
(-0.0373768 -0.052658 0)
(-0.0397356 -0.0514896 0)
(-0.0416395 -0.0507927 0)
(-0.0428129 -0.0492073 0)
(-0.0426873 -0.0453726 0)
(-0.0403741 -0.0380651 0)
(-0.0338935 -0.0262139 0)
(-0.0148944 -0.00844106 0)
(0.00615003 0.0138818 0)
(0.0212665 0.0284385 0)
(0.0417737 0.0372975 0)
(0.056746 0.0285754 0)
(0.0666889 0.00319046 0)
(0.168615 0.0829255 0)
(-0.601759 0.311636 0)
(1.13475 0.464049 0)
(0.546941 0.308712 0)
(0.551771 0.276893 0)
(0.509156 0.237755 0)
(0.411545 0.203313 0)
(0.325168 0.15796 0)
(0.272001 0.109423 0)
(0.242554 0.0656659 0)
(0.22712 0.0275211 0)
(0.210471 -0.00689502 0)
(0.191562 -0.0358873 0)
(0.171118 -0.0580114 0)
(0.149092 -0.0731981 0)
(0.125569 -0.082431 0)
(0.100971 -0.087238 0)
(0.075719 -0.0894266 0)
(0.0495855 -0.0916334 0)
(0.0186632 -0.101004 0)
(0.00599491 -0.132957 0)
(-0.00461757 -0.142429 0)
(-0.0104885 -0.087116 0)
(-0.0261531 -0.0756425 0)
(-0.0339827 -0.0639553 0)
(-0.0446091 -0.0560932 0)
(-0.0549102 -0.0517926 0)
(-0.0647058 -0.0494044 0)
(-0.0748947 -0.0479857 0)
(-0.0859533 -0.0466208 0)
(-0.0979708 -0.0440453 0)
(-0.110919 -0.0387898 0)
(-0.124969 -0.0294341 0)
(-0.14065 -0.0147196 0)
(-0.158126 0.00610218 0)
(-0.173617 0.0314033 0)
(-0.19889 0.059968 0)
(-0.241732 0.0911022 0)
(-0.305658 0.121245 0)
(-0.379469 0.146216 0)
(-0.468228 0.160816 0)
(-0.812072 0.158653 0)
(0.0349501 0.0464279 0)
(0.244599 0.192449 0)
(0.292941 0.209076 0)
(0.279099 0.175537 0)
(0.272582 0.127372 0)
(0.272301 0.0796625 0)
(0.270783 0.0383415 0)
(0.264449 0.00456425 0)
(0.249108 -0.0215196 0)
(0.227018 -0.0394267 0)
(0.200714 -0.0504145 0)
(0.172189 -0.0560433 0)
(0.142904 -0.0578644 0)
(0.113468 -0.0572411 0)
(0.0825365 -0.0558839 0)
(0.0468314 -0.0600392 0)
(0.0336123 -0.0950568 0)
(0.0082074 -0.11879 0)
(-0.00890091 -0.0508808 0)
(-0.0354495 -0.0474333 0)
(-0.0455345 -0.0387173 0)
(-0.0596235 -0.0352218 0)
(-0.0736485 -0.0347513 0)
(-0.0867469 -0.0352078 0)
(-0.100602 -0.036059 0)
(-0.116236 -0.0367089 0)
(-0.133727 -0.0359602 0)
(-0.152237 -0.0320657 0)
(-0.169903 -0.0230452 0)
(-0.18409 -0.00710312 0)
(-0.192739 0.0159309 0)
(-0.197614 0.044641 0)
(-0.202242 0.0775109 0)
(-0.209436 0.109303 0)
(-0.217103 0.126788 0)
(-0.212441 0.102775 0)
(-0.195683 -0.0151074 0)
(-0.298599 -0.279562 0)
(-0.00229274 0.321092 0)
(0.0304106 0.250266 0)
(0.0872976 0.199765 0)
(0.135884 0.159693 0)
(0.180941 0.117502 0)
(0.215299 0.0812714 0)
(0.235047 0.0562414 0)
(0.240418 0.0428755 0)
(0.234849 0.0380637 0)
(0.222064 0.0339496 0)
(0.204754 0.0309879 0)
(0.184536 0.0295003 0)
(0.162614 0.0297767 0)
(0.139796 0.0325326 0)
(0.115533 0.0382008 0)
(0.0884187 0.0286447 0)
(0.0729007 -0.0538566 0)
(0.0116949 -0.105769 0)
(-0.0276423 0.0522568 0)
(-0.0531644 -0.00188873 0)
(-0.0696239 0.0310502 0)
(-0.0839394 0.0476016 0)
(-0.097154 0.0523173 0)
(-0.108526 0.0570418 0)
(-0.118774 0.0625561 0)
(-0.128376 0.0674635 0)
(-0.137524 0.0708093 0)
(-0.146203 0.0718285 0)
(-0.153947 0.0694905 0)
(-0.159009 0.0637779 0)
(-0.158104 0.0627702 0)
(-0.147974 0.0713401 0)
(-0.128314 0.090339 0)
(-0.101568 0.116658 0)
(-0.070636 0.138828 0)
(-0.0400471 0.136832 0)
(0.134261 0.0475 0)
(-0.202179 -0.196394 0)
(-0.396691 -0.508378 0)
(-0.619475 -0.131949 0)
(-0.445074 0.198949 0)
(-0.30552 0.102932 0)
(-0.140463 0.0676191 0)
(-0.00127884 0.0349899 0)
(0.0976363 -0.0110695 0)
(0.163106 -0.0489285 0)
(0.204914 -0.0818234 0)
(0.225891 -0.111642 0)
(0.232171 -0.139894 0)
(0.228781 -0.162497 0)
(0.218648 -0.181707 0)
(0.204015 -0.199123 0)
(0.186678 -0.215821 0)
(0.168229 -0.232324 0)
(0.150515 -0.248553 0)
(0.133282 -0.265438 0)
(0.106816 -0.28899 0)
(-0.00830825 -0.296012 0)
(-0.0480941 -0.246947 0)
(-0.053948 -0.289153 0)
(-0.0862046 -0.276977 0)
(-0.103101 -0.271536 0)
(-0.117744 -0.268932 0)
(-0.131832 -0.266396 0)
(-0.144414 -0.262904 0)
(-0.154817 -0.25738 0)
(-0.162535 -0.24848 0)
(-0.166959 -0.234644 0)
(-0.167281 -0.214005 0)
(-0.162138 -0.185711 0)
(-0.148274 -0.154616 0)
(-0.120507 -0.120485 0)
(-0.0761139 -0.0829933 0)
(-0.0143546 -0.0397934 0)
(0.0708701 -0.0160042 0)
(0.138319 -0.0473562 0)
(0.210928 -0.130542 0)
(-0.102767 -0.229023 0)
)
;

boundaryField
{
    floor
    {
        type            noSlip;
    }
    ceiling
    {
        type            noSlip;
    }
    sWall
    {
        type            noSlip;
    }
    nWall
    {
        type            noSlip;
    }
    sideWalls
    {
        type            empty;
    }
    glass1
    {
        type            noSlip;
    }
    glass2
    {
        type            noSlip;
    }
    sun
    {
        type            noSlip;
    }
    Table_master
    {
        type            noSlip;
    }
    Table_slave
    {
        type            noSlip;
    }
    inlet
    {
        type            fixedValue;
        value           uniform (0.353553 -0.353553 0);
    }
    outlet
    {
        type            zeroGradient;
    }
}


// ************************************************************************* //
