// -*- C++ -*-
// File generated by PyFoam - sorry for the ugliness

FoamFile
{
 version 2.0;
 format ascii;
 class volScalarField;
 location "600";
 object T;
}

dimensions [ 0 0 0 1 0 0 0 ];

internalField nonuniform List<scalar> 458
(
  303.89
  303.623
  303.605
  303.598
  303.592
  303.586
  303.58
  303.574
  303.567
  303.559
  303.552
  303.547
  303.544
  303.546
  303.554
  303.732
  303.707
  303.699
  303.704
  303.711
  303.717
  303.723
  303.728
  303.734
  303.738
  303.743
  303.747
  303.751
  303.754
  303.757
  303.759
  303.762
  303.773
  304.068
  303.656
  303.62
  303.613
  303.609
  303.603
  303.596
  303.588
  303.576
  303.561
  303.544
  303.529
  303.519
  303.518
  303.528
  303.549
  303.586
  303.635
  303.731
  303.682
  303.679
  303.686
  303.695
  303.702
  303.707
  303.712
  303.716
  303.72
  303.724
  303.727
  303.73
  303.733
  303.736
  303.741
  303.746
  303.762
  304.254
  303.704
  303.645
  303.639
  303.639
  303.637
  303.633
  303.624
  303.608
  303.583
  303.552
  303.522
  303.502
  303.497
  303.507
  303.529
  303.56
  303.608
  303.646
  303.65
  303.664
  303.682
  303.698
  303.703
  303.708
  303.713
  303.717
  303.722
  303.725
  303.728
  303.731
  303.732
  303.735
  303.737
  303.74
  303.757
  304.435
  303.772
  303.679
  303.671
  303.676
  303.682
  303.684
  303.678
  303.657
  303.617
  303.566
  303.519
  303.487
  303.477
  303.488
  303.513
  303.541
  303.573
  303.588
  303.61
  303.639
  303.67
  303.698
  303.721
  303.738
  303.75
  303.76
  303.768
  303.774
  303.779
  303.783
  303.786
  303.788
  303.773
  303.758
  303.748
  303.755
  304.606
  303.864
  303.736
  303.714
  303.72
  303.732
  303.741
  303.737
  303.706
  303.648
  303.575
  303.51
  303.469
  303.457
  303.471
  303.501
  303.535
  303.568
  303.598
  303.632
  303.669
  303.705
  303.735
  303.76
  303.778
  303.791
  303.8
  303.806
  303.81
  303.812
  303.811
  303.809
  303.805
  303.794
  303.777
  303.76
  303.756
  303.757
  303.761
  303.805
  304.756
  303.982
  303.839
  303.796
  303.789
  303.792
  303.795
  303.776
  303.725
  303.648
  303.562
  303.488
  303.444
  303.435
  303.457
  303.498
  303.546
  303.591
  303.633
  303.676
  303.717
  303.753
  303.782
  303.802
  303.817
  303.825
  303.83
  303.833
  303.834
  303.833
  303.829
  303.824
  303.818
  303.807
  303.792
  303.774
  303.764
  303.761
  303.763
  303.806
  304.897
  304.154
  303.995
  303.937
  303.898
  303.869
  303.834
  303.777
  303.694
  303.596
  303.503
  303.433
  303.401
  303.408
  303.449
  303.51
  303.576
  303.636
  303.689
  303.735
  303.774
  303.804
  303.826
  303.839
  303.847
  303.851
  303.852
  303.851
  303.849
  303.846
  303.841
  303.834
  303.826
  303.816
  303.803
  303.788
  303.776
  303.771
  303.771
  303.804
  305.109
  304.559
  304.177
  304.019
  303.934
  303.856
  303.765
  303.659
  303.548
  303.448
  303.374
  303.336
  303.341
  303.386
  303.46
  303.548
  303.634
  303.704
  303.759
  303.8
  303.827
  303.846
  303.857
  303.863
  303.866
  303.866
  303.865
  303.863
  303.86
  303.856
  303.851
  303.844
  303.837
  303.828
  303.818
  303.807
  303.8
  303.799
  303.805
  303.91
  305.418
  305.148
  303.529
  303.332
  303.236
  303.186
  303.159
  303.147
  303.143
  303.146
  303.169
  303.221
  303.301
  303.405
  303.519
  303.631
  303.724
  303.783
  303.821
  303.846
  303.862
  303.871
  303.875
  303.878
  303.878
  303.878
  303.876
  303.874
  303.872
  303.87
  303.867
  303.867
  303.868
  303.871
  303.88
  303.894
  303.916
  303.94
  303.962
  304.015
  295.084
  299.308
  300.865
  301.668
  302.154
  302.47
  302.706
  302.91
  303.087
  303.246
  303.393
  303.544
  303.663
  303.749
  303.806
  303.841
  303.861
  303.873
  303.88
  303.884
  303.887
  303.888
  303.889
  303.89
  303.89
  303.891
  303.891
  303.892
  303.893
  303.895
  303.898
  303.904
  303.912
  303.925
  303.942
  303.962
  303.981
  304.004
  300.421
  301.312
  301.839
  302.16
  302.469
  302.743
  302.982
  303.188
  303.357
  303.495
  303.613
  303.708
  303.777
  303.822
  303.851
  303.868
  303.878
  303.884
  303.888
  303.891
  303.894
  303.896
  303.899
  303.901
  303.903
  303.905
  303.907
  303.908
  303.91
  303.912
  303.915
  303.919
  303.925
  303.933
  303.945
  303.958
  303.963
  303.987
  302.146
  302.065
  302.067
  302.628
  302.801
  302.925
  303.087
  303.264
  303.424
  303.553
  303.648
  303.718
  303.77
  303.808
  303.833
  303.849
  303.858
  303.863
  303.867
  303.871
  303.874
  303.878
  303.881
  303.884
  303.888
  303.891
  303.895
  303.898
  303.901
  303.905
  303.908
  303.911
  303.914
  303.918
  303.922
  303.928
  303.938
  303.943
  303.942
  303.977
)
;

boundaryField
{
  floor
  {
    type wallHeatTransfer;
    Tinf uniform 305.2;
    alphaWall uniform 0.24;
    value nonuniform List<scalar> 36
(
  303.712
  304.015
  303.955
  303.929
  303.935
  303.946
  303.961
  303.977
  303.993
  304.008
  304.022
  304.036
  304.048
  304.06
  304.071
  304.083
  304.095
  304.108
  304.139
  304.139
  304.087
  304.06
  304.041
  304.016
  304.009
  304.04
  303.712
  303.7
  303.761
  303.844
  304.015
  303.844
  304.002
  303.779
  303.822
  303.731
)
;
  }
  ceiling
  {
    type wallHeatTransfer;
    Tinf uniform 303.2;
    alphaWall uniform 0.24;
    value nonuniform List<scalar> 43
(
  302.221
  302.139
  302.137
  302.663
  302.825
  302.941
  303.094
  303.259
  303.409
  303.526
  303.611
  303.672
  303.716
  303.745
  303.763
  303.773
  303.778
  303.781
  303.783
  303.784
  303.786
  303.788
  303.79
  303.792
  303.794
  303.797
  303.8
  303.803
  303.807
  303.812
  303.817
  303.822
  303.828
  303.834
  303.841
  303.849
  303.861
  303.865
  303.86
  303.886
  305.316
  305.067
  300.557
)
;
  }
  sWall
  {
    type wallHeatTransfer;
    Tinf uniform 315.2;
    alphaWall uniform 0.36;
    value uniform 303.497;
  }
  nWall
  {
    type wallHeatTransfer;
    Tinf uniform 307.2;
    alphaWall uniform 0.36;
    value nonuniform List<scalar> 6
(
  304.598
  304.462
  304.377
  304.486
  304.464
  304.512
)
;
  }
  sideWalls
  {
    type empty;
  }
  glass1
  {
    type wallHeatTransfer;
    Tinf uniform 315.2;
    alphaWall uniform 4.3;
    value nonuniform List<scalar> 9
(
  311.842
  311.167
  310.724
  310.37
  310.067
  309.806
  309.64
  309.743
  309.987
)
;
  }
  glass2
  {
    type wallHeatTransfer;
    Tinf uniform 307.2;
    alphaWall uniform 4.3;
    value nonuniform List<scalar> 2
(
  306.043
  306.088
)
;
  }
  sun
  {
    type wallHeatTransfer;
    Tinf uniform 305.2;
    alphaWall uniform 0.24;
    value nonuniform List<scalar> 14
(
  304.04
  303.793
  303.777
  303.765
  303.754
  303.744
  303.734
  303.724
  303.714
  303.705
  303.697
  303.693
  303.693
  303.699
)
;
  }
  Table_master
  {
    type zeroGradient;
  }
  Table_slave
  {
    type zeroGradient;
  }
  inlet
  {
    type fixedValue;
    value uniform 297.15;
  }
  outlet
  {
    type zeroGradient;
  }
} 	// ************************************************************************* //

