// -*- C++ -*-
// File generated by PyFoam - sorry for the ugliness

FoamFile
{
 version 2.0;
 format ascii;
 class volVectorField;
 location "600";
 object U;
}

dimensions [ 0 1 -1 0 0 0 0 ];

internalField nonuniform List<vector> 458
(
  (0.0440763 0.0801819 0)
  (-0.156682 0.0197401 0)
  (-0.17103 0.0137932 0)
  (-0.195126 0.00982266 0)
  (-0.21313 0.00542424 0)
  (-0.224926 0.000957381 0)
  (-0.230003 -0.00371994 0)
  (-0.227231 -0.00879523 0)
  (-0.216162 -0.014435 0)
  (-0.196486 -0.020267 0)
  (-0.168813 -0.0256337 0)
  (-0.134736 -0.0298901 0)
  (-0.0968038 -0.0328877 0)
  (-0.0603321 -0.0353529 0)
  (-0.0400061 -0.037622 0)
  (-0.00531308 0.00571992 0)
  (-0.0179692 -0.0197285 0)
  (0.0100323 -0.0290549 0)
  (0.0321878 -0.0220098 0)
  (0.0514091 -0.0149236 0)
  (0.0645304 -0.00847023 0)
  (0.0714352 -0.00510975 0)
  (0.0742188 -0.00386281 0)
  (0.0752789 -0.00335763 0)
  (0.0757832 -0.00301851 0)
  (0.075901 -0.00270896 0)
  (0.0755107 -0.00231256 0)
  (0.0743467 -0.00162566 0)
  (0.0717315 -0.000195813 0)
  (0.0662553 0.00262529 0)
  (0.0562901 0.00606363 0)
  (0.0433141 0.00957673 0)
  (-0.00182905 0.0210493 0)
  (0.222759 0.16559 0)
  (-0.150001 0.0539919 0)
  (-0.135498 0.041002 0)
  (-0.159996 0.0322899 0)
  (-0.17692 0.0230901 0)
  (-0.188134 0.0135932 0)
  (-0.193361 0.00328956 0)
  (-0.191424 -0.00831029 0)
  (-0.181924 -0.0209551 0)
  (-0.1648 -0.0335311 0)
  (-0.140868 -0.0443819 0)
  (-0.112058 -0.0518186 0)
  (-0.0811655 -0.0549627 0)
  (-0.0521679 -0.0538907 0)
  (-0.0301013 -0.047622 0)
  (-0.00766941 -0.0236169 0)
  (0.0262654 0.0152685 0)
  (-0.0335948 0.0549628 0)
  (0.0478761 0.030141 0)
  (0.0340731 -0.0267483 0)
  (0.0435641 -0.0366617 0)
  (0.0570744 -0.0310752 0)
  (0.0687173 -0.0217068 0)
  (0.0746737 -0.00893281 0)
  (0.0758582 -0.00148197 0)
  (0.07563 0.001382 0)
  (0.0756776 0.0025077 0)
  (0.0759705 0.00319128 0)
  (0.0761947 0.00375892 0)
  (0.0762165 0.00437575 0)
  (0.076012 0.00550302 0)
  (0.0749927 0.00819189 0)
  (0.0704698 0.0154106 0)
  (0.0592892 0.0223302 0)
  (0.0469536 0.0283202 0)
  (-0.0266878 0.0460816 0)
  (0.384336 0.247544 0)
  (-0.173043 0.0871385 0)
  (-0.0995003 0.0655887 0)
  (-0.12253 0.0492865 0)
  (-0.135779 0.034221 0)
  (-0.144772 0.0192758 0)
  (-0.149295 0.00311316 0)
  (-0.147505 -0.0149911 0)
  (-0.13888 -0.0345651 0)
  (-0.123604 -0.0536653 0)
  (-0.102752 -0.0695953 0)
  (-0.0784974 -0.0796915 0)
  (-0.053417 -0.0826179 0)
  (-0.0302739 -0.0781284 0)
  (-0.0118393 -0.0654651 0)
  (0.00397855 -0.0408961 0)
  (0.0169123 -0.0100167 0)
  (-0.0317666 0.0352888 0)
  (0.100505 -0.0441457 0)
  (0.0730088 -0.0506282 0)
  (0.0714121 -0.0478718 0)
  (0.0761869 -0.0402088 0)
  (0.0812798 -0.0325061 0)
  (0.082935 -0.0239305 0)
  (0.0755903 -0.0159481 0)
  (0.0698329 -0.0116449 0)
  (0.0676096 -0.0091912 0)
  (0.0670483 -0.00756667 0)
  (0.0670075 -0.0063829 0)
  (0.0674606 -0.005289 0)
  (0.0689866 -0.00381616 0)
  (0.0730626 0.000330702 0)
  (0.072438 0.0200986 0)
  (0.0602409 0.0352282 0)
  (0.0523377 0.0483628 0)
  (-0.0460336 0.0756397 0)
  (0.523621 0.313113 0)
  (-0.211303 0.117779 0)
  (-0.0626844 0.0845986 0)
  (-0.0829966 0.0617067 0)
  (-0.0897869 0.0427084 0)
  (-0.0939295 0.0244619 0)
  (-0.0959097 0.00404278 0)
  (-0.0926762 -0.0198687 0)
  (-0.0841378 -0.0458939 0)
  (-0.0706911 -0.0708032 0)
  (-0.053716 -0.090907 0)
  (-0.0353977 -0.102731 0)
  (-0.017518 -0.104999 0)
  (-0.00131762 -0.0974797 0)
  (0.0121162 -0.0799323 0)
  (0.0244792 -0.0533488 0)
  (0.0417183 -0.0213615 0)
  (0.0562036 0.0111469 0)
  (0.0987698 0.00735738 0)
  (0.105182 -0.0334595 0)
  (0.0905404 -0.0445246 0)
  (0.0817869 -0.043007 0)
  (0.0773269 -0.0373978 0)
  (0.0730054 -0.0292988 0)
  (0.0742284 -0.0179577 0)
  (0.0834972 -0.0122706 0)
  (0.0911528 -0.00915812 0)
  (0.0958842 -0.00717059 0)
  (0.0987465 -0.00545667 0)
  (0.0998445 -0.00358196 0)
  (0.0979505 -0.00115676 0)
  (0.0918135 0.0022069 0)
  (0.0790018 0.00716518 0)
  (0.0663439 0.0292085 0)
  (0.0567961 0.049247 0)
  (0.0596291 0.0691345 0)
  (-0.052218 0.108768 0)
  (0.634434 0.364569 0)
  (-0.250307 0.144627 0)
  (-0.030773 0.0916222 0)
  (-0.0418607 0.0651482 0)
  (-0.0393223 0.0447106 0)
  (-0.0361326 0.0256638 0)
  (-0.0333976 0.00302947 0)
  (-0.0262317 -0.0251512 0)
  (-0.0172611 -0.0556811 0)
  (-0.00647665 -0.0841486 0)
  (0.00479761 -0.106243 0)
  (0.0148188 -0.117659 0)
  (0.0233337 -0.118277 0)
  (0.0303057 -0.108924 0)
  (0.0362727 -0.0907358 0)
  (0.0431038 -0.065627 0)
  (0.0544488 -0.0383096 0)
  (0.0712995 -0.0208253 0)
  (0.0853807 -0.0261974 0)
  (0.0862937 -0.0381306 0)
  (0.0783581 -0.0405225 0)
  (0.069451 -0.0373774 0)
  (0.0627484 -0.0320714 0)
  (0.0582778 -0.0247369 0)
  (0.0584142 -0.0140221 0)
  (0.0628334 -0.00811487 0)
  (0.0675475 -0.00572344 0)
  (0.0715012 -0.00425249 0)
  (0.0747953 -0.0022252 0)
  (0.0772097 0.00113749 0)
  (0.0778343 0.00597852 0)
  (0.075872 0.0125075 0)
  (0.0710242 0.0215352 0)
  (0.065364 0.038024 0)
  (0.0607712 0.0575916 0)
  (0.0789844 0.0798564 0)
  (0.0419559 0.11046 0)
  (0.0927078 0.11907 0)
  (0.118375 0.123771 0)
  (-0.194877 0.148481 0)
  (0.706925 0.408388 0)
  (-0.281178 0.162612 0)
  (-0.00993611 0.0771769 0)
  (0.00399679 0.0529861 0)
  (0.0199415 0.0379309 0)
  (0.0308099 0.0210194 0)
  (0.0414588 -0.00263149 0)
  (0.0508649 -0.0322433 0)
  (0.0588663 -0.0634695 0)
  (0.0646733 -0.0914583 0)
  (0.0674462 -0.111732 0)
  (0.0671746 -0.121653 0)
  (0.0646744 -0.120956 0)
  (0.0608855 -0.110733 0)
  (0.0570013 -0.0928643 0)
  (0.0546565 -0.0700387 0)
  (0.0558554 -0.046601 0)
  (0.0607847 -0.0300522 0)
  (0.063934 -0.0267623 0)
  (0.0607591 -0.0296481 0)
  (0.0529275 -0.031031 0)
  (0.0444237 -0.0294642 0)
  (0.0378034 -0.0261528 0)
  (0.0338264 -0.0214976 0)
  (0.0333962 -0.0158228 0)
  (0.0360888 -0.0125394 0)
  (0.0399866 -0.0110459 0)
  (0.0441216 -0.00966072 0)
  (0.048237 -0.00722373 0)
  (0.0521103 -0.00286961 0)
  (0.0557353 0.00388339 0)
  (0.0576984 0.0126893 0)
  (0.0585128 0.0236425 0)
  (0.0598923 0.0383298 0)
  (0.0623816 0.0556358 0)
  (0.0794163 0.0750082 0)
  (0.0779658 0.0835274 0)
  (0.0887166 0.0431126 0)
  (0.122083 0.00381465 0)
  (-0.213366 0.0789552 0)
  (0.750301 0.448524 0)
  (-0.291171 0.142095 0)
  (0.0292958 0.00166659 0)
  (0.082676 0.00789177 0)
  (0.102322 0.020907 0)
  (0.11497 0.0126225 0)
  (0.128476 -0.0102719 0)
  (0.13674 -0.0385132 0)
  (0.13988 -0.067023 0)
  (0.137314 -0.0912984 0)
  (0.129101 -0.10767 0)
  (0.116297 -0.114402 0)
  (0.100712 -0.111714 0)
  (0.0842353 -0.100891 0)
  (0.0685926 -0.0839708 0)
  (0.0552811 -0.063607 0)
  (0.0455747 -0.0434898 0)
  (0.039592 -0.0287419 0)
  (0.0346173 -0.0227571 0)
  (0.0280887 -0.02239 0)
  (0.0202584 -0.0230284 0)
  (0.012864 -0.0226406 0)
  (0.00728819 -0.0213811 0)
  (0.0041081 -0.0194983 0)
  (0.00369646 -0.0172823 0)
  (0.00555751 -0.0159165 0)
  (0.00851677 -0.0151009 0)
  (0.0119331 -0.0139703 0)
  (0.0157113 -0.0117272 0)
  (0.0199549 -0.00749959 0)
  (0.025507 -0.000324153 0)
  (0.0317731 0.00928746 0)
  (0.0374069 0.020154 0)
  (0.0443713 0.0326867 0)
  (0.0527743 0.0463161 0)
  (0.0688793 0.061195 0)
  (0.0815973 0.0661631 0)
  (0.0932573 0.0476697 0)
  (0.1484 0.0511018 0)
  (-0.141949 0.136905 0)
  (0.854836 0.447371 0)
  (-0.0420215 0.108727 0)
  (0.167673 -0.0798582 0)
  (0.252998 -0.0677283 0)
  (0.257319 -0.0376978 0)
  (0.247159 -0.0302976 0)
  (0.241208 -0.0382203 0)
  (0.235123 -0.0523994 0)
  (0.223643 -0.0682111 0)
  (0.204912 -0.0819328 0)
  (0.179875 -0.0905933 0)
  (0.150681 -0.0927709 0)
  (0.120019 -0.088408 0)
  (0.090216 -0.078117 0)
  (0.063088 -0.0634059 0)
  (0.0397901 -0.0464351 0)
  (0.021401 -0.0302654 0)
  (0.0084315 -0.0190037 0)
  (-0.000924907 -0.0144582 0)
  (-0.00857387 -0.0146146 0)
  (-0.0154103 -0.0160519 0)
  (-0.0211827 -0.017259 0)
  (-0.0254724 -0.0180628 0)
  (-0.028134 -0.0184437 0)
  (-0.0291925 -0.0184571 0)
  (-0.029047 -0.018375 0)
  (-0.0282713 -0.0181515 0)
  (-0.0271639 -0.0175228 0)
  (-0.0256929 -0.0161245 0)
  (-0.0235541 -0.0134918 0)
  (-0.0199023 -0.00902114 0)
  (-0.0117196 -0.00205708 0)
  (-0.00242626 0.00653628 0)
  (0.0083598 0.014989 0)
  (0.0205636 0.0215177 0)
  (0.0375819 0.0271184 0)
  (0.0545476 0.0228341 0)
  (0.0682624 0.00341106 0)
  (0.15154 0.0542348 0)
  (-0.410436 0.22266 0)
  (0.992291 0.400163 0)
  (0.471339 0.245079 0)
  (0.403084 0.0934477 0)
  (0.494538 0.0689358 0)
  (0.476627 0.0602207 0)
  (0.427145 0.0476349 0)
  (0.380957 0.0283684 0)
  (0.337681 0.00494267 0)
  (0.292893 -0.0177954 0)
  (0.243755 -0.0354958 0)
  (0.194159 -0.0467096 0)
  (0.146608 -0.0513888 0)
  (0.103005 -0.0502015 0)
  (0.0640754 -0.043677 0)
  (0.0306751 -0.0332901 0)
  (0.00271255 -0.0212086 0)
  (-0.0178983 -0.0111669 0)
  (-0.0301301 -0.00657918 0)
  (-0.0382719 -0.00595691 0)
  (-0.044523 -0.007616 0)
  (-0.0499413 -0.00995192 0)
  (-0.0547024 -0.0121444 0)
  (-0.0588089 -0.0139768 0)
  (-0.0622638 -0.0153568 0)
  (-0.0651526 -0.0162959 0)
  (-0.0677074 -0.0168892 0)
  (-0.0702468 -0.0171213 0)
  (-0.0730632 -0.0168228 0)
  (-0.0764304 -0.0156368 0)
  (-0.0806702 -0.0129688 0)
  (-0.0861867 -0.00803429 0)
  (-0.0934919 -0.000142471 0)
  (-0.101012 0.010265 0)
  (-0.111526 0.0232999 0)
  (-0.129465 0.040254 0)
  (-0.157861 0.0621921 0)
  (-0.199452 0.0879696 0)
  (-0.249666 0.115528 0)
  (-0.319317 0.141369 0)
  (-0.608894 0.162846 0)
  (-0.515145 -0.33861 0)
  (0.112142 -0.0725561 0)
  (0.163602 -0.0088585 0)
  (0.152995 0.0209691 0)
  (0.14005 0.0276278 0)
  (0.124108 0.019206 0)
  (0.10562 0.0071096 0)
  (0.0886735 -0.00301279 0)
  (0.0678469 -0.00970354 0)
  (0.0431534 -0.0130435 0)
  (0.0169989 -0.0128631 0)
  (-0.0108784 -0.00804731 0)
  (-0.034097 -0.00120439 0)
  (-0.0511887 0.00465031 0)
  (-0.0620126 0.00807675 0)
  (-0.0682819 0.0090681 0)
  (-0.0724939 0.00844284 0)
  (-0.0762486 0.00647752 0)
  (-0.0802544 0.00404476 0)
  (-0.0847136 0.00189606 0)
  (-0.0896112 0.000229079 0)
  (-0.0947877 -0.000789039 0)
  (-0.100129 -0.00112215 0)
  (-0.105591 -0.000803441 0)
  (-0.111185 0.000162168 0)
  (-0.116925 0.00181058 0)
  (-0.122808 0.00419509 0)
  (-0.128814 0.00735892 0)
  (-0.134794 0.0112853 0)
  (-0.139645 0.0167308 0)
  (-0.143227 0.0253825 0)
  (-0.146153 0.0381637 0)
  (-0.149068 0.0552848 0)
  (-0.152381 0.0752307 0)
  (-0.153699 0.0908985 0)
  (-0.143932 0.0826722 0)
  (-0.129927 0.00965972 0)
  (-0.266823 -0.185585 0)
  (-0.0851567 0.18042 0)
  (-0.0630804 0.0173108 0)
  (-0.0789601 0.00635263 0)
  (-0.0655076 0.0286813 0)
  (-0.0522831 0.0343068 0)
  (-0.0436738 0.0246915 0)
  (-0.0411901 0.0109786 0)
  (-0.0438784 0.000259983 0)
  (-0.0501304 -0.00618995 0)
  (-0.0590122 -0.0101614 0)
  (-0.0690976 -0.0132078 0)
  (-0.0780322 -0.016526 0)
  (-0.0838396 -0.021057 0)
  (-0.0872405 -0.0267334 0)
  (-0.0889405 -0.0331779 0)
  (-0.0899129 -0.0396838 0)
  (-0.0910225 -0.0454098 0)
  (-0.0928722 -0.0498777 0)
  (-0.0959191 -0.0531611 0)
  (-0.100205 -0.0553178 0)
  (-0.105552 -0.0571912 0)
  (-0.111759 -0.0586856 0)
  (-0.118523 -0.0596156 0)
  (-0.125485 -0.0597616 0)
  (-0.132251 -0.0588536 0)
  (-0.13838 -0.0565349 0)
  (-0.143361 -0.0523076 0)
  (-0.14661 -0.0454486 0)
  (-0.147542 -0.0348853 0)
  (-0.145908 -0.0217115 0)
  (-0.140828 -0.00630013 0)
  (-0.130812 0.0120266 0)
  (-0.114748 0.0339357 0)
  (-0.0925638 0.0582954 0)
  (-0.0656116 0.0780897 0)
  (-0.0382085 0.0796033 0)
  (0.126633 -0.00230432 0)
  (-0.211868 -0.0984823 0)
  (0.181283 -0.193839 0)
  (-0.291574 -0.109027 0)
  (-0.247037 0.0175819 0)
  (-0.23777 -0.018314 0)
  (-0.241964 -0.00280032 0)
  (-0.227731 0.0144112 0)
  (-0.205239 0.0240953 0)
  (-0.18261 0.0286796 0)
  (-0.165169 0.0336157 0)
  (-0.15372 0.0413307 0)
  (-0.146187 0.0512121 0)
  (-0.140266 0.0623256 0)
  (-0.134436 0.0743323 0)
  (-0.128123 0.086847 0)
  (-0.121529 0.0991451 0)
  (-0.1153 0.110643 0)
  (-0.110044 0.120794 0)
  (-0.106196 0.129228 0)
  (-0.103882 0.135813 0)
  (-0.102951 0.140507 0)
  (-0.103166 0.143497 0)
  (-0.104281 0.144859 0)
  (-0.106137 0.14589 0)
  (-0.108581 0.146442 0)
  (-0.11147 0.146245 0)
  (-0.114662 0.145011 0)
  (-0.117993 0.142494 0)
  (-0.121239 0.138508 0)
  (-0.124075 0.132894 0)
  (-0.125981 0.125465 0)
  (-0.126046 0.116032 0)
  (-0.122535 0.107321 0)
  (-0.113162 0.101035 0)
  (-0.095344 0.0982075 0)
  (-0.0680617 0.0999911 0)
  (-0.0344177 0.106923 0)
  (0.0212738 0.115329 0)
  (0.0625986 0.108507 0)
  (0.151983 0.0950727 0)
  (-0.24388 0.0461664 0)
)
;

boundaryField
{
  floor
  {
    type noSlip;
  }
  ceiling
  {
    type noSlip;
  }
  sWall
  {
    type noSlip;
  }
  nWall
  {
    type noSlip;
  }
  sideWalls
  {
    type empty;
  }
  glass1
  {
    type noSlip;
  }
  glass2
  {
    type noSlip;
  }
  sun
  {
    type noSlip;
  }
  Table_master
  {
    type noSlip;
  }
  Table_slave
  {
    type noSlip;
  }
  inlet
  {
    type fixedValue;
    value uniform (0.980785 -0.19509 0);
  }
  outlet
  {
    type zeroGradient;
  }
} 	// ************************************************************************* //

