/*--------------------------------*- C++ -*----------------------------------*\
  =========                 |
  \\      /  F ield         | OpenFOAM: The Open Source CFD Toolbox
   \\    /   O peration     | Website:  https://openfoam.org
    \\  /    A nd           | Version:  6
     \\/     M anipulation  |
\*---------------------------------------------------------------------------*/
FoamFile
{
    version     2.0;
    format      ascii;
    class       volScalarField;
    location    "2400";
    object      epsilon;
}
// * * * * * * * * * * * * * * * * * * * * * * * * * * * * * * * * * * * * * //

dimensions      [0 2 -3 0 0 0 0];

internalField   nonuniform List<scalar> 
458
(
0.000120003
0.000132389
0.000109175
0.000122058
0.000136221
0.00015027
0.000164169
0.000178191
0.000192853
0.000209073
0.000224082
0.000236862
0.00024741
0.000256991
0.000265016
1.02734e-05
1.41662e-05
1.52488e-05
9.22421e-06
5.07688e-06
2.78998e-06
3.08021e-06
4.02823e-06
5.41963e-06
7.01697e-06
8.34883e-06
8.65615e-06
9.1885e-06
1.04824e-05
1.29308e-05
1.80536e-05
2.06321e-05
1.34117e-05
0.000551543
0.0012296
0.000131191
9.38654e-05
9.61143e-05
0.000100764
0.000106166
0.000112969
0.000122071
0.00013451
0.000149179
0.000165675
0.000184079
0.000206018
0.00024222
0.000334148
0.000291499
9.25412e-05
2.75993e-05
4.35833e-05
3.12517e-05
1.66231e-05
7.4501e-06
4.72556e-06
6.08465e-06
9.19375e-06
1.32123e-05
1.72467e-05
2.08135e-05
2.44288e-05
2.85059e-05
3.36386e-05
3.69266e-05
3.95961e-05
5.7693e-05
2.0992e-05
0.00137532
0.00408999
0.000296742
0.000104033
9.62993e-05
0.000101131
0.000108335
0.000117601
0.000129186
0.000143158
0.000158529
0.000173454
0.00018698
0.000199456
0.000213356
0.000234628
0.000269415
0.000358594
0.000120244
9.75505e-05
5.13579e-05
3.65981e-05
2.7374e-05
8.37911e-06
9.92571e-06
1.30555e-05
1.69218e-05
2.17723e-05
2.82465e-05
3.78114e-05
5.36515e-05
8.53806e-05
6.61218e-05
6.36395e-05
7.74962e-05
7.4725e-05
0.00271145
0.00913421
0.000708167
0.000132853
0.00010301
0.000108733
0.000119368
0.0001327
0.000148665
0.000167164
0.000186648
0.000203613
0.000217242
0.00022865
0.000238591
0.000248237
0.000263556
0.000296232
0.00036657
0.000122459
7.42288e-05
6.18059e-05
6.35467e-05
7.44021e-05
0.000100197
9.72092e-05
9.62899e-05
9.72949e-05
0.000101014
0.00010868
0.000122195
0.000145153
0.000190126
0.000130207
0.000154189
0.000173824
0.000223381
0.00458921
0.0159355
0.0015685
0.000195212
0.000113767
0.000118035
0.000133211
0.000153337
0.000178137
0.000207428
0.000235798
0.000256449
0.000270354
0.00028147
0.000290915
0.000296295
0.000293407
0.000272584
0.000218641
0.000139782
9.90217e-05
8.03852e-05
7.30865e-05
7.09032e-05
7.06494e-05
7.03126e-05
7.19723e-05
7.63162e-05
8.42562e-05
9.71215e-05
0.000116673
0.000144854
0.000182511
0.000222892
0.000282938
0.00035856
0.000406173
0.000610429
0.000433909
0.000299296
0.00703362
0.0222945
0.00320718
0.000382835
0.000155515
0.000144099
0.000161698
0.000190251
0.000229058
0.000279863
0.000317684
0.000334845
0.000339693
0.000342648
0.000348871
0.000356887
0.000357907
0.000335256
0.000280209
0.000212786
0.000160602
0.000128336
0.000110774
0.000101474
9.63269e-05
9.38528e-05
9.4472e-05
9.89224e-05
0.000108567
0.000125557
0.00015275
0.000193265
0.000249538
0.000322095
0.000412003
0.00051778
0.000605029
0.000601845
0.000359524
0.000330831
0.0100124
0.025291
0.00659416
0.00140711
0.000492498
0.000316173
0.000295739
0.0003182
0.000367162
0.000444539
0.000466966
0.00045586
0.000431554
0.00040908
0.000396865
0.00039636
0.000398935
0.000385359
0.00034356
0.000284957
0.00023014
0.000189794
0.000163923
0.00014819
0.000138718
0.000133665
0.000132845
0.000137005
0.000147991
0.000168881
0.000203459
0.000254808
0.000324423
0.000411094
0.000509553
0.000605497
0.00066534
0.000648621
0.000535497
0.000312592
0.0108432
0.0324817
0.0147684
0.00753986
0.00351132
0.00172571
0.00111096
0.000905353
0.000858414
0.000796438
0.000714024
0.000628817
0.000552123
0.0004899
0.000445188
0.000419159
0.000408357
0.000399498
0.000376262
0.000336601
0.000292047
0.000253571
0.000225646
0.000206867
0.000194856
0.000188081
0.000186203
0.00019008
0.000202373
0.000228311
0.000274758
0.00034522
0.000436755
0.000538174
0.000638402
0.000738937
0.000847688
0.000978783
0.00110611
0.000751981
0.00994281
0.0170605
0.0152034
0.0108446
0.00723102
0.00470117
0.00313808
0.00221635
0.00164505
0.00125855
0.000991011
0.000800735
0.00066303
0.00056315
0.000492105
0.000444268
0.000415162
0.000398151
0.000383754
0.000365288
0.000342449
0.00031895
0.000298481
0.000282713
0.000271698
0.000264906
0.000261926
0.000262983
0.000269819
0.000287248
0.000319684
0.000372761
0.000454101
0.000573478
0.000738796
0.000920213
0.00107436
0.00137765
0.00244467
0.00127561
0.0122181
0.0156819
0.00830611
0.0052169
0.0035112
0.00247469
0.00181301
0.00136945
0.00106508
0.000854966
0.00070987
0.000610415
0.000543619
0.000500716
0.00047555
0.000463162
0.000458693
0.000457305
0.000453581
0.000446496
0.000437906
0.000429989
0.000423989
0.000420068
0.000417664
0.000416036
0.000415328
0.000418096
0.000423735
0.000436886
0.000461956
0.000500804
0.000547193
0.000584959
0.000613296
0.000654684
0.00112631
0.00131158
0.00970647
0.0124317
0.00674992
0.00437043
0.00305604
0.00224484
0.00172535
0.00138966
0.00116887
0.00102489
0.000934831
0.000884794
0.000866096
0.000872192
0.000896084
0.000928998
0.000961383
0.00098517
0.000990288
0.00097955
0.000960966
0.000941403
0.000924312
0.000909857
0.000895724
0.00087811
0.000852827
0.00081377
0.000761648
0.000703991
0.000653858
0.000622823
0.000616883
0.000625844
0.000636902
0.000659038
0.00147907
0.00117131
0.00248621
0.00378132
0.00585064
0.0063381
0.00423125
0.00317658
0.00245652
0.00192811
0.00153006
0.00122509
0.0010085
0.000847914
0.000726891
0.000636609
0.000572167
0.000530609
0.000509588
0.000506323
0.000516949
0.00053652
0.000563338
0.000588111
0.000605998
0.000616538
0.000621367
0.000622586
0.000621981
0.000620826
0.000620148
0.000621206
0.000623274
0.000624588
0.000621703
0.000609359
0.000580912
0.000550686
0.000515439
0.000468326
0.000500055
0.000424131
)
;

boundaryField
{
    floor
    {
        Cmu             0.09;
        kappa           0.41;
        E               9.8;
        type            epsilonWallFunction;
        value           nonuniform List<scalar> 
36
(
0.000265016
1.02734e-05
1.41662e-05
1.52488e-05
9.22421e-06
5.07688e-06
2.78998e-06
3.08021e-06
4.02823e-06
5.41963e-06
7.01697e-06
8.34883e-06
8.65615e-06
9.1885e-06
1.04824e-05
1.29308e-05
1.80536e-05
2.06321e-05
1.34117e-05
1.34117e-05
2.0992e-05
7.4725e-05
0.000223381
0.000610429
0.000433909
0.000299296
0.000265016
0.000334148
0.000291499
9.25412e-05
1.02734e-05
9.25412e-05
2.75993e-05
0.000358594
0.000120244
0.00036657
)
;
    }
    ceiling
    {
        Cmu             0.09;
        kappa           0.41;
        E               9.8;
        type            epsilonWallFunction;
        value           nonuniform List<scalar> 
43
(
0.00248621
0.00378132
0.00585064
0.0063381
0.00423125
0.00317658
0.00245652
0.00192811
0.00153006
0.00122509
0.0010085
0.000847914
0.000726891
0.000636609
0.000572167
0.000530609
0.000509588
0.000506323
0.000516949
0.00053652
0.000563338
0.000588111
0.000605998
0.000616538
0.000621367
0.000622586
0.000621981
0.000620826
0.000620148
0.000621206
0.000623274
0.000624588
0.000621703
0.000609359
0.000580912
0.000550686
0.000515439
0.000468326
0.000500055
0.000424131
0.00994281
0.0170605
0.00970647
)
;
    }
    sWall
    {
        Cmu             0.09;
        kappa           0.41;
        E               9.8;
        type            epsilonWallFunction;
        value           uniform 0.00248621;
    }
    nWall
    {
        Cmu             0.09;
        kappa           0.41;
        E               9.8;
        type            epsilonWallFunction;
        value           nonuniform List<scalar> 6(0.000299296 0.000330831 0.000312592 0.00131158 0.00117131 0.000424131);
    }
    sideWalls
    {
        type            empty;
    }
    glass1
    {
        Cmu             0.09;
        kappa           0.41;
        E               9.8;
        type            epsilonWallFunction;
        value           nonuniform List<scalar> 9(0.000120003 0.000551543 0.00137532 0.00271145 0.00458921 0.00703362 0.0100124 0.0108432 0.00994281);
    }
    glass2
    {
        Cmu             0.09;
        kappa           0.41;
        E               9.8;
        type            epsilonWallFunction;
        value           nonuniform List<scalar> 2(0.000751981 0.00127561);
    }
    sun
    {
        Cmu             0.09;
        kappa           0.41;
        E               9.8;
        type            epsilonWallFunction;
        value           nonuniform List<scalar> 
14
(
0.000120003
0.000132389
0.000109175
0.000122058
0.000136221
0.00015027
0.000164169
0.000178191
0.000192853
0.000209073
0.000224082
0.000236862
0.00024741
0.000256991
)
;
    }
    Table_master
    {
        Cmu             0.09;
        kappa           0.41;
        E               9.8;
        type            epsilonWallFunction;
        value           nonuniform List<scalar> 9(8.37911e-06 9.92571e-06 1.30555e-05 1.69218e-05 2.17723e-05 2.82465e-05 3.78114e-05 5.36515e-05 8.53806e-05);
    }
    Table_slave
    {
        Cmu             0.09;
        kappa           0.41;
        E               9.8;
        type            epsilonWallFunction;
        value           nonuniform List<scalar> 9(0.000100197 9.72092e-05 9.62899e-05 9.72949e-05 0.000101014 0.00010868 0.000122195 0.000145153 0.000190126);
    }
    inlet
    {
        type            turbulentMixingLengthDissipationRateInlet;
        mixingLength    0.01;
        phi             phi;
        k               k;
        value           uniform 3.77336e-06;
    }
    outlet
    {
        type            zeroGradient;
    }
}


// ************************************************************************* //
