// -*- C++ -*-
// File generated by PyFoam - sorry for the ugliness

FoamFile
{
 version 2.0;
 format ascii;
 class volVectorField;
 location "2400";
 object U;
}

dimensions [ 0 1 -1 0 0 0 0 ];

internalField nonuniform List<vector> 458
(
  (0.0886382 0.0643314 0)
  (-0.129987 0.00335805 0)
  (-0.11587 0.00635333 0)
  (-0.130608 0.0068949 0)
  (-0.144785 0.00570195 0)
  (-0.15732 0.00378094 0)
  (-0.167307 0.00134859 0)
  (-0.174043 -0.00158841 0)
  (-0.176852 -0.0050969 0)
  (-0.174909 -0.00930023 0)
  (-0.166849 -0.0145813 0)
  (-0.1503 -0.0213956 0)
  (-0.123837 -0.0312247 0)
  (-0.095441 -0.0471868 0)
  (-0.0942585 -0.0700447 0)
  (0.0251603 0.00986035 0)
  (-0.0288375 -0.00607757 0)
  (-0.0182043 -0.00724728 0)
  (-0.0130882 -0.00540383 0)
  (-0.00636486 -0.00558336 0)
  (0.000797774 -0.00750058 0)
  (0.00723034 -0.00600605 0)
  (0.0124813 -0.00473583 0)
  (0.0164418 -0.00385123 0)
  (0.0195568 -0.00332643 0)
  (0.0218982 -0.00294385 0)
  (0.0237131 -0.00215628 0)
  (0.0233096 -0.000558041 0)
  (0.0211223 0.00154616 0)
  (0.0193517 0.00190261 0)
  (0.020275 -0.00275246 0)
  (0.0293543 -0.00387324 0)
  (-0.0159732 0.0109688 0)
  (0.278448 0.139964 0)
  (-0.150574 0.0204584 0)
  (-0.104581 0.0224115 0)
  (-0.124404 0.0229994 0)
  (-0.139599 0.021317 0)
  (-0.15278 0.0183445 0)
  (-0.163463 0.0143458 0)
  (-0.171195 0.00930693 0)
  (-0.175412 0.00311895 0)
  (-0.175397 -0.00435478 0)
  (-0.170618 -0.0129935 0)
  (-0.16043 -0.0228638 0)
  (-0.145684 -0.0351194 0)
  (-0.131429 -0.0517401 0)
  (-0.120969 -0.0678231 0)
  (-0.0929974 -0.0580625 0)
  (-0.0500039 -0.0609582 0)
  (0.000451955 0.0399085 0)
  (0.097111 0.0101981 0)
  (0.0327146 0.00733186 0)
  (0.00655471 0.0033648 0)
  (-0.0015514 0.000902311 0)
  (-0.00443349 -0.00304885 0)
  (-0.00776169 -0.00810838 0)
  (-0.00742902 -0.00643784 0)
  (-0.00652735 -0.00466777 0)
  (-0.00714791 -0.00334709 0)
  (-0.00830514 -0.00190789 0)
  (-0.0100802 0.000220864 0)
  (-0.0133153 0.00301563 0)
  (-0.0157326 0.00488522 0)
  (-0.0174713 0.00411196 0)
  (-0.0156953 -0.00130576 0)
  (-0.00657309 -0.0061489 0)
  (-0.00176948 0.00051162 0)
  (-0.0983559 0.0240308 0)
  (0.438692 0.213798 0)
  (-0.192826 0.0465835 0)
  (-0.0857666 0.0417525 0)
  (-0.111693 0.0381829 0)
  (-0.126249 0.0341147 0)
  (-0.138823 0.0286106 0)
  (-0.149166 0.0216218 0)
  (-0.156994 0.0130813 0)
  (-0.161826 0.00294267 0)
  (-0.163001 -0.00864099 0)
  (-0.160175 -0.0214168 0)
  (-0.153849 -0.0351103 0)
  (-0.145605 -0.0497881 0)
  (-0.138195 -0.0649077 0)
  (-0.130778 -0.0758017 0)
  (-0.117132 -0.0767545 0)
  (-0.105947 -0.0837131 0)
  (-0.121113 -0.081725 0)
  (0.0209433 0.0181077 0)
  (-0.0386269 0.011165 0)
  (-0.0369063 0.00859189 0)
  (-0.0333173 0.00219528 0)
  (-0.0307185 -0.00490603 0)
  (-0.0234672 -0.00739577 0)
  (-0.0344815 -0.00697807 0)
  (-0.0393246 -0.00545765 0)
  (-0.0426239 -0.00432312 0)
  (-0.0446638 -0.00338017 0)
  (-0.0451742 -0.00250611 0)
  (-0.0439857 -0.0017351 0)
  (-0.042128 -0.00169509 0)
  (-0.0376879 -0.00339479 0)
  (-0.0248885 -0.0067458 0)
  (-0.0184973 -0.00155864 0)
  (-0.0329643 0.00154838 0)
  (-0.108994 0.00245574 0)
  (0.569436 0.275267 0)
  (-0.237639 0.0770293 0)
  (-0.0624332 0.0611661 0)
  (-0.0954762 0.0530143 0)
  (-0.108289 0.0470275 0)
  (-0.11904 0.0397625 0)
  (-0.128035 0.030822 0)
  (-0.135066 0.0199568 0)
  (-0.139676 0.00698363 0)
  (-0.141098 -0.00792724 0)
  (-0.139064 -0.0238891 0)
  (-0.134994 -0.0398115 0)
  (-0.130767 -0.0549666 0)
  (-0.128323 -0.0681715 0)
  (-0.127541 -0.0767959 0)
  (-0.127974 -0.0796276 0)
  (-0.135686 -0.0779224 0)
  (-0.154003 -0.0576378 0)
  (-0.148906 -0.00169936 0)
  (-0.106458 0.012354 0)
  (-0.0970977 0.00739668 0)
  (-0.0864191 0.00201263 0)
  (-0.0828722 -0.00352929 0)
  (-0.0816139 -0.00814987 0)
  (-0.078671 -0.00754496 0)
  (-0.0714181 -0.00721386 0)
  (-0.064213 -0.00753036 0)
  (-0.056869 -0.0077832 0)
  (-0.0494289 -0.00802905 0)
  (-0.0418063 -0.00838747 0)
  (-0.0335322 -0.0090595 0)
  (-0.0236671 -0.010322 0)
  (-0.0114416 -0.0124 0)
  (-0.00521177 -0.0154037 0)
  (0.00749098 -0.00908041 0)
  (0.0229913 -0.00314749 0)
  (-0.0248183 0.00561145 0)
  (0.673724 0.325925 0)
  (-0.276928 0.108752 0)
  (-0.0384481 0.077004 0)
  (-0.0768574 0.0652066 0)
  (-0.0874904 0.0574049 0)
  (-0.0952154 0.0484813 0)
  (-0.101506 0.037851 0)
  (-0.106323 0.0250398 0)
  (-0.109254 0.00965214 0)
  (-0.109133 -0.00812284 0)
  (-0.106083 -0.02645 0)
  (-0.102209 -0.0430813 0)
  (-0.0993905 -0.0570172 0)
  (-0.0990011 -0.0676163 0)
  (-0.101139 -0.0740946 0)
  (-0.105814 -0.0766431 0)
  (-0.114047 -0.0749828 0)
  (-0.122492 -0.0631954 0)
  (-0.122257 -0.0358923 0)
  (-0.111508 -0.0144698 0)
  (-0.0983545 -0.00577863 0)
  (-0.0876963 -0.00513909 0)
  (-0.0811073 -0.00698261 0)
  (-0.0770454 -0.00901742 0)
  (-0.0733703 -0.00917778 0)
  (-0.0689942 -0.00961304 0)
  (-0.0644972 -0.00996765 0)
  (-0.059969 -0.0102454 0)
  (-0.0553965 -0.0105438 0)
  (-0.0506932 -0.0111076 0)
  (-0.0455729 -0.0123539 0)
  (-0.0395341 -0.0148169 0)
  (-0.0321935 -0.0189229 0)
  (-0.0234663 -0.0245778 0)
  (-0.0111384 -0.0273318 0)
  (0.0156821 -0.026533 0)
  (0.0449454 -0.0165817 0)
  (0.0855831 -0.0067266 0)
  (0.113413 0.0272218 0)
  (-0.0220364 0.0844267 0)
  (0.742832 0.37122 0)
  (-0.309156 0.13755 0)
  (-0.0206492 0.0847409 0)
  (-0.0550403 0.0746047 0)
  (-0.0638596 0.0648775 0)
  (-0.0679524 0.0538738 0)
  (-0.0701556 0.041653 0)
  (-0.071118 0.0273533 0)
  (-0.0706554 0.0100086 0)
  (-0.0664054 -0.0103805 0)
  (-0.0611272 -0.0303947 0)
  (-0.056827 -0.0464863 0)
  (-0.0548726 -0.0581374 0)
  (-0.0559585 -0.0656741 0)
  (-0.0599924 -0.0693699 0)
  (-0.0666598 -0.0694955 0)
  (-0.0753201 -0.0652181 0)
  (-0.0828167 -0.054027 0)
  (-0.0848258 -0.0371054 0)
  (-0.0808205 -0.0227674 0)
  (-0.0741026 -0.01489 0)
  (-0.0680615 -0.0120463 0)
  (-0.0639356 -0.0118096 0)
  (-0.0613874 -0.0123885 0)
  (-0.0595387 -0.0126027 0)
  (-0.0578486 -0.0128687 0)
  (-0.0563634 -0.0131113 0)
  (-0.0551824 -0.0132632 0)
  (-0.0544153 -0.0134183 0)
  (-0.0541393 -0.0139066 0)
  (-0.0542886 -0.0153243 0)
  (-0.0546278 -0.0184236 0)
  (-0.0547695 -0.0238221 0)
  (-0.0537949 -0.031553 0)
  (-0.0492631 -0.040582 0)
  (-0.0377162 -0.0510623 0)
  (-0.02051 -0.0627267 0)
  (0.00359339 -0.0678868 0)
  (0.0824866 -0.00636739 0)
  (-0.0636575 0.107842 0)
  (0.762356 0.412514 0)
  (-0.325044 0.140008 0)
  (-0.00577838 0.0640266 0)
  (-0.01768 0.0808733 0)
  (-0.029736 0.0725765 0)
  (-0.0326608 0.0555077 0)
  (-0.0303105 0.0404883 0)
  (-0.0262556 0.0249808 0)
  (-0.0208941 0.00552821 0)
  (-0.00876119 -0.0177593 0)
  (-0.00226746 -0.0370056 0)
  (0.000832604 -0.0504047 0)
  (0.00058908 -0.0586212 0)
  (-0.00282495 -0.0627672 0)
  (-0.00901505 -0.0636919 0)
  (-0.0174358 -0.0619264 0)
  (-0.0270473 -0.0570348 0)
  (-0.035506 -0.0479934 0)
  (-0.0402802 -0.0362533 0)
  (-0.0410544 -0.025747 0)
  (-0.0396767 -0.018799 0)
  (-0.0380827 -0.0151919 0)
  (-0.0371997 -0.0137538 0)
  (-0.0371187 -0.0133568 0)
  (-0.0375473 -0.0132146 0)
  (-0.0382819 -0.0131412 0)
  (-0.0393941 -0.0129242 0)
  (-0.041103 -0.0124075 0)
  (-0.043796 -0.0116294 0)
  (-0.048014 -0.0109974 0)
  (-0.0542636 -0.0113735 0)
  (-0.062818 -0.0138141 0)
  (-0.0733877 -0.0190705 0)
  (-0.0851515 -0.0275936 0)
  (-0.0967586 -0.0398141 0)
  (-0.106226 -0.0559908 0)
  (-0.110816 -0.0732243 0)
  (-0.103275 -0.075863 0)
  (-0.0784856 -0.0209388 0)
  (-0.135286 0.180245 0)
  (0.858451 0.435114 0)
  (-0.144681 0.118089 0)
  (0.0590228 0.00275673 0)
  (0.0863157 0.0386148 0)
  (0.0563919 0.0503932 0)
  (0.0400401 0.0338263 0)
  (0.0410508 0.0173128 0)
  (0.046978 0.00241468 0)
  (0.059732 -0.015107 0)
  (0.0690376 -0.0306988 0)
  (0.0714033 -0.0428103 0)
  (0.0692664 -0.0510057 0)
  (0.0640784 -0.0555292 0)
  (0.0566753 -0.0569129 0)
  (0.0475997 -0.0557255 0)
  (0.0372451 -0.0524859 0)
  (0.0262185 -0.0473912 0)
  (0.0158929 -0.0402777 0)
  (0.00802046 -0.0318417 0)
  (0.00318388 -0.0240355 0)
  (0.000378954 -0.0182645 0)
  (-0.00167591 -0.0147113 0)
  (-0.00371441 -0.0128614 0)
  (-0.00598675 -0.0120006 0)
  (-0.00844353 -0.0115491 0)
  (-0.0110207 -0.011142 0)
  (-0.0137683 -0.010419 0)
  (-0.0168465 -0.00903681 0)
  (-0.0206168 -0.00676427 0)
  (-0.0257357 -0.00365637 0)
  (-0.0330406 -0.000181383 0)
  (-0.0447687 0.00213541 0)
  (-0.0632722 0.00073339 0)
  (-0.0894562 -0.006657 0)
  (-0.12199 -0.0201263 0)
  (-0.156677 -0.036631 0)
  (-0.19233 -0.0530221 0)
  (-0.223919 -0.061916 0)
  (-0.280448 -0.0534558 0)
  (-0.487758 -0.0102667 0)
  (0.987918 0.417241 0)
  (0.471801 0.278038 0)
  (0.445487 0.207802 0)
  (0.402134 0.175159 0)
  (0.316745 0.140581 0)
  (0.255428 0.0978755 0)
  (0.224212 0.0600851 0)
  (0.207337 0.0301924 0)
  (0.193241 0.00535597 0)
  (0.176646 -0.0150196 0)
  (0.160522 -0.029569 0)
  (0.145246 -0.038566 0)
  (0.130645 -0.0430324 0)
  (0.116574 -0.044009 0)
  (0.102978 -0.0423368 0)
  (0.089839 -0.0387209 0)
  (0.0772542 -0.0337707 0)
  (0.065665 -0.0280082 0)
  (0.0558388 -0.0220651 0)
  (0.0482219 -0.0167671 0)
  (0.0424098 -0.0126581 0)
  (0.0376469 -0.00987507 0)
  (0.0333781 -0.00821785 0)
  (0.0293303 -0.00733149 0)
  (0.0254265 -0.00683927 0)
  (0.021665 -0.00640336 0)
  (0.018066 -0.00566925 0)
  (0.0146826 -0.0042544 0)
  (0.0115891 -0.00180158 0)
  (0.00912702 0.00193572 0)
  (0.00709066 0.00702289 0)
  (0.00495051 0.0128918 0)
  (0.00219694 0.0178608 0)
  (-0.00172903 0.0195283 0)
  (-0.00629623 0.0155802 0)
  (-0.0191164 0.00442405 0)
  (-0.0288016 -0.01059 0)
  (-0.0201102 -0.0377177 0)
  (-0.0262453 -0.107502 0)
  (-0.418686 -0.194715 0)
  (-0.534059 0.144409 0)
  (0.151945 0.168814 0)
  (0.200203 0.135006 0)
  (0.202841 0.0971442 0)
  (0.213069 0.0642756 0)
  (0.219097 0.0377044 0)
  (0.217771 0.017498 0)
  (0.210832 0.00269043 0)
  (0.200349 -0.00872301 0)
  (0.187651 -0.0168524 0)
  (0.173486 -0.0218386 0)
  (0.158608 -0.0238785 0)
  (0.143708 -0.0232837 0)
  (0.129363 -0.0205072 0)
  (0.116045 -0.0161557 0)
  (0.104158 -0.0109802 0)
  (0.0940252 -0.00583502 0)
  (0.085766 -0.00152822 0)
  (0.0790698 0.00158953 0)
  (0.0734253 0.00339514 0)
  (0.0684409 0.00406428 0)
  (0.0638745 0.00394995 0)
  (0.0595966 0.00344592 0)
  (0.0555621 0.00292053 0)
  (0.0518069 0.00272143 0)
  (0.0484684 0.00318227 0)
  (0.0458114 0.00455392 0)
  (0.0442716 0.00678467 0)
  (0.043872 0.0101509 0)
  (0.0450931 0.0141653 0)
  (0.0478157 0.0172404 0)
  (0.0514486 0.0172554 0)
  (0.0556086 0.012808 0)
  (0.0598687 0.00331078 0)
  (0.0638067 -0.00905552 0)
  (0.0732437 -0.0227635 0)
  (0.116057 -0.0646723 0)
  (-0.0968215 -0.140072 0)
  (-0.336536 0.164472 0)
  (0.158818 0.112029 0)
  (0.127226 0.071769 0)
  (0.149835 0.0509909 0)
  (0.181013 0.0289576 0)
  (0.201532 0.00607429 0)
  (0.210556 -0.0151243 0)
  (0.21173 -0.0336907 0)
  (0.206917 -0.0464485 0)
  (0.197721 -0.0550998 0)
  (0.185643 -0.0608274 0)
  (0.172016 -0.0645317 0)
  (0.157945 -0.0669231 0)
  (0.144299 -0.0685033 0)
  (0.131726 -0.0695277 0)
  (0.120676 -0.0700194 0)
  (0.111383 -0.0698864 0)
  (0.103845 -0.0690534 0)
  (0.0979199 -0.0669008 0)
  (0.093354 -0.0643268 0)
  (0.089767 -0.0619635 0)
  (0.0867442 -0.0600273 0)
  (0.0839735 -0.0584788 0)
  (0.081306 -0.057149 0)
  (0.0787592 -0.0558114 0)
  (0.07652 -0.0542075 0)
  (0.0749455 -0.051972 0)
  (0.0742776 -0.0484078 0)
  (0.0749745 -0.043573 0)
  (0.077498 -0.0382847 0)
  (0.0818836 -0.0343386 0)
  (0.0873639 -0.0340624 0)
  (0.0926491 -0.0390934 0)
  (0.0961332 -0.0460593 0)
  (0.0952829 -0.0529039 0)
  (0.0883857 -0.0602118 0)
  (0.121194 -0.0761797 0)
  (-0.158776 -0.0900427 0)
  (0.243861 -0.141888 0)
  (-0.207547 -0.043453 0)
  (-0.212967 0.170394 0)
  (0.110883 0.0913754 0)
  (0.0583674 0.0869179 0)
  (0.0953077 0.0924716 0)
  (0.136136 0.0950834 0)
  (0.162997 0.0984781 0)
  (0.175821 0.105464 0)
  (0.17816 0.116568 0)
  (0.174217 0.126878 0)
  (0.166414 0.136946 0)
  (0.156492 0.147272 0)
  (0.14581 0.158064 0)
  (0.135503 0.16914 0)
  (0.126453 0.179912 0)
  (0.119207 0.189478 0)
  (0.113945 0.196882 0)
  (0.110528 0.201476 0)
  (0.108594 0.203157 0)
  (0.107698 0.201221 0)
  (0.107445 0.197484 0)
  (0.107462 0.193358 0)
  (0.10748 0.189524 0)
  (0.107356 0.186182 0)
  (0.107065 0.183266 0)
  (0.106671 0.18058 0)
  (0.106323 0.177849 0)
  (0.106257 0.174684 0)
  (0.106829 0.170396 0)
  (0.108514 0.16485 0)
  (0.111605 0.158429 0)
  (0.115896 0.15215 0)
  (0.120305 0.147437 0)
  (0.122889 0.14579 0)
  (0.120711 0.143034 0)
  (0.111671 0.137999 0)
  (0.0919776 0.131261 0)
  (0.138549 0.113314 0)
  (-0.301359 0.135543 0)
)
;

boundaryField
{
  floor
  {
    type noSlip;
  }
  ceiling
  {
    type noSlip;
  }
  sWall
  {
    type noSlip;
  }
  nWall
  {
    type noSlip;
  }
  sideWalls
  {
    type empty;
  }
  glass1
  {
    type noSlip;
  }
  glass2
  {
    type noSlip;
  }
  sun
  {
    type noSlip;
  }
  Table_master
  {
    type noSlip;
  }
  Table_slave
  {
    type noSlip;
  }
  inlet
  {
    type fixedValue;
    value uniform (0.5 0 0);
  }
  outlet
  {
    type zeroGradient;
  }
} 	// ************************************************************************* //

