/*--------------------------------*- C++ -*----------------------------------*\
  =========                 |
  \\      /  F ield         | OpenFOAM: The Open Source CFD Toolbox
   \\    /   O peration     | Website:  https://openfoam.org
    \\  /    A nd           | Version:  6
     \\/     M anipulation  |
\*---------------------------------------------------------------------------*/
FoamFile
{
    version     2.0;
    format      ascii;
    class       volScalarField;
    location    "1500";
    object      nut;
}
// * * * * * * * * * * * * * * * * * * * * * * * * * * * * * * * * * * * * * //

dimensions      [0 2 -1 0 0 0 0];

internalField   nonuniform List<scalar> 
458
(
0.00101011
0.00108528
0.00107716
0.00112164
0.00116369
0.00120242
0.00123917
0.00127579
0.00130842
0.00132968
0.00133479
0.00131924
0.00128137
0.00122521
0.00115843
0.000466494
0.000556853
0.000579793
0.000560443
0.000536315
0.000504313
0.000471387
0.000441548
0.000415041
0.000391305
0.000370011
0.000350906
0.000333743
0.000318198
0.000303649
0.00028979
0.00030097
0.000288155
0.00145609
0.00333436
0.00307155
0.00358574
0.00400777
0.00443972
0.00485204
0.00519227
0.00546887
0.00570785
0.00586889
0.0058884
0.00566316
0.00497542
0.00338151
0.00116463
0.000973401
0.000909884
0.000641986
0.00100341
0.00126913
0.00149401
0.00157153
0.00130817
0.0011715
0.0010606
0.000965446
0.000884761
0.000816791
0.000759646
0.000711296
0.000671002
0.000639249
0.0005975
0.000818485
0.000438712
0.001832
0.00466764
0.00366753
0.00498529
0.00550284
0.005841
0.00609411
0.00628697
0.00645858
0.00664957
0.00684374
0.00700576
0.00709012
0.00703748
0.00674112
0.00601823
0.00474997
0.00116328
0.000942046
0.00141695
0.00177689
0.00208861
0.0021062
0.00070041
0.000620108
0.000557272
0.000508154
0.000469287
0.000438018
0.000412473
0.000391461
0.000374608
0.000415966
0.000476175
0.000934806
0.000532101
0.00219388
0.00624015
0.00370497
0.00534581
0.00599965
0.00615184
0.00617498
0.00618353
0.00623583
0.00636951
0.00657052
0.0068073
0.00704823
0.00725624
0.00735419
0.00716315
0.00642084
0.00481722
0.00117781
0.00171108
0.00228864
0.00276645
0.00306436
0.00286668
0.000770574
0.000719679
0.000695147
0.000682669
0.000672553
0.000657521
0.000633727
0.000608133
0.000576619
0.000550741
0.000555272
0.00111845
0.000607563
0.00255456
0.00820268
0.00434452
0.00506848
0.00602601
0.00614861
0.00602243
0.0058843
0.00585149
0.00595862
0.00615855
0.0064111
0.00668848
0.00695191
0.00712095
0.00706557
0.00669395
0.00597679
0.00470425
0.00430068
0.00419494
0.00416447
0.0041305
0.00396814
0.00338987
0.00322523
0.00317168
0.00313034
0.00306125
0.00294379
0.00274418
0.0023853
0.001941
0.00149344
0.00111865
0.00103544
0.00105842
0.000791498
0.000797534
0.000863535
0.00292444
0.0102667
0.00640318
0.00504724
0.00555852
0.00588682
0.0059036
0.00570892
0.00563195
0.00572925
0.00591383
0.00614689
0.00640789
0.00666086
0.00681153
0.00676284
0.0065137
0.0061421
0.00564129
0.00526404
0.00495935
0.00469789
0.00448229
0.00428655
0.00408843
0.00397809
0.00390025
0.00381763
0.00371487
0.00358878
0.00343892
0.00319125
0.00280978
0.00231534
0.00180586
0.00127272
0.00113287
0.00103638
0.00128219
0.000899149
0.00325632
0.0117352
0.00938296
0.0068522
0.00585819
0.00560197
0.0057248
0.00570567
0.00566514
0.00571561
0.00584125
0.00601729
0.00624072
0.00648689
0.00664822
0.00660704
0.00636415
0.00602985
0.00565096
0.00525557
0.00485896
0.0045055
0.00424242
0.00406157
0.00394501
0.00387133
0.00380345
0.00372694
0.00364201
0.00355692
0.00348231
0.00341589
0.00318871
0.00278914
0.00232852
0.00186494
0.0016084
0.00153138
0.0014862
0.00108624
0.00331152
0.0105475
0.00955121
0.00888605
0.00778041
0.00684033
0.00639338
0.00609344
0.00586194
0.00580207
0.00586145
0.00597462
0.00615708
0.00641259
0.00660979
0.00658084
0.00628823
0.00582732
0.00526729
0.00472593
0.00429439
0.00399299
0.00380591
0.00369472
0.00362352
0.00356425
0.00349982
0.00343174
0.00337505
0.00334946
0.00337427
0.00346312
0.00355228
0.00329695
0.00305322
0.00296851
0.0031682
0.00341659
0.00408491
0.00164445
0.00321264
0.00378241
0.00442863
0.00484934
0.00520853
0.00533053
0.00534302
0.00537835
0.00552294
0.0057245
0.00586362
0.00593501
0.00608285
0.00638096
0.00663434
0.00659709
0.00615283
0.00538361
0.00460864
0.00405875
0.00373755
0.00356524
0.00347291
0.00341269
0.00335394
0.00327942
0.0031848
0.00307771
0.00297204
0.00288019
0.00280667
0.00274647
0.00269134
0.00264305
0.00261375
0.0025942
0.00252322
0.0023677
0.00219113
0.00151675
0.00252151
0.00573131
0.0057327
0.00586949
0.00604673
0.0062588
0.00640751
0.00634703
0.00609627
0.00584383
0.00589704
0.00629402
0.00659424
0.00646804
0.00570898
0.0047636
0.00406497
0.00369382
0.00352368
0.00344411
0.00339735
0.0033532
0.00329358
0.00320878
0.00309826
0.00297067
0.00284108
0.002727
0.00264545
0.00260966
0.00260842
0.00261253
0.00260351
0.00254727
0.00239879
0.00215003
0.00184492
0.00122536
0.00257283
0.00633829
0.00653959
0.0064846
0.00649045
0.00644863
0.00635593
0.0057917
0.0050921
0.00462166
0.00475684
0.00532987
0.0054044
0.00511708
0.00455414
0.00396998
0.00358575
0.00338687
0.00328531
0.0032192
0.00316002
0.00309533
0.00302037
0.00293708
0.00285356
0.00278078
0.00272741
0.00269467
0.00267266
0.0026936
0.00274552
0.00280847
0.00285772
0.00287658
0.00282819
0.00275836
0.00237478
0.00124239
0.00202664
0.00225396
0.00238962
0.00254448
0.00246733
0.0023666
0.00221098
0.00198928
0.00165521
0.00142624
0.0012472
0.00114199
0.00109918
0.00108354
0.00105211
0.00100186
0.000950089
0.000912947
0.000888186
0.000873778
0.000865154
0.00085941
0.000855621
0.000854003
0.000855374
0.000860843
0.000871548
0.000888503
0.000912695
0.000945518
0.000989633
0.00104175
0.00110238
0.0011702
0.00124362
0.00133427
0.00136709
0.00133663
0.00124388
0.00114788
)
;

boundaryField
{
    floor
    {
        type            nutkWallFunction;
        Cmu             0.09;
        kappa           0.41;
        E               9.8;
        value           nonuniform List<scalar> 
36
(
0.00013921
5.54271e-05
6.69438e-05
6.98314e-05
6.73983e-05
6.43493e-05
6.02793e-05
5.60584e-05
5.22014e-05
4.87476e-05
4.56314e-05
4.28153e-05
4.02712e-05
3.79706e-05
3.58734e-05
3.38986e-05
3.20058e-05
3.35331e-05
3.17797e-05
3.17796e-05
5.18302e-05
6.38096e-05
7.32982e-05
9.58689e-05
9.65983e-05
0.000104532
0.00013921
0.000139924
0.000117585
0.000110067
5.5427e-05
0.000110067
7.75789e-05
0.00013977
0.000113893
0.000141463
)
;
    }
    ceiling
    {
        type            nutkWallFunction;
        Cmu             0.09;
        kappa           0.41;
        E               9.8;
        value           nonuniform List<scalar> 
43
(
0.000236233
0.000260704
0.000275214
0.000291802
0.000283642
0.000272909
0.000256206
0.000232186
0.000195419
0.000169761
0.000149444
0.000137333
0.000132358
0.00013052
0.000126834
0.000120939
0.000114833
0.000110429
0.00010748
0.000105759
0.000104727
0.000104039
0.000103585
0.000103391
0.000103555
0.00010421
0.00010549
0.000107514
0.000110394
0.000114288
0.000119497
0.000125616
0.000132692
0.000140555
0.00014901
0.000159373
0.000163104
0.00015964
0.00014904
0.000137975
0.000362194
0.000420775
0.000294496
)
;
    }
    sWall
    {
        type            nutkWallFunction;
        Cmu             0.09;
        kappa           0.41;
        E               9.8;
        value           uniform 0.000236295;
    }
    nWall
    {
        type            nutkWallFunction;
        Cmu             0.09;
        kappa           0.41;
        E               9.8;
        value           nonuniform List<scalar> 6(0.000104534 0.000108786 0.000130822 0.000146925 0.000148881 0.000137985);
    }
    sideWalls
    {
        type            empty;
    }
    glass1
    {
        type            nutkWallFunction;
        Cmu             0.09;
        kappa           0.41;
        E               9.8;
        value           nonuniform List<scalar> 9(0.000122006 0.000173416 0.000215355 0.000254841 0.000293507 0.000332566 0.000367176 0.000372907 0.000362671);
    }
    glass2
    {
        type            nutkWallFunction;
        Cmu             0.09;
        kappa           0.41;
        E               9.8;
        value           nonuniform List<scalar> 2(0.000194375 0.000180092);
    }
    sun
    {
        type            nutkWallFunction;
        Cmu             0.09;
        kappa           0.41;
        E               9.8;
        value           nonuniform List<scalar> 
14
(
0.000121921
0.000130716
0.000129771
0.000134948
0.000139821
0.000144292
0.000148519
0.000152718
0.000156448
0.000158872
0.000159455
0.000157682
0.000153356
0.000146915
)
;
    }
    Table_master
    {
        type            nutkWallFunction;
        Cmu             0.09;
        kappa           0.41;
        E               9.8;
        value           nonuniform List<scalar> 9(8.4792e-05 7.48733e-05 6.70041e-05 6.07775e-05 5.57979e-05 5.17546e-05 4.84246e-05 4.56661e-05 4.34399e-05);
    }
    Table_slave
    {
        type            nutkWallFunction;
        Cmu             0.09;
        kappa           0.41;
        E               9.8;
        value           nonuniform List<scalar> 9(9.33478e-05 8.71495e-05 8.41425e-05 8.26075e-05 8.13607e-05 7.95049e-05 7.65582e-05 7.33735e-05 6.943e-05);
    }
    inlet
    {
        type            calculated;
        value           uniform 0.000167705;
    }
    outlet
    {
        type            calculated;
        value           nonuniform List<scalar> 2(0.00202664 0.00225396);
    }
}


// ************************************************************************* //
