/*--------------------------------*- C++ -*----------------------------------*\
  =========                 |
  \\      /  F ield         | OpenFOAM: The Open Source CFD Toolbox
   \\    /   O peration     | Website:  https://openfoam.org
    \\  /    A nd           | Version:  6
     \\/     M anipulation  |
\*---------------------------------------------------------------------------*/
FoamFile
{
    version     2.0;
    format      ascii;
    class       volScalarField;
    location    "100";
    object      nut;
}
// * * * * * * * * * * * * * * * * * * * * * * * * * * * * * * * * * * * * * //

dimensions      [0 2 -1 0 0 0 0];

internalField   nonuniform List<scalar> 
458
(
0.000776391
0.000791303
0.000693999
0.000717238
0.000745451
0.000772821
0.000799077
0.000824761
0.00085088
0.000877804
0.000900343
0.00091741
0.00092892
0.000936271
0.000938219
0.000486235
0.00054292
0.00054948
0.000439439
0.000309421
0.000263339
0.000253686
0.000251484
0.00024325
0.000234565
0.000236482
0.000241844
0.000238853
0.00031631
0.000527773
0.000760899
0.00077633
0.000629838
0.00138316
0.00247178
0.00167675
0.00236504
0.00257698
0.00276922
0.0029647
0.00314481
0.00328528
0.00337168
0.0033948
0.00331769
0.00308388
0.00260512
0.00182414
0.00103127
0.000958465
0.000780579
0.000684236
0.00118865
0.0013083
0.00122518
0.000878479
0.000587243
0.000548187
0.00048697
0.000403555
0.000341681
0.000337028
0.000373986
0.000512334
0.000806894
0.00162804
0.00216665
0.00230581
0.000780181
0.00189345
0.00413165
0.001793
0.00332084
0.00392318
0.00417048
0.00437872
0.00455967
0.00470105
0.00478729
0.00482097
0.00476089
0.00455655
0.0041472
0.00350882
0.00272705
0.00188658
0.00105048
0.00102761
0.00256824
0.00219658
0.00175353
0.00128362
0.000433662
0.000344141
0.000293326
0.000252774
0.000233603
0.000311795
0.000403722
0.000497749
0.00065002
0.00210194
0.00273021
0.00268912
0.000854129
0.00235931
0.00609728
0.0020982
0.00345025
0.00465101
0.00497156
0.00518026
0.00536852
0.00553627
0.0056718
0.00578317
0.00585016
0.00581978
0.00560869
0.00511352
0.00426077
0.00309186
0.00190442
0.00119328
0.0023796
0.00218533
0.001847
0.00154342
0.00124956
0.00100879
0.00104566
0.00109373
0.00115109
0.00121627
0.0012865
0.00136328
0.00142442
0.00144028
0.00218286
0.00267734
0.00316535
0.00130045
0.00277842
0.00810998
0.00276512
0.00314833
0.00484159
0.00527242
0.00547067
0.00564583
0.00582009
0.00599579
0.00620513
0.00647068
0.00675776
0.00700715
0.0071422
0.00709484
0.00683129
0.00636571
0.00577735
0.005323
0.0048766
0.00456847
0.00437424
0.00426208
0.00421893
0.00428676
0.00443977
0.00466319
0.00492214
0.00516112
0.00533008
0.00537284
0.00529046
0.00520006
0.00500173
0.00446852
0.00306884
0.00148523
0.00138965
0.00125606
0.00316096
0.00980314
0.00393379
0.00285483
0.00445162
0.00506552
0.0052925
0.00543575
0.00554874
0.00566147
0.00589208
0.00626485
0.00674568
0.00727975
0.00778808
0.00818342
0.0083813
0.00830622
0.00796167
0.00746612
0.00695187
0.00651861
0.00619161
0.00594131
0.00574383
0.00561772
0.00559613
0.00568549
0.00584297
0.00598389
0.00603105
0.00597254
0.00584957
0.00577634
0.00590971
0.00591496
0.00548347
0.00505762
0.00421902
0.00146631
0.00351176
0.0109632
0.00599733
0.00320502
0.00334473
0.00417354
0.00469519
0.00495454
0.00501909
0.00498161
0.00514211
0.00547357
0.00596647
0.00659617
0.00729643
0.00796351
0.00847031
0.0086963
0.00862383
0.00833154
0.00794006
0.00754855
0.00720175
0.00689434
0.00661177
0.00636943
0.00621821
0.00620597
0.00630194
0.00637911
0.00631464
0.00610148
0.00585297
0.00573915
0.00589901
0.00629395
0.00647066
0.00599885
0.00521476
0.00162695
0.0035876
0.0111143
0.00819193
0.00565652
0.00399574
0.00373599
0.00424553
0.00464155
0.00456855
0.00445206
0.00446974
0.00462385
0.00492464
0.00539455
0.00603677
0.00679463
0.00752795
0.00802484
0.00824845
0.00822793
0.00804563
0.00778997
0.00752278
0.00727334
0.00705802
0.00689646
0.00680905
0.00682507
0.00693808
0.00700219
0.00683197
0.00639832
0.00582732
0.00527768
0.00483298
0.00446339
0.00404261
0.00351655
0.00303469
0.00163759
0.00347472
0.00415472
0.00492055
0.00491979
0.00446325
0.00398955
0.00372027
0.00363166
0.00362655
0.00368224
0.00377948
0.00391015
0.00408542
0.00433771
0.00471422
0.00524686
0.00589491
0.00652262
0.00700248
0.00727511
0.00735771
0.0073079
0.00718769
0.00704858
0.00694132
0.00693486
0.00710381
0.00741011
0.00771729
0.0079537
0.0079116
0.00748254
0.00674957
0.00588352
0.00500538
0.00418493
0.00349207
0.00301513
0.00275256
0.0018356
0.00507587
0.00632467
0.00526845
0.0046484
0.00424329
0.00398097
0.0038144
0.00371513
0.0036685
0.00366071
0.00368778
0.00375903
0.0038991
0.004144
0.00451854
0.00499617
0.00549245
0.00591127
0.00619826
0.00635205
0.00640435
0.00639977
0.00639117
0.00644999
0.00668042
0.00719201
0.00794804
0.00871053
0.00926815
0.00952972
0.00955717
0.00966944
0.00975675
0.0094655
0.00863765
0.00746522
0.00608037
0.00190976
0.00334909
0.00655735
0.0055107
0.00493087
0.00451013
0.00418252
0.00392443
0.00371883
0.00353537
0.00336936
0.00323677
0.00315219
0.00313114
0.00319132
0.00334961
0.00361049
0.00395019
0.00431545
0.00464688
0.00490625
0.00508626
0.00520451
0.00529458
0.00540273
0.00559196
0.00594144
0.00649548
0.00713942
0.00771371
0.00810335
0.00832425
0.00852091
0.00872072
0.00878878
0.00853545
0.00766097
0.0056899
0.00188511
0.00230473
0.00258968
0.00289225
0.00293479
0.00251255
0.00227343
0.00208377
0.00192435
0.00178791
0.00167009
0.00156925
0.00148252
0.00140665
0.00134004
0.00128215
0.00123324
0.00119418
0.00116619
0.00115022
0.00114594
0.00115125
0.00116277
0.00117707
0.0011917
0.00120577
0.0012201
0.00123738
0.00126251
0.00130137
0.0013649
0.00145094
0.00154884
0.0016485
0.00174684
0.00184664
0.00193536
0.00196143
0.00189279
0.00178611
0.00160844
)
;

boundaryField
{
    floor
    {
        type            nutkWallFunction;
        Cmu             0.09;
        kappa           0.41;
        E               9.8;
        value           nonuniform List<scalar> 
36
(
0.000113403
5.79994e-05
6.52111e-05
6.60383e-05
5.19659e-05
3.47419e-05
2.84184e-05
2.70756e-05
2.6768e-05
2.56176e-05
2.43984e-05
2.46618e-05
2.54122e-05
2.49918e-05
3.56939e-05
6.33425e-05
9.22071e-05
9.4037e-05
7.60821e-05
7.60821e-05
9.44829e-05
0.000103374
0.000155494
0.000176367
0.000165581
0.000150374
0.000113403
0.000124359
0.000115793
9.45418e-05
5.79994e-05
9.45418e-05
8.2794e-05
0.000126597
0.000123919
0.000143157
)
;
    }
    ceiling
    {
        type            nutkWallFunction;
        Cmu             0.09;
        kappa           0.41;
        E               9.8;
        value           nonuniform List<scalar> 
43
(
0.00026632
0.000296698
0.000328578
0.000333024
0.000288491
0.000262934
0.000242462
0.000225102
0.000210123
0.000197088
0.000185852
0.000176126
0.000167566
0.000160008
0.000153406
0.000147803
0.000143311
0.000140082
0.000138236
0.000137742
0.000138357
0.00013969
0.00014134
0.000143027
0.000144646
0.000146291
0.000148273
0.000151146
0.00015558
0.000162801
0.000172526
0.000183512
0.0001946
0.000205448
0.000216391
0.00022609
0.000228954
0.000221476
0.00020978
0.000190123
0.000389116
0.000458386
0.000376083
)
;
    }
    sWall
    {
        type            nutkWallFunction;
        Cmu             0.09;
        kappa           0.41;
        E               9.8;
        value           uniform 0.000266385;
    }
    nWall
    {
        type            nutkWallFunction;
        Cmu             0.09;
        kappa           0.41;
        E               9.8;
        value           nonuniform List<scalar> 6(0.000150384 0.000174228 0.000192243 0.000223397 0.000220722 0.000190142);
    }
    sideWalls
    {
        type            empty;
    }
    glass1
    {
        type            nutkWallFunction;
        Cmu             0.09;
        kappa           0.41;
        E               9.8;
        value           nonuniform List<scalar> 9(9.40322e-05 0.000165117 0.000222067 0.000272587 0.00031713 0.000357174 0.000393458 0.000401267 0.000389685);
    }
    glass2
    {
        type            nutkWallFunction;
        Cmu             0.09;
        kappa           0.41;
        E               9.8;
        value           nonuniform List<scalar> 2(0.000193569 0.0002154);
    }
    sun
    {
        type            nutkWallFunction;
        Cmu             0.09;
        kappa           0.41;
        E               9.8;
        value           nonuniform List<scalar> 
14
(
9.40374e-05
9.58399e-05
8.39964e-05
8.68419e-05
9.02817e-05
9.36039e-05
9.67779e-05
9.98709e-05
0.000103005
0.000106223
0.000108909
0.000110937
0.000112302
0.000113173
)
;
    }
    Table_master
    {
        type            nutkWallFunction;
        Cmu             0.09;
        kappa           0.41;
        E               9.8;
        value           nonuniform List<scalar> 9(5.11823e-05 3.94107e-05 3.25535e-05 2.69713e-05 2.43051e-05 3.5082e-05 4.7324e-05 5.94868e-05 7.86094e-05);
    }
    Table_slave
    {
        type            nutkWallFunction;
        Cmu             0.09;
        kappa           0.41;
        E               9.8;
        value           nonuniform List<scalar> 9(0.000121707 0.000126027 0.000131631 0.000138285 0.000145801 0.000153853 0.000162603 0.000169547 0.000171345);
    }
    inlet
    {
        type            calculated;
        value           uniform 3.3541e-05;
    }
    outlet
    {
        type            calculated;
        value           nonuniform List<scalar> 2(0.00230473 0.00258968);
    }
}


// ************************************************************************* //
