/*--------------------------------*- C++ -*----------------------------------*\
  =========                 |
  \\      /  F ield         | OpenFOAM: The Open Source CFD Toolbox
   \\    /   O peration     | Website:  https://openfoam.org
    \\  /    A nd           | Version:  6
     \\/     M anipulation  |
\*---------------------------------------------------------------------------*/
FoamFile
{
    version     2.0;
    format      ascii;
    class       volScalarField;
    location    "1600";
    object      T;
}
// * * * * * * * * * * * * * * * * * * * * * * * * * * * * * * * * * * * * * //

dimensions      [0 0 0 1 0 0 0];

internalField   nonuniform List<scalar> 
458
(
302.418
302.152
302.136
302.13
302.126
302.122
302.119
302.118
302.122
302.136
302.171
302.262
302.331
302.36
302.389
303.031
302.984
302.946
302.94
302.956
302.974
302.992
303.009
303.026
303.043
303.059
303.075
303.091
303.108
303.126
303.147
303.175
303.226
302.575
302.151
302.114
302.101
302.092
302.083
302.077
302.07
302.066
302.078
302.134
302.249
302.379
302.417
302.42
302.438
302.458
302.49
303.044
302.952
302.893
302.895
302.918
302.936
302.955
302.973
302.991
303.008
303.025
303.042
303.059
303.077
303.098
303.125
303.16
303.222
302.749
302.169
302.113
302.1
302.092
302.084
302.076
302.06
302.032
302.023
302.086
302.237
302.426
302.496
302.499
302.501
302.501
302.509
303.015
302.882
302.844
302.866
302.91
302.924
302.943
302.963
302.984
303.004
303.024
303.044
303.066
303.088
303.112
303.138
303.169
303.228
302.937
302.207
302.126
302.118
302.122
302.127
302.123
302.095
302.025
301.974
302.033
302.222
302.46
302.577
302.602
302.587
302.565
302.544
302.563
302.606
302.675
302.764
302.861
302.946
303.014
303.059
303.097
303.128
303.156
303.182
303.205
303.225
303.242
303.224
303.205
303.201
303.237
303.135
302.265
302.149
302.145
302.168
302.199
302.215
302.175
302.044
301.937
301.985
302.205
302.483
302.66
302.717
302.697
302.661
302.632
302.647
302.696
302.778
302.878
302.982
303.074
303.15
303.205
303.246
303.279
303.305
303.323
303.333
303.336
303.33
303.307
303.273
303.245
303.248
303.271
303.307
303.388
303.326
302.351
302.189
302.17
302.201
302.259
302.317
302.263
302.065
301.912
301.952
302.189
302.511
302.754
302.849
302.837
302.796
302.77
302.796
302.865
302.959
303.061
303.158
303.24
303.305
303.351
303.385
303.409
303.424
303.432
303.431
303.424
303.407
303.379
303.34
303.301
303.284
303.295
303.321
303.397
303.498
302.504
302.303
302.249
302.252
302.299
302.376
302.289
302.059
301.889
301.929
302.192
302.568
302.874
303.005
303.008
302.97
302.959
303.004
303.086
303.177
303.266
303.344
303.407
303.453
303.484
303.504
303.517
303.522
303.52
303.51
303.495
303.473
303.442
303.405
303.365
303.339
303.338
303.35
303.4
303.739
302.999
302.747
302.567
302.476
302.467
302.469
302.264
301.974
301.818
301.912
302.237
302.682
303.041
303.181
303.192
303.173
303.181
303.236
303.315
303.389
303.455
303.508
303.546
303.571
303.585
303.592
303.594
303.591
303.582
303.569
303.551
303.527
303.497
303.465
303.433
303.413
303.414
303.42
303.534
304.087
303.737
303.468
303.174
302.948
302.811
302.518
302.056
301.727
301.685
301.93
302.373
302.901
303.262
303.355
303.374
303.38
303.405
303.454
303.51
303.559
303.598
303.626
303.643
303.652
303.653
303.65
303.642
303.631
303.618
303.603
303.588
303.574
303.563
303.56
303.566
303.586
303.612
303.634
303.696
298.427
299.613
300.35
300.65
300.727
300.862
301.135
301.577
302.133
302.724
303.282
303.469
303.523
303.542
303.56
303.586
303.62
303.654
303.68
303.696
303.705
303.706
303.703
303.697
303.688
303.677
303.666
303.655
303.644
303.634
303.626
303.621
303.623
303.634
303.656
303.69
303.739
303.825
298.501
299.632
300.191
300.493
300.762
301.235
301.814
302.47
303.102
303.411
303.574
303.633
303.659
303.676
303.693
303.711
303.73
303.744
303.753
303.756
303.755
303.75
303.742
303.734
303.725
303.715
303.705
303.695
303.686
303.677
303.669
303.664
303.663
303.668
303.682
303.706
303.749
303.805
299.596
299.579
299.578
300.341
300.85
301.46
302.338
303.025
303.346
303.54
303.655
303.711
303.739
303.756
303.767
303.775
303.782
303.787
303.791
303.792
303.791
303.788
303.783
303.777
303.771
303.764
303.757
303.749
303.741
303.733
303.725
303.717
303.709
303.703
303.698
303.695
303.704
303.719
303.738
303.797
)
;

boundaryField
{
    floor
    {
        type            wallHeatTransfer;
        Tinf            uniform 305.2;
        alphaWall       uniform 0.24;
        value           nonuniform List<scalar> 
36
(
302.653
303.407
303.33
303.261
303.236
303.247
303.276
303.309
303.341
303.372
303.401
303.429
303.455
303.481
303.506
303.533
303.562
303.598
303.662
303.662
303.63
303.614
303.596
303.581
303.604
303.67
302.653
302.665
302.709
302.775
303.407
302.775
303.426
302.77
303.369
302.809
)
;
    }
    ceiling
    {
        type            wallHeatTransfer;
        Tinf            uniform 303.2;
        alphaWall       uniform 0.24;
        value           nonuniform List<scalar> 
43
(
299.772
299.755
299.752
300.462
300.958
301.548
302.39
303.038
303.335
303.511
303.613
303.66
303.682
303.695
303.704
303.71
303.715
303.719
303.72
303.719
303.716
303.711
303.705
303.699
303.693
303.686
303.681
303.675
303.669
303.664
303.658
303.653
303.649
303.646
303.643
303.644
303.654
303.667
303.68
303.729
304.045
303.715
298.787
)
;
    }
    sWall
    {
        type            wallHeatTransfer;
        Tinf            uniform 315.2;
        alphaWall       uniform 0.36;
        value           uniform 300.709;
    }
    nWall
    {
        type            wallHeatTransfer;
        Tinf            uniform 307.2;
        alphaWall       uniform 0.36;
        value           nonuniform List<scalar> 6(304.216 304.08 303.987 304.327 304.303 304.351);
    }
    sideWalls
    {
        type            empty;
    }
    glass1
    {
        type            wallHeatTransfer;
        Tinf            uniform 315.2;
        alphaWall       uniform 4.3;
        value           nonuniform List<scalar> 9(310.83 310.302 309.966 309.717 309.513 309.321 309.143 309.196 309.408);
    }
    glass2
    {
        type            wallHeatTransfer;
        Tinf            uniform 307.2;
        alphaWall       uniform 4.3;
        value           nonuniform List<scalar> 2(305.844 305.925);
    }
    sun
    {
        type            wallHeatTransfer;
        Tinf            uniform 305.2;
        alphaWall       uniform 0.24;
        value           nonuniform List<scalar> 
14
(
302.683
302.42
302.397
302.382
302.369
302.358
302.347
302.339
302.336
302.345
302.376
302.465
302.546
302.598
)
;
    }
    Table_master
    {
        type            zeroGradient;
    }
    Table_slave
    {
        type            zeroGradient;
    }
    inlet
    {
        type            fixedValue;
        value           uniform 297.15;
    }
    outlet
    {
        type            zeroGradient;
    }
}


// ************************************************************************* //
