/*--------------------------------*- C++ -*----------------------------------*\
  =========                 |
  \\      /  F ield         | OpenFOAM: The Open Source CFD Toolbox
   \\    /   O peration     | Website:  https://openfoam.org
    \\  /    A nd           | Version:  6
     \\/     M anipulation  |
\*---------------------------------------------------------------------------*/
FoamFile
{
    version     2.0;
    format      ascii;
    class       volScalarField;
    location    "2800";
    object      T;
}
// * * * * * * * * * * * * * * * * * * * * * * * * * * * * * * * * * * * * * //

dimensions      [0 0 0 1 0 0 0];

internalField   nonuniform List<scalar> 
458
(
304.14
303.888
303.876
303.873
303.87
303.867
303.864
303.86
303.855
303.848
303.838
303.828
303.817
303.81
303.806
303.857
303.842
303.837
303.838
303.84
303.842
303.843
303.845
303.847
303.848
303.849
303.851
303.852
303.853
303.854
303.855
303.856
303.866
304.314
303.928
303.904
303.907
303.91
303.911
303.911
303.908
303.902
303.889
303.87
303.847
303.824
303.806
303.796
303.796
303.803
303.818
303.853
303.832
303.829
303.83
303.832
303.833
303.833
303.833
303.832
303.832
303.832
303.831
303.831
303.831
303.832
303.834
303.837
303.854
304.493
303.975
303.934
303.942
303.953
303.964
303.97
303.973
303.967
303.949
303.918
303.878
303.839
303.809
303.791
303.785
303.787
303.796
303.813
303.817
303.824
303.831
303.837
303.837
303.836
303.835
303.834
303.833
303.832
303.83
303.829
303.828
303.828
303.829
303.831
303.848
304.671
304.034
303.964
303.974
303.995
304.017
304.036
304.048
304.046
304.021
303.973
303.913
303.854
303.811
303.786
303.778
303.781
303.786
303.795
303.804
303.818
303.832
303.843
303.852
303.859
303.863
303.867
303.87
303.873
303.874
303.874
303.874
303.873
303.858
303.844
303.835
303.846
304.84
304.111
304.002
304.003
304.028
304.06
304.093
304.121
304.124
304.089
304.021
303.939
303.861
303.807
303.779
303.771
303.776
303.787
303.801
303.817
303.834
303.851
303.865
303.875
303.883
303.889
303.893
303.896
303.897
303.897
303.895
303.891
303.886
303.874
303.858
303.843
303.844
303.89
303.944
303.949
304.99
304.211
304.076
304.05
304.066
304.097
304.138
304.179
304.179
304.128
304.041
303.943
303.856
303.795
303.766
303.762
303.774
303.793
303.814
303.837
303.858
303.876
303.891
303.901
303.908
303.913
303.916
303.917
303.917
303.915
303.911
303.904
303.897
303.885
303.87
303.854
303.847
303.867
303.885
303.915
305.125
304.371
304.243
304.194
304.181
304.189
304.214
304.235
304.208
304.131
304.022
303.91
303.819
303.763
303.743
303.751
303.775
303.806
303.837
303.865
303.888
303.905
303.918
303.926
303.931
303.934
303.935
303.935
303.933
303.93
303.924
303.916
303.906
303.895
303.881
303.866
303.856
303.861
303.869
303.893
305.328
304.766
304.629
304.524
304.443
304.393
304.36
304.302
304.201
304.067
303.929
303.813
303.737
303.706
303.713
303.745
303.789
303.833
303.87
303.9
303.92
303.933
303.942
303.947
303.95
303.951
303.951
303.95
303.947
303.944
303.938
303.93
303.92
303.91
303.899
303.889
303.883
303.887
303.9
304.012
305.616
305.356
305.066
304.815
304.622
304.471
304.34
304.185
303.993
303.817
303.688
303.621
303.61
303.64
303.697
303.762
303.826
303.877
303.909
303.931
303.945
303.954
303.96
303.963
303.965
303.966
303.966
303.965
303.963
303.961
303.96
303.961
303.963
303.968
303.98
303.998
304.023
304.05
304.071
304.121
295.548
299.368
301.161
301.927
302.314
302.564
302.794
303.004
303.195
303.366
303.513
303.637
303.748
303.831
303.884
303.919
303.94
303.954
303.963
303.968
303.973
303.976
303.978
303.98
303.982
303.983
303.984
303.986
303.988
303.991
303.995
304.002
304.012
304.027
304.045
304.064
304.08
304.095
296.707
299.733
301.112
301.911
302.354
302.662
302.921
303.146
303.357
303.537
303.671
303.771
303.844
303.893
303.924
303.944
303.956
303.965
303.97
303.975
303.979
303.983
303.987
303.99
303.993
303.996
303.999
304.001
304.004
304.006
304.01
304.015
304.022
304.032
304.044
304.058
304.055
304.079
300.172
300.066
300.06
301.909
302.465
302.788
303.053
303.282
303.468
303.603
303.702
303.778
303.834
303.875
303.904
303.923
303.935
303.943
303.948
303.952
303.957
303.961
303.964
303.968
303.972
303.976
303.98
303.985
303.989
303.993
303.997
304.002
304.006
304.011
304.016
304.023
304.032
304.036
304.035
304.073
)
;

boundaryField
{
    floor
    {
        type            wallHeatTransfer;
        Tinf            uniform 305.2;
        alphaWall       uniform 0.24;
        value           nonuniform List<scalar> 
36
(
303.94
304.133
304.082
304.062
304.067
304.075
304.087
304.099
304.111
304.123
304.135
304.145
304.156
304.166
304.175
304.185
304.196
304.206
304.234
304.234
304.174
304.144
304.123
304.113
304.14
304.131
303.94
303.928
303.959
304.005
304.133
304.005
304.105
303.941
303.972
303.923
)
;
    }
    ceiling
    {
        type            wallHeatTransfer;
        Tinf            uniform 303.2;
        alphaWall       uniform 0.24;
        value           nonuniform List<scalar> 
43
(
300.396
300.284
300.27
301.991
302.512
302.815
303.063
303.277
303.448
303.571
303.662
303.729
303.777
303.81
303.831
303.844
303.851
303.855
303.858
303.861
303.864
303.867
303.869
303.871
303.874
303.875
303.878
303.88
303.884
303.889
303.894
303.9
303.907
303.914
303.922
303.932
303.942
303.945
303.94
303.97
305.503
305.269
297.123
)
;
    }
    sWall
    {
        type            wallHeatTransfer;
        Tinf            uniform 315.2;
        alphaWall       uniform 0.36;
        value           uniform 301.787;
    }
    nWall
    {
        type            wallHeatTransfer;
        Tinf            uniform 307.2;
        alphaWall       uniform 0.36;
        value           nonuniform List<scalar> 6(304.612 304.575 304.501 304.555 304.531 304.598);
    }
    sideWalls
    {
        type            empty;
    }
    glass1
    {
        type            wallHeatTransfer;
        Tinf            uniform 315.2;
        alphaWall       uniform 4.3;
        value           nonuniform List<scalar> 9(311.912 311.277 310.867 310.547 310.278 310.037 309.857 309.922 310.135);
    }
    glass2
    {
        type            wallHeatTransfer;
        Tinf            uniform 307.2;
        alphaWall       uniform 4.3;
        value           nonuniform List<scalar> 2(306.072 306.128);
    }
    sun
    {
        type            wallHeatTransfer;
        Tinf            uniform 305.2;
        alphaWall       uniform 0.24;
        value           nonuniform List<scalar> 
14
(
304.262
304.029
304.018
304.01
304.004
303.997
303.991
303.984
303.977
303.969
303.959
303.95
303.943
303.939
)
;
    }
    Table_master
    {
        type            zeroGradient;
    }
    Table_slave
    {
        type            zeroGradient;
    }
    inlet
    {
        type            fixedValue;
        value           uniform 292.15;
    }
    outlet
    {
        type            zeroGradient;
    }
}


// ************************************************************************* //
