/*--------------------------------*- C++ -*----------------------------------*\
  =========                 |
  \\      /  F ield         | OpenFOAM: The Open Source CFD Toolbox
   \\    /   O peration     | Website:  https://openfoam.org
    \\  /    A nd           | Version:  6
     \\/     M anipulation  |
\*---------------------------------------------------------------------------*/
FoamFile
{
    version     2.0;
    format      ascii;
    class       volScalarField;
    location    "2400";
    object      alphat;
}
// * * * * * * * * * * * * * * * * * * * * * * * * * * * * * * * * * * * * * //

dimensions      [1 -1 -1 0 0 0 0];

internalField   nonuniform List<scalar> 
458
(
0.00120975
0.00131769
0.00133064
0.00139218
0.00144937
0.00150217
0.00155266
0.00160369
0.00164573
0.00167099
0.00167435
0.00165192
0.00160318
0.00153381
0.0014527
0.00050891
0.000633
0.000698387
0.000684307
0.00065709
0.000617012
0.000575818
0.000538335
0.000505094
0.000475651
0.00044978
0.000426757
0.000405944
0.00038666
0.000368003
0.000348686
0.000337484
0.000309235
0.00168301
0.00411702
0.00392825
0.00458212
0.00519109
0.00580117
0.00636284
0.00680025
0.00716419
0.00746142
0.00764742
0.00765807
0.00738395
0.00657697
0.00459186
0.00148591
0.00116429
0.00096576
0.000601906
0.00115793
0.00156675
0.00185072
0.00193345
0.0015647
0.00136941
0.00122796
0.00111806
0.00103
0.00095301
0.000883991
0.00081995
0.000758813
0.000706234
0.000661001
0.000801101
0.000416315
0.00207933
0.005689
0.00488582
0.00634898
0.00706582
0.00758485
0.00797786
0.00827028
0.00853441
0.00880036
0.00904346
0.00921949
0.00926483
0.00911428
0.00864601
0.00759317
0.00606522
0.00137371
0.00117328
0.00166192
0.00209104
0.00244063
0.00248363
0.000874437
0.000769199
0.000684769
0.000617295
0.000562991
0.000518876
0.000482715
0.000453029
0.000429206
0.00046661
0.000538762
0.000904376
0.000487143
0.00246086
0.00739574
0.00496779
0.0068505
0.00767423
0.00798834
0.00813186
0.00822723
0.00837358
0.0086023
0.00888625
0.0091862
0.00942751
0.00956457
0.00954591
0.00920601
0.00835834
0.00633526
0.00157797
0.00205015
0.00268663
0.00322093
0.0035653
0.00341593
0.000965388
0.000877821
0.000821072
0.000781895
0.000750698
0.000719898
0.000688649
0.000655917
0.000617256
0.000583014
0.000585598
0.00102595
0.000549519
0.00284768
0.00954994
0.00566549
0.00660123
0.00772385
0.00801273
0.00799562
0.00789535
0.00797509
0.00818647
0.00849474
0.008869
0.00919685
0.00940441
0.0094328
0.00922117
0.0087314
0.0078742
0.00628835
0.00574248
0.00550934
0.00536884
0.00524115
0.00499433
0.00419404
0.00384745
0.00367574
0.00355594
0.00342788
0.00325495
0.0029527
0.00253522
0.00204483
0.00154688
0.00115443
0.00107438
0.000902552
0.000722823
0.000790776
0.000864658
0.0032522
0.0118477
0.00798675
0.00670892
0.00734178
0.00781676
0.00784519
0.0077136
0.0077743
0.00795772
0.0082655
0.00865482
0.00902339
0.0092513
0.00925161
0.00900119
0.00856391
0.00804938
0.00748477
0.00708183
0.00674994
0.00643202
0.00612018
0.00578651
0.00538498
0.00507731
0.00484036
0.00463166
0.00442664
0.00421174
0.00395707
0.00358281
0.00308212
0.00248171
0.00191002
0.00141716
0.00114179
0.000971786
0.00124729
0.000892101
0.00360969
0.0134183
0.0111376
0.00880684
0.0082142
0.00819563
0.00807689
0.00788547
0.00780903
0.00792579
0.00823854
0.00866723
0.00907124
0.00929881
0.00924888
0.00892029
0.00843069
0.00796844
0.00763574
0.007386
0.00707585
0.00666684
0.00619666
0.00571272
0.00527428
0.00494191
0.00468968
0.00447969
0.00429407
0.00412851
0.00398381
0.00382356
0.00349689
0.00301671
0.00249904
0.002009
0.00167259
0.00151402
0.00144612
0.00104618
0.00366774
0.0118433
0.0107306
0.0102171
0.00969712
0.00906358
0.00837939
0.00790604
0.00777395
0.0079813
0.00842983
0.00896
0.00938785
0.0095516
0.00937186
0.00889819
0.00830571
0.00783237
0.00755108
0.00726394
0.00676208
0.00612745
0.00548231
0.00493055
0.00452371
0.00424655
0.00404976
0.0039011
0.00379125
0.0037234
0.00370595
0.00373859
0.00372045
0.00342893
0.00313942
0.00297365
0.00302903
0.00316358
0.00372874
0.0016354
0.0035555
0.0041915
0.00472637
0.0049307
0.00514972
0.00540841
0.00580641
0.00645443
0.00730772
0.00823922
0.00909274
0.00972426
0.010014
0.00988599
0.00936512
0.00863124
0.0079622
0.00749955
0.00704054
0.00643887
0.00569835
0.00496424
0.00436419
0.00393716
0.00365169
0.00345524
0.00330723
0.00318693
0.00308501
0.00299482
0.00290795
0.00281465
0.00272212
0.00263936
0.00258227
0.00255155
0.00249624
0.00237884
0.00223165
0.00155691
0.00197281
0.0052113
0.00682462
0.00811436
0.00935108
0.0103128
0.0109363
0.0112202
0.0112111
0.0109414
0.0104095
0.00963024
0.00868312
0.0077424
0.00698473
0.00631439
0.00558994
0.00485277
0.00419789
0.00370153
0.00335645
0.00311774
0.00294433
0.00280896
0.00269776
0.00260587
0.00253299
0.00248092
0.00245236
0.00245129
0.00246785
0.00248494
0.00249444
0.00247313
0.00238137
0.00220687
0.00198444
0.00130547
0.0024782
0.00741854
0.00967686
0.0101013
0.0105919
0.0109237
0.0108782
0.0105034
0.00990061
0.00913879
0.00828476
0.0074142
0.00659319
0.0058391
0.00513839
0.00449615
0.00397933
0.00361425
0.00336741
0.00318193
0.00302045
0.00287073
0.00273878
0.00262396
0.00252825
0.00245479
0.0024058
0.00238106
0.00237618
0.00240184
0.00245552
0.00252556
0.00259216
0.00262879
0.00259383
0.00259116
0.00264608
0.00133367
0.00207319
0.00224114
0.0023611
0.00253668
0.00250966
0.00245826
0.00239458
0.00228716
0.00214636
0.001991
0.0018243
0.0016469
0.00146493
0.00128806
0.00113223
0.00101159
0.000926538
0.000869149
0.00083066
0.000804261
0.000785773
0.00077284
0.000765589
0.000764319
0.000767791
0.000776675
0.00079162
0.000813178
0.000841912
0.000878695
0.000925266
0.0009793
0.0010397
0.00110671
0.00117979
0.00126243
0.0012993
0.0012711
0.00119149
0.00111418
)
;

boundaryField
{
    floor
    {
        type            compressible::alphatWallFunction;
        Prt             0.85;
        value           nonuniform List<scalar> 
36
(
0.00020464
7.062e-05
8.93168e-05
9.89837e-05
9.69123e-05
9.28928e-05
8.69365e-05
8.07642e-05
7.51006e-05
7.00367e-05
6.55165e-05
6.15153e-05
5.79301e-05
5.46675e-05
5.16256e-05
4.86638e-05
4.55766e-05
4.37761e-05
3.92006e-05
3.92001e-05
5.62946e-05
6.72829e-05
7.67935e-05
0.00010257
0.000112464
0.000123104
0.000204638
0.000209115
0.000165235
0.00013747
7.06191e-05
0.000137468
8.46707e-05
0.000193937
0.000166489
0.000221469
)
;
    }
    ceiling
    {
        type            compressible::alphatWallFunction;
        Prt             0.85;
        value           nonuniform List<scalar> 
43
(
0.00028656
0.000308256
0.00032365
0.000346154
0.000342759
0.000336239
0.000328129
0.000314383
0.000296252
0.00027609
0.000254261
0.000230788
0.000206415
0.000182396
0.000160925
0.00014407
0.000132046
0.00012386
0.000118335
0.000114527
0.000111851
0.000109975
0.000108921
0.000108737
0.000109242
0.000110532
0.000112699
0.000115815
0.000119954
0.000125228
0.000131867
0.000139522
0.000148021
0.000157383
0.000167518
0.000178894
0.000183941
0.000180083
0.000169135
0.000158425
0.0004734
0.000550706
0.00033838
)
;
    }
    sWall
    {
        type            compressible::alphatWallFunction;
        Prt             0.85;
        value           uniform 0.000285361;
    }
    nWall
    {
        type            compressible::alphatWallFunction;
        Prt             0.85;
        value           nonuniform List<scalar> 6(0.000122906 0.000126826 0.0001486 0.00018446 0.000188305 0.000158105);
    }
    sideWalls
    {
        type            empty;
    }
    glass1
    {
        type            compressible::alphatWallFunction;
        Prt             0.85;
        value           nonuniform List<scalar> 9(0.000167389 0.000230477 0.000281928 0.000330555 0.000379112 0.000429205 0.000472986 0.000480185 0.000466737);
    }
    glass2
    {
        type            compressible::alphatWallFunction;
        Prt             0.85;
        value           nonuniform List<scalar> 2(0.000227631 0.000217249);
    }
    sun
    {
        type            compressible::alphatWallFunction;
        Prt             0.85;
        value           nonuniform List<scalar> 
14
(
0.000171545
0.000186328
0.000188094
0.000196459
0.000204198
0.000211311
0.000218087
0.00022491
0.000230513
0.000233871
0.000234317
0.000231333
0.000224837
0.000215553
)
;
    }
    Table_master
    {
        type            compressible::alphatWallFunction;
        Prt             0.85;
        value           nonuniform List<scalar> 9(0.000124598 0.000109427 9.70756e-05 8.70716e-05 7.89227e-05 7.22309e-05 6.66925e-05 6.21064e-05 5.83986e-05);
    }
    Table_slave
    {
        type            compressible::alphatWallFunction;
        Prt             0.85;
        value           nonuniform List<scalar> 9(0.000137539 0.000125085 0.000116937 0.000111273 0.000106738 0.000102238 9.76496e-05 9.28158e-05 8.70681e-05);
    }
    inlet
    {
        type            fixedValue;
        value           uniform 1.94e-05;
    }
    outlet
    {
        type            zeroGradient;
    }
}


// ************************************************************************* //
