/*--------------------------------*- C++ -*----------------------------------*\
  =========                 |
  \\      /  F ield         | OpenFOAM: The Open Source CFD Toolbox
   \\    /   O peration     | Website:  https://openfoam.org
    \\  /    A nd           | Version:  6
     \\/     M anipulation  |
\*---------------------------------------------------------------------------*/
FoamFile
{
    version     2.0;
    format      ascii;
    class       volVectorField;
    location    "2500";
    object      U;
}
// * * * * * * * * * * * * * * * * * * * * * * * * * * * * * * * * * * * * * //

dimensions      [0 1 -1 0 0 0 0];

internalField   nonuniform List<vector> 
458
(
(0.0493108 0.0784353 0)
(-0.152772 0.0190452 0)
(-0.167352 0.0154047 0)
(-0.194731 0.0121168 0)
(-0.217134 0.00813434 0)
(-0.23407 0.00386775 0)
(-0.244806 -0.000767179 0)
(-0.248279 -0.00593465 0)
(-0.243011 -0.0117873 0)
(-0.228569 -0.0184021 0)
(-0.20466 -0.0252647 0)
(-0.171677 -0.0320631 0)
(-0.130987 -0.0394369 0)
(-0.0898632 -0.0494173 0)
(-0.0727327 -0.0622389 0)
(0.0164257 0.0126204 0)
(0.00085588 -0.0211285 0)
(0.0247305 -0.0223294 0)
(0.0444923 -0.0168522 0)
(0.0601651 -0.0115569 0)
(0.0698661 -0.00674639 0)
(0.0743634 -0.00419189 0)
(0.0757826 -0.00325157 0)
(0.0760802 -0.00289958 0)
(0.0760739 -0.00267194 0)
(0.0758092 -0.00242779 0)
(0.0751379 -0.00208203 0)
(0.0737705 -0.00143786 0)
(0.0710145 -5.68745e-05 0)
(0.0654694 0.00269026 0)
(0.0555258 0.0060873 0)
(0.0424814 0.0096099 0)
(-0.000980117 0.0207075 0)
(0.228582 0.162739 0)
(-0.150882 0.0524749 0)
(-0.137069 0.0450828 0)
(-0.166263 0.038378 0)
(-0.188359 0.0306395 0)
(-0.205191 0.0221562 0)
(-0.216297 0.0125352 0)
(-0.220702 0.00131084 0)
(-0.216677 -0.0117366 0)
(-0.204348 -0.0256177 0)
(-0.183983 -0.038521 0)
(-0.157182 -0.0488266 0)
(-0.126971 -0.0561176 0)
(-0.0995447 -0.0606967 0)
(-0.0829781 -0.0568843 0)
(-0.063684 -0.0209513 0)
(-0.0334283 0.00423968 0)
(-0.0576859 0.0129404 0)
(0.0701045 -0.00561712 0)
(0.0398281 -0.0271039 0)
(0.0466379 -0.0291536 0)
(0.0594635 -0.0233298 0)
(0.0694252 -0.0160096 0)
(0.0745277 -0.00583994 0)
(0.0751899 9.66582e-05 0)
(0.0746589 0.00237186 0)
(0.0745136 0.00322795 0)
(0.0746801 0.00373102 0)
(0.0747821 0.00411507 0)
(0.0747257 0.00461165 0)
(0.0744664 0.00565345 0)
(0.0734221 0.00825159 0)
(0.0689845 0.0152549 0)
(0.0580721 0.0220481 0)
(0.045815 0.0279918 0)
(-0.0251638 0.0451214 0)
(0.390895 0.244748 0)
(-0.177354 0.0868241 0)
(-0.103759 0.0739828 0)
(-0.133552 0.060493 0)
(-0.152688 0.0473231 0)
(-0.167784 0.033374 0)
(-0.178352 0.0176315 0)
(-0.183114 -0.000648441 0)
(-0.179584 -0.0214537 0)
(-0.167892 -0.0432784 0)
(-0.148976 -0.0628046 0)
(-0.125139 -0.0772494 0)
(-0.0995223 -0.0854569 0)
(-0.075885 -0.086902 0)
(-0.0559681 -0.0784355 0)
(-0.0351154 -0.054831 0)
(-0.0132185 -0.0358261 0)
(-0.0254859 -0.0250139 0)
(0.0827496 -0.0579939 0)
(0.0534805 -0.0498018 0)
(0.0558669 -0.040587 0)
(0.0636715 -0.0324656 0)
(0.0700718 -0.0264171 0)
(0.073892 -0.0191685 0)
(0.0688375 -0.0129081 0)
(0.0646076 -0.00965227 0)
(0.0632956 -0.00786249 0)
(0.0633553 -0.00668265 0)
(0.063823 -0.00574347 0)
(0.0646357 -0.00482162 0)
(0.0664098 -0.00346843 0)
(0.0706376 0.000525228 0)
(0.0703114 0.0198693 0)
(0.0587391 0.0346988 0)
(0.0510238 0.0476491 0)
(-0.0439398 0.0741397 0)
(0.533144 0.311351 0)
(-0.218817 0.119403 0)
(-0.0672648 0.0983941 0)
(-0.0980438 0.0790074 0)
(-0.111615 0.0625046 0)
(-0.122893 0.0452009 0)
(-0.131627 0.0250172 0)
(-0.135981 0.00052721 0)
(-0.131855 -0.0282498 0)
(-0.119988 -0.058068 0)
(-0.102525 -0.0835122 0)
(-0.082149 -0.100972 0)
(-0.0614898 -0.109186 0)
(-0.0426034 -0.107813 0)
(-0.0257198 -0.095958 0)
(-0.00847066 -0.0748313 0)
(0.0122975 -0.0526303 0)
(0.030186 -0.0376858 0)
(0.0617121 -0.017489 0)
(0.0721544 -0.0467312 0)
(0.0608819 -0.0469757 0)
(0.056491 -0.0398993 0)
(0.0565977 -0.0332697 0)
(0.0560952 -0.0263879 0)
(0.0598626 -0.0170589 0)
(0.0707354 -0.0124392 0)
(0.0802637 -0.00983654 0)
(0.0872657 -0.0080614 0)
(0.0923678 -0.00639872 0)
(0.0954319 -0.00446606 0)
(0.095266 -0.00196718 0)
(0.0903735 0.00151834 0)
(0.0786241 0.00658555 0)
(0.0662464 0.0283046 0)
(0.0567788 0.0481288 0)
(0.0589678 0.0679446 0)
(-0.0489337 0.107036 0)
(0.651419 0.364137 0)
(-0.263044 0.148292 0)
(-0.0306527 0.111974 0)
(-0.060187 0.0898461 0)
(-0.0665737 0.0718673 0)
(-0.0719465 0.0528901 0)
(-0.077016 0.0299197 0)
(-0.0792825 0.000451238 0)
(-0.0719739 -0.0355618 0)
(-0.0592721 -0.072243 0)
(-0.0444877 -0.101406 0)
(-0.0294897 -0.11975 0)
(-0.0158598 -0.126853 0)
(-0.00436973 -0.123407 0)
(0.00571124 -0.10996 0)
(0.0155618 -0.0902874 0)
(0.0269261 -0.0696362 0)
(0.0381732 -0.0532896 0)
(0.0494314 -0.0434146 0)
(0.0532585 -0.0476166 0)
(0.0491398 -0.0446516 0)
(0.0445681 -0.0384639 0)
(0.04263 -0.0324397 0)
(0.0425883 -0.0258826 0)
(0.0463639 -0.0168344 0)
(0.0535118 -0.0118887 0)
(0.0605805 -0.00964674 0)
(0.0667044 -0.00792385 0)
(0.0718894 -0.00550934 0)
(0.0758081 -0.00167481 0)
(0.0778115 0.00385974 0)
(0.0766488 0.01106 0)
(0.0721868 0.0205569 0)
(0.0665037 0.0370706 0)
(0.0617218 0.0564838 0)
(0.0787758 0.0785669 0)
(0.0432755 0.108908 0)
(0.0917634 0.11627 0)
(0.117987 0.119941 0)
(-0.198371 0.143533 0)
(0.731733 0.409523 0)
(-0.301254 0.169776 0)
(-0.00422283 0.106927 0)
(-0.0195152 0.0918944 0)
(-0.0177953 0.0762962 0)
(-0.0166735 0.0566977 0)
(-0.0168 0.0325961 0)
(-0.012682 -8.89082e-05 0)
(0.000881545 -0.0444958 0)
(0.0134368 -0.0857318 0)
(0.0228865 -0.114556 0)
(0.0298058 -0.130748 0)
(0.033947 -0.135173 0)
(0.0355826 -0.129439 0)
(0.0357809 -0.115541 0)
(0.0359058 -0.0964586 0)
(0.0368416 -0.0761539 0)
(0.0380839 -0.0587581 0)
(0.0387995 -0.0468622 0)
(0.0365966 -0.0426384 0)
(0.0313488 -0.039335 0)
(0.026235 -0.03515 0)
(0.0234569 -0.0310267 0)
(0.023158 -0.0266811 0)
(0.025769 -0.0217296 0)
(0.0306763 -0.0186661 0)
(0.0362366 -0.0168052 0)
(0.0417266 -0.0148111 0)
(0.0469808 -0.011743 0)
(0.0518304 -0.0067663 0)
(0.0563865 0.000893033 0)
(0.05909 0.0108002 0)
(0.0600438 0.0225837 0)
(0.0611982 0.0376379 0)
(0.0633566 0.0549515 0)
(0.0794516 0.0741122 0)
(0.0781241 0.0828461 0)
(0.0879311 0.0437525 0)
(0.122099 0.00626654 0)
(-0.214072 0.0772004 0)
(0.768921 0.450802 0)
(-0.317288 0.157857 0)
(0.0170855 0.0559797 0)
(0.0366454 0.074976 0)
(0.0439718 0.0766444 0)
(0.0487271 0.0572331 0)
(0.0542819 0.0279259 0)
(0.0699028 -0.0122226 0)
(0.08486 -0.0567062 0)
(0.0931302 -0.0938163 0)
(0.0946792 -0.118753 0)
(0.0910246 -0.131198 0)
(0.0834236 -0.132557 0)
(0.0731938 -0.124772 0)
(0.0618515 -0.110112 0)
(0.0507708 -0.0913266 0)
(0.0408379 -0.0716874 0)
(0.0320579 -0.0544854 0)
(0.0243523 -0.0423364 0)
(0.0168486 -0.0361981 0)
(0.00966619 -0.0332553 0)
(0.00390697 -0.031137 0)
(0.000466314 -0.0293772 0)
(-0.0006894 -0.0275228 0)
(0.000378281 -0.0253213 0)
(0.00314008 -0.0235421 0)
(0.00667218 -0.02199 0)
(0.0105281 -0.0200495 0)
(0.0146768 -0.0170598 0)
(0.0192835 -0.0121623 0)
(0.0247023 -0.00422757 0)
(0.0323182 0.00696564 0)
(0.0383131 0.0191425 0)
(0.0450631 0.0323385 0)
(0.0531405 0.0461606 0)
(0.0686606 0.0609481 0)
(0.0810638 0.0661486 0)
(0.0920078 0.0482968 0)
(0.147411 0.0515603 0)
(-0.14168 0.13504 0)
(0.867947 0.458577 0)
(-0.0879185 0.137698 0)
(0.0988517 -0.0284107 0)
(0.161605 -0.00591203 0)
(0.159221 0.0210802 0)
(0.15353 0.014165 0)
(0.157416 -0.0132343 0)
(0.174125 -0.044806 0)
(0.182528 -0.0739484 0)
(0.179143 -0.0975075 0)
(0.166477 -0.112692 0)
(0.147544 -0.11878 0)
(0.124912 -0.116452 0)
(0.100743 -0.107052 0)
(0.0769102 -0.0924646 0)
(0.0547188 -0.0748653 0)
(0.0350445 -0.0569328 0)
(0.0179935 -0.0414957 0)
(0.00442199 -0.0312955 0)
(-0.00657043 -0.026881 0)
(-0.0146127 -0.0262207 0)
(-0.0206571 -0.0265396 0)
(-0.0248361 -0.0269329 0)
(-0.0274534 -0.0269818 0)
(-0.0286886 -0.0265703 0)
(-0.0288615 -0.0258867 0)
(-0.0284087 -0.0249392 0)
(-0.0275785 -0.0235516 0)
(-0.026355 -0.0214168 0)
(-0.0244589 -0.018085 0)
(-0.0211837 -0.012971 0)
(-0.0140252 -0.00534464 0)
(-0.00243101 0.00480448 0)
(0.0083813 0.0147474 0)
(0.0205145 0.0217743 0)
(0.0374254 0.0274958 0)
(0.0544422 0.0234948 0)
(0.068037 0.00440782 0)
(0.151679 0.054096 0)
(-0.405498 0.219654 0)
(1.00456 0.422277 0)
(0.475086 0.278585 0)
(0.495526 0.183499 0)
(0.510022 0.147768 0)
(0.45629 0.121687 0)
(0.400948 0.0873129 0)
(0.367743 0.0481664 0)
(0.33836 0.00693983 0)
(0.302021 -0.0306671 0)
(0.261953 -0.0593977 0)
(0.220937 -0.0771511 0)
(0.180261 -0.0845373 0)
(0.140905 -0.0833671 0)
(0.103789 -0.0755757 0)
(0.069987 -0.0633375 0)
(0.0400181 -0.0486151 0)
(0.0146065 -0.0338551 0)
(-0.00667835 -0.0218358 0)
(-0.0208305 -0.016602 0)
(-0.0310075 -0.0159567 0)
(-0.0389809 -0.0173981 0)
(-0.0456368 -0.0192016 0)
(-0.0513352 -0.0207488 0)
(-0.0562603 -0.0218168 0)
(-0.0605023 -0.0223742 0)
(-0.0642321 -0.0225006 0)
(-0.0677241 -0.0222103 0)
(-0.0712793 -0.0213937 0)
(-0.0752104 -0.0197566 0)
(-0.079877 -0.016727 0)
(-0.0857042 -0.0114379 0)
(-0.0930745 -0.00299984 0)
(-0.101229 0.00855855 0)
(-0.110738 0.0224117 0)
(-0.12779 0.0396127 0)
(-0.155262 0.0614757 0)
(-0.195907 0.0871501 0)
(-0.245413 0.114703 0)
(-0.314614 0.140652 0)
(-0.602422 0.162045 0)
(-0.45468 -0.0494937 0)
(0.164995 0.0641985 0)
(0.249838 0.0799867 0)
(0.245451 0.067807 0)
(0.238799 0.0415207 0)
(0.227411 0.0110607 0)
(0.21289 -0.0148432 0)
(0.190215 -0.0330319 0)
(0.161864 -0.0438704 0)
(0.129523 -0.0482394 0)
(0.0952704 -0.0470865 0)
(0.0610378 -0.0411078 0)
(0.0294001 -0.0316505 0)
(0.000718062 -0.0196245 0)
(-0.02179 -0.00866728 0)
(-0.0360827 -0.00314731 0)
(-0.0455758 -0.00228543 0)
(-0.0530309 -0.00376878 0)
(-0.0601419 -0.0059777 0)
(-0.0674602 -0.00787554 0)
(-0.0750077 -0.00906513 0)
(-0.0826569 -0.00944402 0)
(-0.0902591 -0.00901506 0)
(-0.0977212 -0.00780788 0)
(-0.105015 -0.00581985 0)
(-0.112146 -0.00302466 0)
(-0.119123 0.000590478 0)
(-0.125953 0.00499442 0)
(-0.132588 0.0101054 0)
(-0.138467 0.0157905 0)
(-0.142304 0.0244533 0)
(-0.145201 0.0373527 0)
(-0.147891 0.0545247 0)
(-0.150802 0.0744608 0)
(-0.151657 0.0903876 0)
(-0.141634 0.0830796 0)
(-0.127445 0.0118214 0)
(-0.263654 -0.183143 0)
(-0.132912 0.15492 0)
(0.0922576 0.075202 0)
(0.0492037 0.0483512 0)
(0.0627527 0.0522065 0)
(0.0797211 0.0390965 0)
(0.0875039 0.0157568 0)
(0.0873476 -0.00550521 0)
(0.0798533 -0.0197999 0)
(0.064018 -0.0281687 0)
(0.0425959 -0.0317551 0)
(0.0186407 -0.0319283 0)
(-0.00629173 -0.0304091 0)
(-0.0259621 -0.0299648 0)
(-0.0405651 -0.0311869 0)
(-0.0497776 -0.0357368 0)
(-0.0552959 -0.0419618 0)
(-0.0596382 -0.0474991 0)
(-0.0642598 -0.0508701 0)
(-0.0697813 -0.0534519 0)
(-0.0764647 -0.0559916 0)
(-0.084294 -0.0585583 0)
(-0.0930684 -0.0610046 0)
(-0.102478 -0.0630708 0)
(-0.112133 -0.0644367 0)
(-0.121569 -0.0647327 0)
(-0.13025 -0.0635179 0)
(-0.137569 -0.0602265 0)
(-0.142834 -0.0540811 0)
(-0.145319 -0.0439626 0)
(-0.144497 -0.0291518 0)
(-0.140054 -0.0122135 0)
(-0.130538 0.0074151 0)
(-0.114811 0.0302394 0)
(-0.0927289 0.0551007 0)
(-0.0656763 0.075267 0)
(-0.0380385 0.0772253 0)
(0.125477 -0.00489763 0)
(-0.209905 -0.0967226 0)
(0.116387 -0.242814 0)
(-0.337236 -0.112765 0)
(-0.266611 0.0414714 0)
(-0.18854 -0.00550403 0)
(-0.15768 0.00303325 0)
(-0.113127 0.0167285 0)
(-0.0765856 0.016532 0)
(-0.0552564 0.0134486 0)
(-0.0499477 0.0220773 0)
(-0.0499393 0.036162 0)
(-0.0597418 0.0521674 0)
(-0.0699996 0.068014 0)
(-0.0779743 0.082538 0)
(-0.0828297 0.0953962 0)
(-0.0841722 0.106939 0)
(-0.0826929 0.117604 0)
(-0.0804359 0.129202 0)
(-0.0786081 0.139196 0)
(-0.078148 0.145771 0)
(-0.0790936 0.148294 0)
(-0.081302 0.149588 0)
(-0.0844901 0.150993 0)
(-0.0883881 0.15269 0)
(-0.0927755 0.154464 0)
(-0.0974764 0.155878 0)
(-0.102343 0.156423 0)
(-0.107221 0.15563 0)
(-0.111908 0.153128 0)
(-0.116111 0.148632 0)
(-0.119368 0.141865 0)
(-0.120843 0.132491 0)
(-0.118881 0.12147 0)
(-0.110836 0.113114 0)
(-0.0942246 0.108548 0)
(-0.0680147 0.108877 0)
(-0.03504 0.114575 0)
(0.0186153 0.121992 0)
(0.059446 0.11616 0)
(0.150824 0.105814 0)
(-0.249755 0.0595465 0)
)
;

boundaryField
{
    floor
    {
        type            noSlip;
    }
    ceiling
    {
        type            noSlip;
    }
    sWall
    {
        type            noSlip;
    }
    nWall
    {
        type            noSlip;
    }
    sideWalls
    {
        type            empty;
    }
    glass1
    {
        type            noSlip;
    }
    glass2
    {
        type            noSlip;
    }
    sun
    {
        type            noSlip;
    }
    Table_master
    {
        type            noSlip;
    }
    Table_slave
    {
        type            noSlip;
    }
    inlet
    {
        type            fixedValue;
        value           uniform (0.212132 -0.212132 0);
    }
    outlet
    {
        type            zeroGradient;
    }
}


// ************************************************************************* //
