/*--------------------------------*- C++ -*----------------------------------*=========                 |
  \      /  F ield         | OpenFOAM: The Open Source CFD Toolbox
   \    /   O peration     | Website:  https://openfoam.org
    \  /    A nd           | Version:  6
     \/     M anipulation  |
\*---------------------------------------------------------------------------*/
FoamFile
{
    version     2.0;
    format      ascii;
    class       volScalarField;
    location    "1300";
    object      PMV;
}
// * * * * * * * * * * * * * * * * * * * * * * * * * * * * * * * * * * * * * //

dimensions      [0 0 0 0 0 0 0];

internalField   nonuniform List<scalar> 
458
(
0.25932726402115613
-0.07942668655100242
-0.1279813222896855
-0.16548803844391743
-0.18394993114489708
-0.1835064792834887
-0.16068216718757897
-0.11190927683259815
-0.029073675610869144
0.09295052941037191
0.21405803964870498
0.24153114011849863
0.23365370737141786
0.22472705161531006
0.2367610474962061
0.5059618847184847
0.48368184107918416
0.48083766039985143
0.5016954086186406
0.5163912128256263
0.5253985435570987
0.5329837929945356
0.5321876092797483
0.5334677242831277
0.5376767826106991
0.5424341747215603
0.5480985513251083
0.5555203871858749
0.5656446459584988
0.5824651221515399
0.5984110754534787
0.6107387772932208
0.6406106900121546
0.0962536394585727
-0.0667626998610005
-0.079670489190715
-0.11657549901827752
-0.13362948551450526
-0.1341144648690936
-0.11623969518045431
-0.08391000563582106
-0.03669621364955123
0.03166708068958984
0.13589163505522556
0.2595321991886238
0.27611310439117104
0.24151114431466725
0.16332496418195797
0.12510754638358618
0.1529585846583319
0.20368183542170604
0.45285383888284597
0.4557148858526157
0.46519500223618515
0.49031833420880594
0.5135468277288282
0.517950008865381
0.5205336601093793
0.5237087768908534
0.5264837928115289
0.5289534202273708
0.5317903310997959
0.5350669574622587
0.5391970546690928
0.5458766858301162
0.5609553752704641
0.5718599476471025
0.5894025242301583
0.5760932442055232
0.08375480914470963
-0.09096655986408833
-0.03327327769809512
-0.0484540613598776
-0.05301027379187903
-0.0510752714499803
-0.04413745140679693
-0.05062279251066917
-0.06465563297831199
-0.04591800676064151
0.04614098111873631
0.19473778233734265
0.30191841205399494
0.31170358141821175
0.24778099372765344
0.22193246747494513
0.22106935435916683
0.2175100899908096
0.28838763729829664
0.3689376089244144
0.39464077288129784
0.43481560744557357
0.47498411543410446
0.48491120788471986
0.5185129469962354
0.5410432465744909
0.5419914259847292
0.5434136983819876
0.5457841610874733
0.5481546346127796
0.5505251188796177
0.5543179158529414
0.5647482456464107
0.5761270119669525
0.5904575806538266
0.464204176534467
0.14114557543927905
-0.1146232048218505
-0.003845320376427848
0.027292796802737187
0.061140463833147606
0.07943672607429887
0.06638197594620146
-0.0077793630046800195
-0.09441444042502077
-0.1109592177638002
-0.014040371679151103
0.14709963413698712
0.2943132571014702
0.36730815724949795
0.33497213958679317
0.28192660816992016
0.21422480876985
0.16294155523939263
0.10331589117348479
0.20899691519181335
0.29773186929528594
0.38197807103339243
0.4694007879766855
0.5503821475988835
0.6052276605109926
0.6234694199768372
0.6411406309522263
0.6658511567374824
0.6944271734547558
0.7251608298556181
0.7604112145267218
0.8052004952241367
0.8350365169281604
0.7297587172210487
0.657680903830686
0.5871319378977687
0.38772216500589385
0.23269462727441292
-0.1176757042141593
0.01692035573079525
0.0972021862164434
0.2068186512054559
0.28428650224338836
0.1941264460998732
0.024292310856858103
-0.12230975474092204
-0.15747792071858369
-0.053422777358787345
0.12956041142020974
0.3118145044960287
0.43343748208350213
0.4258539714639411
0.3770343103033103
0.2997794384119564
0.25104929107186963
0.2632377716657991
0.3165532784997106
0.4052960842188399
0.5126731872690724
0.6195463558280928
0.7164989240727044
0.794252767999434
0.8340880559345516
0.865861454572403
0.8909954662493642
0.9080674692187928
0.9185002774090154
0.9213455762979963
0.9166034084162245
0.9000057090940007
0.8298199814768672
0.7392429856378131
0.5931709533228522
0.560343013947489
0.6438377410008973
0.8143874983538821
0.6544744062791804
0.33534290929008603
-0.08902944971643391
0.06787620716771951
0.1522554996485267
0.2746918475877322
0.33912875104979195
0.2181427684216762
0.011368919516056846
-0.15108949647326367
-0.18976330075756254
-0.07062801420881645
0.1469677339248842
0.3725127059088542
0.5182874789870733
0.5206578222291862
0.4993251612370846
0.4745623728145453
0.44254314635952613
0.4717126816493188
0.5419489882351177
0.6408753513785183
0.7515726258701033
0.8255519074800974
0.8848305416481965
0.931778288745469
0.966869452811588
0.9929498737792795
1.0104943883602329
1.0209260491600316
1.0223485353142312
1.0147619060063817
0.9976916765974853
0.9682920417650415
0.9104385679939767
0.8282308121555277
0.6641697555149471
0.648590766040779
0.6500061478921235
0.7110617157786104
0.7493791684934121
0.44521328966757756
0.02182741546746803
0.2706293865344062
0.2510219415964426
0.3153248794548273
0.2828796648274706
0.14092766096367784
-0.04737815013357124
-0.20460069435343825
-0.22066110420609797
-0.05677326030452862
0.2176578864599211
0.5014981860888618
0.6311274051084806
0.6472490617038834
0.6311274051084806
0.6216442465250268
0.641084857476212
0.6989353420542977
0.774809492326833
0.8535314956265226
0.9260877283729936
0.9867854858575835
1.034202459104539
1.0678662490162605
1.0915717921385903
1.1072167657923593
1.1171723537011535
1.1209648937548597
1.115750141847285
1.0996313952397267
1.075452152441746
1.0413146998368543
0.9915273270990727
0.9269519601309665
0.794204544085096
0.7284780296450156
0.6849711963974295
0.6475240370669127
0.8107048133647239
0.6092200823351386
0.5181446825865229
0.4697074800011463
0.312080836485236
0.27109845982756636
0.20049250123101592
0.034334441354740314
-0.1759454960903971
-0.3064500232870576
-0.24525103956352515
0.018302330977972868
0.38594974754979
0.6899255961483152
0.7809744182066309
0.8008919632280077
0.7980465924102653
0.8075311691377287
0.8440468947946651
0.9090159091351776
0.9825178043772995
1.0455820016419102
1.0982091231947118
1.1394529913442595
1.1688423713187994
1.187801879471805
1.1991770266885022
1.205812327923997
1.2077081004315815
1.2034425948053393
1.1920676099874004
1.174056348587108
1.1475116165131032
1.113853851531922
1.0707109766398193
1.024245178516703
0.9754049525481626
0.9497982203692986
0.9588080744571778
0.8256861954775144
0.6377513841987449
0.8641033802096146
0.7452337149736447
0.5785115447768006
0.43011421463464217
0.31205640875802126
0.077391737296784
-0.24639683536834306
-0.4696483696444008
-0.4701693416336499
-0.20539087455509614
0.25684893486008437
0.6918223780278119
0.8895727928044872
0.9479706722167127
0.9520881175780413
0.966088821863083
0.9989824093015711
1.0484080913562772
1.1043854269486686
1.1512275499879938
1.1838387234484484
1.2041319633736887
1.2159432152567582
1.2221940892533047
1.2241368357398201
1.2225645787973192
1.2151000464751296
1.2015506284822868
1.1801150831644176
1.1518065713524448
1.1191537580376831
1.0830008888024574
1.0462524207648125
1.0094567183876952
0.9736873487253876
0.9462890658362274
0.9342182825958992
0.9349181988724728
0.9283966304448642
0.9133015568552735
3.0
3.0
-2.5627692753534133
-2.1822485126173063
-1.7152100648493387
-1.123359838368671
-0.4581113333367209
0.23205735332459385
0.7781290658637293
0.9350692204661617
0.9991682400331867
1.0306184157088296
1.054138171160646
1.0818213542469721
1.116686621777298
1.1580032918477632
1.1994181575690706
1.2347924389391998
1.2596767805257056
1.2747611600014952
1.28197414333555
1.2827828210774366
1.2777358242584105
1.26804667959234
1.252791657163824
1.2332408524664238
1.2095968341726897
1.1841601318935828
1.1595246260315217
1.1363616663653038
1.1159819786666216
1.0984624801675849
1.085705629617874
1.0839117616671388
1.10400329074113
1.1701120495295572
1.3494317367678397
1.1499562426229115
3.0
-2.1153029231945277
-1.2262355458349616
-0.48543972035601135
0.01654707228092929
0.3350300739483076
0.5898997595513874
0.8092009735580121
0.9704457748099665
1.0672705895924586
1.1212553981037037
1.1566043497190817
1.186575469469517
1.2155502801801235
1.2455928625702188
1.275613623979858
1.3029173294354142
1.3249484725186322
1.3393924657027183
1.3470412374809138
1.3482687384805605
1.3444919218375782
1.3370873691736465
1.325896514949009
1.3102220657197816
1.2899382175680898
1.2673415849977474
1.2448318134281118
1.2278048627132512
1.2146333500717474
1.2066466926156576
1.204007075838478
1.2033182424667115
1.2069338620921746
1.2226769921182563
1.276022136698258
1.2535955457647885
1.2003638518743192
-2.0928930804801475
-2.0608968275815633
-1.9427402112142695
-0.9373515274323518
-0.16179336746030232
0.3930989241660906
0.7389560620696772
0.9396325854109489
1.06523788778921
1.15580560510845
1.2230652267756819
1.2706447263672513
1.3061487013837585
1.3331975836585221
1.356598760704752
1.3772479635654213
1.3956659182284512
1.4120824822833409
1.4250820960592256
1.433312966992423
1.4354732043892076
1.431680512776908
1.4208932757266852
1.40238029729937
1.3767185518043177
1.3447590188809042
1.3114297631991692
1.278640657967484
1.2489983386490013
1.2254159980095019
1.209435465790931
1.2029037939349345
1.2084985976735774
1.2332891234567367
1.2860823830492119
1.2870896309006084
1.229339529476307
1.1849768576933573
1.1539911979461952
1.2017294306336403
)
;

boundaryField
{
    ".*"
    {
        type            zeroGradient;
    }
}


// ************************************************************************* //
