// -*- C++ -*-
// File generated by PyFoam - sorry for the ugliness

FoamFile
{
 version 2.0;
 format ascii;
 class volScalarField;
 location "1200";
 object T;
}

dimensions [ 0 0 0 1 0 0 0 ];

internalField nonuniform List<scalar> 458
(
  302.932
  302.595
  302.586
  302.588
  302.59
  302.592
  302.593
  302.594
  302.594
  302.594
  302.594
  302.591
  302.587
  302.582
  302.576
  302.326
  302.314
  302.313
  302.292
  302.178
  301.88
  301.824
  301.82
  301.825
  301.823
  301.821
  301.824
  301.833
  301.85
  301.877
  301.887
  301.876
  301.879
  303.166
  302.632
  302.601
  302.607
  302.614
  302.62
  302.625
  302.628
  302.631
  302.632
  302.631
  302.624
  302.613
  302.596
  302.573
  302.554
  302.536
  302.541
  302.348
  302.335
  302.331
  302.325
  302.258
  302.136
  302.045
  301.989
  301.941
  301.905
  301.884
  301.876
  301.877
  301.888
  301.964
  301.949
  301.911
  301.888
  303.388
  302.688
  302.628
  302.637
  302.651
  302.664
  302.676
  302.686
  302.693
  302.697
  302.696
  302.688
  302.67
  302.643
  302.608
  302.571
  302.537
  302.516
  302.387
  302.383
  302.392
  302.397
  302.387
  302.213
  302.141
  302.099
  302.068
  302.039
  302.012
  301.986
  301.958
  301.943
  302.103
  302
  301.94
  301.91
  303.593
  302.76
  302.659
  302.668
  302.689
  302.711
  302.732
  302.75
  302.765
  302.774
  302.776
  302.768
  302.747
  302.713
  302.669
  302.618
  302.564
  302.511
  302.472
  302.446
  302.45
  302.456
  302.459
  302.461
  302.464
  302.466
  302.471
  302.476
  302.482
  302.489
  302.492
  302.492
  302.489
  302.464
  302.382
  302.281
  302.243
  303.781
  302.848
  302.697
  302.694
  302.72
  302.749
  302.779
  302.808
  302.833
  302.851
  302.859
  302.855
  302.834
  302.799
  302.753
  302.7
  302.645
  302.593
  302.552
  302.523
  302.508
  302.5
  302.495
  302.491
  302.49
  302.491
  302.494
  302.498
  302.504
  302.51
  302.514
  302.516
  302.513
  302.501
  302.465
  302.402
  302.337
  302.338
  302.369
  302.49
  303.942
  302.957
  302.767
  302.726
  302.745
  302.776
  302.81
  302.846
  302.881
  302.911
  302.929
  302.931
  302.913
  302.879
  302.834
  302.781
  302.725
  302.672
  302.625
  302.589
  302.562
  302.543
  302.529
  302.519
  302.513
  302.511
  302.512
  302.515
  302.519
  302.524
  302.529
  302.534
  302.532
  302.522
  302.497
  302.456
  302.41
  302.383
  302.373
  302.397
  304.072
  303.134
  302.949
  302.844
  302.804
  302.812
  302.838
  302.871
  302.908
  302.948
  302.978
  302.986
  302.971
  302.94
  302.898
  302.849
  302.797
  302.746
  302.698
  302.655
  302.62
  302.592
  302.569
  302.552
  302.539
  302.531
  302.528
  302.528
  302.531
  302.535
  302.541
  302.548
  302.549
  302.539
  302.516
  302.482
  302.446
  302.416
  302.395
  302.41
  304.296
  303.589
  303.401
  303.22
  303.073
  302.987
  302.952
  302.949
  302.966
  302.997
  303.019
  303.019
  303.001
  302.97
  302.932
  302.89
  302.845
  302.801
  302.757
  302.714
  302.676
  302.643
  302.614
  302.589
  302.569
  302.554
  302.544
  302.54
  302.54
  302.542
  302.55
  302.56
  302.564
  302.558
  302.54
  302.506
  302.477
  302.454
  302.442
  302.592
  304.608
  304.305
  304.017
  303.77
  303.554
  303.387
  303.271
  303.195
  303.151
  303.12
  303.085
  303.046
  303.006
  302.966
  302.927
  302.889
  302.854
  302.819
  302.785
  302.752
  302.719
  302.687
  302.657
  302.629
  302.604
  302.581
  302.564
  302.553
  302.55
  302.547
  302.553
  302.569
  302.582
  302.59
  302.598
  302.606
  302.616
  302.638
  302.664
  302.735
  297.399
  301.163
  302.373
  302.76
  302.903
  302.956
  302.97
  302.966
  302.956
  302.938
  302.916
  302.891
  302.866
  302.842
  302.818
  302.796
  302.774
  302.752
  302.73
  302.707
  302.683
  302.658
  302.634
  302.611
  302.589
  302.572
  302.563
  302.552
  302.544
  302.562
  302.58
  302.594
  302.605
  302.615
  302.625
  302.637
  302.644
  302.646
  298.29
  301.042
  301.984
  302.42
  302.625
  302.72
  302.763
  302.779
  302.783
  302.783
  302.78
  302.774
  302.766
  302.758
  302.749
  302.74
  302.73
  302.72
  302.709
  302.697
  302.683
  302.668
  302.651
  302.633
  302.615
  302.598
  302.589
  302.565
  302.528
  302.537
  302.554
  302.573
  302.589
  302.6
  302.61
  302.618
  302.604
  302.629
  300.034
  299.974
  299.97
  301.583
  302.098
  302.396
  302.543
  302.603
  302.633
  302.649
  302.657
  302.663
  302.668
  302.672
  302.675
  302.677
  302.678
  302.679
  302.679
  302.679
  302.678
  302.676
  302.673
  302.669
  302.663
  302.655
  302.645
  302.635
  302.623
  302.586
  302.52
  302.524
  302.537
  302.552
  302.571
  302.581
  302.588
  302.59
  302.588
  302.619
)
;

boundaryField
{
  floor
  {
    type wallHeatTransfer;
    Tinf uniform 305.2;
    alphaWall uniform 0.24;
    value nonuniform List<scalar> 36
(
  302.895
  302.903
  302.831
  302.828
  302.874
  302.875
  302.805
  302.787
  302.767
  302.745
  302.74
  302.758
  302.792
  302.834
  302.821
  302.694
  302.591
  302.573
  302.621
  302.621
  302.48
  302.469
  302.591
  302.65
  302.699
  302.802
  302.895
  302.861
  302.855
  302.936
  302.903
  302.936
  302.813
  302.82
  302.743
  302.771
)
;
  }
  ceiling
  {
    type wallHeatTransfer;
    Tinf uniform 303.2;
    alphaWall uniform 0.24;
    value nonuniform List<scalar> 43
(
  300.228
  300.16
  300.147
  301.668
  302.16
  302.444
  302.585
  302.644
  302.675
  302.692
  302.702
  302.709
  302.716
  302.722
  302.728
  302.733
  302.737
  302.741
  302.744
  302.746
  302.748
  302.748
  302.746
  302.743
  302.737
  302.73
  302.721
  302.711
  302.703
  302.671
  302.603
  302.602
  302.61
  302.618
  302.629
  302.635
  302.64
  302.644
  302.645
  302.677
  304.545
  304.263
  298.538
)
;
  }
  sWall
  {
    type wallHeatTransfer;
    Tinf uniform 315.2;
    alphaWall uniform 0.36;
    value uniform 301.39;
  }
  nWall
  {
    type wallHeatTransfer;
    Tinf uniform 307.2;
    alphaWall uniform 0.36;
    value nonuniform List<scalar> 6
(
  303.261
  303.16
  303.077
  303.264
  303.239
  303.273
)
;
  }
  sideWalls
  {
    type empty;
  }
  glass1
  {
    type wallHeatTransfer;
    Tinf uniform 315.2;
    alphaWall uniform 4.3;
    value nonuniform List<scalar> 9
(
  312.182
  311.178
  310.535
  310.055
  309.692
  309.403
  309.172
  309.237
  309.474
)
;
  }
  glass2
  {
    type wallHeatTransfer;
    Tinf uniform 307.2;
    alphaWall uniform 4.3;
    value nonuniform List<scalar> 2
(
  305.443
  305.529
)
;
  }
  sun
  {
    type wallHeatTransfer;
    Tinf uniform 305.2;
    alphaWall uniform 0.24;
    value nonuniform List<scalar> 14
(
  303.256
  302.96
  302.968
  302.96
  302.953
  302.946
  302.94
  302.935
  302.93
  302.924
  302.919
  302.913
  302.907
  302.901
)
;
  }
  Table_master
  {
    type zeroGradient;
  }
  Table_slave
  {
    type zeroGradient;
  }
  inlet
  {
    type fixedValue;
    value uniform 292.15;
  }
  outlet
  {
    type zeroGradient;
  }
} 	// ************************************************************************* //

