/*--------------------------------*- C++ -*----------------------------------*\
  =========                 |
  \\      /  F ield         | OpenFOAM: The Open Source CFD Toolbox
   \\    /   O peration     | Website:  https://openfoam.org
    \\  /    A nd           | Version:  6
     \\/     M anipulation  |
\*---------------------------------------------------------------------------*/
FoamFile
{
    version     2.0;
    format      ascii;
    class       volScalarField;
    location    "200";
    object      k;
}
// * * * * * * * * * * * * * * * * * * * * * * * * * * * * * * * * * * * * * //

dimensions      [0 2 -2 0 0 0 0];

internalField   nonuniform List<scalar> 
458
(
0.00544715
0.00699778
0.0089459
0.008954
0.00818508
0.00741472
0.00669987
0.00605254
0.005465
0.00495523
0.00450109
0.00407316
0.0036466
0.00318761
0.00267887
0.000509066
0.000673874
0.000852322
0.00106338
0.0012572
0.00110735
0.000949667
0.000825883
0.00073017
0.000654759
0.000594459
0.000545262
0.000503726
0.000467069
0.000432019
0.000395331
0.000353951
0.00029449
0.00603269
0.00910684
0.0133107
0.0133329
0.0122877
0.010894
0.00953984
0.00836582
0.00738693
0.00655414
0.00583764
0.00520978
0.0046261
0.00402883
0.00324121
0.00291085
0.00244723
0.00182386
0.000473676
0.000651171
0.00116175
0.00157856
0.00188543
0.00166733
0.00133393
0.00107901
0.000901629
0.000775796
0.000686668
0.000625177
0.000579811
0.000528393
0.000477443
0.00043659
0.0004563
0.000326582
0.00575732
0.0119449
0.013945
0.0138414
0.0126088
0.0111027
0.00972284
0.00856156
0.00760496
0.00681955
0.00615445
0.00555808
0.00497921
0.0043699
0.00368285
0.00320716
0.00284782
0.00212449
0.000465445
0.00073285
0.00113678
0.00164409
0.00206498
0.00167929
0.00127686
0.000951863
0.00071252
0.000540732
0.000418103
0.000331121
0.000280631
0.000277992
0.000319498
0.000352267
0.000508578
0.000349108
0.00637314
0.0166546
0.0169747
0.0152148
0.0131268
0.0112722
0.00981052
0.00869202
0.0078252
0.00709982
0.0064452
0.00582099
0.00520222
0.00457274
0.00393501
0.00339082
0.00291463
0.00232094
0.00209355
0.00147367
0.00138217
0.00167403
0.00221662
0.00269549
0.00242845
0.00217016
0.0019654
0.00179327
0.00164184
0.00150461
0.00136615
0.00121767
0.0010526
0.000791435
0.000581956
0.000695308
0.000411509
0.0155435
0.0268485
0.0216896
0.0166474
0.0134755
0.0113632
0.00999924
0.00912058
0.00828386
0.00747554
0.00671239
0.00599638
0.00531751
0.00466538
0.00405115
0.00350381
0.00301675
0.00259107
0.00245227
0.002182
0.00224996
0.00273184
0.00336204
0.0037886
0.0037579
0.00353883
0.00336277
0.0032212
0.00304944
0.00280117
0.00247553
0.00208339
0.00165177
0.00120708
0.00084003
0.000748209
0.000573454
0.000578584
0.000729018
0.000912073
0.0171818
0.0402214
0.0202954
0.0123829
0.0104852
0.00926881
0.00869505
0.00833912
0.00772356
0.00707989
0.00645385
0.00584178
0.00524108
0.00466032
0.00412651
0.00365886
0.00327772
0.00305206
0.00307505
0.0032754
0.00386449
0.0046253
0.00514271
0.00519745
0.00487151
0.00451742
0.00425256
0.00399285
0.00367517
0.00329328
0.00285222
0.00237007
0.00188046
0.00142298
0.00105568
0.000843745
0.000701906
0.000661134
0.00116832
0.000975765
0.0170962
0.0358447
0.0126755
0.00732304
0.00716424
0.00659049
0.0064629
0.00644398
0.00643391
0.00624319
0.00594268
0.00556362
0.00514119
0.00471503
0.00431866
0.00400711
0.00385105
0.00399805
0.00458515
0.0054923
0.00639661
0.00687804
0.00683209
0.00632239
0.00561173
0.00501189
0.00456426
0.00417406
0.00378104
0.0033654
0.0029301
0.00248984
0.00206783
0.00168814
0.00138609
0.00118637
0.00108783
0.00113226
0.00150536
0.00128493
0.0157301
0.0253177
0.0123162
0.00650815
0.00555856
0.00532659
0.00536399
0.00546287
0.00557863
0.00562494
0.00557371
0.0054366
0.00525065
0.00506582
0.00493927
0.00492953
0.00517105
0.00586781
0.00690149
0.00781529
0.0082821
0.00805434
0.00729128
0.00632568
0.00543682
0.00477447
0.0042945
0.00390149
0.00354423
0.00321525
0.00292276
0.00267706
0.00248346
0.00234338
0.00226941
0.00244154
0.00291908
0.00374747
0.00780943
0.00294189
0.0139967
0.0162715
0.0181578
0.00918298
0.00518826
0.00488491
0.00503331
0.00521483
0.00538601
0.00554457
0.00566789
0.00575615
0.00583265
0.00593833
0.00612426
0.00644033
0.0069491
0.0076423
0.00825445
0.00846224
0.00815474
0.00742276
0.00647303
0.00554687
0.00478277
0.00419955
0.00373903
0.00334178
0.00298639
0.00268118
0.00245049
0.00232432
0.00232663
0.00246995
0.00276142
0.00320004
0.0037132
0.00416426
0.00442691
0.002834
0.0284918
0.0125421
0.00567044
0.00491714
0.00508614
0.00536339
0.00565497
0.00593117
0.00619709
0.00645834
0.00672088
0.00699669
0.00729517
0.00760866
0.00790362
0.00808617
0.00800402
0.00759633
0.00693396
0.00616246
0.00542196
0.00478933
0.00426782
0.00381818
0.00340155
0.00300334
0.00263671
0.00233257
0.00212526
0.00203879
0.00208238
0.0022553
0.00254716
0.00292073
0.00327949
0.00347181
0.00338511
0.00235894
0.00692632
0.00811083
0.00561152
0.00502031
0.00502411
0.0051587
0.0053376
0.00554089
0.00576449
0.00600115
0.00623823
0.00646735
0.00667901
0.00685663
0.00697352
0.00699027
0.00687046
0.0066206
0.00628773
0.00592866
0.0055833
0.00526341
0.00495718
0.0046449
0.00431282
0.0039605
0.00360154
0.00325896
0.00295976
0.00273106
0.00259768
0.00257734
0.00266838
0.00283222
0.00300617
0.00318856
0.00389502
0.00259885
0.00328432
0.0036028
0.00382739
0.0030403
0.0030136
0.00310696
0.00322206
0.00333526
0.0034456
0.00355709
0.00365469
0.00372704
0.00377207
0.00378671
0.00376655
0.00370624
0.00360085
0.00344824
0.00325461
0.00303827
0.0028221
0.0026248
0.00245445
0.0023084
0.00217911
0.00206007
0.00194902
0.00184806
0.00176201
0.00169647
0.0016563
0.00164519
0.00166616
0.00172197
0.00181283
0.0019271
0.00203235
0.00196435
0.0017929
0.00175474
)
;

boundaryField
{
    floor
    {
        type            kqRWallFunction;
        value           nonuniform List<scalar> 
36
(
0.00267887
0.000509066
0.000673874
0.000852322
0.00106338
0.0012572
0.00110735
0.000949667
0.000825883
0.00073017
0.000654759
0.000594459
0.000545262
0.000503726
0.000467069
0.000432019
0.000395331
0.000353951
0.00029449
0.00029449
0.000326582
0.000349108
0.000411509
0.000578584
0.000729018
0.000912073
0.00267887
0.00291085
0.00244723
0.00182386
0.000509066
0.00182386
0.000473676
0.00212449
0.000465445
0.00209355
)
;
    }
    ceiling
    {
        type            kqRWallFunction;
        value           nonuniform List<scalar> 
43
(
0.00328432
0.0036028
0.00382739
0.0030403
0.0030136
0.00310696
0.00322206
0.00333526
0.0034456
0.00355709
0.00365469
0.00372704
0.00377207
0.00378671
0.00376655
0.00370624
0.00360085
0.00344824
0.00325461
0.00303827
0.0028221
0.0026248
0.00245445
0.0023084
0.00217911
0.00206007
0.00194902
0.00184806
0.00176201
0.00169647
0.0016563
0.00164519
0.00166616
0.00172197
0.00181283
0.0019271
0.00203235
0.00196435
0.0017929
0.00175474
0.0139967
0.0162715
0.00692632
)
;
    }
    sWall
    {
        type            kqRWallFunction;
        value           uniform 0.00328432;
    }
    nWall
    {
        type            kqRWallFunction;
        value           nonuniform List<scalar> 6(0.000912073 0.000975765 0.00128493 0.00235894 0.00259885 0.00175474);
    }
    sideWalls
    {
        type            empty;
    }
    glass1
    {
        type            kqRWallFunction;
        value           nonuniform List<scalar> 9(0.00544715 0.00603269 0.00575732 0.00637314 0.0155435 0.0171818 0.0170962 0.0157301 0.0139967);
    }
    glass2
    {
        type            kqRWallFunction;
        value           nonuniform List<scalar> 2(0.00294189 0.002834);
    }
    sun
    {
        type            kqRWallFunction;
        value           nonuniform List<scalar> 
14
(
0.00544715
0.00699778
0.0089459
0.008954
0.00818508
0.00741472
0.00669987
0.00605254
0.005465
0.00495523
0.00450109
0.00407316
0.0036466
0.00318761
)
;
    }
    Table_master
    {
        type            kqRWallFunction;
        value           nonuniform List<scalar> 9(0.00167929 0.00127686 0.000951863 0.00071252 0.000540732 0.000418103 0.000331121 0.000280631 0.000277992);
    }
    Table_slave
    {
        type            kqRWallFunction;
        value           nonuniform List<scalar> 9(0.00242845 0.00217016 0.0019654 0.00179327 0.00164184 0.00150461 0.00136615 0.00121767 0.0010526);
    }
    inlet
    {
        type            turbulentIntensityKineticEnergyInlet;
        intensity       0.05;
        value           uniform 0.0003375;
    }
    outlet
    {
        type            zeroGradient;
    }
}


// ************************************************************************* //
