/*--------------------------------*- C++ -*----------------------------------*\
  =========                 |
  \\      /  F ield         | OpenFOAM: The Open Source CFD Toolbox
   \\    /   O peration     | Website:  https://openfoam.org
    \\  /    A nd           | Version:  6
     \\/     M anipulation  |
\*---------------------------------------------------------------------------*/
FoamFile
{
    version     2.0;
    format      ascii;
    class       volScalarField;
    location    "1800";
    object      k;
}
// * * * * * * * * * * * * * * * * * * * * * * * * * * * * * * * * * * * * * //

dimensions      [0 2 -2 0 0 0 0];

internalField   nonuniform List<scalar> 
458
(
0.00136625
0.00155045
0.00154502
0.00167023
0.00178605
0.00189214
0.00199165
0.00208862
0.00218857
0.00227388
0.00232724
0.00233681
0.00230068
0.00223783
0.00217124
0.000307216
0.000512085
0.00050628
0.000476296
0.000441493
0.000402105
0.000364848
0.000332195
0.000303973
0.000279636
0.000258531
0.000239941
0.000223222
0.000207686
0.000192498
0.000176372
0.000162524
0.000135175
0.0028941
0.00543729
0.00232897
0.00239819
0.00253475
0.00269168
0.00286418
0.00305672
0.0032673
0.00348145
0.00365324
0.00371917
0.00362349
0.00335233
0.00291772
0.00230657
0.00173583
0.00129947
0.000767308
0.000816274
0.000798706
0.000753522
0.000688707
0.000598906
0.000517593
0.000450959
0.000396564
0.000351402
0.000313208
0.000280355
0.000251506
0.000226937
0.000212266
0.000207503
0.000330657
0.000209527
0.00470414
0.0110539
0.00301328
0.00279005
0.00290645
0.00307597
0.00326796
0.00349451
0.00375973
0.0040498
0.00430639
0.00445682
0.00446748
0.0043835
0.00429596
0.00408502
0.00329721
0.00213603
0.0013066
0.00117169
0.00104954
0.00094384
0.00084596
0.000682343
0.000552286
0.000455348
0.000383143
0.000328785
0.000287321
0.000255312
0.000230635
0.000212376
0.000198086
0.000201502
0.000449765
0.000271143
0.00698003
0.0196664
0.00413199
0.00298415
0.0030279
0.00319425
0.00338355
0.00362011
0.00393274
0.00429911
0.00460922
0.00477135
0.00477242
0.00467283
0.00453317
0.00428559
0.00374648
0.00327775
0.00205184
0.00173845
0.00145612
0.00124033
0.00108281
0.00096337
0.000780875
0.000682791
0.000628809
0.000594376
0.000564485
0.000529505
0.00049361
0.000455437
0.000409966
0.000315692
0.000259326
0.000567583
0.000333496
0.00980918
0.0314923
0.00686471
0.00326524
0.00307721
0.00320471
0.00338819
0.00366604
0.00411819
0.00464267
0.00501674
0.0051546
0.00508696
0.00489559
0.00463741
0.00425983
0.00370646
0.00310858
0.00248173
0.00198791
0.00161816
0.0013459
0.00116889
0.00106433
0.00100962
0.00100072
0.00100689
0.00100515
0.000981655
0.000928458
0.000843951
0.000745392
0.000638791
0.000504798
0.000384144
0.000502103
0.00051432
0.000607124
0.000798011
0.000948713
0.0133033
0.044048
0.014059
0.00482426
0.00360887
0.00347045
0.00356623
0.00386557
0.00460848
0.00530766
0.00567103
0.00571293
0.00553084
0.00522415
0.00485203
0.00439237
0.00380401
0.00313391
0.00247874
0.00198007
0.00161993
0.00136526
0.00122027
0.00116307
0.00117076
0.00121528
0.00125997
0.00128496
0.00127791
0.00122653
0.00111515
0.000972713
0.000819177
0.000661846
0.000530288
0.000506745
0.000536557
0.000593677
0.00115773
0.000987887
0.0171834
0.0524596
0.0276688
0.0124249
0.00768007
0.00575445
0.00513602
0.00525812
0.00609963
0.00655938
0.00664558
0.00646108
0.00610064
0.00565802
0.00519102
0.00467129
0.00402796
0.00327551
0.00253759
0.00196983
0.00160827
0.00139462
0.0013043
0.00129245
0.00132674
0.0013872
0.00144859
0.00149882
0.00152929
0.00152652
0.00146578
0.0013134
0.00113188
0.000948087
0.000809191
0.000745172
0.000771193
0.000909101
0.00130836
0.0011955
0.0181272
0.0549003
0.0381015
0.0296356
0.0213045
0.01514
0.0116974
0.0101926
0.00928512
0.0086097
0.00800935
0.00737972
0.00672506
0.00610804
0.00555686
0.00499018
0.0042751
0.00341453
0.00257603
0.00194874
0.0016466
0.0015101
0.00146353
0.0014622
0.0014861
0.001527
0.00157908
0.00164187
0.00171764
0.00180775
0.00190766
0.00196817
0.00192609
0.00187098
0.00189561
0.00216405
0.00282841
0.0038853
0.00808493
0.0032044
0.0173133
0.0247903
0.0256022
0.0231814
0.0204728
0.017467
0.0148468
0.0128905
0.0113745
0.0102046
0.00914799
0.00809954
0.00715471
0.00641125
0.00584641
0.00526074
0.00442652
0.00340715
0.00251413
0.00204035
0.00183566
0.0017519
0.00171285
0.00168691
0.00166641
0.0016536
0.00165424
0.00167599
0.00172604
0.001809
0.00192554
0.00207247
0.00225429
0.0025114
0.00288691
0.00338006
0.00390029
0.00429613
0.00451078
0.00303915
0.0131394
0.0277727
0.0220505
0.018763
0.0163523
0.0144905
0.0128904
0.0112862
0.00963951
0.00810662
0.00702515
0.00640511
0.00603137
0.00545517
0.00434659
0.00327127
0.00268843
0.0024411
0.00234327
0.00228878
0.00222958
0.00214832
0.00204366
0.00192421
0.00180541
0.00170664
0.00164781
0.00164668
0.00171769
0.00186489
0.00207855
0.00236104
0.00271317
0.00309563
0.00340427
0.00351978
0.0034382
0.00238509
0.0109635
0.0248059
0.0205356
0.0175506
0.0153865
0.0134492
0.0116575
0.00979272
0.00785356
0.00645394
0.00625412
0.00653192
0.00683315
0.00645222
0.0055195
0.00469487
0.00423795
0.00402856
0.00393661
0.00387971
0.00380584
0.00368556
0.00350579
0.00326978
0.00299702
0.00271868
0.0024689
0.00227616
0.00215809
0.00214186
0.002235
0.00242928
0.00270241
0.00300235
0.00323756
0.00354392
0.00403391
0.00252764
0.00693355
0.00822451
0.00934095
0.0107297
0.0098163
0.00895813
0.00773796
0.00606688
0.00460829
0.00349616
0.00268497
0.00194851
0.00191477
0.00204646
0.0020976
0.00199588
0.00180121
0.00164104
0.00153042
0.00146978
0.00143218
0.00139681
0.00135546
0.00130657
0.00125361
0.00120356
0.00116492
0.00114545
0.0011509
0.00118553
0.00125438
0.0013492
0.00146772
0.00161386
0.00179005
0.00199928
0.00213341
0.00206424
0.00185412
0.00168046
)
;

boundaryField
{
    floor
    {
        type            kqRWallFunction;
        value           nonuniform List<scalar> 
36
(
0.00217124
0.000307216
0.000512085
0.00050628
0.000476296
0.000441493
0.000402105
0.000364848
0.000332195
0.000303973
0.000279636
0.000258531
0.000239941
0.000223222
0.000207686
0.000192498
0.000176372
0.000162524
0.000135175
0.000135175
0.000209527
0.000271143
0.000333496
0.000607124
0.000798011
0.000948713
0.00217124
0.00230657
0.00173583
0.00129947
0.000307216
0.00129947
0.000767308
0.00213603
0.0013066
0.00205184
)
;
    }
    ceiling
    {
        type            kqRWallFunction;
        value           nonuniform List<scalar> 
43
(
0.00693355
0.00822451
0.00934095
0.0107297
0.0098163
0.00895813
0.00773796
0.00606688
0.00460829
0.00349616
0.00268497
0.00194851
0.00191477
0.00204646
0.0020976
0.00199588
0.00180121
0.00164104
0.00153042
0.00146978
0.00143218
0.00139681
0.00135546
0.00130657
0.00125361
0.00120356
0.00116492
0.00114545
0.0011509
0.00118553
0.00125438
0.0013492
0.00146772
0.00161386
0.00179005
0.00199928
0.00213341
0.00206424
0.00185412
0.00168046
0.0173133
0.0247903
0.0109635
)
;
    }
    sWall
    {
        type            kqRWallFunction;
        value           uniform 0.00693355;
    }
    nWall
    {
        type            kqRWallFunction;
        value           nonuniform List<scalar> 6(0.000948713 0.000987887 0.0011955 0.00238509 0.00252764 0.00168046);
    }
    sideWalls
    {
        type            empty;
    }
    glass1
    {
        type            kqRWallFunction;
        value           nonuniform List<scalar> 9(0.00136625 0.0028941 0.00470414 0.00698003 0.00980918 0.0133033 0.0171834 0.0181272 0.0173133);
    }
    glass2
    {
        type            kqRWallFunction;
        value           nonuniform List<scalar> 2(0.0032044 0.00303915);
    }
    sun
    {
        type            kqRWallFunction;
        value           nonuniform List<scalar> 
14
(
0.00136625
0.00155045
0.00154502
0.00167023
0.00178605
0.00189214
0.00199165
0.00208862
0.00218857
0.00227388
0.00232724
0.00233681
0.00230068
0.00223783
)
;
    }
    Table_master
    {
        type            kqRWallFunction;
        value           nonuniform List<scalar> 9(0.000682343 0.000552286 0.000455348 0.000383143 0.000328785 0.000287321 0.000255312 0.000230635 0.000212376);
    }
    Table_slave
    {
        type            kqRWallFunction;
        value           nonuniform List<scalar> 9(0.000780875 0.000682791 0.000628809 0.000594376 0.000564485 0.000529505 0.00049361 0.000455437 0.000409966);
    }
    inlet
    {
        type            turbulentIntensityKineticEnergyInlet;
        intensity       0.05;
        value           uniform 0.0003375;
    }
    outlet
    {
        type            zeroGradient;
    }
}


// ************************************************************************* //
