/*--------------------------------*- C++ -*----------------------------------*\
  =========                 |
  \\      /  F ield         | OpenFOAM: The Open Source CFD Toolbox
   \\    /   O peration     | Website:  https://openfoam.org
    \\  /    A nd           | Version:  6
     \\/     M anipulation  |
\*---------------------------------------------------------------------------*/
FoamFile
{
    version     2.0;
    format      ascii;
    class       volScalarField;
    location    "2700";
    object      k;
}
// * * * * * * * * * * * * * * * * * * * * * * * * * * * * * * * * * * * * * //

dimensions      [0 2 -2 0 0 0 0];

internalField   nonuniform List<scalar> 
458
(
0.000967251
0.00103507
0.000953707
0.0010292
0.00110296
0.00117084
0.00123354
0.00129271
0.00135061
0.00141048
0.00146648
0.00151196
0.0015465
0.00157469
0.00159629
0.00030422
0.000444171
0.00046521
0.000312861
0.000200382
0.000122255
0.000103606
0.000103004
0.000109014
0.000106235
9.45399e-05
8.0852e-05
7.15558e-05
9.07699e-05
0.000157221
0.000238036
0.000245097
0.00020215
0.00254335
0.00487847
0.00143404
0.00141628
0.00147738
0.00155292
0.00163499
0.0017262
0.00182838
0.0019399
0.00205333
0.00214532
0.00218389
0.00212318
0.00194132
0.00180199
0.00167449
0.000841869
0.00052582
0.00101917
0.00093516
0.000880836
0.000695019
0.000483
0.000354112
0.00030208
0.000279992
0.000253289
0.000206211
0.000149306
0.000107076
0.00013304
0.000396903
0.000659558
0.000869508
0.000414681
0.00457857
0.0110358
0.00208678
0.00176921
0.00180193
0.00188249
0.001974
0.00207842
0.00219756
0.00232869
0.00246417
0.00257508
0.00263339
0.00261838
0.00253496
0.00240899
0.00219098
0.00192654
0.00128528
0.00195778
0.00150781
0.00129818
0.00115177
0.000531922
0.00036248
0.000284021
0.000235677
0.000200652
0.000171831
0.000145582
0.000122658
0.000172169
0.000914743
0.00127954
0.00118475
0.00048463
0.00717343
0.0204071
0.00320015
0.00206256
0.0020534
0.00215461
0.00226725
0.00238955
0.00252476
0.00267401
0.00283648
0.00297546
0.00306519
0.00309509
0.00305926
0.00294499
0.00273832
0.00241466
0.00204936
0.00198575
0.00162393
0.00134119
0.00118183
0.001085
0.00104476
0.00107445
0.00114458
0.00124884
0.0014032
0.00158526
0.00172521
0.00179811
0.00175699
0.00161355
0.00165159
0.00201108
0.00137609
0.0102643
0.0325145
0.00545405
0.00234828
0.00222577
0.00234791
0.0024979
0.00266284
0.00284496
0.0030469
0.0032643
0.00344502
0.0035648
0.00363278
0.00365982
0.00365158
0.00361255
0.00348948
0.00308746
0.002357
0.00183577
0.00157023
0.00151067
0.00156982
0.00168017
0.00182268
0.00202745
0.0022935
0.0026186
0.00299078
0.00328818
0.0034667
0.00345444
0.00319136
0.00270396
0.00240208
0.00217441
0.00186518
0.00158176
0.00167069
0.0138335
0.0444349
0.0104805
0.00306238
0.00246385
0.00253461
0.0027096
0.00292529
0.00316973
0.00344995
0.00374762
0.00393986
0.00402717
0.00405178
0.00404555
0.00402294
0.00396162
0.00375491
0.0032909
0.0026553
0.00210772
0.00179407
0.00169506
0.00172864
0.00184127
0.00203098
0.00230965
0.00266763
0.00308302
0.00352191
0.00392788
0.00426237
0.00445338
0.00450703
0.00417638
0.00359696
0.0031426
0.00280766
0.00236501
0.00190854
0.0178488
0.0521067
0.0212812
0.00709327
0.00385242
0.00323057
0.0032557
0.00347674
0.00376867
0.00413641
0.0044395
0.00452962
0.0044859
0.00438309
0.00426211
0.00414329
0.00401083
0.0037772
0.00336113
0.00281385
0.00230032
0.00195671
0.00180597
0.00180405
0.00191653
0.00214978
0.00250355
0.00295304
0.00345621
0.0039617
0.00442474
0.00482942
0.00519216
0.00557976
0.0060776
0.00609218
0.00562475
0.00466416
0.00392318
0.00259709
0.0189982
0.0599147
0.0363288
0.0233213
0.0139669
0.00860658
0.00635318
0.00566305
0.00556728
0.00563646
0.0054699
0.00520238
0.0049114
0.00462741
0.00435874
0.00410623
0.00386054
0.00358154
0.00321962
0.00278435
0.00235691
0.00202462
0.00184084
0.00181925
0.00194714
0.00224074
0.00269041
0.0032511
0.00385382
0.00442173
0.00490538
0.0053057
0.00568663
0.00616704
0.00686549
0.00774035
0.00805557
0.00756262
0.00824066
0.00288068
0.0181611
0.0265757
0.0239262
0.0209635
0.0174016
0.0137739
0.0108645
0.00887088
0.00761912
0.00676033
0.0060772
0.00551786
0.00504615
0.00463402
0.00426076
0.00391202
0.00357711
0.00324344
0.00289946
0.00254962
0.00222006
0.00194624
0.0017653
0.00171274
0.00182617
0.00216771
0.00271784
0.00342304
0.00419298
0.00488588
0.00538496
0.00562299
0.00558756
0.00532663
0.0049503
0.00463559
0.00444012
0.00441188
0.00442784
0.00349725
0.00844031
0.0119499
0.0128568
0.0119196
0.0103788
0.00890572
0.00770044
0.00674078
0.0059733
0.00534683
0.00481897
0.00435852
0.00394278
0.00355616
0.00318969
0.00284013
0.00250944
0.00220482
0.00193717
0.00171833
0.00156195
0.0014901
0.00154062
0.00176769
0.00220122
0.00284794
0.00371649
0.00470622
0.00578262
0.00695809
0.00819976
0.00939976
0.0102987
0.0104454
0.00998713
0.00940281
0.00658022
0.00406598
0.0075164
0.0135688
0.0135981
0.012147
0.0105445
0.00906483
0.00780829
0.00678137
0.00594072
0.00521865
0.00460389
0.00407665
0.00361689
0.00320825
0.00284008
0.00250811
0.00221418
0.00196474
0.00176804
0.0016313
0.00156022
0.00156117
0.00163299
0.00178435
0.00202928
0.00237318
0.00282984
0.00339098
0.00404919
0.00480175
0.00563604
0.00649958
0.00719745
0.00731922
0.00633637
0.00473532
0.0040417
0.00311339
0.00710024
0.00759732
0.00805711
0.00950155
0.00908392
0.00785167
0.00677004
0.00592139
0.00520061
0.00457427
0.00402554
0.00357267
0.00317706
0.00281868
0.00248704
0.00217731
0.00188851
0.00162255
0.00138336
0.00117578
0.00100395
0.00086976
0.000772395
0.000709675
0.000686262
0.000704452
0.000763753
0.000865792
0.00101089
0.00119171
0.00140045
0.00163206
0.00188845
0.00217728
0.00246043
0.00253334
0.00232714
0.00203121
0.00192611
0.00270398
)
;

boundaryField
{
    floor
    {
        type            kqRWallFunction;
        value           nonuniform List<scalar> 
36
(
0.00159629
0.00030422
0.000444171
0.00046521
0.000312861
0.000200382
0.000122255
0.000103606
0.000103004
0.000109014
0.000106235
9.45399e-05
8.0852e-05
7.15558e-05
9.07699e-05
0.000157221
0.000238036
0.000245097
0.00020215
0.00020215
0.000414681
0.00048463
0.00137609
0.00186518
0.00158176
0.00167069
0.00159629
0.00180199
0.00167449
0.000841869
0.00030422
0.000841869
0.00052582
0.00192654
0.00128528
0.00204936
)
;
    }
    ceiling
    {
        type            kqRWallFunction;
        value           nonuniform List<scalar> 
43
(
0.00710024
0.00759732
0.00805711
0.00950155
0.00908392
0.00785167
0.00677004
0.00592139
0.00520061
0.00457427
0.00402554
0.00357267
0.00317706
0.00281868
0.00248704
0.00217731
0.00188851
0.00162255
0.00138336
0.00117578
0.00100395
0.00086976
0.000772395
0.000709675
0.000686262
0.000704452
0.000763753
0.000865792
0.00101089
0.00119171
0.00140045
0.00163206
0.00188845
0.00217728
0.00246043
0.00253334
0.00232714
0.00203121
0.00192611
0.00270398
0.0181611
0.0265757
0.0075164
)
;
    }
    sWall
    {
        type            kqRWallFunction;
        value           uniform 0.00710024;
    }
    nWall
    {
        type            kqRWallFunction;
        value           nonuniform List<scalar> 6(0.00167069 0.00190854 0.00259709 0.00406598 0.00311339 0.00270398);
    }
    sideWalls
    {
        type            empty;
    }
    glass1
    {
        type            kqRWallFunction;
        value           nonuniform List<scalar> 9(0.000967251 0.00254335 0.00457857 0.00717343 0.0102643 0.0138335 0.0178488 0.0189982 0.0181611);
    }
    glass2
    {
        type            kqRWallFunction;
        value           nonuniform List<scalar> 2(0.00288068 0.00349725);
    }
    sun
    {
        type            kqRWallFunction;
        value           nonuniform List<scalar> 
14
(
0.000967251
0.00103507
0.000953707
0.0010292
0.00110296
0.00117084
0.00123354
0.00129271
0.00135061
0.00141048
0.00146648
0.00151196
0.0015465
0.00157469
)
;
    }
    Table_master
    {
        type            kqRWallFunction;
        value           nonuniform List<scalar> 9(0.000531922 0.00036248 0.000284021 0.000235677 0.000200652 0.000171831 0.000145582 0.000122658 0.000172169);
    }
    Table_slave
    {
        type            kqRWallFunction;
        value           nonuniform List<scalar> 9(0.00104476 0.00107445 0.00114458 0.00124884 0.0014032 0.00158526 0.00172521 0.00179811 0.00175699);
    }
    inlet
    {
        type            turbulentIntensityKineticEnergyInlet;
        intensity       0.05;
        value           uniform 0.000937498;
    }
    outlet
    {
        type            zeroGradient;
    }
}


// ************************************************************************* //
