/*--------------------------------*- C++ -*----------------------------------*=========                 |
  \      /  F ield         | OpenFOAM: The Open Source CFD Toolbox
   \    /   O peration     | Website:  https://openfoam.org
    \  /    A nd           | Version:  6
     \/     M anipulation  |
\*---------------------------------------------------------------------------*/
FoamFile
{
    version     2.0;
    format      ascii;
    class       volScalarField;
    location    "2700";
    object      PMV;
}
// * * * * * * * * * * * * * * * * * * * * * * * * * * * * * * * * * * * * * //

dimensions      [0 0 0 0 0 0 0];

internalField   nonuniform List<scalar> 
458
(
2.003428443479459
1.834003454138945
1.837954580426812
1.8241010539621691
1.812452754796934
1.8026166642058343
1.7952102473150406
1.790299480083226
1.7875158804002647
1.7877719384386244
1.792087413067449
1.8014952257331347
1.817936187757994
1.8339974888689003
1.819415788024094
1.769379501974737
1.7679439914193584
1.7708149899214636
1.7488017214470861
1.668842701272603
1.5763643071351552
1.557668944066972
1.5552719236270256
1.556230736611155
1.5557513309192732
1.5552719236270256
1.55671014070088
1.5619834794443672
1.5672566217698924
1.5754056317052052
1.5778023076991834
1.5730089138797545
1.57348826078058
2.0198021552493266
1.8334017977171815
1.8507656245410555
1.8339296136756726
1.8237452260519946
1.8157660992916644
1.8097176905502201
1.8060062145731566
1.8036499165504076
1.8034007711652946
1.8051195855137574
1.8082511308702047
1.811184231065027
1.8099173514358966
1.8020655852652998
1.8188548531152258
1.8447033753596673
1.8840494841123976
1.722728314000482
1.7789489914531345
1.7837333533881283
1.7851686116855296
1.7483231146469103
1.692310092388254
1.6511191545039496
1.6262058428690092
1.6060798462879569
1.5907436255730791
1.5830748465268714
1.5801989416362323
1.5811575833844131
1.5849920824337567
1.6127888697650274
1.6060798462879569
1.5893057630395167
1.5517728236771324
2.09396454377689
1.8287325035930733
1.8699245019535036
1.8523818839898585
1.847159050619635
1.8435706246263173
1.8410188866628274
1.8398702448826258
1.8395982472956192
1.8398055848528283
1.840220401765345
1.8387435654802975
1.833217026855554
1.821900147336405
1.8075002464328362
1.799051312550209
1.7860186464637193
1.7647998024116867
1.8143470451347412
1.8148252966147438
1.820564099421211
1.8239115499897658
1.820085881067513
1.7382718189032307
1.7014083175297259
1.681295414200796
1.6664477889457956
1.6535143884944676
1.6410586359846144
1.6286015777866436
1.6151848635225572
1.6075175239026902
1.6774639598596128
1.6290807191360925
1.6012874714442122
1.4760527777367078
2.1829955286644367
1.8344992751807858
1.887400431721732
1.8725487838190171
1.8739714180700222
1.8767349466091123
1.8802190951594246
1.8839207365616757
1.887317139495838
1.8894367450982403
1.8902090819392063
1.8862530412237062
1.8761949347977935
1.8591774646549457
1.8379464140101223
1.8146781984659357
1.7860559604542388
1.7561360955966498
1.7490317006339218
1.776100997694213
1.7955165196348721
1.8137133997237116
1.8153922902883541
1.8079839786711343
1.8172979165071657
1.8438644750098965
1.8459056332900834
1.8473398184487144
1.8497300685130018
1.8516422156900265
1.8530762951157427
1.828429829037708
1.8055344875425796
1.7847775177387213
1.7528070430014868
1.7218174427459985
1.7310916832501773
2.274423516252475
1.8544132173849501
1.9014069235277118
1.8907492665118864
1.900341014695656
1.910465604768695
1.922009380410398
1.9329627413397357
1.942038866508478
1.9485160687393142
1.9510809855220488
1.9469666773572956
1.9345220046630967
1.9151563963907534
1.8913537898284283
1.8658967905635977
1.8392460416238077
1.8175311651713153
1.8115415880936219
1.8164112388517184
1.8275748691905211
1.834526476956971
1.834268195227068
1.8321659905137107
1.8395453589154205
1.8526741218792466
1.8549883596010888
1.8559443740452388
1.8583343580679785
1.8607242674059534
1.8626361408724756
1.8626361408724756
1.8464717324121904
1.8218294253459242
1.7842100595767185
1.7378453925139157
1.7148415333847942
1.6801685337950103
1.6665595942064337
1.6326997286972842
2.358448922022419
1.8898663637807036
1.9252334445285575
1.9087544821417803
1.9222476855981354
1.940785899475248
1.9606130271532822
1.9815518496525026
2.0012646035590094
2.0162306501155642
2.0225598728045675
2.0156503831378187
1.9984970906296382
1.97514044356746
1.9498594773282203
1.9241198917984619
1.901234321619004
1.8842742018038114
1.8768023771973317
1.8765173320168111
1.8769793837738376
1.8737195293271727
1.8662494689706286
1.8595600665707717
1.857849261342094
1.859780534603697
1.8612022402811692
1.862158177017184
1.8645479661443876
1.8674156132998436
1.8693273173092706
1.8698052356910007
1.8678935438690065
1.8626361408724756
1.8354527168432742
1.7803004896618893
1.7459797554885448
1.7237685360269628
1.6872512053702187
1.7730634608073694
2.426968367836578
1.967501483879403
2.0205762469303647
1.951344768519336
1.944433681175708
1.9664166923878341
1.995686321681498
2.0305168933595694
2.0521185190950293
2.0683177838026814
2.082606988632171
2.075257632955499
2.0471459747418024
2.02075798319319
1.9957727463128558
1.9731269447711064
1.955215951537406
1.943366999106914
1.9393429493457601
1.9387475462994805
1.9319075710061113
1.915193149296686
1.8999078192396925
1.887008241695352
1.87649577110592
1.8698052356910007
1.8669376796907913
1.8620615916439305
1.8567601276510608
1.8528287093627633
1.849568342049149
1.848958622917564
1.8537102591617647
1.8697100809501344
1.8612022402811692
1.843515266392348
1.826080792274835
1.778632633765809
1.7144374485750389
1.712588671265727
2.547814500852354
2.246319576358572
2.2152099977696795
2.094413206760395
2.040097531508309
2.025785368787188
2.0322112258530067
2.0442039859526697
2.0564576826398677
2.0563828966379334
2.0533074619923792
2.0460632209705314
2.032985235486816
2.017218351334753
2.000997522543828
1.9867628716150545
1.9767255225315448
1.9718852853321478
1.9719674359983868
1.969618721624495
1.9538686715336684
1.9381147194745743
1.9204466989584046
1.9042071572757278
1.889875015312516
1.8788851015143617
1.872672681752601
1.870460923911141
1.8546447696069435
1.8404520943357634
1.826958627495811
1.8151568755790957
1.8055092949287963
1.7979081051406165
1.7947814284790387
1.7992734263877193
1.8203104792678901
1.8468617596504404
1.7726529017631905
1.6379150113642085
2.7190425864709122
2.564382031129877
2.4491195374243424
2.3188350045683115
2.2069869806647735
2.1298354960363555
2.0814497421440543
2.0536295773001556
2.0392152461636828
2.0309116180427678
2.0188249067051123
2.004136153488917
1.9892106383770747
1.9757620981122863
1.964726601229785
1.9573414695927034
1.9532152709799928
1.9527225639308847
1.955253787101253
1.9597778606922427
1.9643691456820054
1.9524366535682325
1.9385921681777292
1.9237896552986493
1.90755090435065
1.891308359321228
1.8798408119460226
1.8745842510845552
1.8745842510845552
1.8480179932057985
1.8215278556007173
1.7981716911453327
1.7779493338285695
1.7610039790237524
1.746878915162029
1.7361511445372075
1.7291469386090255
1.7269510759366866
1.7206037355432147
1.6904059302298153
0.6415198568283413
1.214162563305359
1.606199228644661
1.7932948691207558
1.874825980976789
1.907808266768457
1.9201829015767602
1.9219874016597407
1.9217609307532484
1.9185066664563597
1.9148577257571302
1.911401924732534
1.9091690987716472
1.9090705719057306
1.9108990622428181
1.9147951084790353
1.920684503120907
1.9269484082422201
1.9331552238773233
1.9387911568242715
1.9437443028162973
1.9342950049166654
1.9218794147729776
1.90755090435065
1.8932194401056235
1.8822300334971878
1.875540017270328
1.8736284725711545
1.8745842510845552
1.8769736433853075
1.8803186624937265
1.8711224387159382
1.8616443880121882
1.8521092975494768
1.848910662710346
1.8618976135610246
1.806703276507829
1.7582514974963268
0.645425295200335
1.2684684325076252
1.5654375186423501
1.7159563624696625
1.7868672213738297
1.8162848963220557
1.8281142209697725
1.8319826316476684
1.8338920945177108
1.8372895944806231
1.841227335985293
1.8464285974758015
1.853092984201077
1.860843416974091
1.8697373523745007
1.8791827670994161
1.8884706882723643
1.8968462718008494
1.9037004301102451
1.9087405531430133
1.911615656747996
1.912974807491993
1.9133985402855662
1.913151600661158
1.9046848452361769
1.893697202325123
1.8841413544640668
1.8769736433853075
1.8731505786985985
1.8712389725019012
1.870761063290109
1.8721947817359272
1.8741063633673973
1.8769736433853075
1.87649577110592
1.8088897790399452
1.7751443745827165
1.814728530990216
0.9912251865151045
0.9649183883518461
1.0050701937942703
1.38181394771155
1.6156538850866886
1.7877515051497344
1.8111520276257653
1.7982186809156657
1.7890802561624681
1.78502935656381
1.785314905959193
1.789790207668516
1.797760415231193
1.8079301440157758
1.8202437567578214
1.8336013141513
1.8472298416670625
1.8600123126009667
1.8703548511170314
1.8764403949977149
1.876613902120928
1.8722979815343601
1.8644594065318354
1.8563548681489985
1.8501054142211142
1.8467342755055576
1.845492867052372
1.8444612651531713
1.84242326969414
1.8384766289940302
1.8333177338576374
1.8269247067850527
1.8207489190320225
1.8144235998799334
1.8080808476981494
1.8022305613667389
1.803337239752399
1.7919579206643297
1.8720832142551893
1.6817078191550938
)
;

boundaryField
{
    ".*"
    {
        type            zeroGradient;
    }
}


// ************************************************************************* //
