/*--------------------------------*- C++ -*----------------------------------*\
  =========                 |
  \\      /  F ield         | OpenFOAM: The Open Source CFD Toolbox
   \\    /   O peration     | Website:  https://openfoam.org
    \\  /    A nd           | Version:  6
     \\/     M anipulation  |
\*---------------------------------------------------------------------------*/
FoamFile
{
    version     2.0;
    format      ascii;
    class       surfaceScalarField;
    location    "300";
    object      phi;
}
// * * * * * * * * * * * * * * * * * * * * * * * * * * * * * * * * * * * * * //

dimensions      [1 0 -1 0 0 0 0];

internalField   nonuniform List<scalar> 
850
(
-0.00254622
0.00261545
-0.00272719
0.000181084
-0.00301933
0.000292245
-0.00336452
0.000345304
-0.00369356
0.000329149
-0.00397452
0.000281073
-0.00418554
0.000211129
-0.00430634
0.000120918
-0.00431596
9.73177e-06
-0.0041901
-0.00012575
-0.00390533
-0.000284654
-0.0034447
-0.000460524
-0.00277307
-0.00067152
-0.00174037
-0.00103258
-0.00173722
-0.00048245
0.000488245
-0.000273264
-0.000209055
3.84329e-05
-0.000311564
9.44755e-05
-5.58924e-05
-8.83051e-05
0.000182955
-0.000342394
0.000254207
-0.00048928
0.000146995
-0.000512304
2.31319e-05
-0.000452257
-5.99386e-05
-0.00034643
-0.000105717
-0.000206021
-0.0001403
-7.60524e-07
-0.000205152
0.000320532
-0.000321184
0.000617933
-0.000297294
0.000750145
-0.000132105
0.000863857
-0.000113612
0.000846593
1.73583e-05
0.000853734
-0.00186703
0.00466111
-0.00246424
0.000778404
-0.00294209
0.0007702
-0.00334583
0.000749163
-0.00370503
0.000688453
-0.00401142
0.000587583
-0.00425079
0.000450604
-0.00440687
0.000277109
-0.00446298
6.59577e-05
-0.00440633
-0.000182289
-0.00422664
-0.000464233
-0.00391146
-0.000775591
-0.00345453
-0.00112834
-0.00295724
-0.00152975
-0.00292383
-0.00177052
-0.0013082
-0.0016098
0.000327184
-0.00162932
0.000345646
0.000890478
-0.000389159
0.000728723
-4.71773e-05
0.000501473
-8.41923e-05
0.000665842
-0.000220139
0.000800707
4.82083e-05
0.000638492
0.00041654
0.000529552
0.000256053
0.000443992
0.000108808
0.00036068
2.34885e-05
0.000298026
-4.29497e-05
0.000266665
-0.000108827
0.00025534
-0.000193716
0.00026718
-0.000332915
0.00033317
-0.000363179
0.000320163
-0.000118998
0.00051764
-0.000311007
0.000475617
5.94658e-05
0.0013455
-0.00139154
0.00631722
-0.00215101
0.00153798
-0.00268418
0.00130348
-0.00309588
0.00116097
-0.00345624
0.00104892
-0.00376782
0.000899281
-0.00402107
0.000703962
-0.00420287
0.000459014
-0.00429953
0.000162726
-0.00430091
-0.000180794
-0.00420386
-0.000561178
-0.00401677
-0.000962565
-0.00377724
-0.00136776
-0.00357327
-0.00173361
-0.00339551
-0.00194817
-0.00298541
-0.00201979
-0.00249994
-0.00211468
-0.00214018
-0.000889145
0.000516043
-0.00102154
8.53341e-05
-0.0009021
-0.000203518
-0.000611243
-0.000510884
0.000300382
-0.000863306
0.000717198
0.000973528
0.00108261
0.00110638
0.0010637
0.000955144
0.000761697
0.00042905
6.61279e-05
0.000221671
-0.000274462
-0.000431125
0.000341849
-0.000994735
0.000623156
0.000375434
-0.00104585
0.0076974
-0.00184598
0.00233822
-0.00231396
0.00177157
-0.00268307
0.0015302
-0.00300832
0.00137428
-0.00329365
0.00118472
-0.00353321
0.000943635
-0.00371634
0.000642249
-0.0038295
0.000275994
-0.00386029
-0.000149895
-0.00381041
-0.000610949
-0.00370723
-0.00106564
-0.00360125
-0.00147363
-0.00354419
-0.00179055
-0.00351946
-0.0019728
-0.00349852
-0.00204062
-0.00361258
-0.00200051
-0.00422047
-0.00153218
-0.00341703
-0.000787684
-0.00263959
-0.00026129
-0.00235802
-0.000196127
-0.0021993
-0.000362128
-0.00216476
-0.00054532
-0.00242826
-0.000599694
-0.00200587
-0.00042244
-0.00161572
-0.000390197
-0.0011858
-0.000429974
-0.000675493
-0.000510357
-5.53691e-05
-0.000620176
0.000660992
-0.000716413
0.00140163
-0.000740692
0.00208613
-0.000684555
0.00257444
-0.000488357
0.00238817
-8.81029e-05
0.00211438
0.000615733
0.00154183
0.0011958
0.00193937
-0.000781658
0.00887215
-0.00156988
0.00312655
-0.00187148
0.00207327
-0.0021539
0.00181273
-0.00241127
0.00163175
-0.00263541
0.00140897
-0.00282352
0.00113185
-0.00296948
0.00078832
-0.00306124
0.000367864
-0.00308203
-0.000129005
-0.00303469
-0.000658181
-0.00295967
-0.00114056
-0.00290481
-0.00152839
-0.00289908
-0.00179617
-0.00293514
-0.00193663
-0.00301313
-0.00196253
-0.00317016
-0.00184337
-0.00323527
-0.00146697
-0.00303817
-0.000984672
-0.00266299
-0.000636366
-0.00234075
-0.000518251
-0.00214278
-0.000559998
-0.00204851
-0.000639482
-0.00198356
-0.000664533
-0.0017653
-0.0006406
-0.00148641
-0.000668984
-0.00116026
-0.000756018
-0.000777288
-0.000893226
-0.000330796
-0.00106656
0.000185053
-0.00123216
0.000762006
-0.00131754
0.00135269
-0.00127514
0.00189216
-0.00102773
0.00228031
-0.000476149
0.00254448
0.00035166
0.00268095
0.00105942
0.00348609
0.00113434
0.00303467
0.000472533
0.00229276
0.000763915
0.00237405
-0.000718953
0.0100351
-0.00143598
0.00384368
-0.00138126
0.00201866
-0.00149675
0.00192833
-0.00167887
0.00181397
-0.00182339
0.0015536
-0.00192362
0.00123218
-0.00198741
0.000852214
-0.0020117
0.000392261
-0.00198073
-0.00015987
-0.00190701
-0.000731796
-0.00184063
-0.00120684
-0.00181918
-0.00154973
-0.00185598
-0.00175927
-0.00194421
-0.0018483
-0.00207637
-0.00183026
-0.00222842
-0.00169121
-0.00228353
-0.00141176
-0.00219539
-0.0010727
-0.00201477
-0.000816881
-0.00183899
-0.000693928
-0.00172214
-0.000676741
-0.00165793
-0.000703595
-0.00159415
-0.000728202
-0.00148086
-0.000753793
-0.00132868
-0.000821056
-0.00114484
-0.000939761
-0.000929494
-0.00110847
-0.000683126
-0.00131283
-0.000398398
-0.00151679
-4.8826e-05
-0.00166701
0.000371141
-0.00169501
0.000856122
-0.00151261
0.00142471
-0.00104464
0.0020323
-0.000255832
0.00259229
0.000499534
0.00300822
0.000718497
0.00276466
0.000716196
0.00184281
0.00168587
0.0042783
-0.000954657
0.0114797
-0.0011745
0.00406363
-0.000525513
0.00136979
-0.000444906
0.00184783
-0.000635624
0.0020048
-0.000760665
0.00167875
-0.000774616
0.00124624
-0.000726385
0.000804087
-0.000630576
0.000296554
-0.000513377
-0.000276966
-0.000418035
-0.000827036
-0.000383228
-0.00124154
-0.000422132
-0.00151073
-0.000528801
-0.0016525
-0.000687826
-0.00168917
-0.000879148
-0.00163884
-0.0010645
-0.00150576
-0.00118166
-0.00129449
-0.00120509
-0.00104916
-0.00116869
-0.00085318
-0.00112399
-0.00073853
-0.00110358
-0.000697044
-0.00110812
-0.000698953
-0.00111636
-0.000719865
-0.00111135
-0.000758698
-0.00109879
-0.000833518
-0.0010861
-0.000952353
-0.00107769
-0.00111677
-0.0010739
-0.00131653
-0.0010647
-0.00152588
-0.00102625
-0.00170537
-0.000924992
-0.00179616
-0.000716648
-0.00172085
-0.000346859
-0.00141433
0.0002648
-0.000867395
0.0010012
-0.000236763
0.00165568
6.41101e-05
0.00209573
0.000276251
0.00175102
0.00203067
0.00609379
0.0020016
0.0100249
0.00243683
0.0036285
0.00238035
0.00142637
0.00200409
0.0022242
0.00153337
0.00247562
0.00123506
0.00197717
0.00113831
0.00134309
0.00117416
0.000768349
0.00130515
0.000165662
0.00144013
-0.000411848
0.00146578
-0.00085258
0.00138276
-0.00115842
0.00121753
-0.00134541
0.00099568
-0.00143055
0.000737913
-0.00143131
0.000464288
-0.00136512
0.000204628
-0.001246
-2.77103e-06
-0.001087
-0.000137274
-0.000914562
-0.000218669
-0.000771687
-0.000281194
-0.000675907
-0.000348407
-0.000629732
-0.00042683
-0.000620432
-0.000513303
-0.000633294
-0.000608625
-0.000663279
-0.000724971
-0.000717075
-0.000878191
-0.000799034
-0.00108358
-0.000911282
-0.0013533
-0.00104671
-0.00168846
-0.00119062
-0.00206708
-0.00132665
-0.00244149
-0.00142166
-0.00274641
-0.00141584
-0.00291994
-0.0012407
-0.00294038
-0.000846862
-0.00289833
-0.000278717
-0.00308882
0.000254697
-0.00348571
0.000673234
-0.00311057
0.00165562
0.00334903
0.0106335
0.0142606
0.0120227
0.00366436
0.00960019
0.00464684
0.00775651
0.00431939
0.00647019
0.00326359
0.00559966
0.00221372
0.00504476
0.00132335
0.00461112
0.000599401
0.00418015
1.92203e-05
0.0037554
-0.000427733
0.00333868
-0.000741599
0.00292898
-0.000935609
0.00252779
-0.00102926
0.00214036
-0.00104379
0.00177463
-0.000999289
0.00144251
-0.000913796
0.00115988
-0.000804272
0.000935861
-0.000690445
0.00075858
-0.000594311
0.000610485
-0.000527717
0.000474275
-0.000493427
0.000339164
-0.000485226
0.000198238
-0.000492274
4.03054e-05
-0.000505252
-0.000152403
-0.000524272
-0.000400854
-0.000550487
-0.00073376
-0.000578278
-0.00119398
-0.000586386
-0.0018312
-0.000553301
-0.00267021
-0.000487533
-0.00369246
-0.00039931
-0.0048418
-0.0002664
-0.0060207
-6.17014e-05
-0.00713461
0.000267135
-0.00817429
0.000761058
-0.00930146
0.00138196
-0.0104174
0.00178922
-0.00886881
0.000107177
-0.00512721
0.00369255
0.00430308
0.00412109
0.00421835
0.00517072
0.00326984
0.00552885
0.00290555
0.00556553
0.00217712
0.00551476
0.00137421
0.00540073
0.000713526
0.00519067
0.000229376
0.00486982
-0.000106797
0.00447211
-0.00034379
0.00403615
-0.00049956
0.00359276
-0.000585775
0.00316505
-0.000615988
0.00276899
-0.000603135
0.00241464
-0.000559357
0.0021074
-0.000496942
0.0018468
-0.000429751
0.00162497
-0.000372395
0.00143237
-0.00033502
0.00125939
-0.000320355
0.00109764
-0.000323382
0.000939103
-0.000333649
0.000773992
-0.00034005
0.000589719
-0.000339909
0.000381453
-0.00034213
0.000152982
-0.000349714
-0.00010417
-0.000329137
-0.000414334
-0.000243039
-0.000780286
-0.000121481
-0.00115904
-2.04523e-05
-0.00153463
0.000109282
-0.00194045
0.000344223
-0.00237364
0.000700425
-0.00269627
0.00108378
-0.00253041
0.00121619
-0.00121964
0.000478556
0.0002218
-0.00133416
-0.0048209
-0.000791661
0.00513027
0.00123335
0.0021934
0.00246468
0.00203858
0.00341082
0.00195949
0.00416691
0.00142111
0.00464408
0.000897122
0.00486149
0.000496205
0.00487537
0.000215582
0.00474297
2.569e-05
0.0045132
-0.000113936
0.00421921
-0.000205479
0.00389218
-0.000258653
0.00355748
-0.000281199
0.00323461
-0.000280184
0.00293788
-0.00026254
0.00267631
-0.000235278
0.00245264
-0.000205999
0.00226286
-0.000182526
0.00209817
-0.000170244
0.00194782
-0.000169918
0.00180213
-0.000177604
0.00165456
-0.000185985
0.00150169
-0.000187096
0.00134215
-0.000180274
0.00117857
-0.000178461
0.00101872
-0.00018977
0.000869904
-0.000180233
0.000736567
-0.000109608
0.000626185
-1.10037e-05
0.000523008
8.28179e-05
0.000451238
0.000181146
0.000455458
0.0003401
0.00060035
0.000555631
0.000957493
0.00072674
0.00150998
0.000663807
0.0018559
0.000132729
0.0015155
-0.000993657
-0.00321243
-0.00776407
-0.0100099
-0.00484759
-0.00263472
-0.000579665
0.00139469
0.0028306
0.00374292
0.00425494
0.0044871
0.00453021
0.00443452
0.00424812
0.00400937
0.00374894
0.00349039
0.00325035
0.00303836
0.00285636
0.00269834
0.00255293
0.00240796
0.00225529
0.00209415
0.00193181
0.00177621
0.00162235
0.00145707
0.00130107
0.00121529
0.00122764
0.00133312
0.00153613
0.00189704
0.00247231
0.00321781
0.00390015
0.00405212
0.00307879
)
;

boundaryField
{
    floor
    {
        type            calculated;
        value           nonuniform List<scalar> 
36
(
0
0
0
0
0
0
0
0
0
0
0
0
0
0
0
0
0
0
0
-7.04917e-06
-1.60541e-05
-2.45858e-05
-2.20047e-05
-2.10152e-05
-2.1907e-05
-2.33297e-05
-3.04708e-06
-5.71152e-06
-5.95412e-06
-7.30941e-06
-5.666e-06
-1.10412e-05
-1.29507e-05
-1.39995e-05
-1.59403e-05
-1.56455e-05
)
;
    }
    ceiling
    {
        type            calculated;
        value           nonuniform List<scalar> 
43
(
-3.49473e-05
-3.35069e-05
-3.20238e-05
-1.94092e-05
-1.63962e-05
-1.4783e-05
-1.47234e-05
-1.51133e-05
-1.57331e-05
-1.64906e-05
-1.73378e-05
-1.81651e-05
-1.89882e-05
-1.98261e-05
-2.06835e-05
-2.15521e-05
-2.24084e-05
-2.3212e-05
-2.39063e-05
-2.44307e-05
-2.47462e-05
-2.48635e-05
-2.4843e-05
-2.47603e-05
-2.46697e-05
-2.45906e-05
-2.45143e-05
-2.43978e-05
-2.41539e-05
-2.37385e-05
-2.32594e-05
-2.25758e-05
-2.17816e-05
-2.07226e-05
-1.95499e-05
-1.86689e-05
-1.84388e-05
-1.91452e-05
-2.02376e-05
-2.15688e-05
3.66234e-06
1.47064e-06
-3.55216e-05
)
;
    }
    sWall
    {
        type            calculated;
        value           uniform -0.000231145;
    }
    nWall
    {
        type            calculated;
        value           nonuniform List<scalar> 6(-5.7866e-05 -6.13541e-05 -6.43674e-05 -8.44037e-05 -9.28694e-05 -0.000111977);
    }
    sideWalls
    {
        type            empty;
        value           nonuniform 0();
    }
    glass1
    {
        type            calculated;
        value           nonuniform List<scalar> 9(-6.91233e-05 -0.000178518 -0.000264471 -0.000334225 -0.000392998 -0.000443929 -0.000489805 -0.000546703 -0.0006122);
    }
    glass2
    {
        type            calculated;
        value           nonuniform List<scalar> 2(-0.000365717 -0.000392486);
    }
    sun
    {
        type            calculated;
        value           uniform 0;
    }
    Table_master
    {
        type            calculated;
        value           nonuniform List<scalar> 9(-1.55415e-07 -1.55484e-07 -1.55526e-07 -1.55573e-07 -1.55623e-07 -1.55686e-07 -1.55773e-07 -1.55887e-07 -1.55952e-07);
    }
    Table_slave
    {
        type            calculated;
        value           nonuniform List<scalar> 9(1.54346e-07 1.54489e-07 1.54608e-07 1.54737e-07 1.54891e-07 1.54862e-07 1.54628e-07 1.54403e-07 1.54247e-07);
    }
    inlet
    {
        type            calculated;
        value           uniform -0.00433127;
    }
    outlet
    {
        type            calculated;
        value           nonuniform List<scalar> 2(0.0080302 0.0022794);
    }
}


// ************************************************************************* //
