/*--------------------------------*- C++ -*----------------------------------*\
  =========                 |
  \\      /  F ield         | OpenFOAM: The Open Source CFD Toolbox
   \\    /   O peration     | Website:  https://openfoam.org
    \\  /    A nd           | Version:  6
     \\/     M anipulation  |
\*---------------------------------------------------------------------------*/
FoamFile
{
    version     2.0;
    format      ascii;
    class       surfaceScalarField;
    location    "700";
    object      phi;
}
// * * * * * * * * * * * * * * * * * * * * * * * * * * * * * * * * * * * * * //

dimensions      [1 0 -1 0 0 0 0];

internalField   nonuniform List<scalar> 
850
(
-0.00334178
0.00340177
-0.0048199
0.00147805
-0.00595255
0.00113258
-0.00678926
0.000836647
-0.00728724
0.000497916
-0.00738964
0.000102335
-0.00702044
-0.000369265
-0.00610135
-0.000919155
-0.00461483
-0.00148658
-0.00266071
-0.00195418
-0.000491626
-0.00216915
0.00129187
-0.00178356
0.00200653
-0.000714716
0.00175106
0.000255406
0.00175303
-0.00102426
0.00102702
-0.000934973
-8.93919e-05
-0.000226426
-0.000708649
0.000582885
-0.000809405
0.00125388
-0.000671093
0.00164435
-0.000390563
0.00181813
-0.000173871
0.00191291
-9.48845e-05
0.00197738
-6.45656e-05
0.00202093
-4.36512e-05
0.00204832
-2.74968e-05
0.00205936
-1.11548e-05
0.002043
1.62525e-05
0.00197038
7.2509e-05
0.00179292
0.000177338
0.00147289
0.000319909
0.000974088
0.000498684
0.000977293
-0.00247784
0.00604436
-0.0038768
0.00287695
-0.00503977
0.00229548
-0.00590314
0.00169995
-0.00644057
0.00103529
-0.0066021
0.000263795
-0.00632159
-0.000649835
-0.00553725
-0.00170356
-0.00426294
-0.00276095
-0.00267078
-0.0035464
-0.00105754
-0.00378244
0.000380963
-0.00322211
0.00136637
-0.00170019
0.00201938
-0.000397664
0.00308925
0.000683101
0.00236166
0.000730986
0.00142869
0.00093676
0.00143968
-0.00010423
0.0011399
0.000370167
-0.000563902
0.000883933
-0.00122251
0.00132763
-0.00125319
0.0016924
-0.00103595
0.00178159
-0.000479845
0.00179555
-0.000187916
0.00181192
-0.000111352
0.00182608
-7.88184e-05
0.00183535
-5.30232e-05
0.00184137
-3.36151e-05
0.001844
-1.38972e-05
0.00183788
2.22624e-05
0.0017897
0.000120578
0.0015998
0.00036712
0.00125743
0.000662161
0.000778587
0.0009774
0.00176505
-0.00177801
0.00807803
-0.00296049
0.00405935
-0.00403504
0.00336996
-0.00484593
0.00251077
-0.0053912
0.0015805
-0.00561691
0.000489427
-0.00544009
-0.000826719
-0.00479045
-0.00235326
-0.00370716
-0.00384431
-0.00239503
-0.00485859
-0.00111097
-0.00506655
1.19906e-05
-0.00434513
0.000947469
-0.00263572
0.00167617
-0.00112643
0.00222799
0.000131216
0.00210127
0.000857642
0.00149529
0.00154267
0.00294504
0.00134155
-0.000188798
0.0017566
-0.000979056
0.00185436
-0.00132036
0.00198681
-0.00138572
0.00231159
-0.00136082
0.00183182
0.00164397
0.00153268
0.00145393
0.00140096
0.0013674
0.00135355
0.00137585
0.00149646
0.00129483
0.000568632
0.00102078
0.000936085
0.000611544
0.00138651
0.00239114
-0.00122921
0.00964262
-0.0021173
0.00494737
-0.00292808
0.00418067
-0.00357209
0.0031547
-0.00406131
0.00206965
-0.00432458
0.000752623
-0.00424299
-0.000908384
-0.00371603
-0.00288029
-0.00282611
-0.0047343
-0.00179713
-0.00588763
-0.000827084
-0.00603666
-1.03614e-05
-0.00516191
0.000754147
-0.00340029
0.00133877
-0.00171112
0.00178979
-0.000319867
0.00200012
0.000647248
0.00219021
0.0013525
0.00340072
0.00173446
0.00279144
0.00062046
0.00280204
-0.000199466
0.00264065
-0.000817738
0.00243185
-0.00111163
0.00220217
-0.00115611
0.00180938
-0.000968094
0.00222914
-0.000419982
0.002405
-0.000176093
0.00249489
-9.01139e-05
0.00253431
-3.96461e-05
0.00252317
1.09111e-05
0.00245334
6.95979e-05
0.00230724
0.000145866
0.00204897
0.000258037
0.00160959
0.000439147
0.00137976
0.000798364
0.00106881
0.00124692
0.000671559
0.00178364
0.00308174
-0.000795377
0.0108429
-0.00137975
0.00553167
-0.00173162
0.00453247
-0.00208696
0.00350998
-0.00242838
0.00241099
-0.00267027
0.000994438
-0.00263328
-0.000945453
-0.00219916
-0.00331449
-0.00154051
-0.00539301
-0.000854963
-0.00657324
-0.000255115
-0.00663656
0.000237885
-0.00565497
0.000732174
-0.00389464
0.00111388
-0.00209289
0.00144387
-0.000649931
0.00175755
0.000333502
0.00216512
0.000944861
0.00274162
0.00115788
0.00280228
0.000559731
0.00275679
-0.000154049
0.00254933
-0.000610344
0.00226664
-0.000829013
0.0019673
-0.000856842
0.00171385
-0.000714713
0.00171599
-0.000422199
0.00174478
-0.00020496
0.00175241
-9.78141e-05
0.00174954
-3.68582e-05
0.0017394
2.09799e-05
0.00171503
9.38892e-05
0.0016638
0.000197011
0.00157358
0.000348181
0.00144626
0.000566375
0.00135166
0.00089287
0.00129235
0.00130614
0.00126358
0.0018123
0.00224937
0.00209582
0.00149994
0.00076826
0.00143048
8.74134e-05
0.00150375
-0.000590549
0.0118979
-0.000846433
0.00578748
-0.000503453
0.00418941
-0.000468028
0.00347447
-0.000610108
0.00255299
-0.000748681
0.00113293
-0.000630711
-0.0010635
-0.000266996
-0.00367829
0.000103877
-0.00576395
0.000381617
-0.00685104
0.000552891
-0.00680789
0.000663765
-0.0057659
0.00078256
-0.0040135
0.000857588
-0.00216799
0.00096285
-0.000755268
0.00116855
0.000127726
0.00149039
0.000622947
0.00190838
0.000739809
0.0020999
0.000368137
0.00203006
-8.4279e-05
0.00182274
-0.000403097
0.00155683
-0.000563174
0.001285
-0.000585086
0.00106222
-0.000492016
0.000959211
-0.000319268
0.000931393
-0.000177223
0.000934051
-0.000100553
0.000956187
-5.90751e-05
0.000994789
-1.77018e-05
0.00104219
4.64064e-05
0.00109128
0.000147837
0.00114147
0.000297905
0.00119963
0.000508125
0.00130271
0.0007897
0.00149876
0.00110999
0.00181892
0.00149203
0.00221064
0.00170399
0.00182948
0.0011493
0.00102768
0.000889092
0.00258775
-0.000678982
0.013093
-0.000292452
0.00540088
0.00100423
0.00289265
0.00125426
0.00322437
0.00123103
0.00257614
0.00137553
0.000988351
0.00171803
-0.00140608
0.0019823
-0.00394263
0.00201945
-0.00580117
0.00184048
-0.00667213
0.00151916
-0.00648663
0.00114323
-0.00539003
0.00078477
-0.0036551
0.000468388
-0.00185168
0.000316101
-0.000603062
0.000385945
5.77971e-05
0.000621777
0.000387033
0.000917082
0.000444425
0.00105193
0.00023321
0.000999728
-3.21553e-05
0.000833306
-0.000236754
0.000613551
-0.0003435
0.000387983
-0.000359601
0.000203048
-0.000307167
0.000102014
-0.00021832
7.3889e-05
-0.000149186
8.98309e-05
-0.000116582
0.000136143
-0.000105474
0.00021366
-9.5306e-05
0.000324272
-6.42916e-05
0.000460272
1.17494e-05
0.000618597
0.000139489
0.000809043
0.000317588
0.00104866
0.000549983
0.00135131
0.000807244
0.00173551
0.00110773
0.00219361
0.00124577
0.00240214
0.000940663
0.00189241
0.0013987
0.00453697
0.00322533
0.0104424
0.00407098
0.00455516
0.00405938
0.00290417
0.00374614
0.00353754
0.00366179
0.00266041
0.00402053
0.000629532
0.00446219
-0.00184782
0.00449915
-0.00397965
0.00410207
-0.00540415
0.00336378
-0.0059339
0.00242922
-0.00555213
0.00145346
-0.00441434
0.000539655
-0.00274136
-0.000155242
-0.00115687
-0.000457542
-0.00030085
-0.000472499
7.26642e-05
-0.000327325
0.000241772
-0.000146627
0.000263641
-6.78762e-05
0.000154374
-0.000110812
1.06951e-05
-0.00023996
-0.000107694
-0.000409107
-0.000174444
-0.000576517
-0.000192282
-0.00070758
-0.000176196
-0.00077939
-0.000146604
-0.000800299
-0.000128371
-0.000788687
-0.000128287
-0.000754867
-0.000139388
-0.000698896
-0.000151372
-0.000610397
-0.000152886
-0.000469848
-0.000128895
-0.000275649
-5.48061e-05
-3.4288e-05
7.61281e-05
0.00025706
0.000258535
0.000586463
0.00047774
0.000966062
0.000728027
0.00135961
0.000852113
0.00153416
0.000766
0.000857603
0.00207514
0.00565044
0.0110763
0.0156294
0.0130206
0.00551299
0.0111123
0.00544574
0.0100247
0.00374789
0.00925331
0.00140089
0.00842135
-0.00101592
0.00738024
-0.00293859
0.00605731
-0.00408128
0.00449123
-0.00436786
0.00280335
-0.0038643
0.00118359
-0.00279465
-0.00022755
-0.00133031
-0.00102131
-0.000363191
-0.00130348
-1.87791e-05
-0.0013503
0.00011939
-0.00128577
0.000177147
-0.00120062
0.000178402
-0.00116986
0.000123524
-0.00120619
4.69353e-05
-0.00129466
-1.93193e-05
-0.00140889
-6.03171e-05
-0.00152199
-7.92798e-05
-0.0016145
-8.37801e-05
-0.00167841
-8.27995e-05
-0.00172201
-8.48744e-05
-0.0017599
-9.05014e-05
-0.0018057
-9.36859e-05
-0.00187253
-8.46548e-05
-0.00197639
-4.91364e-05
-0.00213208
2.66854e-05
-0.00234143
0.000154438
-0.00261867
0.000353256
-0.00301423
0.000653988
-0.00361536
0.00107876
-0.00451047
0.00162303
-0.00584624
0.00218776
-0.00758721
0.00250686
-0.00740724
0.00189505
-0.00147782
0.0173574
0.0112228
0.0142951
0.00850801
0.0124578
0.00558525
0.0112547
0.00260397
0.00996517
0.00027357
0.00822653
-0.00119998
0.00615638
-0.00201116
0.00393906
-0.0021506
0.00167358
-0.00159888
-0.000309952
-0.000811201
-0.00157003
-7.03234e-05
-0.00204386
0.00011055
-0.00219909
0.000136354
-0.00222274
0.000142938
-0.00219779
0.000152105
-0.00216898
0.000149495
-0.00217016
0.000124608
-0.00220896
8.56341e-05
-0.00227513
4.6747e-05
-0.00235357
1.80153e-05
-0.00243445
1.50384e-06
-0.00251137
-6.9743e-06
-0.00258352
-1.07536e-05
-0.00265652
-1.19888e-05
-0.00273722
-9.90959e-06
-0.00283005
-9.71384e-07
-0.00293461
1.97918e-05
-0.00304514
6.12779e-05
-0.0031541
0.000135528
-0.00325947
0.000259692
-0.00336546
0.000459134
-0.00347322
0.000761624
-0.00358209
0.00118751
-0.00367407
0.00171489
-0.00372469
0.00223826
-0.00360092
0.00238297
-0.0021043
0.000398316
-0.00351065
-0.000103749
0.0113718
0.00200717
0.00639708
0.00313613
0.00445626
0.00345655
0.00228353
0.00321291
0.000517178
0.00247037
-0.000457489
0.00118016
-0.000721005
-0.000436144
-0.000534375
-0.00187191
-0.000163191
-0.00272654
4.33403e-05
-0.00295875
0.000161791
-0.00300092
0.000152627
-0.00299152
0.000126856
-0.00296377
0.000115084
-0.00292868
0.000116919
-0.00289999
0.000120702
-0.00289267
0.000117189
-0.00291278
0.000105643
-0.00295612
8.9977e-05
-0.00301248
7.42669e-05
-0.00307156
6.04782e-05
-0.00312804
4.94004e-05
-0.0031788
3.98937e-05
-0.00322266
3.17501e-05
-0.0032584
2.57154e-05
-0.00328338
2.38951e-05
-0.00329514
3.14324e-05
-0.00328775
5.3767e-05
-0.00325124
9.88943e-05
-0.00316851
0.00017684
-0.00301087
0.000301374
-0.00274284
0.000493481
-0.00233663
0.000781176
-0.00176317
0.00114132
-0.000864971
0.00133994
0.000648091
0.000869782
0.001489
-0.00044272
-0.00194306
-0.0219918
-0.0274131
-0.0160101
-0.00959076
-0.00511416
-0.00281352
-0.00228548
-0.00273916
-0.00346067
-0.00399857
-0.00416751
-0.00413144
-0.00397788
-0.00383416
-0.00371667
-0.0036113
-0.00350444
-0.00339416
-0.00328781
-0.00319342
-0.00311507
-0.0030527
-0.00300428
-0.00296696
-0.00293907
-0.00291915
-0.00290498
-0.00289228
-0.00287162
-0.00282816
-0.00273906
-0.00257149
-0.00227887
-0.00179364
-0.00102024
0.000113685
0.0014464
0.0023086
0.00185742
)
;

boundaryField
{
    floor
    {
        type            calculated;
        value           nonuniform List<scalar> 
36
(
0
0
0
0
0
0
0
0
0
0
0
0
0
0
0
0
0
0
0
-3.32972e-06
-9.29399e-06
-1.46801e-05
-1.91649e-05
-1.89565e-05
-1.80829e-05
-1.7238e-05
-2.03905e-06
-3.47031e-06
-3.84791e-06
-4.39284e-06
-2.87842e-06
-6.66601e-06
-8.76677e-06
-1.01328e-05
-1.2981e-05
-1.12468e-05
)
;
    }
    ceiling
    {
        type            calculated;
        value           nonuniform List<scalar> 
43
(
-3.16136e-05
-3.13713e-05
-3.11553e-05
-2.23305e-05
-2.03998e-05
-1.71933e-05
-1.09584e-05
-3.89965e-06
4.20623e-07
3.43843e-06
5.66279e-06
7.17504e-06
8.1391e-06
8.81727e-06
9.26651e-06
9.61845e-06
9.95776e-06
1.03301e-05
1.074e-05
1.11539e-05
1.152e-05
1.17926e-05
1.19466e-05
1.19779e-05
1.18958e-05
1.17109e-05
1.14343e-05
1.10778e-05
1.06551e-05
1.01824e-05
9.67639e-06
9.15382e-06
8.63092e-06
8.12425e-06
7.656e-06
7.26722e-06
7.10302e-06
7.46226e-06
8.32886e-06
1.00458e-05
4.69836e-06
2.0091e-06
-4.52649e-05
)
;
    }
    sWall
    {
        type            calculated;
        value           uniform -0.000186498;
    }
    nWall
    {
        type            calculated;
        value           nonuniform List<scalar> 6(-5.61663e-05 -5.64643e-05 -5.6938e-05 -7.1603e-05 -7.87151e-05 -9.58066e-05);
    }
    sideWalls
    {
        type            empty;
        value           nonuniform 0();
    }
    glass1
    {
        type            calculated;
        value           nonuniform List<scalar> 9(-6.00492e-05 -0.00016482 -0.000255725 -0.000335433 -0.000404969 -0.000464551 -0.000516148 -0.000574831 -0.000638659);
    }
    glass2
    {
        type            calculated;
        value           nonuniform List<scalar> 2(-0.000255988 -0.000279097);
    }
    sun
    {
        type            calculated;
        value           uniform 0;
    }
    Table_master
    {
        type            calculated;
        value           nonuniform List<scalar> 9(-1.53162e-07 -1.53367e-07 -1.53428e-07 -1.53458e-07 -1.53473e-07 -1.53476e-07 -1.5347e-07 -1.53447e-07 -1.53386e-07);
    }
    Table_slave
    {
        type            calculated;
        value           nonuniform List<scalar> 9(1.52982e-07 1.52959e-07 1.52906e-07 1.52873e-07 1.52856e-07 1.52846e-07 1.52859e-07 1.52902e-07 1.52985e-07);
    }
    inlet
    {
        type            calculated;
        value           uniform -0.0230673;
    }
    outlet
    {
        type            calculated;
        value           nonuniform List<scalar> 2(0.0222099 0.0054526);
    }
}


// ************************************************************************* //
