/*--------------------------------*- C++ -*----------------------------------*\
  =========                 |
  \\      /  F ield         | OpenFOAM: The Open Source CFD Toolbox
   \\    /   O peration     | Website:  https://openfoam.org
    \\  /    A nd           | Version:  6
     \\/     M anipulation  |
\*---------------------------------------------------------------------------*/
FoamFile
{
    version     2.0;
    format      ascii;
    class       surfaceScalarField;
    location    "2100";
    object      phi;
}
// * * * * * * * * * * * * * * * * * * * * * * * * * * * * * * * * * * * * * //

dimensions      [1 0 -1 0 0 0 0];

internalField   nonuniform List<scalar> 
850
(
-0.0023223
0.00237829
-0.00254446
0.000222264
-0.00283792
0.00029356
-0.00316612
0.000328299
-0.00347165
0.000305624
-0.00372883
0.000257282
-0.00392013
0.000191396
-0.00402887
0.000108841
-0.0040375
8.72654e-06
-0.00392559
-0.000111807
-0.00367272
-0.000252774
-0.00326158
-0.00041104
-0.00265368
-0.000607805
-0.00169449
-0.000959088
-0.00169371
-0.00056377
0.000567761
-0.000541751
-2.19221e-05
-0.000367403
-0.00017425
-0.000227968
-0.000139338
-5.05128e-05
-0.000177358
0.000104815
-0.000155231
0.000233825
-0.000128913
0.000331853
-9.79318e-05
0.000410807
-7.88595e-05
0.000476909
-6.60073e-05
0.000523124
-4.6122e-05
0.000527671
-4.457e-06
0.000488297
3.94625e-05
0.000427098
6.12842e-05
0.000417826
9.35381e-06
0.000550831
-0.000132925
0.00061529
-6.43803e-05
0.000618955
-0.00168967
0.00421376
-0.00222794
0.000760637
-0.00266137
0.000727089
-0.00302585
0.000692878
-0.00334649
0.000626363
-0.00361725
0.000528138
-0.0038272
0.000401453
-0.0039635
0.000245236
-0.00401242
5.77406e-05
-0.00396401
-0.000160113
-0.00381243
-0.000404256
-0.00355012
-0.000673256
-0.00317148
-0.00098634
-0.00276819
-0.00136228
-0.00284306
-0.00161874
-0.00139501
-0.00144664
0.000157429
-0.00155091
0.000162878
0.000728994
-0.000152145
0.000548686
0.000158486
0.000190998
0.000183538
-1.37552e-05
6.55141e-05
-0.000193316
2.30103e-06
-0.000156639
-0.000191809
-0.000143583
-0.000141872
-0.000147525
-9.3895e-05
-0.000165984
-6.0307e-05
-0.000203287
-2.86138e-05
-0.000260649
1.13301e-05
-0.000326075
6.10567e-05
-0.000391587
0.00010506
-0.000451748
0.000121528
-0.000487838
4.55169e-05
-0.000596739
-2.39752e-05
-0.000607584
-5.34576e-05
2.1058e-05
-0.00125371
0.00568449
-0.00190704
0.00141407
-0.00236593
0.00118607
-0.00271771
0.00104476
-0.00302111
0.000929862
-0.00327869
0.000785824
-0.00348372
0.000606581
-0.00362647
0.00038808
-0.003696
0.000127371
-0.00368397
-0.000172046
-0.00359039
-0.000497741
-0.00342663
-0.000836913
-0.00322669
-0.00118618
-0.00306887
-0.00152001
-0.00294901
-0.00173851
-0.00256259
-0.00183296
-0.00217097
-0.00194243
-0.00200424
-0.000758362
0.000614851
-0.000838904
0.000239128
-0.000769687
0.000114423
-0.000692911
-1.116e-05
-0.000506033
-0.000184477
-0.000697592
-0.000839215
-0.000932863
-0.000992924
-0.00102129
-0.00100972
-0.000948421
-0.000843116
-0.000721338
-0.000347246
-0.000328458
-0.000284471
-8.66001e-05
-0.000334468
-3.2928e-06
-0.00030591
-0.000943581
0.00690315
-0.00162345
0.00209403
-0.00201531
0.00157804
-0.00231991
0.00134946
-0.00258048
0.00119052
-0.00280082
0.00100626
-0.00297879
0.000784649
-0.00310776
0.000517147
-0.00317705
0.000196765
-0.00317603
-0.000172967
-0.0031119
-0.000561775
-0.00301609
-0.000932629
-0.00293619
-0.00126599
-0.0029184
-0.0015377
-0.00294669
-0.00171012
-0.00298736
-0.00179219
-0.00314415
-0.00178555
-0.00371908
-0.00142922
-0.00303212
-0.000681961
-0.00229029
-0.000126874
-0.00207716
2.60932e-05
-0.00195771
-4.92948e-06
-0.00188612
-8.26487e-05
-0.00191318
-0.000157322
-0.00176668
-0.000146556
-0.00161509
-0.000151643
-0.00145532
-0.000159829
-0.00129044
-0.000164938
-0.00112095
-0.00016954
-0.000943053
-0.000177954
-0.000745877
-0.000197232
-0.000508909
-0.000237024
-0.000196549
-0.000312415
-7.4089e-05
-0.000450817
0.000264379
-0.000424962
0.000537006
-0.000275812
0.000237247
-0.000708292
0.0079356
-0.00138247
0.00276831
-0.00163884
0.00183451
-0.00187056
0.00158127
-0.0020665
0.00138657
-0.00222227
0.00116212
-0.00234137
0.000903847
-0.00242246
0.000598338
-0.00245611
0.000230512
-0.00242646
-0.000202525
-0.00234957
-0.000638573
-0.00227064
-0.00101146
-0.00223436
-0.00130217
-0.00226393
-0.00150803
-0.00234871
-0.00162524
-0.00248094
-0.00165987
-0.00268688
-0.0015795
-0.00284632
-0.00126969
-0.0027198
-0.000808378
-0.00241827
-0.000428309
-0.00215125
-0.000240834
-0.00196463
-0.000191453
-0.00184308
-0.000204098
-0.00177012
-0.000230189
-0.00167639
-0.000240196
-0.00157846
-0.000249472
-0.0014798
-0.000258394
-0.00137919
-0.00026546
-0.00127595
-0.000272683
-0.00116739
-0.000286421
-0.00104627
-0.00031826
-0.000899092
-0.000384109
-0.000712932
-0.000498481
-0.0005114
-0.000652255
-0.000138047
-0.000798222
0.0004933
-0.000907066
0.00159989
-0.000869257
0.00227217
-0.000668435
0.00193121
0.000345217
0.00196586
-0.000650296
0.00895278
-0.00127794
0.00339605
-0.00125204
0.00180871
-0.00135775
0.00168708
-0.00148333
0.00151224
-0.00155408
0.00123298
-0.00157968
0.000929537
-0.00157222
0.000590975
-0.00152693
0.000185322
-0.00142965
-0.000299713
-0.00131907
-0.000749063
-0.0012423
-0.00108813
-0.00123105
-0.00131333
-0.00129235
-0.00144663
-0.00141701
-0.00150049
-0.00159294
-0.00148385
-0.00179616
-0.00137618
-0.00192545
-0.00114031
-0.00190968
-0.000824051
-0.00178705
-0.000550842
-0.00164684
-0.000380955
-0.00153631
-0.000301887
-0.00146274
-0.000277569
-0.00141631
-0.000276527
-0.00137721
-0.0002792
-0.00134293
-0.00028366
-0.00131461
-0.00028662
-0.00129394
-0.000286037
-0.0012831
-0.000283424
-0.00128329
-0.000286138
-0.00129247
-0.000308996
-0.00130363
-0.000372856
-0.00130553
-0.00049649
-0.00127274
-0.000684952
-0.00113859
-0.000932283
-0.00080424
-0.00124133
-8.62591e-05
-0.00158715
0.000910561
-0.00166517
0.0012872
-3.1329e-05
0.00328852
-0.000887729
0.0102459
-0.00108096
0.00358937
-0.000584471
0.00131232
-0.00055498
0.00165769
-0.000680068
0.00163743
-0.000689101
0.00124211
-0.000601653
0.000842186
-0.000474534
0.000463953
-0.000301572
1.24556e-05
-0.000120067
-0.000481123
-6.37281e-07
-0.000868398
4.09148e-05
-0.00112959
4.38837e-06
-0.00127671
-0.000103371
-0.00133878
-0.000270108
-0.00133366
-0.000478968
-0.0012749
-0.0006953
-0.00115976
-0.000857181
-0.000978336
-0.00092632
-0.000754817
-0.00092484
-0.000552228
-0.000896931
-0.000408769
-0.000873119
-0.000325605
-0.000864475
-0.000286119
-0.00086998
-0.000270928
-0.000883816
-0.000265269
-0.000905408
-0.000261975
-0.000937643
-0.000254291
-0.000986833
-0.000236753
-0.00106283
-0.000207337
-0.0011778
-0.00017107
-0.0013426
-0.000144105
-0.00155992
-0.000155448
-0.00182039
-0.000235935
-0.0020985
-0.000406756
-0.00235373
-0.000676956
-0.00253673
-0.00105824
-0.00257034
-0.00155346
-0.00228081
-0.00195461
-0.000929182
-0.00138287
0.00240154
0.00159331
0.009105
0.00201122
0.00317155
0.00182565
0.00149799
0.00145149
0.00203195
0.00111841
0.00197062
0.00102209
0.00133852
0.00110128
0.00076309
0.00128699
0.000278341
0.0014998
-0.000200264
0.00161493
-0.000596158
0.00162198
-0.000875353
0.00154165
-0.00104916
0.00140069
-0.00113566
0.00121457
-0.00115257
0.000994517
-0.00111352
0.000750709
-0.001031
0.000504861
-0.000913816
0.000294049
-0.000767431
0.00014603
-0.000606705
5.39879e-05
-0.000460092
-6.63071e-06
-0.000348057
-5.68381e-05
-0.000275304
-0.00010759
-0.000235274
-0.000161911
-0.000216512
-0.000218929
-0.000208157
-0.000279064
-0.000201745
-0.000344405
-0.000188856
-0.000420043
-0.00016102
-0.000516045
-0.000111242
-0.000649736
-3.72855e-05
-0.000853957
6.02087e-05
-0.00117605
0.000166733
-0.00165409
0.000242193
-0.00228547
0.000224717
-0.00302138
5.90411e-05
-0.00385005
-0.000229486
-0.00488984
-0.000513576
-0.00604929
-0.000795073
-0.0056855
-0.00174657
-0.00310737
0.00959447
0.0127526
0.0101927
0.00405789
0.0078599
0.00436489
0.00644077
0.00338983
0.00556005
0.00221934
0.00499218
0.00133106
0.00459201
0.000678606
0.00422247
0.000169375
0.00385241
-0.00022601
0.00349534
-0.00051819
0.00315446
-0.000708182
0.00282895
-0.000810057
0.0025163
-0.000839826
0.00221495
-0.000812081
0.00192513
-0.00074108
0.00165241
-0.000641012
0.00141057
-0.000525497
0.00121309
-0.000409136
0.0010593
-0.000306208
0.000936509
-0.000225174
0.000832051
-0.000170754
0.000737204
-0.000140334
0.000647656
-0.000126872
0.000561945
-0.000122352
0.000479605
-0.000119311
0.000401241
-0.000110398
0.000328513
-8.81976e-05
0.000263711
-4.63451e-05
0.000209188
1.73322e-05
0.00016102
0.000108471
0.000113478
0.000214368
6.10812e-05
0.000294682
-1.11504e-05
0.00029704
-0.000145169
0.000193151
-0.000353593
-2.09717e-05
-0.000615938
-0.000251141
-0.000917922
-0.000493002
-0.00105769
-0.00160672
-0.0039753
0.00183061
0.00366346
0.0031308
0.00306479
0.00437862
0.00214209
0.00486963
0.00172842
0.00499144
0.00120934
0.00497389
0.000696245
0.00486166
0.000281692
0.00467033
-3.45863e-05
0.00441129
-0.000259057
0.00410713
-0.000403938
0.0037794
-0.000482239
0.00344452
-0.000504848
0.00311619
-0.000483663
0.00280625
-0.00043105
0.00252467
-0.000359344
0.0022796
-0.000280337
0.00207565
-0.000205099
0.00190961
-0.000140075
0.0017711
-8.65753e-05
0.0016521
-5.16658e-05
0.0015461
-3.42392e-05
0.00144868
-2.93586e-05
0.00135747
-3.10543e-05
0.00127187
-3.3617e-05
0.00119342
-3.18571e-05
0.00112637
-2.10543e-05
0.00107676
3.36341e-06
0.00104979
4.43998e-05
0.0010545
0.000103848
0.00109652
0.000172444
0.00117056
0.000220739
0.00126179
0.000205906
0.00136247
9.25658e-05
0.00144425
-0.000102661
0.00156276
-0.000369555
0.00179384
-0.000723991
0.00167993
-0.00149272
-0.00225375
-0.000121086
0.00377646
0.00198669
0.000957092
0.00312843
0.00100043
0.00389265
0.000964277
0.00439848
0.000703601
0.00468068
0.000414126
0.00478698
0.000175476
0.00475189
5.90784e-07
0.00459356
-0.000100636
0.00435376
-0.000164052
0.00406461
-0.000193001
0.0037531
-0.000193251
0.0034412
-0.000171669
0.00314626
-0.000136022
0.00288141
-9.44086e-05
0.00265516
-5.39957e-05
0.00246982
-1.96686e-05
0.00232337
6.45563e-06
0.00221342
2.34716e-05
0.00213061
3.12338e-05
0.00206385
3.26025e-05
0.00200451
3.00778e-05
0.00194758
2.59654e-05
0.00189179
2.2261e-05
0.00183933
2.06917e-05
0.00179552
2.28506e-05
0.0017683
3.06763e-05
0.00176392
4.88689e-05
0.00179329
7.45779e-05
0.00186383
0.000101996
0.00196971
0.000114953
0.00208656
8.91503e-05
0.0021731
6.11663e-06
0.00219072
-0.000120185
0.00211586
-0.000294603
0.00191663
-0.000524664
0.00135718
-0.000933185
-0.000849401
-0.00274285
-0.00388373
-0.000117847
0.000824275
0.00180681
0.00275117
0.00343313
0.00382399
0.00397465
0.00394888
0.00382052
0.00362748
0.0034044
0.00318015
0.0029768
0.00280872
0.00268217
0.00259625
0.00254507
0.00252055
0.00251363
0.002515
0.00251817
0.00251919
0.00251644
0.00251031
0.00250296
0.00249814
0.00250154
0.00252357
0.00257179
0.00264791
0.0027374
0.00280138
0.00278238
0.00263712
0.00231737
0.00176725
0.000809282
)
;

boundaryField
{
    floor
    {
        type            calculated;
        value           nonuniform List<scalar> 
36
(
0
0
0
0
0
0
0
0
0
0
0
0
0
0
0
0
0
0
0
-3.58243e-06
-9.59205e-06
-7.25338e-06
-6.03881e-06
-3.75227e-06
-4.17125e-06
-4.59891e-06
-6.88747e-07
-1.30558e-06
-1.43506e-06
-2.1109e-06
-3.89418e-06
-3.24251e-06
-8.98872e-06
-3.74972e-06
-8.53399e-06
-4.89985e-06
)
;
    }
    ceiling
    {
        type            calculated;
        value           nonuniform List<scalar> 
43
(
1.48887e-05
1.22317e-05
1.06319e-05
1.50426e-05
1.79753e-05
1.99968e-05
2.17257e-05
2.33413e-05
2.49044e-05
2.64398e-05
2.78182e-05
2.90652e-05
3.01677e-05
3.1086e-05
3.1764e-05
3.2149e-05
3.22204e-05
3.20106e-05
3.15999e-05
3.10656e-05
3.04784e-05
2.99556e-05
2.95183e-05
2.91458e-05
2.88072e-05
2.84755e-05
2.81321e-05
2.77653e-05
2.73668e-05
2.69244e-05
2.64498e-05
2.59722e-05
2.55487e-05
2.52621e-05
2.5209e-05
2.51679e-05
2.52451e-05
2.55424e-05
2.48731e-05
2.61915e-05
1.74103e-05
1.35485e-05
8.14438e-06
)
;
    }
    sWall
    {
        type            calculated;
        value           uniform -0.000176384;
    }
    nWall
    {
        type            calculated;
        value           nonuniform List<scalar> 6(-2.99572e-05 -3.53752e-05 -4.21178e-05 -4.15377e-05 -4.70757e-05 -6.62223e-05);
    }
    sideWalls
    {
        type            empty;
        value           nonuniform 0();
    }
    glass1
    {
        type            calculated;
        value           nonuniform List<scalar> 9(-5.58967e-05 -0.000145709 -0.000216924 -0.000274991 -0.000324072 -0.000366801 -0.000405301 -0.000452329 -0.000506805);
    }
    glass2
    {
        type            calculated;
        value           nonuniform List<scalar> 2(-0.0001765 -0.000189665);
    }
    sun
    {
        type            calculated;
        value           uniform 0;
    }
    Table_master
    {
        type            calculated;
        value           nonuniform List<scalar> 9(-1.53276e-07 -1.53204e-07 -1.53124e-07 -1.53054e-07 -1.52993e-07 -1.52938e-07 -1.52881e-07 -1.52816e-07 -1.52705e-07);
    }
    Table_slave
    {
        type            calculated;
        value           nonuniform List<scalar> 9(1.51811e-07 1.51865e-07 1.51913e-07 1.51963e-07 1.52012e-07 1.52061e-07 1.52111e-07 1.52166e-07 1.5221e-07);
    }
    inlet
    {
        type            calculated;
        value           uniform -0.00143613;
    }
    outlet
    {
        type            calculated;
        value           nonuniform List<scalar> 2(0.0029044 0.00112871);
    }
}


// ************************************************************************* //
