/*--------------------------------*- C++ -*----------------------------------*=========                 |
  \      /  F ield         | OpenFOAM: The Open Source CFD Toolbox
   \    /   O peration     | Website:  https://openfoam.org
    \  /    A nd           | Version:  6
     \/     M anipulation  |
\*---------------------------------------------------------------------------*/
FoamFile
{
    version     2.0;
    format      ascii;
    class       volScalarField;
    location    "600";
    object      PMV;
}
// * * * * * * * * * * * * * * * * * * * * * * * * * * * * * * * * * * * * * //

dimensions      [0 0 0 0 0 0 0];

internalField   nonuniform List<scalar> 
458
(
2.333053476703208
2.1839007334507716
2.1842191295900077
2.175540587163479
2.168080748934433
2.1617863848622636
2.1571754422507237
2.1537521745993797
2.1521381417858096
2.1526182979429254
2.154808790672853
2.1596253704965407
2.1685408320213035
2.176946818231941
2.1630018613759074
1.6777507750298366
1.6796731502586748
1.6839983764719209
1.6710222097831593
1.6662158540778103
1.6715028345087173
1.6787119666651664
1.6859206464629737
1.6715028345087173
1.6609286367630864
1.6556411852312487
1.6537184180306
1.6489113668936166
1.6484306513735159
1.6585252785787978
1.6892845402767434
1.6921677976806446
1.6859206464629737
2.3712560639295037
2.1994348941019393
2.2089730941101866
2.2008015677287838
2.1966893972857844
2.193428605099624
2.1913065144338955
2.19023993074736
2.189214229139672
2.188925128730597
2.1885528633498965
2.186855714042784
2.18292472096339
2.1718606825553906
2.1517478464160193
2.148795934676965
2.152179658132988
2.1745859166987245
1.6784751296118092
1.7474153025073396
1.760382136205541
1.7695059077065614
1.7541390597002413
1.70946576256707
1.7209962012569902
1.7209962012569902
1.71859412985457
1.7118680401404056
1.7070634313834512
1.7089853006105842
1.7320450183082434
1.760382136205541
1.7935116088835383
1.789671116161216
1.7469350166756308
1.6343971731167164
2.450160091130776
2.208610477528141
2.234617346776926
2.2289243118980604
2.2306904723022356
2.2333488628983273
2.2363211296481476
2.2395207737381235
2.241917407156583
2.2436232051770366
2.2432020674675357
2.2392869965662214
2.2284710060388275
2.209364754606387
2.181867729191245
2.155414020609722
2.123323096998101
2.089128176522511
1.9191901408874044
1.9028922214879547
1.9072067354926494
1.9249414572634937
1.9345259311100627
1.8443822817561466
1.790631254533865
1.7498166968464701
1.7714265907326787
1.7949517517562645
1.8165511030779733
1.838624866009835
1.863091063396375
1.9086448497951785
1.9795546249566096
1.9282961737664561
1.8937829681904321
1.8081616656157167
2.538976355807892
2.2249421885518568
2.2562531339732397
2.2538110444759463
2.262284524733718
2.271773057366572
2.2814557349758764
2.2903613916245975
2.2980134980412235
2.303499628655216
2.305431707579712
2.3014558087226935
2.2888659193730927
2.266301669359338
2.234954021732916
2.195787170697571
2.1452058181404476
2.0841048551600587
2.0419048331824508
2.029445260797265
2.052927765222709
2.0869534578674758
2.1140845715011776
2.1311719331457875
2.147201331539687
2.1574518301908787
2.16821769638045
2.1702921413738325
2.1722005385778105
2.1745859166987245
2.1769711627138078
2.179356276011551
2.176017080199573
2.1464302004043274
2.1130025845166234
2.0757276273485634
2.0695124960128624
2.6271576305942697
2.2522553103281693
2.2747505531326015
2.273853888921717
2.2888128828001593
2.3048091872781655
2.3209023975121013
2.3366118796846727
2.3503039788433955
2.3605215158231654
2.365915863829269
2.363249251340615
2.35168382744026
2.3313965058640935
2.303344079696966
2.2691008669508568
2.2294546552315837
2.191094483869771
2.165182256316693
2.150456534054553
2.150673467043892
2.1572587192874915
2.1628424160109403
2.165850162792293
2.168766098194781
2.1727264359329457
2.178121453209122
2.183649143535272
2.185556945047414
2.1879415754489346
2.1912798301084493
2.194140978440555
2.1950946506961
2.190802952919832
2.1841261019925837
2.173154705639886
2.122870554492231
2.0966086503870156
2.0843895942088193
2.1125276712711636
2.7063733329689916
2.2925832942501554
2.3045667604609075
2.2938936260977414
2.3093294670790043
2.330223001188937
2.352502765005545
2.375113340508944
2.3965464639541914
2.4141937326378664
2.4220228626469713
2.4178901573901896
2.4052895434274433
2.3864719767779516
2.3626235436386964
2.3337972441824517
2.302806998668504
2.2732196101889826
2.2496880122493406
2.232583188457821
2.2214524069175434
2.213759093460462
2.2072730031087224
2.2014487689910336
2.197103183675109
2.1940937810925267
2.193246749457501
2.1935323885652314
2.1950946506961
2.197955535325891
2.2015937799629297
2.204012326319938
2.205729256897535
2.2071411569164607
2.210978024307469
2.2132101973452536
2.2097529220712278
2.1970700487979
2.1474642689472874
2.1026209761740944
2.772706761219299
2.369855690655041
2.3974379660676335
2.3448459829075476
2.334248125291308
2.3522517586576805
2.3788527360016496
2.4085493924801087
2.4251252081710906
2.444527563509153
2.4576001108722494
2.444802717007773
2.4318182023644344
2.416148575433418
2.398734786883524
2.378982039362118
2.3587095616071014
2.3396667743250648
2.3242991545688407
2.308412333837593
2.284635674185956
2.2641745847135213
2.2470353878581877
2.233223059474892
2.2222649037231066
2.2136868124326186
2.20749037344916
2.204153434293862
2.2031999726560803
2.201395221430791
2.195975653183924
2.190410204016356
2.1846975358428273
2.178667266174617
2.173591062459673
2.169262839851737
2.1654933292132093
2.1694690573306383
2.212256950084878
2.0641727978806843
2.8851403082492313
2.5987671949107325
2.558205092507581
2.473905053892101
2.4266666595277036
2.4079370167216503
2.4051620313778215
2.409079967839638
2.4165819313091603
2.424209711595046
2.4295793166947464
2.42817819423654
2.4212226478809895
2.410493508871755
2.398541194256851
2.38703615546216
2.3772525492637726
2.369171911308069
2.3623391071866253
2.3454691882899206
2.3226701112094847
2.301281107574788
2.281305613455193
2.2632226188127476
2.2479877750308184
2.2351285075963596
2.2246473747545927
2.216546383021653
2.212256950084878
2.211303680079099
2.2091623720400606
2.1927602820860903
2.1766563784434254
2.1612184856525483
2.14732644594892
2.136624707106103
2.127792273216921
2.1223234710407586
2.1082346193173125
2.069417232675922
3.0
2.8951632613250657
2.7938975562215247
2.6907128531058175
2.6005287598006337
2.5341938019330086
2.4910765089117066
2.4641696246022216
2.4500485073831597
2.4403374369448287
2.4271585945807717
2.4126893731236083
2.3983308652869466
2.3854856000921343
2.374934274182677
2.3668603018018795
2.3613198923788987
2.3576492339019337
2.354233081595797
2.3500044743905377
2.342947839944964
2.3297966161661527
2.3117397101019024
2.2936727822200838
2.277499438531489
2.2622706277527436
2.2484639594675535
2.2360811959908617
2.226553246737191
2.21988228771248
2.216546383021653
2.216069802228189
2.217499527400105
2.21988228771248
2.2227414095494944
2.207067650029154
2.1914567594125938
2.1838319966112367
2.1564528649572123
2.0961271857486454
0.886882143666071
1.750792163948658
2.111344559902172
2.2625123103465246
2.323938236179066
2.3479562849263025
2.355649452142164
2.3556062307790318
2.3528444567533846
2.347941094888789
2.342554887740064
2.337296747481143
2.3332575973435667
2.3314199966787013
2.3315861789007086
2.3323076567028544
2.333313748276928
2.332217456257611
2.328568986029049
2.322182542451013
2.3141862817721868
2.304740366750768
2.2955952036329528
2.2867937319762266
2.273216996735378
2.259890540344838
2.247511584492415
2.236557531251994
2.2279825893360847
2.2222649037231066
2.2194057471725364
2.217976090974348
2.217023510005337
2.216119409016146
2.207812960144168
2.1935098215839943
2.1477159594247324
2.1279532838023125
1.0584102250997651
1.772032795464331
2.0344914450986233
2.165959886844153
2.2308003404319985
2.2610149755596907
2.273006714115037
2.2766855814950686
2.2781709881376075
2.279740552204718
2.281621854914834
2.2844601794041006
2.287851372639666
2.2918665209723272
2.2960140273104015
2.299270244910501
2.3016761521809563
2.3019591893458338
2.300069042514269
2.2966686613593614
2.29086746309045
2.282945854862031
2.274194790746229
2.2644725947654147
2.254548691337186
2.2446439432812246
2.2348092230602847
2.225586629938261
2.216246663085604
2.2058255148664943
2.195441102187771
2.1846220453098524
2.1748903136601547
2.165295568720609
2.158809968751914
2.15622589078811
2.130304565544129
2.121997880911161
1.562777576735303
1.4950726941088646
1.5138616115089896
1.9105489745201472
2.073641429441759
2.1808001982045004
2.222069611484156
2.2311706266319526
2.2316869445407788
2.2305840533934758
2.2296894206337194
2.2311374603104803
2.2330558541084953
2.23430189255318
2.2346022825881486
2.233203404363708
2.230516401340921
2.2278050297131715
2.225099181457888
2.2225327020466596
2.2201721789405076
2.2182834257391897
2.2153782824369275
2.210739371290298
2.205407762883972
2.19898969996972
2.1916529856064684
2.1835756936744537
2.175947908492799
2.1677445447552492
2.1597462864870725
2.1519272262570097
2.1437613444712382
2.1366638768159305
2.129349012654377
2.1239687414864235
2.122232575371075
2.1254016950561287
2.1106594401008913
2.0709870116481057
)
;

boundaryField
{
    ".*"
    {
        type            zeroGradient;
    }
}


// ************************************************************************* //
