// -*- C++ -*-
// File generated by PyFoam - sorry for the ugliness

FoamFile
{
 version 2.0;
 format ascii;
 class volScalarField;
 location "600";
 object T;
}

dimensions [ 0 0 0 1 0 0 0 ];

internalField nonuniform List<scalar> 458
(
  304.771
  304.505
  304.499
  304.502
  304.504
  304.505
  304.506
  304.506
  304.506
  304.506
  304.504
  304.499
  304.491
  304.481
  304.467
  303.299
  303.303
  303.312
  303.285
  303.275
  303.286
  303.301
  303.316
  303.286
  303.264
  303.253
  303.249
  303.239
  303.238
  303.259
  303.323
  303.329
  303.316
  304.968
  304.555
  304.536
  304.545
  304.554
  304.561
  304.567
  304.572
  304.574
  304.574
  304.57
  304.559
  304.54
  304.51
  304.469
  304.43
  304.393
  304.336
  303.415
  303.444
  303.471
  303.49
  303.458
  303.365
  303.389
  303.389
  303.384
  303.37
  303.36
  303.364
  303.412
  303.471
  303.54
  303.532
  303.443
  303.341
  305.156
  304.61
  304.573
  304.589
  304.607
  304.624
  304.639
  304.652
  304.661
  304.666
  304.664
  304.653
  304.628
  304.589
  304.533
  304.468
  304.398
  304.34
  303.802
  303.768
  303.777
  303.814
  303.834
  303.646
  303.534
  303.449
  303.494
  303.543
  303.588
  303.634
  303.685
  303.78
  303.928
  303.821
  303.749
  303.714
  305.332
  304.674
  304.607
  304.626
  304.652
  304.679
  304.705
  304.728
  304.747
  304.76
  304.764
  304.756
  304.732
  304.69
  304.63
  304.552
  304.455
  304.339
  304.232
  304.143
  304.168
  304.214
  304.26
  304.294
  304.321
  304.323
  304.325
  304.327
  304.331
  304.336
  304.341
  304.346
  304.339
  304.277
  304.207
  304.129
  304.116
  305.493
  304.749
  304.642
  304.653
  304.685
  304.719
  304.753
  304.786
  304.815
  304.837
  304.849
  304.847
  304.829
  304.794
  304.742
  304.676
  304.599
  304.519
  304.448
  304.393
  304.369
  304.363
  304.362
  304.36
  304.357
  304.354
  304.353
  304.355
  304.359
  304.364
  304.371
  304.377
  304.379
  304.37
  304.356
  304.333
  304.287
  304.303
  304.304
  304.313
  305.631
  304.839
  304.699
  304.68
  304.706
  304.741
  304.778
  304.815
  304.851
  304.883
  304.905
  304.912
  304.901
  304.873
  304.83
  304.773
  304.708
  304.639
  304.573
  304.517
  304.475
  304.445
  304.423
  304.406
  304.393
  304.383
  304.378
  304.376
  304.379
  304.385
  304.393
  304.401
  304.408
  304.413
  304.416
  304.417
  304.414
  304.408
  304.371
  304.34
  305.743
  304.983
  304.84
  304.769
  304.751
  304.767
  304.796
  304.828
  304.863
  304.904
  304.936
  304.948
  304.941
  304.918
  304.884
  304.839
  304.787
  304.73
  304.673
  304.617
  304.567
  304.524
  304.488
  304.459
  304.436
  304.418
  304.405
  304.398
  304.396
  304.401
  304.409
  304.419
  304.429
  304.437
  304.444
  304.449
  304.45
  304.446
  304.415
  304.355
  305.931
  305.347
  305.2
  305.067
  304.964
  304.909
  304.89
  304.893
  304.911
  304.945
  304.968
  304.971
  304.958
  304.933
  304.901
  304.865
  304.827
  304.786
  304.741
  304.695
  304.647
  304.602
  304.56
  304.522
  304.49
  304.463
  304.441
  304.424
  304.415
  304.413
  304.418
  304.427
  304.438
  304.448
  304.456
  304.464
  304.47
  304.476
  304.48
  304.484
  306.189
  305.937
  305.761
  305.579
  305.41
  305.276
  305.183
  305.122
  305.088
  305.062
  305.029
  304.993
  304.956
  304.92
  304.886
  304.854
  304.824
  304.795
  304.765
  304.734
  304.699
  304.662
  304.624
  304.586
  304.552
  304.52
  304.491
  304.465
  304.445
  304.431
  304.424
  304.423
  304.426
  304.431
  304.437
  304.447
  304.458
  304.47
  304.485
  304.531
  302.043
  303.735
  304.48
  304.757
  304.866
  304.907
  304.918
  304.914
  304.903
  304.886
  304.866
  304.844
  304.822
  304.802
  304.784
  304.766
  304.749
  304.73
  304.709
  304.685
  304.659
  304.63
  304.601
  304.572
  304.543
  304.515
  304.489
  304.466
  304.448
  304.436
  304.43
  304.427
  304.427
  304.427
  304.427
  304.426
  304.425
  304.438
  302.399
  303.705
  304.22
  304.495
  304.636
  304.706
  304.737
  304.748
  304.751
  304.75
  304.746
  304.741
  304.735
  304.729
  304.723
  304.716
  304.709
  304.7
  304.688
  304.675
  304.659
  304.64
  304.62
  304.598
  304.575
  304.551
  304.526
  304.502
  304.48
  304.461
  304.448
  304.438
  304.432
  304.427
  304.423
  304.419
  304.415
  304.432
  303.422
  303.353
  303.351
  304.007
  304.28
  304.473
  304.569
  304.61
  304.63
  304.639
  304.642
  304.645
  304.647
  304.648
  304.649
  304.649
  304.648
  304.647
  304.645
  304.642
  304.637
  304.632
  304.625
  304.615
  304.604
  304.591
  304.576
  304.559
  304.542
  304.523
  304.504
  304.486
  304.469
  304.456
  304.444
  304.435
  304.426
  304.417
  304.408
  304.433
)
;

boundaryField
{
  floor
  {
    type wallHeatTransfer;
    Tinf uniform 305.2;
    alphaWall uniform 0.24;
    value nonuniform List<scalar> 36
(
  304.553
  303.806
  303.786
  303.791
  303.839
  303.898
  303.934
  303.96
  303.965
  303.947
  303.916
  303.871
  303.829
  303.813
  303.797
  303.78
  303.762
  303.743
  303.768
  303.768
  303.749
  303.958
  304.255
  304.392
  304.399
  304.416
  304.553
  304.516
  304.486
  304.473
  303.806
  304.473
  303.79
  304.434
  304.007
  304.339
)
;
  }
  ceiling
  {
    type wallHeatTransfer;
    Tinf uniform 303.2;
    alphaWall uniform 0.24;
    value nonuniform List<scalar> 43
(
  303.405
  303.342
  303.341
  303.954
  304.209
  304.387
  304.471
  304.504
  304.516
  304.517
  304.513
  304.51
  304.506
  304.502
  304.499
  304.496
  304.495
  304.494
  304.494
  304.493
  304.491
  304.487
  304.481
  304.473
  304.462
  304.45
  304.436
  304.422
  304.406
  304.389
  304.372
  304.356
  304.342
  304.329
  304.318
  304.307
  304.297
  304.285
  304.28
  304.299
  306.047
  305.825
  302.451
)
;
  }
  sWall
  {
    type wallHeatTransfer;
    Tinf uniform 315.2;
    alphaWall uniform 0.36;
    value uniform 304.742;
  }
  nWall
  {
    type wallHeatTransfer;
    Tinf uniform 307.2;
    alphaWall uniform 0.36;
    value nonuniform List<scalar> 6
(
  304.789
  304.786
  304.805
  304.762
  304.767
  304.863
)
;
  }
  sideWalls
  {
    type empty;
  }
  glass1
  {
    type wallHeatTransfer;
    Tinf uniform 315.2;
    alphaWall uniform 4.3;
    value nonuniform List<scalar> 9
(
  312.652
  311.894
  311.39
  310.999
  310.693
  310.441
  310.237
  310.28
  310.469
)
;
  }
  glass2
  {
    type wallHeatTransfer;
    Tinf uniform 307.2;
    alphaWall uniform 4.3;
    value nonuniform List<scalar> 2
(
  306.288
  306.185
)
;
  }
  sun
  {
    type wallHeatTransfer;
    Tinf uniform 305.2;
    alphaWall uniform 0.24;
    value nonuniform List<scalar> 14
(
  304.833
  304.603
  304.6
  304.6
  304.599
  304.598
  304.597
  304.595
  304.594
  304.592
  304.589
  304.584
  304.576
  304.566
)
;
  }
  Table_master
  {
    type zeroGradient;
  }
  Table_slave
  {
    type zeroGradient;
  }
  inlet
  {
    type fixedValue;
    value uniform 296.15;
  }
  outlet
  {
    type zeroGradient;
  }
} 	// ************************************************************************* //

