/*--------------------------------*- C++ -*----------------------------------*\
  =========                 |
  \\      /  F ield         | OpenFOAM: The Open Source CFD Toolbox
   \\    /   O peration     | Website:  https://openfoam.org
    \\  /    A nd           | Version:  6
     \\/     M anipulation  |
\*---------------------------------------------------------------------------*/
FoamFile
{
    version     2.0;
    format      ascii;
    class       volScalarField;
    location    "500";
    object      alphat;
}
// * * * * * * * * * * * * * * * * * * * * * * * * * * * * * * * * * * * * * //

dimensions      [1 -1 -1 0 0 0 0];

internalField   nonuniform List<scalar> 
458
(
0.00130928
0.0014295
0.0014647
0.00153867
0.00160723
0.00167218
0.00173664
0.00180468
0.00186844
0.00192089
0.00195262
0.0019514
0.00190248
0.00177007
0.00131896
0.000632508
0.000753548
0.000857176
0.000881194
0.000867369
0.000819328
0.000765078
0.000715417
0.000671501
0.000632662
0.000598422
0.000568096
0.000540763
0.00051549
0.000491154
0.000466134
0.000448087
0.000409316
0.00176229
0.00400178
0.00366087
0.00417427
0.00469544
0.00524623
0.00577769
0.00620235
0.00662328
0.00705643
0.0074517
0.00775363
0.00790689
0.00778854
0.00651469
0.00172338
0.00141669
0.00115158
0.000637913
0.00147826
0.00216397
0.00268049
0.00284002
0.00212854
0.00182533
0.00161884
0.00146489
0.00134544
0.00124534
0.00115338
0.00106537
0.000977278
0.000900146
0.00083695
0.00100007
0.000525488
0.00214105
0.00542166
0.00449036
0.00548665
0.00594344
0.00627026
0.00651023
0.00670722
0.00696042
0.00729672
0.00769486
0.00813217
0.00856734
0.00888413
0.00857788
0.00692173
0.00518637
0.00134105
0.00107358
0.00181837
0.00257036
0.00325504
0.00340856
0.00109023
0.000961957
0.000854925
0.000767905
0.00069746
0.000640362
0.00059411
0.000556839
0.000528206
0.000588406
0.000688631
0.00114257
0.00060882
0.00250441
0.00695048
0.00445788
0.00584213
0.00618264
0.00619819
0.00612242
0.00611601
0.00625472
0.00653054
0.00692806
0.00744092
0.00802664
0.00856633
0.00873769
0.00828791
0.00706247
0.00382861
0.00155638
0.00211999
0.0029422
0.00381044
0.00447561
0.00440714
0.00119341
0.00109545
0.0010329
0.000989489
0.000953744
0.00091705
0.000879499
0.000839821
0.000792869
0.000749585
0.000746282
0.00127378
0.000690983
0.00287523
0.00900303
0.00480935
0.00565098
0.00617221
0.00604229
0.00575381
0.00561392
0.00572138
0.00599424
0.00639975
0.00694264
0.00756335
0.0080835
0.0082586
0.00813528
0.00767323
0.00637201
0.00600343
0.00593983
0.00611838
0.00632313
0.00638288
0.00615048
0.00519608
0.00477451
0.00458138
0.00445519
0.00431707
0.00411953
0.00374821
0.00322191
0.00259423
0.00196762
0.0014801
0.00134211
0.00110348
0.00084697
0.000898717
0.000890011
0.00327363
0.0113358
0.00683616
0.00539481
0.00582026
0.00592414
0.00571644
0.00543451
0.00553909
0.00581096
0.0062145
0.00676011
0.00736119
0.00778386
0.00782048
0.00762698
0.00750292
0.0074249
0.00763666
0.00785081
0.00789437
0.00772246
0.00737479
0.00690886
0.00639725
0.00606254
0.00584904
0.00567488
0.005497
0.00529171
0.00501108
0.00455557
0.00392457
0.00316511
0.00244497
0.00182389
0.00142854
0.00152063
0.00218649
0.00112024
0.00365436
0.0130601
0.0102015
0.0072035
0.00603677
0.00563865
0.00567106
0.00564929
0.0057158
0.00589983
0.0062511
0.00676906
0.00735571
0.00773582
0.00764454
0.00734064
0.007437
0.00795524
0.00841533
0.00854906
0.00833613
0.00786453
0.00725655
0.00663266
0.00612648
0.00582098
0.0056404
0.00550152
0.00537068
0.00524053
0.0051097
0.00491507
0.0044995
0.00388836
0.00322606
0.00260075
0.00213084
0.00202064
0.00251006
0.00139883
0.00373284
0.0117091
0.0106314
0.00973488
0.00849113
0.00737812
0.00683129
0.00640272
0.00610628
0.00613202
0.00642708
0.00691897
0.00749932
0.00785377
0.00765976
0.00736547
0.00770945
0.008117
0.00824967
0.00805375
0.00756684
0.00691016
0.00623626
0.00567727
0.00530527
0.00509535
0.0049683
0.00487503
0.00480516
0.00476652
0.00477232
0.00482064
0.00477083
0.00438832
0.00400476
0.00377052
0.00382487
0.00400037
0.00495081
0.00185539
0.00364526
0.00434968
0.00494181
0.00543016
0.00577144
0.00583331
0.00576164
0.00572615
0.00586415
0.00621101
0.00662655
0.00713528
0.00771616
0.00802808
0.00772447
0.00750822
0.00747443
0.00734049
0.00706505
0.0066237
0.00606251
0.00549556
0.00502433
0.0046866
0.00446202
0.00430405
0.00417333
0.00405219
0.00393675
0.00382524
0.00371106
0.0035819
0.00343922
0.00330539
0.00320824
0.00315282
0.00307205
0.00290757
0.00271336
0.00177527
0.000885352
0.00189887
0.00305499
0.00404042
0.00481389
0.00552127
0.00626017
0.00680336
0.00701704
0.00735095
0.00781536
0.00805
0.0077405
0.00720898
0.00659876
0.0060692
0.00563721
0.00524173
0.00487519
0.00456101
0.00430944
0.00410893
0.00393892
0.00378165
0.00362748
0.00347535
0.00333054
0.00320259
0.00310412
0.00304916
0.00302808
0.0030101
0.00298028
0.00290389
0.00272475
0.0024145
0.00202638
0.00141105
0.0030795
0.00483221
0.00542802
0.00640154
0.00716362
0.00784925
0.0080203
0.0072023
0.00629773
0.00641295
0.00644285
0.00634228
0.00607878
0.00567281
0.0052881
0.00493276
0.0046248
0.00435091
0.00410379
0.00388336
0.00368892
0.00351835
0.0033706
0.0032472
0.00315144
0.00308556
0.00304808
0.00303221
0.00302451
0.00304973
0.00309809
0.00315549
0.00319966
0.00319373
0.00311655
0.00299558
0.00242723
0.0014251
0.00321746
0.0032612
0.00331428
0.00353605
0.00334735
0.00319606
0.00292617
0.00249162
0.00196382
0.00170046
0.00150234
0.00139758
0.0013419
0.00128364
0.00122185
0.0011691
0.00112911
0.001102
0.00107951
0.00106083
0.00104656
0.00103734
0.00103358
0.0010355
0.00104321
0.00105676
0.00107621
0.00110169
0.00113363
0.00117309
0.00122229
0.00127861
0.00134225
0.0014126
0.00148877
0.00156849
0.00164308
0.00161381
0.00148347
0.00136423
)
;

boundaryField
{
    floor
    {
        type            compressible::alphatWallFunction;
        Prt             0.85;
        value           nonuniform List<scalar> 
36
(
0.000186377
8.9151e-05
0.000106955
0.000121924
0.000125363
0.000123386
0.000116484
0.000108633
0.000101387
9.49288e-05
8.91744e-05
8.40659e-05
7.95112e-05
7.53804e-05
7.15379e-05
6.78156e-05
6.39644e-05
6.11705e-05
5.51191e-05
5.51184e-05
7.30612e-05
8.56221e-05
9.7802e-05
0.000120467
0.000127872
0.000126633
0.000186375
0.000240693
0.000199656
0.000163374
8.91499e-05
0.000163372
8.99535e-05
0.000189389
0.000152529
0.000218462
)
;
    }
    ceiling
    {
        type            compressible::alphatWallFunction;
        Prt             0.85;
        value           nonuniform List<scalar> 
43
(
0.000431282
0.000436695
0.000443256
0.000470607
0.000447426
0.000428743
0.000395158
0.000340372
0.000272418
0.000237792
0.000211352
0.000197216
0.000189655
0.000181705
0.000173227
0.00016595
0.000160407
0.000156638
0.000153502
0.000150892
0.000148895
0.000147602
0.000147075
0.000147344
0.000148424
0.000150323
0.000153041
0.000156594
0.000161035
0.0001665
0.000173287
0.000181017
0.000189706
0.000199257
0.000209539
0.000220236
0.000230192
0.000226292
0.000208828
0.000192701
0.000484279
0.000569626
0.00041405
)
;
    }
    sWall
    {
        type            compressible::alphatWallFunction;
        Prt             0.85;
        value           uniform 0.000429969;
    }
    nWall
    {
        type            compressible::alphatWallFunction;
        Prt             0.85;
        value           nonuniform List<scalar> 6(0.000126394 0.000158791 0.000196995 0.000198683 0.000200583 0.000192331);
    }
    sideWalls
    {
        type            empty;
    }
    glass1
    {
        type            compressible::alphatWallFunction;
        Prt             0.85;
        value           nonuniform List<scalar> 9(0.000180023 0.000239893 0.000288794 0.000334936 0.000381375 0.000430625 0.000477164 0.000486852 0.000476488);
    }
    glass2
    {
        type            compressible::alphatWallFunction;
        Prt             0.85;
        value           nonuniform List<scalar> 2(0.000255856 0.000245456);
    }
    sun
    {
        type            compressible::alphatWallFunction;
        Prt             0.85;
        value           nonuniform List<scalar> 
14
(
0.00018507
0.000201383
0.000206134
0.000216078
0.000225248
0.000233896
0.000242441
0.000251424
0.000259807
0.00026668
0.000270829
0.00027067
0.000264271
0.000246862
)
;
    }
    Table_master
    {
        type            compressible::alphatWallFunction;
        Prt             0.85;
        value           nonuniform List<scalar> 9(0.000155058 0.000137045 0.000121798 0.000109235 9.89403e-05 9.05035e-05 8.36017e-05 7.79919e-05 7.36505e-05);
    }
    Table_slave
    {
        type            compressible::alphatWallFunction;
        Prt             0.85;
        value           nonuniform List<scalar> 9(0.000169374 0.000155791 0.000147043 0.000140936 0.000135884 0.000130675 0.000125319 0.000119631 0.000112858);
    }
    inlet
    {
        type            fixedValue;
        value           uniform 1.94e-05;
    }
    outlet
    {
        type            zeroGradient;
    }
}


// ************************************************************************* //
