/*--------------------------------*- C++ -*----------------------------------*\
  =========                 |
  \\      /  F ield         | OpenFOAM: The Open Source CFD Toolbox
   \\    /   O peration     | Website:  https://openfoam.org
    \\  /    A nd           | Version:  6
     \\/     M anipulation  |
\*---------------------------------------------------------------------------*/
FoamFile
{
    version     2.0;
    format      ascii;
    class       volScalarField;
    location    "500";
    object      T;
}
// * * * * * * * * * * * * * * * * * * * * * * * * * * * * * * * * * * * * * //

dimensions      [0 0 0 1 0 0 0];

internalField   nonuniform List<scalar> 
458
(
301.712
301.406
301.392
301.389
301.386
301.384
301.381
301.378
301.375
301.372
301.37
301.374
301.387
301.415
301.478
301.719
301.691
301.686
301.699
301.709
301.716
301.722
301.728
301.734
301.739
301.743
301.747
301.751
301.754
301.757
301.76
301.765
301.789
301.909
301.427
301.395
301.392
301.392
301.391
301.389
301.385
301.378
301.366
301.353
301.349
301.365
301.401
301.446
301.467
301.481
301.507
301.724
301.667
301.669
301.686
301.703
301.708
301.71
301.712
301.714
301.715
301.716
301.717
301.718
301.719
301.721
301.725
301.733
301.772
302.12
301.466
301.412
301.413
301.42
301.426
301.43
301.428
301.417
301.389
301.352
301.33
301.344
301.394
301.452
301.479
301.489
301.507
301.652
301.645
301.665
301.697
301.727
301.726
301.725
301.724
301.724
301.723
301.723
301.722
301.72
301.718
301.72
301.722
301.727
301.766
302.335
301.524
301.435
301.44
301.459
301.48
301.497
301.504
301.49
301.439
301.364
301.313
301.322
301.388
301.465
301.506
301.516
301.519
301.538
301.576
301.63
301.686
301.737
301.778
301.809
301.83
301.847
301.86
301.871
301.878
301.883
301.887
301.888
301.843
301.795
301.759
301.771
302.547
301.604
301.467
301.465
301.493
301.531
301.572
301.599
301.589
301.505
301.383
301.299
301.301
301.384
301.482
301.548
301.574
301.579
301.609
301.654
301.708
301.763
301.813
301.854
301.887
301.91
301.926
301.937
301.944
301.947
301.945
301.939
301.928
301.899
301.851
301.801
301.78
301.789
301.802
301.863
302.738
301.715
301.534
301.5
301.52
301.562
301.62
301.682
301.682
301.56
301.394
301.286
301.284
301.379
301.507
301.606
301.657
301.681
301.715
301.759
301.808
301.857
301.899
301.933
301.958
301.975
301.985
301.991
301.993
301.991
301.984
301.973
301.958
301.933
301.893
301.845
301.813
301.808
301.813
301.87
302.909
301.904
301.716
301.644
301.619
301.631
301.673
301.743
301.724
301.573
301.382
301.262
301.267
301.385
301.549
301.682
301.757
301.797
301.831
301.869
301.909
301.946
301.978
302.001
302.015
302.023
302.027
302.027
302.024
302.018
302.009
301.995
301.978
301.955
301.924
301.885
301.853
301.842
301.842
301.877
303.163
302.431
302.235
302.072
301.945
301.876
301.862
301.863
301.742
301.514
301.3
301.202
301.248
301.415
301.623
301.785
301.869
301.907
301.937
301.966
301.994
302.018
302.035
302.046
302.051
302.052
302.05
302.047
302.041
302.034
302.025
302.012
301.996
301.976
301.953
301.927
301.908
301.908
301.915
302.074
303.53
303.193
302.966
302.701
302.446
302.25
302.112
301.945
301.605
301.277
301.098
301.101
301.249
301.499
301.754
301.905
301.967
301.998
302.019
302.038
302.054
302.065
302.071
302.073
302.072
302.07
302.066
302.062
302.057
302.051
302.045
302.041
302.041
302.044
302.055
302.077
302.11
302.149
302.182
302.263
295.99
297.466
298.78
299.63
300.043
300.165
300.299
300.487
300.744
301.051
301.368
301.716
301.919
302.007
302.045
302.064
302.076
302.084
302.09
302.092
302.093
302.092
302.09
302.088
302.086
302.084
302.083
302.082
302.083
302.084
302.087
302.094
302.108
302.128
302.157
302.189
302.219
302.251
296.808
297.793
298.823
299.548
299.908
300.141
300.419
300.795
301.175
301.579
301.818
301.968
302.046
302.082
302.098
302.107
302.111
302.114
302.114
302.114
302.113
302.111
302.11
302.108
302.107
302.107
302.106
302.107
302.108
302.109
302.112
302.118
302.127
302.142
302.161
302.184
302.192
302.23
298.375
298.351
298.349
299.126
299.638
300.07
300.459
300.938
301.46
301.746
301.923
302.022
302.077
302.115
302.138
302.15
302.155
302.157
302.157
302.156
302.155
302.153
302.151
302.149
302.147
302.144
302.142
302.14
302.139
302.137
302.135
302.134
302.134
302.135
302.139
302.145
302.16
302.17
302.175
302.216
)
;

boundaryField
{
    floor
    {
        type            wallHeatTransfer;
        Tinf            uniform 305.2;
        alphaWall       uniform 0.24;
        value           nonuniform List<scalar> 
36
(
301.856
302.321
302.229
302.177
302.179
302.193
302.219
302.25
302.28
302.309
302.337
302.363
302.388
302.413
302.436
302.46
302.487
302.508
302.57
302.57
302.442
302.375
302.329
302.27
302.261
302.317
301.856
301.776
301.839
301.923
302.321
301.923
302.321
301.878
302.073
301.866
)
;
    }
    ceiling
    {
        type            wallHeatTransfer;
        Tinf            uniform 303.2;
        alphaWall       uniform 0.24;
        value           nonuniform List<scalar> 
43
(
298.616
298.59
298.585
299.314
299.81
300.227
300.606
301.077
301.589
301.867
302.04
302.137
302.19
302.227
302.252
302.266
302.274
302.278
302.28
302.281
302.281
302.28
302.279
302.277
302.274
302.271
302.268
302.264
302.26
302.255
302.25
302.245
302.241
302.238
302.237
302.239
302.249
302.259
302.27
302.314
303.516
303.193
297.139
)
;
    }
    sWall
    {
        type            wallHeatTransfer;
        Tinf            uniform 315.2;
        alphaWall       uniform 0.36;
        value           uniform 299.607;
    }
    nWall
    {
        type            wallHeatTransfer;
        Tinf            uniform 307.2;
        alphaWall       uniform 0.36;
        value           nonuniform List<scalar> 6(302.884 302.74 302.618 302.935 302.912 302.922);
    }
    sideWalls
    {
        type            empty;
    }
    glass1
    {
        type            wallHeatTransfer;
        Tinf            uniform 315.2;
        alphaWall       uniform 4.3;
        value           nonuniform List<scalar> 9(310.835 310.125 309.674 309.332 309.046 308.784 308.574 308.654 308.913);
    }
    glass2
    {
        type            wallHeatTransfer;
        Tinf            uniform 307.2;
        alphaWall       uniform 4.3;
        value           nonuniform List<scalar> 2(305.172 305.291);
    }
    sun
    {
        type            wallHeatTransfer;
        Tinf            uniform 305.2;
        alphaWall       uniform 0.24;
        value           nonuniform List<scalar> 
14
(
302.068
301.768
301.749
301.733
301.719
301.706
301.695
301.683
301.672
301.663
301.657
301.661
301.679
301.721
)
;
    }
    Table_master
    {
        type            zeroGradient;
    }
    Table_slave
    {
        type            zeroGradient;
    }
    inlet
    {
        type            fixedValue;
        value           uniform 295.15;
    }
    outlet
    {
        type            zeroGradient;
    }
}


// ************************************************************************* //
