/*--------------------------------*- C++ -*----------------------------------*\
  =========                 |
  \\      /  F ield         | OpenFOAM: The Open Source CFD Toolbox
   \\    /   O peration     | Website:  https://openfoam.org
    \\  /    A nd           | Version:  6
     \\/     M anipulation  |
\*---------------------------------------------------------------------------*/
FoamFile
{
    version     2.0;
    format      ascii;
    class       surfaceScalarField;
    location    "2500";
    object      phi;
}
// * * * * * * * * * * * * * * * * * * * * * * * * * * * * * * * * * * * * * //

dimensions      [1 0 -1 0 0 0 0];

internalField   nonuniform List<scalar> 
850
(
-0.00232093
0.00238016
-0.00243806
0.000117258
-0.00256819
0.000130241
-0.00274928
0.000181212
-0.00292966
0.0001805
-0.00308371
0.000154177
-0.00319591
0.000112325
-0.00325286
5.70631e-05
-0.0032408
-1.19296e-05
-0.00314322
-9.74637e-05
-0.00294225
-0.000200846
-0.00262021
-0.000321922
-0.00213928
-0.00048081
-0.00136664
-0.000772516
-0.00136525
-0.000650988
0.000656062
-0.000632766
-1.80952e-05
-0.000427306
-0.000205333
-0.000259718
-0.000167463
-7.13288e-05
-0.000188266
0.00013066
-0.000201871
0.000287129
-0.000156352
0.000406647
-0.000119402
0.000505076
-9.83127e-05
0.000588555
-8.33639e-05
0.000659118
-7.04484e-05
0.000703764
-4.45313e-05
0.000710745
-6.86722e-06
0.000705828
5.03047e-06
0.00071146
-5.52085e-06
0.000734785
-2.32156e-05
0.000700413
3.44777e-05
0.000705058
-0.00167383
0.00420567
-0.00215017
0.000593723
-0.0024223
0.000402489
-0.00263951
0.000398544
-0.00283304
0.000374152
-0.00299754
0.000318792
-0.00312454
0.000239453
-0.00320478
0.000137426
-0.00322851
1.19125e-05
-0.00318843
-0.000137424
-0.00307776
-0.000311393
-0.00288471
-0.000514848
-0.00259692
-0.000768479
-0.00228158
-0.00108774
-0.00232982
-0.00131688
-0.00110606
-0.00122128
0.000196013
-0.00129942
0.000204741
0.000887212
-0.000219816
0.000746147
0.000123104
0.00034557
0.000195382
8.70526e-05
9.11878e-05
-0.000139638
3.85508e-05
-8.80282e-05
-0.000253356
-6.37581e-05
-0.000180501
-6.36234e-05
-0.000119418
-7.83452e-05
-8.34731e-05
-0.000105906
-5.56873e-05
-0.000150771
-2.54702e-05
-0.000212705
1.7512e-05
-0.000278493
5.90263e-05
-0.000318167
4.48049e-05
-0.000234532
-8.9055e-05
5.16098e-06
-0.000262806
8.24669e-05
-4.27238e-05
0.00079906
-0.00122746
0.00565612
-0.00183568
0.00120207
-0.00215295
0.000719875
-0.00237958
0.000625298
-0.00256577
0.000560458
-0.00271987
0.000473017
-0.00284119
0.000360888
-0.00292554
0.000221893
-0.00296795
5.44402e-05
-0.00296441
-0.000140844
-0.00291483
-0.000360854
-0.00282308
-0.000606475
-0.00270863
-0.000882812
-0.0026273
-0.00116896
-0.00256632
-0.00137774
-0.00229302
-0.00149446
-0.00195431
-0.00163801
-0.00174325
-0.000623037
0.000414599
-0.000719591
0.000219793
-0.000645141
0.000121066
-0.00056642
1.25983e-05
-0.000380516
-0.000147226
-0.000633591
-0.000813819
-0.00093297
-0.00101618
-0.00107161
-0.00109682
-0.00107906
-0.00101977
-0.000974711
-0.000873522
-0.000190131
-0.00115545
1.92329e-05
-0.00121599
1.79338e-05
-0.000403566
-0.000904905
0.00684143
-0.00154524
0.00184253
-0.00183569
0.00101044
-0.00205009
0.000839816
-0.00221138
0.000721865
-0.00233445
0.000596202
-0.00242713
0.000453694
-0.00249118
0.000286057
-0.00252582
8.9192e-05
-0.00253042
-0.000136127
-0.00251202
-0.000379142
-0.00248802
-0.000630354
-0.00248627
-0.000884447
-0.00253597
-0.00111914
-0.00261877
-0.00129482
-0.00270382
-0.00140929
-0.00288418
-0.00145753
-0.00344017
-0.00118713
-0.00282808
-0.000604533
-0.00225208
-0.000161279
-0.00203866
6.49984e-06
-0.00191473
-2.73908e-06
-0.0018412
-6.08147e-05
-0.00185519
-0.000133109
-0.00171647
-0.000138743
-0.001561
-0.000155491
-0.00139262
-0.000168409
-0.00121905
-0.000173599
-0.00104472
-0.000174354
-0.000868881
-0.000175864
-0.000683022
-0.000185885
-0.000470631
-0.000212418
-0.000211333
-0.000259326
-3.25991e-05
-0.000368746
0.000326853
-0.000340102
0.000564585
-0.000219681
0.000170597
-0.000669567
0.00783985
-0.00131042
0.0024835
-0.00149648
0.00119663
-0.00166074
0.00100421
-0.0017893
0.000850545
-0.00186834
0.000675353
-0.00191116
0.000496638
-0.00192768
0.000302688
-0.00192192
8.35431e-05
-0.001899
-0.000158927
-0.00187343
-0.000404599
-0.00186843
-0.000635243
-0.0019069
-0.000845864
-0.00199982
-0.00102611
-0.00213373
-0.0011608
-0.00230074
-0.00124216
-0.00252664
-0.00123151
-0.00269384
-0.00101981
-0.00262348
-0.000674777
-0.00240368
-0.000380958
-0.00217812
-0.000218929
-0.00200842
-0.000172316
-0.00188549
-0.000183627
-0.00180272
-0.000215753
-0.00170251
-0.000238827
-0.00159842
-0.00025945
-0.00149223
-0.000274475
-0.00138349
-0.000282213
-0.00127261
-0.000285109
-0.00115754
-0.000290816
-0.00103067
-0.000312629
-0.000875824
-0.000367148
-0.000664875
-0.000470156
-0.00040792
-0.000625586
4.97518e-05
-0.00079766
0.000763513
-0.000933333
0.00187754
-0.00094332
0.00258735
-0.000703602
0.00217754
0.000416614
0.00221835
-0.000629971
0.00884088
-0.00120399
0.00305764
-0.00106927
0.00106204
-0.00107521
0.00101028
-0.00120384
0.000979306
-0.00126282
0.000734454
-0.00125435
0.000488286
-0.00121162
0.000260075
-0.00114582
1.78578e-05
-0.00107562
-0.000229014
-0.00102642
-0.00045368
-0.00102033
-0.000641227
-0.00107263
-0.000793453
-0.00118554
-0.00091309
-0.00134776
-0.000998478
-0.00154726
-0.00104256
-0.00176335
-0.00101531
-0.00190751
-0.000875529
-0.00192524
-0.000656933
-0.00184612
-0.000459953
-0.00173355
-0.000331382
-0.00163344
-0.000272307
-0.0015579
-0.000259044
-0.00150498
-0.000268546
-0.00146096
-0.000282722
-0.00142394
-0.00029635
-0.00139417
-0.000304118
-0.00137277
-0.00030349
-0.00136129
-0.000296466
-0.00135987
-0.000292118
-0.00136452
-0.000307861
-0.00136449
-0.000367061
-0.00134222
-0.000492307
-0.00127108
-0.000696618
-0.0010905
-0.000978133
-0.000691603
-0.00133212
8.01102e-05
-0.00171493
0.00109891
-0.00172229
0.00143254
8.30922e-05
0.00369061
-0.000814185
0.0100655
-0.000818557
0.00306214
-0.000102042
0.000345662
0.000104921
0.000803453
-0.000108283
0.00119265
-0.000235471
0.000861777
-0.000232383
0.000485326
-0.00016845
0.000196267
-8.14046e-05
-6.90652e-05
-6.49126e-06
-0.000303809
3.44981e-05
-0.000494554
2.3692e-05
-0.000630308
-4.85366e-05
-0.000721114
-0.000181491
-0.000780026
-0.000364682
-0.000815179
-0.000580965
-0.000826166
-0.000798628
-0.000797534
-0.000964447
-0.0007096
-0.00104584
-0.000575424
-0.00106013
-0.000445552
-0.0010405
-0.000350897
-0.00101574
-0.000296948
-0.00100012
-0.000274542
-0.00099764
-0.000270906
-0.00100646
-0.000273776
-0.00102741
-0.000275282
-0.00106373
-0.000267674
-0.00112203
-0.000245067
-0.00121214
-0.000206238
-0.00134509
-0.000159051
-0.00152777
-0.00012506
-0.00175617
-0.000138551
-0.00201607
-0.000232289
-0.00228194
-0.00043064
-0.00251853
-0.000741437
-0.00267323
-0.0011773
-0.00265142
-0.00173663
-0.0022224
-0.0021512
-0.000761362
-0.00137784
0.00297679
0.00188558
0.0086409
0.00262726
0.00232058
0.00289781
7.52468e-05
0.00243845
0.00126295
0.00199406
0.00163719
0.00174558
0.00111039
0.00158977
0.000641278
0.00148381
0.000302356
0.00141875
-3.87034e-06
0.00137599
-0.000260929
0.0013166
-0.000435046
0.00122541
-0.000538993
0.00109837
-0.000593962
0.000934253
-0.0006158
0.000735063
-0.000615879
0.000509643
-0.000600638
0.000280771
-0.000568554
8.37923e-05
-0.000512512
-5.53887e-05
-0.000436133
-0.000141255
-0.000359575
-0.000193551
-0.000298488
-0.000232098
-0.000258286
-0.000269493
-0.000237031
-0.000311685
-0.000228597
-0.000360221
-0.000225123
-0.000416436
-0.000218948
-0.000482778
-0.000201212
-0.000565197
-0.000162529
-0.00067571
-9.56052e-05
-0.000834494
-1.47161e-07
-0.00108131
0.000121874
-0.0014674
0.000247651
-0.00201869
0.000319118
-0.00271053
0.000261315
-0.00347564
2.37796e-05
-0.00431582
-0.00033701
-0.00538405
-0.000668293
-0.00652592
-0.00100923
-0.00601778
-0.00188588
-0.00283432
0.00914616
0.0114556
0.00995216
0.00157876
0.00694813
0.0042671
0.00565392
0.00293152
0.00481943
0.001945
0.00419332
0.00126752
0.0037439
0.000751901
0.00338072
0.000359437
0.00305248
6.74281e-05
0.00275802
-0.000140465
0.00249734
-0.000278185
0.00225963
-0.000356136
0.00203326
-0.000389324
0.0018089
-0.000391408
0.00158224
-0.000373868
0.00135885
-0.000345049
0.00115424
-0.0003078
0.00098333
-0.000265112
0.000848362
-0.000224499
0.000741846
-0.000191864
0.000653283
-0.000169613
0.000573625
-0.000157262
0.00049709
-0.000151949
0.000421228
-0.000149146
0.000345776
-0.000143381
0.000272518
-0.000127838
0.000204719
-9.46125e-05
0.000145832
-3.66007e-05
9.50099e-05
5.0792e-05
4.74521e-05
0.000169549
-1.58969e-06
0.00029681
-6.2923e-05
0.000380567
-0.000167023
0.00036553
-0.000384443
0.000241314
-0.000720978
-3.61522e-07
-0.00115078
-0.000238383
-0.00165059
-0.000509311
-0.00175076
-0.0017856
-0.00436474
-0.00123055
0.00325193
0.00156601
0.00147065
0.00312787
0.00136979
0.00360527
0.00146772
0.00372692
0.00114599
0.00373254
0.000746399
0.00367167
0.000420425
0.00355559
0.000183624
0.00340008
1.51637e-05
0.0032213
-9.92826e-05
0.00302985
-0.000164574
0.00283393
-0.000193292
0.00263841
-0.000195776
0.00244626
-0.000181605
0.0022608
-0.000159482
0.00208574
-0.000132635
0.00192521
-0.000104476
0.00178184
-8.10208e-05
0.00165518
-6.51027e-05
0.00154258
-5.69035e-05
0.0014404
-5.49786e-05
0.0013454
-5.68388e-05
0.00125568
-5.93194e-05
0.00117126
-5.88502e-05
0.00109484
-5.13035e-05
0.00103223
-3.18915e-05
0.000990669
5.07558e-06
0.00097901
6.25661e-05
0.00100579
0.000142883
0.00107304
0.000229673
0.00116797
0.000285751
0.00126736
0.000266256
0.00136558
0.000143216
0.0014376
-7.2275e-05
0.00156089
-0.000361558
0.00182455
-0.000772855
0.00171891
-0.00167985
-0.00259684
-0.000698921
0.00394519
0.000829588
-5.77452e-05
0.00186714
0.000332345
0.00256739
0.000767576
0.00306114
0.000652354
0.00337063
0.000437027
0.00353415
0.00025702
0.00359328
0.000124612
0.00357657
3.19877e-05
0.00349548
-1.80878e-05
0.00337267
-4.16458e-05
0.00322661
-4.71259e-05
0.00307086
-3.99112e-05
0.0029147
-2.53412e-05
0.00276311
-7.78639e-06
0.00262095
9.63888e-06
0.00249327
2.33071e-05
0.00238132
3.10388e-05
0.00228323
3.30893e-05
0.00219578
3.06503e-05
0.00211551
2.53953e-05
0.00203971
1.90611e-05
0.00196722
1.32823e-05
0.0018989
9.57386e-06
0.00183824
9.46177e-06
0.00179175
1.47039e-05
0.00176908
2.78499e-05
0.00177728
5.44853e-05
0.00182973
9.05422e-05
0.00193166
0.000127848
0.00207029
0.000147235
0.00221366
0.000123003
0.00232069
3.62886e-05
0.00235088
-0.000102352
0.00227243
-0.000282992
0.00201799
-0.000518309
0.00125288
-0.000914639
-0.00128696
-0.00255518
-0.00329452
0.000642885
0.000574656
0.000893428
0.00164562
0.00228096
0.00269939
0.00293629
0.00303931
0.0030483
0.00300597
0.00293905
0.00286582
0.0027992
0.0027468
0.00271184
0.00269444
0.00269103
0.00269578
0.00270304
0.00270833
0.00270881
0.00270339
0.00269262
0.00267856
0.00266484
0.00265684
0.00266251
0.00269541
0.00276501
0.00287257
0.00300013
0.00310388
0.00312111
0.00299977
0.00269776
0.00216024
0.00122708
)
;

boundaryField
{
    floor
    {
        type            calculated;
        value           nonuniform List<scalar> 
36
(
0
0
0
0
0
0
0
0
0
0
0
0
0
0
0
0
0
0
0
-4.54418e-06
-1.14388e-05
-1.3243e-05
-9.46559e-06
-6.10173e-06
-6.69597e-06
-7.33176e-06
-1.26797e-06
-2.35714e-06
-2.52501e-06
-3.41251e-06
-4.94875e-06
-5.19513e-06
-1.12039e-05
-6.19015e-06
-1.12424e-05
-7.43912e-06
)
;
    }
    ceiling
    {
        type            calculated;
        value           nonuniform List<scalar> 
43
(
1.29548e-05
1.01208e-05
7.91261e-06
1.05943e-05
1.36743e-05
1.54931e-05
1.71213e-05
1.87002e-05
2.0231e-05
2.17047e-05
2.31031e-05
2.4348e-05
2.5387e-05
2.62127e-05
2.68092e-05
2.71642e-05
2.72789e-05
2.71498e-05
2.6824e-05
2.63938e-05
2.59274e-05
2.54632e-05
2.50157e-05
2.45843e-05
2.41601e-05
2.3731e-05
2.32843e-05
2.28067e-05
2.22829e-05
2.16913e-05
2.10442e-05
2.03843e-05
1.97883e-05
1.93503e-05
1.91622e-05
1.90964e-05
1.9129e-05
1.93133e-05
1.86242e-05
1.97366e-05
1.40626e-05
1.12835e-05
5.78106e-06
)
;
    }
    sWall
    {
        type            calculated;
        value           uniform -0.000132996;
    }
    nWall
    {
        type            calculated;
        value           nonuniform List<scalar> 6(-3.33721e-05 -3.96157e-05 -4.74364e-05 -4.88864e-05 -5.68925e-05 -7.95142e-05);
    }
    sideWalls
    {
        type            empty;
        value           nonuniform 0();
    }
    glass1
    {
        type            calculated;
        value           nonuniform List<scalar> 9(-5.9116e-05 -0.000151572 -0.000222884 -0.000280299 -0.000328744 -0.000370956 -0.000410291 -0.000460921 -0.000519217);
    }
    glass2
    {
        type            calculated;
        value           nonuniform List<scalar> 2(-0.00020656 -0.000220235);
    }
    sun
    {
        type            calculated;
        value           uniform 0;
    }
    Table_master
    {
        type            calculated;
        value           nonuniform List<scalar> 9(-1.53991e-07 -1.53899e-07 -1.53801e-07 -1.53716e-07 -1.5364e-07 -1.53572e-07 -1.53508e-07 -1.5344e-07 -1.53347e-07);
    }
    Table_slave
    {
        type            calculated;
        value           nonuniform List<scalar> 9(1.52331e-07 1.5238e-07 1.5243e-07 1.52482e-07 1.52535e-07 1.52587e-07 1.52638e-07 1.52695e-07 1.52744e-07);
    }
    inlet
    {
        type            calculated;
        value           uniform -0.000442498;
    }
    outlet
    {
        type            calculated;
        value           nonuniform List<scalar> 2(0.00267535 0.000729332);
    }
}


// ************************************************************************* //
