/*--------------------------------*- C++ -*----------------------------------*\
  =========                 |
  \\      /  F ield         | OpenFOAM: The Open Source CFD Toolbox
   \\    /   O peration     | Website:  https://openfoam.org
    \\  /    A nd           | Version:  6
     \\/     M anipulation  |
\*---------------------------------------------------------------------------*/
FoamFile
{
    version     2.0;
    format      ascii;
    class       volVectorField;
    location    "2500";
    object      U;
}
// * * * * * * * * * * * * * * * * * * * * * * * * * * * * * * * * * * * * * //

dimensions      [0 1 -1 0 0 0 0];

internalField   nonuniform List<vector> 
458
(
(0.0971501 0.0632485 0)
(-0.130268 1.20708e-05 0)
(-0.107076 0.00218021 0)
(-0.114807 0.0034222 0)
(-0.122884 0.00301036 0)
(-0.130263 0.00187056 0)
(-0.136122 0.000259297 0)
(-0.139898 -0.00178672 0)
(-0.141083 -0.00431302 0)
(-0.139045 -0.00744977 0)
(-0.132612 -0.0114864 0)
(-0.119654 -0.0168501 0)
(-0.0988451 -0.0248403 0)
(-0.0771035 -0.0380164 0)
(-0.0796825 -0.0565907 0)
(0.0258744 0.0118776 0)
(-0.0341385 -0.00847232 0)
(-0.0207704 -0.00959549 0)
(-0.0157695 -0.00720341 0)
(-0.00812253 -0.00681693 0)
(0.000434741 -0.0101442 0)
(0.008591 -0.00790501 0)
(0.0151174 -0.0061574 0)
(0.0198323 -0.00488568 0)
(0.0236117 -0.00399246 0)
(0.0267496 -0.00341333 0)
(0.0292226 -0.00276598 0)
(0.0308212 -0.00162764 0)
(0.0308357 -0.000264191 0)
(0.0301226 0.000413348 0)
(0.0302801 -0.00118228 0)
(0.0375959 -0.000122511 0)
(-0.0187382 0.0150669 0)
(0.291033 0.138899 0)
(-0.1537 0.0138088 0)
(-0.0966328 0.0112606 0)
(-0.109379 0.0129352 0)
(-0.118395 0.0126088 0)
(-0.126271 0.0110126 0)
(-0.132645 0.00852751 0)
(-0.137218 0.00523429 0)
(-0.139616 0.00107993 0)
(-0.13931 -0.00404595 0)
(-0.135886 -0.0101778 0)
(-0.128578 -0.0175626 0)
(-0.117804 -0.0272812 0)
(-0.107378 -0.0408632 0)
(-0.0993086 -0.0535658 0)
(-0.0748574 -0.042688 0)
(-0.0348941 -0.0440884 0)
(-0.0243338 0.0487258 0)
(0.108618 0.0130753 0)
(0.0434433 0.00837896 0)
(0.0162968 0.00317518 0)
(0.00490448 0.000332897 0)
(-0.00148466 -0.00265953 0)
(-0.00570312 -0.0108116 0)
(-0.00493577 -0.00831852 0)
(-0.00257912 -0.00597692 0)
(-0.00293002 -0.00464195 0)
(-0.00396092 -0.00350918 0)
(-0.00533731 -0.00204839 0)
(-0.00772355 0.000273872 0)
(-0.0111576 0.00240634 0)
(-0.0127312 0.00155604 0)
(-0.0113128 -0.00342171 0)
(-0.00582537 -0.00940971 0)
(0.0214204 -0.00116323 0)
(-0.100907 0.0346514 0)
(0.44975 0.211767 0)
(-0.196259 0.0379424 0)
(-0.078705 0.0239693 0)
(-0.0978896 0.0220259 0)
(-0.107069 0.020107 0)
(-0.114482 0.0169606 0)
(-0.120473 0.0126791 0)
(-0.124981 0.00726761 0)
(-0.127812 0.000704285 0)
(-0.128612 -0.00697287 0)
(-0.127197 -0.0157875 0)
(-0.12375 -0.0258798 0)
(-0.11927 -0.03765 0)
(-0.115606 -0.0507659 0)
(-0.111474 -0.0612705 0)
(-0.101577 -0.0641392 0)
(-0.0952476 -0.071625 0)
(-0.118211 -0.071566 0)
(0.0494509 0.00664969 0)
(-0.0356821 0.00843874 0)
(-0.0302523 0.00905554 0)
(-0.0258598 0.00455846 0)
(-0.0234629 -0.0018437 0)
(-0.0182092 -0.00872888 0)
(-0.0319134 -0.00798307 0)
(-0.0380275 -0.00600711 0)
(-0.0422676 -0.00465147 0)
(-0.0452722 -0.00361726 0)
(-0.0470582 -0.00274006 0)
(-0.0473181 -0.00196643 0)
(-0.0462019 -0.00161465 0)
(-0.0431328 -0.00252024 0)
(-0.0338557 -0.00353812 0)
(-0.0352021 0.00085158 0)
(-0.0564051 0.00710587 0)
(-0.131356 0.0136329 0)
(0.574744 0.271587 0)
(-0.23682 0.0665567 0)
(-0.0577295 0.0377433 0)
(-0.0831472 0.0316382 0)
(-0.092504 0.0278389 0)
(-0.0985281 0.0233276 0)
(-0.103176 0.0178381 0)
(-0.106598 0.0111529 0)
(-0.108775 0.00316377 0)
(-0.109519 -0.00609302 0)
(-0.108905 -0.0163263 0)
(-0.107688 -0.0273059 0)
(-0.107016 -0.038893 0)
(-0.108035 -0.0501342 0)
(-0.110251 -0.0585986 0)
(-0.113201 -0.0629868 0)
(-0.122508 -0.0638888 0)
(-0.140997 -0.0481079 0)
(-0.137234 0.00202126 0)
(-0.101791 0.00660751 0)
(-0.0951167 0.00613015 0)
(-0.0848686 0.00237294 0)
(-0.0815047 -0.00190726 0)
(-0.0801961 -0.00626251 0)
(-0.0775568 -0.0067856 0)
(-0.0707838 -0.00698597 0)
(-0.0637298 -0.00747122 0)
(-0.0563488 -0.00772762 0)
(-0.0488789 -0.00784428 0)
(-0.0413976 -0.00795369 0)
(-0.0336073 -0.00824126 0)
(-0.0246627 -0.00886084 0)
(-0.0134461 -0.00955278 0)
(-0.0066978 -0.0108571 0)
(0.00762578 -0.00591895 0)
(0.0244273 -0.00274424 0)
(-0.0414562 8.76263e-05 0)
(0.66915 0.320372 0)
(-0.268307 0.0969624 0)
(-0.0388053 0.0499409 0)
(-0.0649706 0.040364 0)
(-0.0752359 0.0339951 0)
(-0.0795101 0.027701 0)
(-0.0819946 0.0209093 0)
(-0.0832833 0.0131171 0)
(-0.08354 0.00408031 0)
(-0.0826255 -0.00611371 0)
(-0.0812688 -0.0168194 0)
(-0.0803641 -0.027389 0)
(-0.0809729 -0.0375428 0)
(-0.0837929 -0.0466144 0)
(-0.0886158 -0.0535075 0)
(-0.0953642 -0.0579312 0)
(-0.104924 -0.0592568 0)
(-0.114221 -0.0518627 0)
(-0.115924 -0.0304173 0)
(-0.108704 -0.0138303 0)
(-0.0989718 -0.00576025 0)
(-0.0900194 -0.00429812 0)
(-0.08387 -0.00536505 0)
(-0.079582 -0.00735104 0)
(-0.0756702 -0.00825513 0)
(-0.071236 -0.00931623 0)
(-0.0666916 -0.0100197 0)
(-0.0620549 -0.0104067 0)
(-0.0573447 -0.0106153 0)
(-0.0525255 -0.0109333 0)
(-0.0473482 -0.0118233 0)
(-0.0412374 -0.0138402 0)
(-0.0334698 -0.017416 0)
(-0.0235466 -0.0226135 0)
(-0.00914822 -0.025892 0)
(0.0206367 -0.026029 0)
(0.0499611 -0.0182174 0)
(0.0928697 -0.0039087 0)
(0.12132 0.0349657 0)
(-0.0156796 0.0970191 0)
(0.725037 0.363528 0)
(-0.290962 0.122969 0)
(-0.0261436 0.0526283 0)
(-0.0377463 0.0476448 0)
(-0.0500342 0.0402576 0)
(-0.054395 0.0304207 0)
(-0.0548907 0.0214923 0)
(-0.0537206 0.0124934 0)
(-0.0514017 0.00257257 0)
(-0.0476541 -0.00805686 0)
(-0.044886 -0.0182958 0)
(-0.0435502 -0.0274157 0)
(-0.0445008 -0.03532 0)
(-0.0481321 -0.0418636 0)
(-0.0541999 -0.0466337 0)
(-0.0623418 -0.0492415 0)
(-0.0719501 -0.0484648 0)
(-0.0802639 -0.0417251 0)
(-0.0837439 -0.0297915 0)
(-0.0820198 -0.0192496 0)
(-0.0774394 -0.0128208 0)
(-0.0725586 -0.0103192 0)
(-0.06872 -0.0101378 0)
(-0.0659933 -0.0110138 0)
(-0.0639337 -0.011823 0)
(-0.0621715 -0.0126259 0)
(-0.0607061 -0.013206 0)
(-0.0595782 -0.0134857 0)
(-0.0588681 -0.0135814 0)
(-0.0586274 -0.0138707 0)
(-0.05875 -0.0150149 0)
(-0.0589148 -0.0178215 0)
(-0.0585515 -0.0230167 0)
(-0.0565954 -0.0309398 0)
(-0.0506974 -0.0408816 0)
(-0.0376424 -0.0528971 0)
(-0.0193861 -0.0667053 0)
(0.00558226 -0.0717529 0)
(0.086513 -0.00522943 0)
(-0.0612714 0.116722 0)
(0.741976 0.403234 0)
(-0.296214 0.117368 0)
(-0.00608053 0.0161411 0)
(0.0163185 0.0473063 0)
(0.00123922 0.051836 0)
(-0.0098961 0.0335135 0)
(-0.0112629 0.0194134 0)
(-0.00951141 0.00879504 0)
(-0.00559351 -0.00215899 0)
(-0.00116338 -0.0126103 0)
(0.00144639 -0.0213948 0)
(0.00205786 -0.0280263 0)
(0.000232454 -0.0329994 0)
(-0.00432844 -0.0367219 0)
(-0.0113433 -0.039312 0)
(-0.020275 -0.0405781 0)
(-0.0301155 -0.0395362 0)
(-0.0388027 -0.034871 0)
(-0.0442186 -0.027527 0)
(-0.0460412 -0.0205083 0)
(-0.0456032 -0.0155903 0)
(-0.044416 -0.0130114 0)
(-0.0434429 -0.0121298 0)
(-0.0430263 -0.0122018 0)
(-0.0431519 -0.0125451 0)
(-0.0437551 -0.0128618 0)
(-0.0449165 -0.0128659 0)
(-0.0468409 -0.0123901 0)
(-0.0499121 -0.0115123 0)
(-0.054646 -0.0107366 0)
(-0.0614349 -0.0110333 0)
(-0.0703946 -0.0134814 0)
(-0.0810143 -0.0188899 0)
(-0.092453 -0.0280146 0)
(-0.10352 -0.0415861 0)
(-0.112347 -0.0598011 0)
(-0.116378 -0.0792165 0)
(-0.10756 -0.0827229 0)
(-0.0784462 -0.024761 0)
(-0.135623 0.191716 0)
(0.837021 0.419205 0)
(-0.0942093 0.0912946 0)
(0.0820049 -0.0575578 0)
(0.133226 0.00903887 0)
(0.103284 0.0370095 0)
(0.0777408 0.0260267 0)
(0.0693777 0.01191 0)
(0.0658386 0.00135868 0)
(0.0623375 -0.008637 0)
(0.0609198 -0.0169255 0)
(0.0587888 -0.0231432 0)
(0.0554542 -0.0272459 0)
(0.0507073 -0.0296533 0)
(0.0443844 -0.0308767 0)
(0.0364534 -0.0313205 0)
(0.0270943 -0.0311448 0)
(0.0169499 -0.0299937 0)
(0.00738945 -0.0271291 0)
(-6.92092e-05 -0.0227178 0)
(-0.00478331 -0.0182491 0)
(-0.00751673 -0.0148122 0)
(-0.00929941 -0.0126606 0)
(-0.0108344 -0.0115951 0)
(-0.0125034 -0.0112289 0)
(-0.0144379 -0.0111217 0)
(-0.0166686 -0.0109123 0)
(-0.019255 -0.0102165 0)
(-0.0223504 -0.00867396 0)
(-0.0263413 -0.00606391 0)
(-0.031923 -0.00251401 0)
(-0.0398666 0.00137863 0)
(-0.0529509 0.00372293 0)
(-0.0732396 0.00165122 0)
(-0.101094 -0.00710203 0)
(-0.134658 -0.0221472 0)
(-0.169239 -0.0396833 0)
(-0.205021 -0.0564027 0)
(-0.236394 -0.0636631 0)
(-0.296091 -0.050073 0)
(-0.509597 0.00392917 0)
(0.97068 0.391822 0)
(0.459328 0.234518 0)
(0.371162 0.138668 0)
(0.381925 0.141124 0)
(0.284837 0.117645 0)
(0.219418 0.0820964 0)
(0.189273 0.0523719 0)
(0.170282 0.0298947 0)
(0.15477 0.012426 0)
(0.139099 -0.0015711 0)
(0.125337 -0.0113764 0)
(0.113464 -0.0173163 0)
(0.102829 -0.0203273 0)
(0.0928866 -0.0213446 0)
(0.0831857 -0.021106 0)
(0.0733999 -0.0201372 0)
(0.0635177 -0.0186972 0)
(0.054039 -0.0167635 0)
(0.0457628 -0.0144145 0)
(0.0391717 -0.0120549 0)
(0.0340756 -0.0100627 0)
(0.0299843 -0.00863527 0)
(0.0264401 -0.00777004 0)
(0.0231187 -0.00731792 0)
(0.0198502 -0.00704033 0)
(0.016587 -0.00666042 0)
(0.0133661 -0.00583499 0)
(0.0102892 -0.00417111 0)
(0.00747573 -0.00130561 0)
(0.00545336 0.00301311 0)
(0.00348062 0.0087522 0)
(0.00144706 0.0152099 0)
(-0.00147366 0.0203107 0)
(-0.00564826 0.0212442 0)
(-0.0107164 0.0157269 0)
(-0.0270845 0.00181562 0)
(-0.0389331 -0.0162556 0)
(-0.031967 -0.0482425 0)
(-0.0464278 -0.120117 0)
(-0.447762 -0.205162 0)
(-1.1855 0.0500615 0)
(0.212787 0.146253 0)
(0.131844 0.111419 0)
(0.137541 0.0835202 0)
(0.155094 0.058712 0)
(0.162483 0.0377553 0)
(0.161575 0.0217733 0)
(0.157172 0.0107067 0)
(0.150959 0.00340044 0)
(0.143568 -0.00149446 0)
(0.135467 -0.00431378 0)
(0.127001 -0.00539124 0)
(0.11846 -0.00511731 0)
(0.110016 -0.00395667 0)
(0.101781 -0.0024102 0)
(0.0938877 -0.000845467 0)
(0.0865346 0.000501434 0)
(0.0799212 0.00143939 0)
(0.0740998 0.00191015 0)
(0.0689736 0.00195771 0)
(0.0643798 0.00168348 0)
(0.0601547 0.0012289 0)
(0.0561803 0.000768391 0)
(0.0524123 0.000504302 0)
(0.0489031 0.000686053 0)
(0.0458265 0.00160813 0)
(0.0435084 0.00352358 0)
(0.0424088 0.00642036 0)
(0.042633 0.0105354 0)
(0.044614 0.0151516 0)
(0.0480444 0.0184341 0)
(0.052174 0.018198 0)
(0.0564867 0.0134229 0)
(0.0605054 0.00378855 0)
(0.0640481 -0.00822192 0)
(0.0737542 -0.0211958 0)
(0.123152 -0.0666704 0)
(-0.114747 -0.150549 0)
(-0.562305 0.127945 0)
(0.209741 0.0472902 0)
(0.0665952 0.031498 0)
(0.0863086 0.0388961 0)
(0.120248 0.0291833 0)
(0.14105 0.0128782 0)
(0.151135 -0.00301753 0)
(0.155337 -0.0170087 0)
(0.155978 -0.0292176 0)
(0.153721 -0.038752 0)
(0.149138 -0.0456923 0)
(0.143116 -0.0508067 0)
(0.136411 -0.0545754 0)
(0.129537 -0.0572594 0)
(0.122794 -0.0589442 0)
(0.116378 -0.0593071 0)
(0.110491 -0.0584047 0)
(0.10528 -0.0568451 0)
(0.100742 -0.0551233 0)
(0.0967574 -0.0535465 0)
(0.0931612 -0.0522397 0)
(0.0898075 -0.0511878 0)
(0.0866046 -0.0502845 0)
(0.0835402 -0.0493693 0)
(0.0807036 -0.0482433 0)
(0.0783233 -0.0466659 0)
(0.0768006 -0.0442758 0)
(0.0763562 -0.0403956 0)
(0.0775296 -0.0352155 0)
(0.0807885 -0.0297411 0)
(0.0860202 -0.0258681 0)
(0.0922385 -0.0258047 0)
(0.0979832 -0.030973 0)
(0.101692 -0.0388102 0)
(0.100574 -0.0468115 0)
(0.0928413 -0.0559219 0)
(0.12746 -0.0753128 0)
(-0.18495 -0.0941172 0)
(0.226774 -0.114549 0)
(-0.135818 -0.0293663 0)
(-0.25549 0.170712 0)
(0.175411 0.040703 0)
(0.0395959 0.0508962 0)
(0.0471584 0.0778606 0)
(0.0829888 0.0856971 0)
(0.10887 0.0902522 0)
(0.123658 0.0970824 0)
(0.130762 0.106892 0)
(0.132792 0.119135 0)
(0.131724 0.131628 0)
(0.129054 0.14312 0)
(0.125774 0.153682 0)
(0.122574 0.16311 0)
(0.119893 0.171007 0)
(0.117952 0.176928 0)
(0.116805 0.180001 0)
(0.116359 0.180109 0)
(0.116417 0.178205 0)
(0.116724 0.175224 0)
(0.117042 0.171884 0)
(0.117201 0.168631 0)
(0.117111 0.165667 0)
(0.11676 0.163007 0)
(0.116203 0.16054 0)
(0.115565 0.158071 0)
(0.115041 0.15533 0)
(0.114921 0.151936 0)
(0.115615 0.147248 0)
(0.117661 0.141253 0)
(0.121369 0.134496 0)
(0.12647 0.128015 0)
(0.131748 0.123004 0)
(0.135153 0.120614 0)
(0.133629 0.117831 0)
(0.124955 0.112992 0)
(0.106021 0.106557 0)
(0.143919 0.0897368 0)
(-0.278685 0.0873451 0)
)
;

boundaryField
{
    floor
    {
        type            noSlip;
    }
    ceiling
    {
        type            noSlip;
    }
    sWall
    {
        type            noSlip;
    }
    nWall
    {
        type            noSlip;
    }
    sideWalls
    {
        type            empty;
    }
    glass1
    {
        type            noSlip;
    }
    glass2
    {
        type            noSlip;
    }
    sun
    {
        type            noSlip;
    }
    Table_master
    {
        type            noSlip;
    }
    Table_slave
    {
        type            noSlip;
    }
    inlet
    {
        type            fixedValue;
        value           uniform (0.0707107 -0.0707107 0);
    }
    outlet
    {
        type            zeroGradient;
    }
}


// ************************************************************************* //
