/*--------------------------------*- C++ -*----------------------------------*\
  =========                 |
  \\      /  F ield         | OpenFOAM: The Open Source CFD Toolbox
   \\    /   O peration     | Website:  https://openfoam.org
    \\  /    A nd           | Version:  6
     \\/     M anipulation  |
\*---------------------------------------------------------------------------*/
FoamFile
{
    version     2.0;
    format      ascii;
    class       surfaceScalarField;
    location    "2000";
    object      phi;
}
// * * * * * * * * * * * * * * * * * * * * * * * * * * * * * * * * * * * * * //

dimensions      [1 0 -1 0 0 0 0];

internalField   nonuniform List<scalar> 
850
(
-0.00284058
0.00289444
-0.00380803
0.000967433
-0.0045505
0.000742445
-0.00514869
0.000598177
-0.00557967
0.000430954
-0.00582923
0.000249543
-0.00588135
5.2098e-05
-0.00571799
-0.000163386
-0.00533111
-0.000386901
-0.00473751
-0.000593625
-0.00397859
-0.000758944
-0.00311076
-0.000867857
-0.00218152
-0.000929261
-0.00118412
-0.00099743
-0.0011832
-0.000545756
0.000547621
-0.000176104
-0.000369662
0.000410407
-0.000586522
0.000849805
-0.000439409
0.00113656
-0.000286767
0.00129247
-0.000155921
0.00136489
-7.24255e-05
0.00140384
-3.89532e-05
0.00142711
-2.32796e-05
0.00143923
-1.21285e-05
0.00144207
-2.84554e-06
0.00143439
7.67904e-06
0.001408
2.63803e-05
0.00134064
6.73629e-05
0.00119468
0.000145952
0.000951546
0.000243133
0.000637996
0.000313548
0.000640504
-0.0020146
0.00505398
-0.00295026
0.00190307
-0.00369994
0.0014921
-0.00427248
0.0011707
-0.00468083
0.000839283
-0.00492243
0.000491121
-0.00498121
0.000110865
-0.00483809
-0.000306532
-0.00449279
-0.000732231
-0.00397363
-0.00111281
-0.00333097
-0.00140163
-0.00262731
-0.00157154
-0.0019279
-0.0016287
-0.00133806
-0.0015873
-0.00115861
-0.00136267
-0.000380563
-0.000776299
-0.000140792
-0.000237664
-0.000134041
0.000402482
0.000150376
0.000836466
-0.00080366
0.00108865
-0.000838718
0.00129644
-0.000647214
0.00144177
-0.000432115
0.00146798
-0.00018214
0.00147243
-7.68812e-05
0.00147841
-4.49434e-05
0.00148359
-2.84639e-05
0.00148686
-1.54078e-05
0.00148833
-4.31923e-06
0.00148729
8.70764e-06
0.00148037
3.32988e-05
0.00143966
0.000108066
0.00127165
0.000313957
0.000975323
0.000539457
0.000590052
0.000698817
0.00123719
-0.00140672
0.00668207
-0.00221107
0.00270741
-0.00285459
0.0021356
-0.00332039
0.00163648
-0.00365364
0.00117252
-0.00385279
0.000690255
-0.00389163
0.000149679
-0.00373892
-0.000459268
-0.00340289
-0.00106829
-0.00292643
-0.0015893
-0.00236495
-0.00196315
-0.00177917
-0.00215736
-0.00122567
-0.00218223
-0.000768694
-0.0020443
-0.000430167
-0.00170123
-6.9744e-05
-0.00113675
0.000183862
-0.000491292
5.48482e-05
0.00139089
-0.00123508
0.00159
-0.00100279
0.00160134
-0.000850067
0.00163528
-0.000681173
0.00171612
-0.000512965
0.00153412
0.00145738
0.00141258
0.00138426
0.00136899
0.00136482
0.00137367
0.00140712
0.00151533
0.00127343
0.000555855
0.000965595
0.00084729
0.000541065
0.00112334
0.00178852
-0.000987717
0.00795587
-0.0016292
0.00334887
-0.00202447
0.00253085
-0.00229961
0.0019116
-0.00249069
0.00136358
-0.00259025
0.000789807
-0.00255332
0.000112731
-0.00234437
-0.000668248
-0.00199927
-0.00141341
-0.00157511
-0.00201352
-0.00112287
-0.00241543
-0.000688693
-0.00259158
-0.000301741
-0.00256922
2.20941e-05
-0.00236817
0.000309511
-0.00198867
0.000640501
-0.00146776
0.00107182
-0.000922638
0.00169632
-0.000569674
0.00228622
-0.000584915
0.00189452
-0.000843399
0.00177925
-0.00088755
0.00168628
-0.000757109
0.00160934
-0.000604253
0.00151815
-0.000421784
0.00169689
-0.000178909
0.00179311
-9.6378e-05
0.00186183
-6.88881e-05
0.00191163
-4.9953e-05
0.00193308
-2.16164e-05
0.00190907
2.38561e-05
0.00181758
9.13307e-05
0.00162733
0.000190094
0.00128504
0.000342135
0.0011585
0.000682392
0.000904595
0.0011012
0.000518931
0.00150901
0.00232094
-0.00070517
0.00900175
-0.00120355
0.00384722
-0.00123777
0.00256506
-0.00123486
0.00190868
-0.00120952
0.00133822
-0.00113141
0.000711693
-0.000928454
-9.02363e-05
-0.000615796
-0.00098093
-0.000270935
-0.00175832
5.78926e-05
-0.00234241
0.00034011
-0.00269771
0.000564592
-0.00281613
0.000731652
-0.00273633
0.000853074
-0.00248964
0.000970697
-0.00210632
0.00113832
-0.00163541
0.00138338
-0.00116773
0.00164774
-0.000834054
0.0017783
-0.000715497
0.00167075
-0.000735879
0.0015076
-0.000724413
0.00137705
-0.000626581
0.00127482
-0.000502035
0.00121815
-0.000365129
0.00126701
-0.000227779
0.00132305
-0.000152419
0.00137627
-0.000122112
0.00142732
-0.000101015
0.00147009
-6.43871e-05
0.00148846
5.48084e-06
0.00146375
0.000116039
0.00138488
0.000268971
0.00125304
0.000473972
0.00114548
0.00078995
0.00104534
0.00120133
0.000853986
0.00170036
0.00106692
0.002108
-0.000866685
0.00194586
-0.00149465
0.00063855
-0.00144156
-0.000628861
0.0100172
-0.000987602
0.00420595
-0.000531882
0.00210932
-9.87029e-05
0.00147549
0.000248568
0.000990944
0.000627467
0.000332792
0.00106051
-0.000523289
0.00143496
-0.00135542
0.00170445
-0.00202787
0.0018558
-0.00249384
0.00189828
-0.00274027
0.00185865
-0.00277657
0.00175895
-0.0026367
0.00162841
-0.00235914
0.00150651
-0.00198446
0.00143168
-0.00156061
0.00141486
-0.00115093
0.00141518
-0.000834402
0.00135867
-0.000659009
0.00121534
-0.000592562
0.00103518
-0.000544269
0.000882498
-0.000473915
0.000773553
-0.0003931
0.000719372
-0.000310956
0.000728609
-0.000237022
0.000771711
-0.000195525
0.000829544
-0.000179948
0.000895896
-0.000167369
0.000966992
-0.000135484
0.00103488
-6.24025e-05
0.00108426
6.66504e-05
0.00110916
0.000244075
0.00111858
0.000464548
0.00115813
0.000750403
0.0012736
0.00108586
0.00148623
0.00148773
0.00184415
0.00175008
0.00210114
0.00168887
0.00163479
0.0011049
0.000245756
-0.000669289
0.0111151
-0.000566054
0.00410269
0.000602693
0.000940556
0.00147317
0.000605005
0.00217548
0.000288626
0.00285018
-0.000341907
0.00339164
-0.00106478
0.00370324
-0.00166708
0.00378643
-0.00211115
0.00367307
-0.00238059
0.00340617
-0.00247349
0.00303674
-0.00240724
0.00261392
-0.00221394
0.00218298
-0.00192826
0.00178524
-0.00158677
0.00145222
-0.0012276
0.00119142
-0.000890151
0.000983479
-0.000626479
0.000792589
-0.000468137
0.000595614
-0.000395603
0.000409437
-0.000358105
0.000261209
-0.000325695
0.000162154
-0.000294053
0.000115472
-0.000264278
0.000118595
-0.000240147
0.000153862
-0.000230793
0.00020576
-0.000231846
0.000269867
-0.000231476
0.000349639
-0.000215255
0.000450886
-0.000163647
0.000566793
-4.92551e-05
0.000686057
0.000124814
0.000816369
0.000334238
0.000991279
0.000575495
0.00124735
0.000829785
0.00162133
0.00111376
0.00213492
0.00123648
0.0027674
0.0010564
0.00287209
0.00100021
0.0031749
0.0024989
0.0090962
0.00320796
0.00339362
0.00390985
0.000238642
0.00477679
-0.00026194
0.00554177
-0.000476366
0.00608108
-0.000881262
0.00629412
-0.0012779
0.00619845
-0.00157153
0.00583474
-0.00174758
0.00526132
-0.0018073
0.00454829
-0.00176058
0.00376876
-0.00162781
0.00298802
-0.00143327
0.00225507
-0.00119536
0.00160655
-0.00093828
0.00106678
-0.000687854
0.000638143
-0.000461528
0.00031132
-0.00029967
5.92272e-05
-0.000216056
-0.000145171
-0.000191214
-0.000308467
-0.000194816
-0.000428961
-0.000205206
-0.000507942
-0.000215075
-0.000549273
-0.000222947
-0.0005596
-0.000229819
-0.000551816
-0.000238576
-0.000535933
-0.000247727
-0.000514318
-0.000253088
-0.000481012
-0.000248558
-0.000419742
-0.000224914
-0.00030302
-0.000165974
-0.000138175
-4.00285e-05
6.10568e-05
0.00013501
0.000310629
0.000325925
0.000619056
0.00052136
0.00101227
0.000720545
0.00147344
0.000775311
0.00186696
0.000662885
0.00122374
0.00164343
0.00461805
0.00961942
0.013002
0.0124938
0.000746798
0.0119335
0.000298358
0.0113665
9.05058e-05
0.0106046
-0.000119507
0.00959482
-0.000268405
0.00841531
-0.000392243
0.00714279
-0.000475253
0.00584357
-0.000508232
0.00458079
-0.0004979
0.00340928
-0.000456363
0.0023685
-0.000392531
0.00147306
-0.000299938
0.000731175
-0.000196403
0.000144811
-0.000101496
-0.000282875
-3.38456e-05
-0.000570907
-1.16446e-05
-0.000768922
-1.80462e-05
-0.000919417
-4.07227e-05
-0.0010419
-7.23382e-05
-0.00113873
-0.000108373
-0.00121281
-0.000140994
-0.00126869
-0.000167069
-0.00131314
-0.000185366
-0.00135631
-0.000195394
-0.00140867
-0.000195367
-0.00147965
-0.000182109
-0.00157791
-0.000150289
-0.00171102
-9.17964e-05
-0.00188453
7.5373e-06
-0.00208738
0.000162819
-0.00233537
0.000383003
-0.00269416
0.00068472
-0.00324818
0.00107538
-0.00407646
0.00154883
-0.00531326
0.00201211
-0.0068507
0.00220033
-0.0066153
0.00140802
-0.0017564
0.00332066
0.00215395
0.00305528
0.000563048
0.00367129
-0.00052607
0.00381186
-0.000260301
0.00356608
-2.26812e-05
0.00310589
6.7963e-05
0.00252644
0.000104249
0.00188533
0.00013293
0.00122797
0.000159506
0.000590231
0.000181421
-2.73577e-06
0.00020047
-0.000511084
0.000208437
-0.000902035
0.000194556
-0.00118128
0.000177746
-0.00136608
0.000150961
-0.00149032
0.000112593
-0.00158152
7.31575e-05
-0.00165893
3.66814e-05
-0.0017343
3.04218e-06
-0.00181181
-3.08611e-05
-0.00189151
-6.12916e-05
-0.00197311
-8.54635e-05
-0.00205707
-0.000101402
-0.00214519
-0.000107269
-0.00224005
-0.000100505
-0.0023441
-7.80543e-05
-0.00245814
-3.62534e-05
-0.00257774
2.78075e-05
-0.00269166
0.000121466
-0.00278873
0.000259891
-0.00287515
0.000469422
-0.00295245
0.000762029
-0.00301528
0.00113821
-0.00303409
0.00156765
-0.00298328
0.00196131
-0.00270342
0.00192047
-0.00143178
0.000136388
-0.00312583
-0.000206051
0.00243888
-4.79086e-06
0.000361481
-0.00062386
9.27693e-05
-0.00100067
0.000116423
-0.00119361
0.00017026
-0.00133148
0.000205873
-0.00146556
0.000238358
-0.00159639
0.000263802
-0.0017162
0.00027934
-0.00181925
0.000284497
-0.00189871
0.000279953
-0.00195343
0.000263172
-0.00199144
0.000232575
-0.00201117
0.000197479
-0.00201963
0.00015942
-0.00202745
0.000120422
-0.00204021
8.59204e-05
-0.00206163
5.81017e-05
-0.00209477
3.61943e-05
-0.00214802
2.23952e-05
-0.00222235
1.30424e-05
-0.00231531
7.50215e-06
-0.00242196
5.24795e-06
-0.00253497
5.74443e-06
-0.00264447
9.00085e-06
-0.00273863
1.61128e-05
-0.00280436
2.94771e-05
-0.00283282
5.62705e-05
-0.00281812
0.00010677
-0.0027443
0.000186075
-0.00258355
0.00030868
-0.00231011
0.000488592
-0.00189993
0.000728029
-0.00130911
0.000976828
-0.000375698
0.0010279
0.000976116
0.000568659
0.00164793
-0.000535423
-0.00141035
-0.00517833
-0.00812035
-0.00564466
-0.00526997
-0.00517071
-0.00505123
-0.00488048
-0.0046763
-0.00444157
-0.0041832
-0.00391102
-0.00363537
-0.00336597
-0.00311503
-0.00289622
-0.00271376
-0.00257029
-0.00246646
-0.00239755
-0.00235676
-0.00233812
-0.00233353
-0.00233857
-0.00234947
-0.00236299
-0.0023764
-0.00238692
-0.00239063
-0.00238115
-0.0023449
-0.00225802
-0.00209158
-0.00180215
-0.00133235
-0.000622592
0.000336492
0.00134688
0.0018977
0.00134372
)
;

boundaryField
{
    floor
    {
        type            calculated;
        value           nonuniform List<scalar> 
36
(
0
0
0
0
0
0
0
0
0
0
0
0
0
0
0
0
0
0
0
-2.50967e-06
-6.63567e-06
-1.02649e-05
-1.34912e-05
-1.22556e-05
-1.05836e-05
-9.85922e-06
-9.37749e-07
-1.77005e-06
-2.12574e-06
-2.67444e-06
-1.87393e-06
-4.088e-06
-5.24496e-06
-5.04786e-06
-5.45072e-06
-5.00292e-06
)
;
    }
    ceiling
    {
        type            calculated;
        value           nonuniform List<scalar> 
43
(
-3.96483e-05
-3.83295e-05
-3.68027e-05
-1.31957e-05
-6.46743e-06
-3.0346e-06
-4.71955e-07
1.70359e-06
3.6453e-06
5.44369e-06
7.16563e-06
8.86386e-06
1.05642e-05
1.22391e-05
1.37666e-05
1.50255e-05
1.596e-05
1.6596e-05
1.70171e-05
1.73161e-05
1.75651e-05
1.78094e-05
1.80855e-05
1.84076e-05
1.87731e-05
1.91604e-05
1.95284e-05
1.98246e-05
2.00004e-05
2.00256e-05
1.98982e-05
1.96373e-05
1.92605e-05
1.87923e-05
1.82724e-05
1.77475e-05
1.75163e-05
1.78411e-05
1.85565e-05
2.00386e-05
1.436e-05
1.10296e-05
-7.91171e-05
)
;
    }
    sWall
    {
        type            calculated;
        value           uniform -0.00027486;
    }
    nWall
    {
        type            calculated;
        value           nonuniform List<scalar> 6(-4.32273e-05 -5.25265e-05 -5.70565e-05 -6.23496e-05 -6.75442e-05 -8.6665e-05);
    }
    sideWalls
    {
        type            empty;
        value           nonuniform 0();
    }
    glass1
    {
        type            calculated;
        value           nonuniform List<scalar> 9(-5.3884e-05 -0.000144961 -0.000221391 -0.000286111 -0.000340733 -0.000386639 -0.000428596 -0.000480042 -0.000537606);
    }
    glass2
    {
        type            calculated;
        value           nonuniform List<scalar> 2(-0.000219402 -0.000240849);
    }
    sun
    {
        type            calculated;
        value           uniform 0;
    }
    Table_master
    {
        type            calculated;
        value           nonuniform List<scalar> 9(-1.52357e-07 -1.52452e-07 -1.52486e-07 -1.52507e-07 -1.52522e-07 -1.5253e-07 -1.52532e-07 -1.52524e-07 -1.52489e-07);
    }
    Table_slave
    {
        type            calculated;
        value           nonuniform List<scalar> 9(1.52269e-07 1.52283e-07 1.52263e-07 1.52248e-07 1.52243e-07 1.52246e-07 1.5226e-07 1.52298e-07 1.5237e-07);
    }
    inlet
    {
        type            calculated;
        value           uniform -0.00472797;
    }
    outlet
    {
        type            calculated;
        value           nonuniform List<scalar> 2(0.00549284 0.00298035);
    }
}


// ************************************************************************* //
