/*--------------------------------*- C++ -*----------------------------------*\
  =========                 |
  \\      /  F ield         | OpenFOAM: The Open Source CFD Toolbox
   \\    /   O peration     | Website:  https://openfoam.org
    \\  /    A nd           | Version:  6
     \\/     M anipulation  |
\*---------------------------------------------------------------------------*/
FoamFile
{
    version     2.0;
    format      ascii;
    class       volScalarField;
    location    "1000";
    object      epsilon;
}
// * * * * * * * * * * * * * * * * * * * * * * * * * * * * * * * * * * * * * //

dimensions      [0 2 -3 0 0 0 0];

internalField   nonuniform List<scalar> 
458
(
0.000479957
0.000638787
0.000700362
0.000816171
0.000934051
0.00105643
0.00119027
0.00132283
0.00141933
0.00145665
0.00142086
0.00131112
0.00113836
0.000921175
0.000679083
3.76549e-05
6.58619e-05
0.000100564
0.000108313
9.92537e-05
7.8578e-05
5.97793e-05
4.57358e-05
3.53986e-05
2.77241e-05
2.18684e-05
1.71511e-05
1.31795e-05
9.80373e-06
7.0463e-06
5.06507e-06
7.46068e-06
7.88897e-06
0.00112708
0.0015924
0.00061001
0.000610804
0.000649246
0.000710052
0.000800291
0.000912539
0.00101278
0.00106788
0.00106043
0.000990165
0.000871685
0.00072889
0.00062218
0.00091897
0.000489976
0.000235129
3.98922e-05
0.00010094
0.000120366
0.000116541
0.000105962
9.92081e-05
7.4546e-05
5.44053e-05
3.99712e-05
2.97426e-05
2.25438e-05
1.74164e-05
1.38194e-05
1.16592e-05
1.07531e-05
1.0877e-05
4.91297e-05
3.3669e-05
0.00197708
0.00373025
0.000702309
0.000564737
0.000607737
0.000701986
0.000842001
0.00100793
0.0011455
0.00121394
0.00120656
0.00112803
0.0009983
0.000836579
0.000693267
0.000595542
0.000506557
0.000570324
0.000243056
0.000217463
0.000187535
0.000157901
0.000136993
0.000234414
0.000151609
0.000101076
7.01522e-05
5.07562e-05
3.82639e-05
3.00275e-05
2.4513e-05
2.08543e-05
1.6927e-05
1.50498e-05
5.74892e-05
4.57195e-05
0.00313161
0.00772718
0.00105637
0.000550725
0.000580936
0.000718069
0.000944891
0.00118496
0.00134675
0.00140664
0.00138373
0.00128389
0.00113219
0.000959465
0.00079643
0.00066667
0.000583452
0.000580095
0.00100696
0.000595982
0.000383223
0.000272203
0.000206392
0.000170326
0.000348806
0.000253747
0.000203492
0.000176921
0.000162001
0.000150285
0.000135278
0.000119198
0.000101014
5.93393e-05
3.61535e-05
6.61739e-05
5.59112e-05
0.00474075
0.013968
0.00209355
0.000645791
0.000601234
0.000812232
0.00123527
0.00152885
0.00166433
0.00168291
0.00162081
0.00148959
0.00130497
0.00109186
0.000881016
0.00069893
0.000560425
0.000482676
0.00044705
0.000379069
0.00031612
0.000262295
0.000214517
0.000172624
0.000151311
0.000134445
0.000126442
0.000123213
0.000121058
0.000116544
0.000107172
9.42475e-05
8.16462e-05
6.46894e-05
4.75209e-05
5.20251e-05
6.87596e-05
8.44242e-05
9.42946e-05
9.63186e-05
0.00703025
0.0210731
0.00488926
0.00130894
0.00101262
0.00150946
0.00198358
0.00214907
0.00216078
0.00209654
0.00197038
0.00177943
0.00153046
0.00124913
0.000970634
0.00072892
0.000546632
0.000436143
0.00038313
0.000348345
0.000310918
0.000266578
0.000218836
0.000174412
0.000145166
0.000134908
0.000135805
0.000140151
0.000144116
0.000144621
0.000138272
0.000121548
0.000100596
8.06181e-05
6.36709e-05
5.60413e-05
5.96979e-05
8.48077e-05
0.000327599
0.000220089
0.00972871
0.0253724
0.010294
0.00452805
0.00351392
0.00360175
0.00341852
0.00316008
0.00291885
0.00269929
0.00246178
0.00216884
0.00181701
0.00143663
0.00107114
0.000767122
0.000549627
0.000424371
0.000367356
0.000332789
0.000293515
0.000246051
0.000197416
0.000159538
0.000142099
0.000141479
0.000149255
0.000160183
0.000172422
0.000184388
0.000192186
0.00019117
0.000167169
0.000142834
0.000127209
0.000128409
0.000149967
0.000207847
0.000655359
0.000451715
0.0103592
0.0271452
0.015491
0.0108257
0.00836661
0.00647914
0.00520044
0.00438966
0.00387656
0.0034982
0.00311951
0.0026673
0.00215017
0.00162124
0.00113325
0.000759949
0.000505059
0.000367205
0.000307226
0.00026518
0.000222743
0.000183421
0.00015364
0.000137504
0.000134961
0.000142237
0.000155602
0.000173575
0.000196535
0.000225311
0.000260238
0.000300996
0.000342386
0.000362273
0.000424886
0.000602868
0.000953806
0.00133989
0.00393454
0.00104976
0.00963495
0.0161809
0.0132819
0.0102351
0.00803593
0.00665321
0.00582696
0.00533879
0.00497744
0.00455638
0.00395691
0.00318347
0.00236681
0.00161338
0.000913763
0.000536346
0.000355861
0.000266299
0.000217307
0.000181313
0.000151585
0.000129782
0.000117684
0.000115301
0.000121105
0.000132925
0.000149806
0.000172218
0.000201873
0.000241356
0.000294152
0.000364542
0.000457033
0.000576961
0.000739194
0.000965537
0.0012275
0.00147663
0.00172107
0.00096089
0.00439442
0.00652648
0.00751553
0.007546
0.00738747
0.00700751
0.0062734
0.00519791
0.00380134
0.00235935
0.00140781
0.000825681
0.000491333
0.000312738
0.000222605
0.000174417
0.000144922
0.00012433
0.000110533
0.000103559
0.00010297
0.000107596
0.000116138
0.000127961
0.000142459
0.000160166
0.000183334
0.000214428
0.000256593
0.000313918
0.000391624
0.000494418
0.000621542
0.000766096
0.000892546
0.000945722
0.00090619
0.000530597
0.00293268
0.00765237
0.00811591
0.00688509
0.00599169
0.00498168
0.00380012
0.00268577
0.00177605
0.0010923
0.000655656
0.000403487
0.000266515
0.000193449
0.000154884
0.000134221
0.000123436
0.000119391
0.00012136
0.000129184
0.000142349
0.000159513
0.000178076
0.000194181
0.000205522
0.00021499
0.000227818
0.000247342
0.00027674
0.000319733
0.000380751
0.00046583
0.000574296
0.000694818
0.000798335
0.000876563
0.000747875
0.000558338
0.00210427
0.00248913
0.00277961
0.00341326
0.00309852
0.00301257
0.00278691
0.00238789
0.00190008
0.0014189
0.00100775
0.000695409
0.000485005
0.000356855
0.000281271
0.000235423
0.000205957
0.000185745
0.00017119
0.000160822
0.000153996
0.000149958
0.000147531
0.000145321
0.000142374
0.000139407
0.000139846
0.000146003
0.000157997
0.000177712
0.000207288
0.000250622
0.000313567
0.000390303
0.00048051
0.000584998
0.000654021
0.000610307
0.000476199
0.00036972
)
;

boundaryField
{
    floor
    {
        Cmu             0.09;
        kappa           0.41;
        E               9.8;
        type            epsilonWallFunction;
        value           nonuniform List<scalar> 
36
(
0.000679083
3.76549e-05
6.58619e-05
0.000100564
0.000108313
9.92537e-05
7.8578e-05
5.97793e-05
4.57358e-05
3.53986e-05
2.77241e-05
2.18684e-05
1.71511e-05
1.31795e-05
9.80373e-06
7.0463e-06
5.06507e-06
7.46068e-06
7.88897e-06
7.88897e-06
3.3669e-05
4.57195e-05
5.59112e-05
8.44242e-05
9.42946e-05
9.63186e-05
0.000679083
0.00091897
0.000489976
0.000235129
3.76549e-05
0.000235129
3.98922e-05
0.000570324
0.000243056
0.00100696
)
;
    }
    ceiling
    {
        Cmu             0.09;
        kappa           0.41;
        E               9.8;
        type            epsilonWallFunction;
        value           nonuniform List<scalar> 
43
(
0.00210427
0.00248913
0.00277961
0.00341326
0.00309852
0.00301257
0.00278691
0.00238789
0.00190008
0.0014189
0.00100775
0.000695409
0.000485005
0.000356855
0.000281271
0.000235423
0.000205957
0.000185745
0.00017119
0.000160822
0.000153996
0.000149958
0.000147531
0.000145321
0.000142374
0.000139407
0.000139846
0.000146003
0.000157997
0.000177712
0.000207288
0.000250622
0.000313567
0.000390303
0.00048051
0.000584998
0.000654021
0.000610307
0.000476199
0.00036972
0.00963495
0.0161809
0.00293268
)
;
    }
    sWall
    {
        Cmu             0.09;
        kappa           0.41;
        E               9.8;
        type            epsilonWallFunction;
        value           uniform 0.00210427;
    }
    nWall
    {
        Cmu             0.09;
        kappa           0.41;
        E               9.8;
        type            epsilonWallFunction;
        value           nonuniform List<scalar> 6(9.63186e-05 0.000220089 0.000451715 0.000530597 0.000558338 0.00036972);
    }
    sideWalls
    {
        type            empty;
    }
    glass1
    {
        Cmu             0.09;
        kappa           0.41;
        E               9.8;
        type            epsilonWallFunction;
        value           nonuniform List<scalar> 9(0.000479957 0.00112708 0.00197708 0.00313161 0.00474075 0.00703025 0.00972871 0.0103592 0.00963495);
    }
    glass2
    {
        Cmu             0.09;
        kappa           0.41;
        E               9.8;
        type            epsilonWallFunction;
        value           nonuniform List<scalar> 2(0.00104976 0.00096089);
    }
    sun
    {
        Cmu             0.09;
        kappa           0.41;
        E               9.8;
        type            epsilonWallFunction;
        value           nonuniform List<scalar> 
14
(
0.000479957
0.000638787
0.000700362
0.000816171
0.000934051
0.00105643
0.00119027
0.00132283
0.00141933
0.00145665
0.00142086
0.00131112
0.00113836
0.000921175
)
;
    }
    Table_master
    {
        Cmu             0.09;
        kappa           0.41;
        E               9.8;
        type            epsilonWallFunction;
        value           nonuniform List<scalar> 9(0.000234414 0.000151609 0.000101076 7.01522e-05 5.07562e-05 3.82639e-05 3.00275e-05 2.4513e-05 2.08543e-05);
    }
    Table_slave
    {
        Cmu             0.09;
        kappa           0.41;
        E               9.8;
        type            epsilonWallFunction;
        value           nonuniform List<scalar> 9(0.000348806 0.000253747 0.000203492 0.000176921 0.000162001 0.000150285 0.000135278 0.000119198 0.000101014);
    }
    inlet
    {
        type            turbulentMixingLengthDissipationRateInlet;
        mixingLength    0.01;
        phi             phi;
        k               k;
        value           uniform 0.000101881;
    }
    outlet
    {
        type            zeroGradient;
    }
}


// ************************************************************************* //
