/*--------------------------------*- C++ -*----------------------------------*\
  =========                 |
  \\      /  F ield         | OpenFOAM: The Open Source CFD Toolbox
   \\    /   O peration     | Website:  https://openfoam.org
    \\  /    A nd           | Version:  6
     \\/     M anipulation  |
\*---------------------------------------------------------------------------*/
FoamFile
{
    version     2.0;
    format      ascii;
    class       volScalarField;
    location    "2000";
    object      epsilon;
}
// * * * * * * * * * * * * * * * * * * * * * * * * * * * * * * * * * * * * * //

dimensions      [0 2 -3 0 0 0 0];

internalField   nonuniform List<scalar> 
458
(
0.000184806
0.000218973
0.000181206
0.000164168
0.000151469
0.000146553
0.000142764
0.000138211
0.000135156
0.000134545
0.000136208
0.000139635
0.000144602
0.00015144
0.000158939
4.11733e-06
4.13338e-06
3.62416e-06
3.30335e-06
3.37602e-06
3.34565e-06
3.99723e-06
4.7867e-06
5.51341e-06
6.02863e-06
6.27299e-06
6.24761e-06
5.81288e-06
5.66881e-06
6.11435e-06
6.79298e-06
1.02697e-05
5.88604e-06
0.000714071
0.0010813
0.000537601
0.000410313
0.000252946
0.000163291
0.000123623
9.84923e-05
8.78114e-05
8.62364e-05
8.97919e-05
9.71446e-05
0.000108439
0.000124875
0.000150565
0.000208487
0.0001784
6.24248e-05
1.40226e-05
1.28344e-05
1.04853e-05
8.61632e-06
8.083e-06
8.31166e-06
1.03854e-05
1.30708e-05
1.57179e-05
1.79338e-05
1.95014e-05
2.05474e-05
2.2037e-05
2.44804e-05
2.73604e-05
3.68305e-05
7.6889e-05
3.64105e-05
0.00115979
0.00417714
0.00260815
0.00231295
0.00135351
0.000702058
0.000332614
0.000175448
0.000118585
0.000103217
0.000102517
0.000107862
0.000116315
0.000126009
0.000135021
0.000144568
0.000158081
0.000202932
5.81865e-05
4.05637e-05
2.46832e-05
1.89326e-05
1.54803e-05
1.00816e-05
1.24783e-05
1.57924e-05
2.00288e-05
2.56716e-05
3.35957e-05
4.5407e-05
6.43152e-05
9.78499e-05
8.23292e-05
0.000121203
0.000227112
0.00010481
0.00237316
0.00278307
0.00255046
0.00256571
0.00249846
0.00221008
0.0011678
0.000396323
0.000184891
0.00013434
0.000126701
0.000132552
0.000143542
0.000155698
0.00016489
0.00016843
0.000167063
0.000165094
0.00018616
6.16729e-05
5.32928e-05
4.98049e-05
5.55191e-05
6.72847e-05
8.83617e-05
8.84044e-05
8.83954e-05
8.89226e-05
9.09242e-05
9.54844e-05
0.00010419
0.00011978
0.000147469
8.89953e-05
0.000115392
0.000163439
0.000221998
0.0114755
0.00707269
0.0045015
0.00316203
0.00256867
0.00221577
0.001656
0.000843376
0.000308519
0.000176732
0.000156085
0.000164515
0.000182427
0.000202857
0.000219994
0.000227892
0.000221627
0.00019671
0.000153399
0.000106629
8.32775e-05
7.59963e-05
7.52037e-05
7.63005e-05
7.69186e-05
7.62078e-05
7.5422e-05
7.49052e-05
7.5024e-05
7.62052e-05
7.90008e-05
8.42119e-05
9.29843e-05
0.000106432
0.000134621
0.000181885
0.000256881
0.00032715
0.000275224
0.000193013
0.0177253
0.0112979
0.00607067
0.00361258
0.00258357
0.00208073
0.00157649
0.000960633
0.000443809
0.000226874
0.000184695
0.000195522
0.000223091
0.000255636
0.000286545
0.000309085
0.000315708
0.000298512
0.000257061
0.000209503
0.000174541
0.000154035
0.000143113
0.000137232
0.000133488
0.000130376
0.000127669
0.000125362
0.00012362
0.000122736
0.000123134
0.00012549
0.000130996
0.000141714
0.000161101
0.000194371
0.000249848
0.000319814
0.000370433
0.000319532
0.0254734
0.0210016
0.00860441
0.00396114
0.00244029
0.0018561
0.00139458
0.000897238
0.000498321
0.000291113
0.000219767
0.000231454
0.000271644
0.000319136
0.000365766
0.000405579
0.000430451
0.000429852
0.000400349
0.000355885
0.000314152
0.000282852
0.00026167
0.000247971
0.000238672
0.00023159
0.000225666
0.000220446
0.000215845
0.000212027
0.000209364
0.000208498
0.000210392
0.000216233
0.000227396
0.000246742
0.000283385
0.000368732
0.000624703
0.000506722
0.0374543
0.0466007
0.0200777
0.00428007
0.00215356
0.001634
0.00122511
0.000819343
0.00051447
0.000349751
0.000291304
0.000305978
0.00036328
0.000432214
0.000496475
0.000550413
0.000590245
0.000607727
0.000595265
0.000561422
0.000521591
0.000485798
0.000457623
0.000436968
0.000421878
0.000410289
0.000400775
0.000392522
0.000385196
0.000378839
0.000373818
0.000370865
0.000371015
0.000375219
0.000383751
0.00039649
0.000417652
0.000489594
0.000819665
0.000721961
0.0612414
0.119957
0.1448
0.0184623
0.00274082
0.00175128
0.00122917
0.000853997
0.000616174
0.000499169
0.000475602
0.000525474
0.000625385
0.000732193
0.000820806
0.000883767
0.000922857
0.000939922
0.000935056
0.000912404
0.000880571
0.000847351
0.000817448
0.000792655
0.000772753
0.000756706
0.000743455
0.000732225
0.000722615
0.000714597
0.000708522
0.000705122
0.00070538
0.000709982
0.000718302
0.000727448
0.000735324
0.00076755
0.000958313
0.000889649
0.375107
0.152932
0.0124304
0.00348239
0.00208088
0.00152946
0.00125269
0.00114583
0.00116663
0.00128938
0.00146795
0.00164028
0.00176656
0.00183547
0.00185651
0.0018464
0.00181915
0.00178354
0.00174497
0.00170684
0.0016712
0.00163915
0.00161102
0.00158665
0.00156569
0.00154779
0.00153277
0.00152062
0.00151154
0.00150599
0.00150449
0.00150705
0.00151168
0.00151194
0.00149567
0.00145502
0.00142541
0.00128344
0.148764
0.0571597
0.0186148
0.00704345
0.00375834
0.00269021
0.00237967
0.00245496
0.00278532
0.00326753
0.00377401
0.00418344
0.00443055
0.00451765
0.00448788
0.00439192
0.00426915
0.0041441
0.00402951
0.00393042
0.00384758
0.00377968
0.00372474
0.00368072
0.00364594
0.00361908
0.00359913
0.00358535
0.00357718
0.00357417
0.00357569
0.00357983
0.00358125
0.00356935
0.00353386
0.00347571
0.00332461
0.00236709
0.000613047
0.00122143
0.0289841
0.0198683
0.0120254
0.00759259
0.00518586
0.00385887
0.00310028
0.00265845
0.00241236
0.00230591
0.00230783
0.00237809
0.00247105
0.00255332
0.00260779
0.00263134
0.00262893
0.00260812
0.00257596
0.00253771
0.00249681
0.00245524
0.00241398
0.00237339
0.00233341
0.00229376
0.00225401
0.00221365
0.00217207
0.00212861
0.00208245
0.00203232
0.00197593
0.001909
0.0018244
0.00170794
0.00150849
0.00100952
)
;

boundaryField
{
    floor
    {
        Cmu             0.09;
        kappa           0.41;
        E               9.8;
        type            epsilonWallFunction;
        value           nonuniform List<scalar> 
36
(
0.000158939
4.11733e-06
4.13338e-06
3.62416e-06
3.30335e-06
3.37602e-06
3.34565e-06
3.99723e-06
4.7867e-06
5.51341e-06
6.02863e-06
6.27299e-06
6.24761e-06
5.81288e-06
5.66881e-06
6.11435e-06
6.79298e-06
1.02697e-05
5.88604e-06
5.88604e-06
3.64105e-05
0.00010481
0.000221998
0.00032715
0.000275224
0.000193013
0.000158939
0.000208487
0.0001784
6.24248e-05
4.11733e-06
6.24248e-05
1.40226e-05
0.000202932
5.81865e-05
0.00018616
)
;
    }
    ceiling
    {
        Cmu             0.09;
        kappa           0.41;
        E               9.8;
        type            epsilonWallFunction;
        value           nonuniform List<scalar> 
43
(
0.000613047
0.00122143
0.0289841
0.0198683
0.0120254
0.00759259
0.00518586
0.00385887
0.00310028
0.00265845
0.00241236
0.00230591
0.00230783
0.00237809
0.00247105
0.00255332
0.00260779
0.00263134
0.00262893
0.00260812
0.00257596
0.00253771
0.00249681
0.00245524
0.00241398
0.00237339
0.00233341
0.00229376
0.00225401
0.00221365
0.00217207
0.00212861
0.00208245
0.00203232
0.00197593
0.001909
0.0018244
0.00170794
0.00150849
0.00100952
0.0612414
0.119957
0.148764
)
;
    }
    sWall
    {
        Cmu             0.09;
        kappa           0.41;
        E               9.8;
        type            epsilonWallFunction;
        value           uniform 0.000613047;
    }
    nWall
    {
        Cmu             0.09;
        kappa           0.41;
        E               9.8;
        type            epsilonWallFunction;
        value           nonuniform List<scalar> 6(0.000193013 0.000319532 0.000506722 0.00128344 0.00236709 0.00100952);
    }
    sideWalls
    {
        type            empty;
    }
    glass1
    {
        Cmu             0.09;
        kappa           0.41;
        E               9.8;
        type            epsilonWallFunction;
        value           nonuniform List<scalar> 9(0.000184806 0.000714071 0.00115979 0.00237316 0.0114755 0.0177253 0.0254734 0.0374543 0.0612414);
    }
    glass2
    {
        Cmu             0.09;
        kappa           0.41;
        E               9.8;
        type            epsilonWallFunction;
        value           nonuniform List<scalar> 2(0.000721961 0.000889649);
    }
    sun
    {
        Cmu             0.09;
        kappa           0.41;
        E               9.8;
        type            epsilonWallFunction;
        value           nonuniform List<scalar> 
14
(
0.000184806
0.000218973
0.000181206
0.000164168
0.000151469
0.000146553
0.000142764
0.000138211
0.000135156
0.000134545
0.000136208
0.000139635
0.000144602
0.00015144
)
;
    }
    Table_master
    {
        Cmu             0.09;
        kappa           0.41;
        E               9.8;
        type            epsilonWallFunction;
        value           nonuniform List<scalar> 9(1.00816e-05 1.24783e-05 1.57924e-05 2.00288e-05 2.56716e-05 3.35957e-05 4.5407e-05 6.43152e-05 9.78499e-05);
    }
    Table_slave
    {
        Cmu             0.09;
        kappa           0.41;
        E               9.8;
        type            epsilonWallFunction;
        value           nonuniform List<scalar> 9(8.83617e-05 8.84044e-05 8.83954e-05 8.89226e-05 9.09242e-05 9.54844e-05 0.00010419 0.00011978 0.000147469);
    }
    inlet
    {
        type            turbulentMixingLengthDissipationRateInlet;
        mixingLength    0.01;
        phi             phi;
        k               k;
        value           uniform 0.375107;
    }
    outlet
    {
        type            zeroGradient;
    }
}


// ************************************************************************* //
