/*--------------------------------*- C++ -*----------------------------------*\
  =========                 |
  \\      /  F ield         | OpenFOAM: The Open Source CFD Toolbox
   \\    /   O peration     | Website:  https://openfoam.org
    \\  /    A nd           | Version:  6
     \\/     M anipulation  |
\*---------------------------------------------------------------------------*/
FoamFile
{
    version     2.0;
    format      ascii;
    class       volScalarField;
    location    "2000";
    object      k;
}
// * * * * * * * * * * * * * * * * * * * * * * * * * * * * * * * * * * * * * //

dimensions      [0 2 -2 0 0 0 0];

internalField   nonuniform List<scalar> 
458
(
0.00128587
0.00143982
0.00126911
0.00118828
0.00112619
0.0011017
0.00108264
0.0010595
0.00104384
0.0010407
0.00104926
0.0010668
0.00109195
0.00112611
0.00116299
0.000101818
0.000102075
9.35069e-05
8.79067e-05
8.91928e-05
8.86599e-05
9.98288e-05
0.000112575
0.000123698
0.000131287
0.000134811
0.000134447
0.000128137
0.000126014
0.000132539
0.00014218
0.000187295
0.000129229
0.00316624
0.00630997
0.00437531
0.00380617
0.00296536
0.00239142
0.00211099
0.00191846
0.00180639
0.00175612
0.00174525
0.00175455
0.00176194
0.0017273
0.00157894
0.0013936
0.00125607
0.000623734
0.000230472
0.000347893
0.000309234
0.000258621
0.000233711
0.000231057
0.000275895
0.000330957
0.000380724
0.00041836
0.000440906
0.000449691
0.000457644
0.000488024
0.000558062
0.000648472
0.00101846
0.000435463
0.00437505
0.0156443
0.0126673
0.0120706
0.00878754
0.00591876
0.00390946
0.0029311
0.00250546
0.00235069
0.00231249
0.00232613
0.00235313
0.00235019
0.00226393
0.00207853
0.00176105
0.00136871
0.000595103
0.000739374
0.000503024
0.000364924
0.000274307
0.000184987
0.000213254
0.000249513
0.000292347
0.000344956
0.000412714
0.000504513
0.000636304
0.000841707
0.00117153
0.00147365
0.00215063
0.000881148
0.00705098
0.00955703
0.00988005
0.0109981
0.0117159
0.0114275
0.00809046
0.0045826
0.0032759
0.00289732
0.00282987
0.00287738
0.00296354
0.00303034
0.003004
0.00281826
0.00242862
0.00182199
0.00129219
0.00106365
0.00102609
0.000873155
0.000806363
0.000777104
0.000786299
0.000786562
0.000786517
0.00078965
0.000801465
0.000828055
0.000877665
0.000963176
0.00110641
0.0013428
0.0014894
0.00161303
0.00145328
0.0201636
0.0155809
0.0122085
0.0106858
0.0105916
0.010756
0.00964376
0.00675127
0.00420785
0.00338804
0.00327722
0.00339826
0.00360049
0.00381581
0.00397627
0.00401357
0.00387538
0.00351644
0.00294396
0.00234486
0.0019761
0.001828
0.00178862
0.00178239
0.00176166
0.00173289
0.00170209
0.0016724
0.00164796
0.00163334
0.00163404
0.00165758
0.00171329
0.00180481
0.00192877
0.00208025
0.00218498
0.00188203
0.00167723
0.00132388
0.0269436
0.0216376
0.0148701
0.0112299
0.0101157
0.00996066
0.00916136
0.00716486
0.00489461
0.00375048
0.00355987
0.0037556
0.00408037
0.00444177
0.0047778
0.00501913
0.0050892
0.00490547
0.00444912
0.00389187
0.00344281
0.00315311
0.00298079
0.0028724
0.00279148
0.00271946
0.00265245
0.00259007
0.00253408
0.00248749
0.00245425
0.0024402
0.00245533
0.00251477
0.0026364
0.00284346
0.0031524
0.00343145
0.00332853
0.00185272
0.0343127
0.032056
0.0190201
0.0118859
0.00970054
0.00924701
0.00848113
0.00684751
0.00506312
0.00399577
0.00373002
0.00399757
0.00444348
0.00493441
0.00541684
0.00583635
0.00611262
0.00614413
0.00588858
0.00545899
0.00502275
0.00466908
0.00440756
0.00421859
0.00407347
0.00395041
0.00383861
0.00373354
0.00363436
0.00354257
0.00346137
0.00339616
0.00335513
0.00334791
0.00338353
0.00347741
0.00367123
0.00409215
0.00518952
0.00251948
0.0443678
0.0526044
0.0353015
0.012657
0.00932686
0.00886078
0.00802489
0.00657575
0.00515445
0.00430292
0.00410441
0.00440446
0.00495767
0.00556771
0.00614958
0.00667026
0.00708733
0.00731751
0.00728605
0.0070449
0.00671798
0.00639631
0.00611972
0.00589518
0.00571083
0.00555128
0.00540544
0.005267
0.0051335
0.00500538
0.00488553
0.00477944
0.00469477
0.00463835
0.00461185
0.00461429
0.00466965
0.00499254
0.00635335
0.00319007
0.0615791
0.096403
0.137529
0.0301722
0.0105765
0.0096333
0.00842638
0.00696868
0.00585343
0.00529323
0.00529065
0.00572517
0.00641561
0.00713514
0.00776869
0.0082839
0.00867876
0.00893655
0.00902875
0.00896408
0.00879602
0.00858274
0.00836467
0.00816176
0.00797797
0.00780943
0.00765069
0.00749746
0.00734758
0.00720113
0.00706046
0.00693015
0.00681607
0.00672202
0.00664381
0.00656465
0.00647049
0.00646461
0.00691425
0.00366641
0.291514
0.141225
0.0239662
0.0142159
0.0117384
0.00993409
0.00892227
0.00858134
0.00881798
0.00947245
0.0103261
0.0111556
0.0118144
0.0122574
0.012513
0.0126333
0.012658
0.0126103
0.0125084
0.0123701
0.012211
0.012043
0.0118731
0.0117043
0.0115372
0.0113716
0.011207
0.0110437
0.0108825
0.0107253
0.0105738
0.0104271
0.0102755
0.0100889
0.00980717
0.00935067
0.0085876
0.00468073
0.111278
0.077153
0.0371916
0.020132
0.0142578
0.0121684
0.0117672
0.0124476
0.0138957
0.0157547
0.0175869
0.0190337
0.0199406
0.0203436
0.0203824
0.0202101
0.0199421
0.0196483
0.0193641
0.0191035
0.0188691
0.0186589
0.018469
0.0182951
0.0181338
0.0179817
0.0178362
0.0176947
0.0175547
0.0174135
0.0172664
0.017104
0.0169044
0.016627
0.0162197
0.0156069
0.014262
0.00703934
0.0028601
0.00452875
0.037398
0.0290752
0.0208046
0.0153117
0.0118753
0.00975147
0.00842742
0.00760635
0.00712935
0.00691802
0.00692184
0.0070616
0.00724445
0.00740436
0.0075093
0.00755446
0.00754984
0.00750996
0.0074481
0.00737418
0.00729472
0.00721352
0.00713249
0.00705229
0.00697286
0.00689363
0.00681377
0.00673218
0.00664762
0.00655866
0.00646349
0.00635935
0.00624116
0.00609942
0.00591782
0.00566319
0.00521317
0.00398856
)
;

boundaryField
{
    floor
    {
        type            kqRWallFunction;
        value           nonuniform List<scalar> 
36
(
0.00116299
0.000101818
0.000102075
9.35069e-05
8.79067e-05
8.91928e-05
8.86599e-05
9.98288e-05
0.000112575
0.000123698
0.000131287
0.000134811
0.000134447
0.000128137
0.000126014
0.000132539
0.00014218
0.000187295
0.000129229
0.000129229
0.000435463
0.000881148
0.00145328
0.00188203
0.00167723
0.00132388
0.00116299
0.0013936
0.00125607
0.000623734
0.000101818
0.000623734
0.000230472
0.00136871
0.000595103
0.00129219
)
;
    }
    ceiling
    {
        type            kqRWallFunction;
        value           nonuniform List<scalar> 
43
(
0.0028601
0.00452875
0.037398
0.0290752
0.0208046
0.0153117
0.0118753
0.00975147
0.00842742
0.00760635
0.00712935
0.00691802
0.00692184
0.0070616
0.00724445
0.00740436
0.0075093
0.00755446
0.00754984
0.00750996
0.0074481
0.00737418
0.00729472
0.00721352
0.00713249
0.00705229
0.00697286
0.00689363
0.00681377
0.00673218
0.00664762
0.00655866
0.00646349
0.00635935
0.00624116
0.00609942
0.00591782
0.00566319
0.00521317
0.00398856
0.0615791
0.096403
0.111278
)
;
    }
    sWall
    {
        type            kqRWallFunction;
        value           uniform 0.0028601;
    }
    nWall
    {
        type            kqRWallFunction;
        value           nonuniform List<scalar> 6(0.00132388 0.00185272 0.00251948 0.00468073 0.00703934 0.00398856);
    }
    sideWalls
    {
        type            empty;
    }
    glass1
    {
        type            kqRWallFunction;
        value           nonuniform List<scalar> 9(0.00128587 0.00316624 0.00437505 0.00705098 0.0201636 0.0269436 0.0343127 0.0443678 0.0615791);
    }
    glass2
    {
        type            kqRWallFunction;
        value           nonuniform List<scalar> 2(0.00319007 0.00366641);
    }
    sun
    {
        type            kqRWallFunction;
        value           nonuniform List<scalar> 
14
(
0.00128587
0.00143982
0.00126911
0.00118828
0.00112619
0.0011017
0.00108264
0.0010595
0.00104384
0.0010407
0.00104926
0.0010668
0.00109195
0.00112611
)
;
    }
    Table_master
    {
        type            kqRWallFunction;
        value           nonuniform List<scalar> 9(0.000184987 0.000213254 0.000249513 0.000292347 0.000344956 0.000412714 0.000504513 0.000636304 0.000841707);
    }
    Table_slave
    {
        type            kqRWallFunction;
        value           nonuniform List<scalar> 9(0.000786299 0.000786562 0.000786517 0.00078965 0.000801465 0.000828055 0.000877665 0.000963176 0.00110641);
    }
    inlet
    {
        type            turbulentIntensityKineticEnergyInlet;
        intensity       0.05;
        value           uniform 0.291514;
    }
    outlet
    {
        type            zeroGradient;
    }
}


// ************************************************************************* //
