/*--------------------------------*- C++ -*----------------------------------*\
  =========                 |
  \\      /  F ield         | OpenFOAM: The Open Source CFD Toolbox
   \\    /   O peration     | Website:  https://openfoam.org
    \\  /    A nd           | Version:  6
     \\/     M anipulation  |
\*---------------------------------------------------------------------------*/
FoamFile
{
    version     2.0;
    format      ascii;
    class       volScalarField;
    location    "2000";
    object      k;
}
// * * * * * * * * * * * * * * * * * * * * * * * * * * * * * * * * * * * * * //

dimensions      [0 2 -2 0 0 0 0];

internalField   nonuniform List<scalar> 
458
(
0.00211458
0.00252241
0.00260841
0.00286987
0.00312274
0.00336641
0.00360904
0.00386402
0.00408364
0.00422601
0.00426276
0.00417452
0.00396418
0.00366619
0.00333104
0.000396445
0.000630564
0.000789974
0.000762642
0.000699998
0.00061192
0.000528569
0.000458973
0.000402052
0.000355281
0.000316494
0.000284181
0.000256785
0.000232809
0.000210769
0.000188853
0.000170395
0.000137944
0.0040075
0.00757216
0.00423701
0.0045186
0.00495203
0.00543129
0.00594219
0.00647292
0.00699005
0.00741023
0.00763529
0.00758229
0.00720312
0.0064873
0.00539899
0.00364862
0.00222469
0.00113722
0.000492717
0.00116355
0.00135062
0.00136383
0.00126956
0.00106764
0.000876854
0.000723124
0.000603292
0.000509665
0.000435754
0.000376162
0.000327075
0.000287108
0.000259484
0.000243127
0.000354506
0.000218705
0.0060704
0.0141253
0.00538951
0.00521789
0.00565403
0.00621135
0.00683408
0.00751598
0.00818624
0.00873088
0.00905478
0.00909737
0.00884818
0.00835549
0.00772635
0.00689545
0.00538221
0.00276086
0.00213272
0.00206487
0.00196628
0.00182802
0.0016424
0.00125961
0.000967805
0.000759999
0.000611093
0.000502566
0.000421929
0.000361009
0.000314599
0.000279623
0.00025179
0.000243656
0.000472837
0.000282254
0.00848836
0.0233532
0.00705744
0.00556565
0.00588924
0.00651003
0.0072667
0.00815192
0.00895401
0.00954197
0.00987846
0.00994611
0.00975069
0.00932016
0.00869109
0.00790574
0.00691224
0.00600257
0.00421106
0.00344419
0.00298648
0.00263733
0.0023281
0.0020321
0.00157074
0.00127967
0.00109094
0.00095857
0.000855571
0.00076841
0.000691428
0.000616946
0.000537536
0.000401354
0.000317628
0.000584006
0.000345365
0.0113999
0.0355186
0.0109037
0.00632794
0.00627758
0.00695865
0.00797895
0.00915905
0.0099997
0.0104978
0.0107452
0.0107647
0.0105341
0.0100249
0.00923935
0.00823022
0.00709621
0.00601905
0.00503561
0.00428799
0.00366717
0.00314065
0.00269764
0.00232724
0.00202157
0.00181204
0.00166764
0.00155115
0.00143807
0.00130929
0.00116305
0.00100369
0.000836929
0.000645448
0.000479835
0.000546667
0.000528196
0.000589564
0.000778322
0.000941189
0.0149507
0.0482456
0.0197675
0.00968191
0.00840804
0.00898977
0.0103807
0.0113265
0.0117691
0.0119264
0.0119543
0.0118615
0.0115469
0.010905
0.00990098
0.00861466
0.00724013
0.00602091
0.00508201
0.00438762
0.00379244
0.00325431
0.00279391
0.00242982
0.0021778
0.00203039
0.00193402
0.00184762
0.00174907
0.00162326
0.0014554
0.00126299
0.00105985
0.000853661
0.000677665
0.000600376
0.000591175
0.000615552
0.00116549
0.000988557
0.0185053
0.0561419
0.0335671
0.0204996
0.0168929
0.0160425
0.0156811
0.0150599
0.0144384
0.0139795
0.0136875
0.0134144
0.0129387
0.0120772
0.0107841
0.00918016
0.00751985
0.00609853
0.00505345
0.00430041
0.00368629
0.00315372
0.002721
0.00240816
0.00221868
0.00212352
0.00206922
0.00202222
0.0019672
0.00189273
0.00177718
0.00160729
0.00140968
0.00120408
0.00103684
0.000936232
0.00093223
0.00104607
0.0014513
0.00128729
0.019156
0.0542445
0.0393542
0.0328617
0.0285053
0.0245429
0.0211613
0.0187144
0.0171887
0.0163819
0.0159658
0.0155559
0.0148087
0.013526
0.0117436
0.00967712
0.00763806
0.00598262
0.00482042
0.00399734
0.0033876
0.00291665
0.00257245
0.00234707
0.00221886
0.00215463
0.00212284
0.00210984
0.0021156
0.0021441
0.0021964
0.00223595
0.00221682
0.00219022
0.00223883
0.00253179
0.00321329
0.0042155
0.00832484
0.00323477
0.0180752
0.0250652
0.0237871
0.021101
0.019131
0.0180463
0.0177375
0.0180374
0.0186607
0.0192126
0.019301
0.0186391
0.0171104
0.0148022
0.0121001
0.00939226
0.00695537
0.00530249
0.00427652
0.0035867
0.00309597
0.00274718
0.00251003
0.0023529
0.00224557
0.00216635
0.00210537
0.00206501
0.00205439
0.00208261
0.00215458
0.00227086
0.00244295
0.00269494
0.00305593
0.00352335
0.00401175
0.00438515
0.00459909
0.00306805
0.00610019
0.0173559
0.0234214
0.0268645
0.0289272
0.0296165
0.0288855
0.0268725
0.0239092
0.0203607
0.0165159
0.0124635
0.00928145
0.00692325
0.00530942
0.00432032
0.00372778
0.00335654
0.00311449
0.00295222
0.00282303
0.00269391
0.00254674
0.00237867
0.00220113
0.00203692
0.00191467
0.00186171
0.00189109
0.00200343
0.00219471
0.0024662
0.0028115
0.00318831
0.0034934
0.00360787
0.00351678
0.00243983
0.00703116
0.0229511
0.0269327
0.0266621
0.0265705
0.0255939
0.0234968
0.0206544
0.0174976
0.0143468
0.0114253
0.00889256
0.007005
0.00573454
0.00497333
0.00458507
0.00442642
0.00438882
0.00439993
0.00440681
0.00437695
0.00428364
0.00411332
0.00386751
0.00356457
0.00323787
0.00292765
0.00266886
0.00248941
0.00241104
0.00244113
0.00258027
0.0028078
0.00306934
0.00327523
0.00352965
0.00418479
0.00261861
0.00572039
0.00671659
0.00747083
0.0091921
0.00931176
0.00932187
0.00917997
0.0087099
0.00795427
0.00700846
0.00598354
0.00497581
0.00406142
0.0032969
0.00272444
0.00233544
0.00208949
0.00194134
0.00185213
0.00179335
0.00174658
0.00170133
0.0016498
0.00159015
0.00152462
0.00145898
0.00140148
0.00136075
0.00134352
0.00135378
0.00139239
0.00145866
0.00155427
0.00168137
0.00184003
0.00202681
0.00214484
0.00206448
0.00186435
0.00170566
)
;

boundaryField
{
    floor
    {
        type            kqRWallFunction;
        value           nonuniform List<scalar> 
36
(
0.00333104
0.000396445
0.000630564
0.000789974
0.000762642
0.000699998
0.00061192
0.000528569
0.000458973
0.000402052
0.000355281
0.000316494
0.000284181
0.000256785
0.000232809
0.000210769
0.000188853
0.000170395
0.000137944
0.000137944
0.000218705
0.000282254
0.000345365
0.000589564
0.000778322
0.000941189
0.00333104
0.00364862
0.00222469
0.00113722
0.000396445
0.00113722
0.000492717
0.00276086
0.00213272
0.00421106
)
;
    }
    ceiling
    {
        type            kqRWallFunction;
        value           nonuniform List<scalar> 
43
(
0.00572039
0.00671659
0.00747083
0.0091921
0.00931176
0.00932187
0.00917997
0.0087099
0.00795427
0.00700846
0.00598354
0.00497581
0.00406142
0.0032969
0.00272444
0.00233544
0.00208949
0.00194134
0.00185213
0.00179335
0.00174658
0.00170133
0.0016498
0.00159015
0.00152462
0.00145898
0.00140148
0.00136075
0.00134352
0.00135378
0.00139239
0.00145866
0.00155427
0.00168137
0.00184003
0.00202681
0.00214484
0.00206448
0.00186435
0.00170566
0.0180752
0.0250652
0.00703116
)
;
    }
    sWall
    {
        type            kqRWallFunction;
        value           uniform 0.00572039;
    }
    nWall
    {
        type            kqRWallFunction;
        value           nonuniform List<scalar> 6(0.000941189 0.000988557 0.00128729 0.00243983 0.00261861 0.00170566);
    }
    sideWalls
    {
        type            empty;
    }
    glass1
    {
        type            kqRWallFunction;
        value           nonuniform List<scalar> 9(0.00211458 0.0040075 0.0060704 0.00848836 0.0113999 0.0149507 0.0185053 0.019156 0.0180752);
    }
    glass2
    {
        type            kqRWallFunction;
        value           nonuniform List<scalar> 2(0.00323477 0.00306805);
    }
    sun
    {
        type            kqRWallFunction;
        value           nonuniform List<scalar> 
14
(
0.00211458
0.00252241
0.00260841
0.00286987
0.00312274
0.00336641
0.00360904
0.00386402
0.00408364
0.00422601
0.00426276
0.00417452
0.00396418
0.00366619
)
;
    }
    Table_master
    {
        type            kqRWallFunction;
        value           nonuniform List<scalar> 9(0.00125961 0.000967805 0.000759999 0.000611093 0.000502566 0.000421929 0.000361009 0.000314599 0.000279623);
    }
    Table_slave
    {
        type            kqRWallFunction;
        value           nonuniform List<scalar> 9(0.00157074 0.00127967 0.00109094 0.00095857 0.000855571 0.00076841 0.000691428 0.000616946 0.000537536);
    }
    inlet
    {
        type            turbulentIntensityKineticEnergyInlet;
        intensity       0.05;
        value           uniform 0.0003375;
    }
    outlet
    {
        type            zeroGradient;
    }
}


// ************************************************************************* //
