/*--------------------------------*- C++ -*----------------------------------*\
  =========                 |
  \\      /  F ield         | OpenFOAM: The Open Source CFD Toolbox
   \\    /   O peration     | Website:  https://openfoam.org
    \\  /    A nd           | Version:  6
     \\/     M anipulation  |
\*---------------------------------------------------------------------------*/
FoamFile
{
    version     2.0;
    format      ascii;
    class       volScalarField;
    location    "2900";
    object      alphat;
}
// * * * * * * * * * * * * * * * * * * * * * * * * * * * * * * * * * * * * * //

dimensions      [1 -1 -1 0 0 0 0];

internalField   nonuniform List<scalar> 
458
(
0.00124918
0.00137033
0.00139741
0.00146641
0.00153037
0.00159005
0.00164819
0.00170603
0.00174784
0.00176851
0.00176353
0.00173051
0.00166994
0.0015873
0.00149318
0.000538207
0.000672226
0.000758879
0.000752389
0.000723833
0.000675711
0.000625993
0.00058142
0.000542516
0.000508552
0.000478751
0.000452609
0.00042933
0.000407996
0.000387501
0.0003662
0.000347418
0.000312275
0.00170212
0.00429166
0.00417661
0.00489206
0.0055936
0.00628861
0.00690164
0.00735276
0.00774797
0.00806166
0.00825356
0.00827617
0.00804684
0.00734619
0.00542458
0.00158975
0.00118866
0.000823243
0.000588013
0.00130773
0.00181205
0.0021453
0.00222414
0.00172951
0.0014802
0.00130459
0.00117166
0.00106762
0.000983943
0.000910759
0.000842082
0.000774745
0.000715267
0.000665996
0.000756792
0.000392907
0.00207826
0.00588997
0.00526993
0.00668377
0.00744266
0.00801263
0.00844891
0.00876934
0.00908914
0.00940486
0.00968154
0.00987526
0.00993195
0.00978028
0.00923792
0.00785868
0.00621342
0.00135611
0.00118521
0.00177616
0.00232234
0.00275312
0.00280287
0.000967864
0.000844199
0.000744553
0.000664875
0.000600859
0.000548985
0.000506671
0.000472178
0.000444652
0.000477689
0.000546282
0.000843626
0.000446471
0.00243895
0.00751529
0.00536314
0.00716674
0.00791965
0.00823663
0.008425
0.00858394
0.00882971
0.00914741
0.00949364
0.00982242
0.010078
0.0102136
0.0101527
0.00977475
0.00883915
0.00610636
0.00168885
0.00216581
0.00287319
0.00351934
0.00394829
0.00381116
0.00108283
0.000974228
0.00089689
0.000838352
0.000789934
0.000746867
0.000706902
0.000666313
0.00062063
0.000578519
0.000574253
0.000927004
0.00049453
0.00280753
0.00958256
0.00599792
0.00695854
0.00790234
0.0081141
0.00808858
0.00816636
0.00838152
0.00871013
0.00910541
0.00951387
0.00985782
0.0100644
0.0100989
0.00992928
0.0094851
0.00857498
0.00703466
0.00652504
0.00632385
0.00618608
0.00601231
0.00567771
0.00471966
0.0042267
0.00394305
0.00374142
0.0035487
0.00328737
0.00293143
0.00249077
0.00199103
0.00148318
0.00109185
0.00101868
0.000772951
0.000643757
0.000734732
0.000807628
0.0031977
0.0118321
0.00828382
0.00714533
0.0077263
0.00805752
0.0079605
0.00803067
0.008192
0.00848226
0.00889936
0.00936585
0.00976534
0.00999053
0.00999036
0.00978155
0.00943624
0.00903602
0.00859749
0.00826968
0.00794531
0.00757193
0.00715924
0.00671264
0.00619985
0.00579126
0.0054674
0.00517814
0.00489028
0.00457686
0.00417835
0.00368257
0.00308765
0.00242428
0.00182415
0.0013707
0.00105085
0.000863119
0.001126
0.000828967
0.00354032
0.0133552
0.0113921
0.00929699
0.00889068
0.00863491
0.00832463
0.0081583
0.00821364
0.00851055
0.0089938
0.00953446
0.00997215
0.0101775
0.0101034
0.00980646
0.00943962
0.00916933
0.00900615
0.00881446
0.00846886
0.00797884
0.00741971
0.00685717
0.00633575
0.00590372
0.00554044
0.00521045
0.00489775
0.00460467
0.00433381
0.00400083
0.00354706
0.00298726
0.00242814
0.00192923
0.00156028
0.00136735
0.00128726
0.000952093
0.00359489
0.0116081
0.0106202
0.0098415
0.00919317
0.0085398
0.00810062
0.00799979
0.00825537
0.00879907
0.00948636
0.0101264
0.0105375
0.0106176
0.0103773
0.00994094
0.00952098
0.00926921
0.00909301
0.00876984
0.00820715
0.00750352
0.00677903
0.00612736
0.00559752
0.0051828
0.00483735
0.0045296
0.00425854
0.00404132
0.0038975
0.00381766
0.00362167
0.00326848
0.00293567
0.00271572
0.00268098
0.00274814
0.00326861
0.00150259
0.00348761
0.004101
0.00448761
0.00464923
0.00497549
0.00557253
0.00644227
0.0075409
0.00874891
0.00989347
0.0107969
0.0113158
0.0113764
0.0110343
0.0104508
0.00985486
0.00942654
0.00900043
0.00848097
0.00780757
0.00701399
0.00621535
0.00552
0.00497646
0.0045631
0.004226
0.00391821
0.00362103
0.0033402
0.00308869
0.00287122
0.0026821
0.00253332
0.00241334
0.00233718
0.00230382
0.0022667
0.00218317
0.00206301
0.00145766
0.00156546
0.00535869
0.00869962
0.0107472
0.0121072
0.0129372
0.0132854
0.013237
0.0128912
0.0123182
0.0115739
0.0106572
0.0097372
0.00893269
0.00819783
0.0074267
0.00664443
0.00591844
0.00529551
0.00478885
0.00439065
0.00407478
0.00379948
0.00353483
0.00326809
0.00300218
0.0027527
0.00254316
0.00239457
0.00231008
0.00226719
0.00225362
0.00225714
0.00225371
0.00220389
0.00208622
0.00192004
0.00128662
0.00229381
0.00875991
0.0111854
0.0120115
0.0123918
0.0123934
0.0120511
0.0114607
0.0107184
0.0099034
0.00907677
0.00824958
0.00744685
0.00668105
0.00598403
0.00541387
0.00499595
0.00471043
0.00451871
0.00437959
0.0042546
0.00411435
0.00394193
0.00373261
0.00349304
0.00323928
0.00299231
0.00277168
0.00259326
0.00246787
0.00239696
0.00237447
0.00238117
0.00238548
0.00235365
0.0023616
0.00259047
0.0013301
0.0020318
0.00220497
0.00232812
0.00256551
0.00256243
0.00255964
0.00252744
0.00244317
0.00231297
0.00214784
0.00196094
0.0017681
0.00158572
0.00143051
0.00131037
0.00122375
0.00116419
0.00112409
0.0010966
0.00107643
0.00105974
0.00104387
0.00102699
0.00100812
0.000987851
0.000968
0.000951308
0.000940748
0.00093866
0.00094634
0.000963759
0.000990315
0.00102591
0.00107041
0.00112281
0.00118148
0.00121615
0.00119265
0.00113049
0.00107706
)
;

boundaryField
{
    floor
    {
        type            compressible::alphatWallFunction;
        Prt             0.85;
        value           nonuniform List<scalar> 
36
(
0.000210115
7.50993e-05
9.51495e-05
0.000107846
0.0001069
0.00010273
9.56601e-05
8.82909e-05
8.16232e-05
7.57519e-05
7.05829e-05
6.6012e-05
6.19727e-05
5.83506e-05
5.50092e-05
5.17779e-05
4.83961e-05
4.53929e-05
3.97152e-05
3.97147e-05
5.26336e-05
6.10222e-05
6.84395e-05
9.09418e-05
0.000104339
0.000114926
0.000210113
0.000223058
0.000168629
0.000117148
7.50984e-05
0.000117147
8.26175e-05
0.00019159
0.000168166
0.000236259
)
;
    }
    ceiling
    {
        type            compressible::alphatWallFunction;
        Prt             0.85;
        value           nonuniform List<scalar> 
43
(
0.000281197
0.000303611
0.00031944
0.000349829
0.00034948
0.000349148
0.000345075
0.000334363
0.000317724
0.00029647
0.000272197
0.000246884
0.000222661
0.000201799
0.000185477
0.000173602
0.000165382
0.000159821
0.000155995
0.000153182
0.00015085
0.000148628
0.00014626
0.000143607
0.000140752
0.000137948
0.000135586
0.000134089
0.000133793
0.000134883
0.00013735
0.000141101
0.00014611
0.000152343
0.000159646
0.000167776
0.000172559
0.000169319
0.000160714
0.000153277
0.000465084
0.000539799
0.000314762
)
;
    }
    sWall
    {
        type            compressible::alphatWallFunction;
        Prt             0.85;
        value           uniform 0.00028001;
    }
    nWall
    {
        type            compressible::alphatWallFunction;
        Prt             0.85;
        value           nonuniform List<scalar> 6(0.000114741 0.000117814 0.000135386 0.00018192 0.000187855 0.00015297);
    }
    sideWalls
    {
        type            empty;
    }
    glass1
    {
        type            compressible::alphatWallFunction;
        Prt             0.85;
        value           nonuniform List<scalar> 9(0.000172847 0.000233125 0.000281951 0.000327961 0.000374297 0.0004227 0.000464748 0.000471532 0.000458654);
    }
    glass2
    {
        type            compressible::alphatWallFunction;
        Prt             0.85;
        value           nonuniform List<scalar> 2(0.000210121 0.00020414);
    }
    sun
    {
        type            compressible::alphatWallFunction;
        Prt             0.85;
        value           nonuniform List<scalar> 
14
(
0.000176978
0.000193504
0.000197176
0.000206503
0.000215104
0.000223093
0.000230844
0.000238526
0.000244061
0.000246793
0.000246136
0.000241771
0.00023374
0.000222731
)
;
    }
    Table_master
    {
        type            compressible::alphatWallFunction;
        Prt             0.85;
        value           nonuniform List<scalar> 9(0.000137875 0.000120254 0.000105833 9.41342e-05 8.4611e-05 7.68024e-05 7.03646e-05 6.50667e-05 6.08036e-05);
    }
    Table_slave
    {
        type            compressible::alphatWallFunction;
        Prt             0.85;
        value           nonuniform List<scalar> 9(0.000154024 0.000138777 0.0001278 0.000119417 0.00011243 0.000106173 0.000100327 9.4349e-05 8.7567e-05);
    }
    inlet
    {
        type            fixedValue;
        value           uniform 1.94e-05;
    }
    outlet
    {
        type            zeroGradient;
    }
}


// ************************************************************************* //
