/*--------------------------------*- C++ -*----------------------------------*\
  =========                 |
  \\      /  F ield         | OpenFOAM: The Open Source CFD Toolbox
   \\    /   O peration     | Website:  https://openfoam.org
    \\  /    A nd           | Version:  6
     \\/     M anipulation  |
\*---------------------------------------------------------------------------*/
FoamFile
{
    version     2.0;
    format      ascii;
    class       volVectorField;
    location    "2900";
    object      U;
}
// * * * * * * * * * * * * * * * * * * * * * * * * * * * * * * * * * * * * * //

dimensions      [0 1 -1 0 0 0 0];

internalField   nonuniform List<vector> 
458
(
(0.030818 0.0841156 0)
(-0.163559 0.0256028 0)
(-0.18789 0.0175756 0)
(-0.217704 0.0121706 0)
(-0.239424 0.00634274 0)
(-0.252475 0.000338117 0)
(-0.255873 -0.00589755 0)
(-0.248549 -0.0123722 0)
(-0.231232 -0.0188119 0)
(-0.204957 -0.0244462 0)
(-0.171984 -0.0286591 0)
(-0.13484 -0.0313153 0)
(-0.0960153 -0.0329316 0)
(-0.0600331 -0.0348758 0)
(-0.0407339 -0.0379883 0)
(-0.00419193 0.00646201 0)
(-0.0181911 -0.0168738 0)
(0.00557139 -0.0252499 0)
(0.0252915 -0.0189523 0)
(0.0415447 -0.0127012 0)
(0.0525846 -0.0071795 0)
(0.0585475 -0.00428888 0)
(0.0611101 -0.0031797 0)
(0.0622016 -0.002713 0)
(0.0627968 -0.00241055 0)
(0.0630752 -0.00216173 0)
(0.0629668 -0.00187048 0)
(0.0622659 -0.00135956 0)
(0.0604192 -0.000245899 0)
(0.0562445 0.00201331 0)
(0.0483961 0.0046806 0)
(0.0388946 0.00734728 0)
(-0.00491061 0.0190242 0)
(0.198873 0.171455 0)
(-0.150702 0.0663591 0)
(-0.149037 0.0507687 0)
(-0.178905 0.0394969 0)
(-0.199687 0.0271132 0)
(-0.212361 0.0137357 0)
(-0.215962 -0.000851577 0)
(-0.209251 -0.0163187 0)
(-0.193427 -0.031017 0)
(-0.169874 -0.0430838 0)
(-0.141136 -0.051108 0)
(-0.10994 -0.0547315 0)
(-0.0790411 -0.0544512 0)
(-0.0520337 -0.0512656 0)
(-0.0335441 -0.0444955 0)
(-0.0166898 -0.019966 0)
(0.0204458 0.0263181 0)
(-0.0757981 0.0602344 0)
(0.0466712 0.0281858 0)
(0.0303728 -0.0219123 0)
(0.038366 -0.031116 0)
(0.049541 -0.0262116 0)
(0.0587401 -0.0180341 0)
(0.0631388 -0.00770391 0)
(0.0640422 -0.00167206 0)
(0.0639256 0.000694622 0)
(0.0640001 0.00165749 0)
(0.0642283 0.00223646 0)
(0.0643939 0.00270679 0)
(0.0644228 0.00322769 0)
(0.0642862 0.00415759 0)
(0.0634884 0.00637787 0)
(0.0597432 0.0123972 0)
(0.0503549 0.0179662 0)
(0.0418391 0.0226195 0)
(-0.0320044 0.0413102 0)
(0.352695 0.255742 0)
(-0.165014 0.104537 0)
(-0.110634 0.0810221 0)
(-0.138328 0.0611042 0)
(-0.155782 0.040892 0)
(-0.166519 0.0194162 0)
(-0.168939 -0.00405473 0)
(-0.161203 -0.0285352 0)
(-0.145394 -0.0510777 0)
(-0.123472 -0.0687314 0)
(-0.0982934 -0.0795029 0)
(-0.0722617 -0.0832442 0)
(-0.0475453 -0.0806952 0)
(-0.0262565 -0.0727174 0)
(-0.010493 -0.0593805 0)
(0.00289375 -0.03625 0)
(0.0145855 -0.00955652 0)
(-0.0240437 0.0135063 0)
(0.0938571 -0.0389125 0)
(0.067566 -0.0436724 0)
(0.0655487 -0.0405087 0)
(0.0689181 -0.0332058 0)
(0.0722365 -0.0260869 0)
(0.0721929 -0.0197008 0)
(0.0658191 -0.0132023 0)
(0.0610746 -0.00971694 0)
(0.0591589 -0.00776193 0)
(0.0585318 -0.00651207 0)
(0.0583056 -0.00565257 0)
(0.0584428 -0.00490792 0)
(0.0594184 -0.00386184 0)
(0.0624106 -0.00049577 0)
(0.0612697 0.0164397 0)
(0.0499618 0.0289854 0)
(0.0462414 0.039137 0)
(-0.0554141 0.0658843 0)
(0.490614 0.323106 0)
(-0.196634 0.13793 0)
(-0.0715253 0.105747 0)
(-0.0960096 0.0783229 0)
(-0.107154 0.0523323 0)
(-0.113065 0.0244286 0)
(-0.110971 -0.0073386 0)
(-0.0998403 -0.0408075 0)
(-0.0832223 -0.0701763 0)
(-0.0634953 -0.0918577 0)
(-0.0434653 -0.103791 0)
(-0.0243581 -0.106699 0)
(-0.00737757 -0.101732 0)
(0.00715759 -0.0894298 0)
(0.0181315 -0.071413 0)
(0.0287412 -0.0470852 0)
(0.0438346 -0.0202317 0)
(0.0592861 0.000446431 0)
(0.0927504 0.00030777 0)
(0.0981843 -0.0321961 0)
(0.0845236 -0.0388416 0)
(0.0761592 -0.0358938 0)
(0.0717492 -0.0301369 0)
(0.067901 -0.0223986 0)
(0.0683001 -0.0133075 0)
(0.0746986 -0.00906111 0)
(0.0797917 -0.0067781 0)
(0.0825842 -0.00535885 0)
(0.0839983 -0.0041176 0)
(0.0840118 -0.00267382 0)
(0.0817255 -0.000721392 0)
(0.0759475 0.00208888 0)
(0.0643407 0.00629355 0)
(0.0532455 0.0253353 0)
(0.0437787 0.0421996 0)
(0.0505158 0.0575026 0)
(-0.071327 0.0901763 0)
(0.607948 0.375118 0)
(-0.235204 0.165077 0)
(-0.0346704 0.11861 0)
(-0.0525579 0.0867673 0)
(-0.0547352 0.0572659 0)
(-0.0523151 0.024531 0)
(-0.0393342 -0.0147535 0)
(-0.0228102 -0.0551997 0)
(-0.00627295 -0.0878315 0)
(0.00897207 -0.110202 0)
(0.0208139 -0.120249 0)
(0.0302482 -0.120676 0)
(0.0371613 -0.113109 0)
(0.0420628 -0.0990113 0)
(0.0458246 -0.0799423 0)
(0.0504538 -0.0572713 0)
(0.0590026 -0.034709 0)
(0.0712124 -0.0212177 0)
(0.0812459 -0.0236882 0)
(0.0812014 -0.0325176 0)
(0.0738001 -0.0334717 0)
(0.06561 -0.0299861 0)
(0.0592918 -0.0248887 0)
(0.0548361 -0.018316 0)
(0.0538349 -0.00968536 0)
(0.0561029 -0.00499177 0)
(0.0586685 -0.00312366 0)
(0.0608084 -0.00206892 0)
(0.0626715 -0.00058755 0)
(0.0641462 0.00198975 0)
(0.0642103 0.00589782 0)
(0.0622773 0.011415 0)
(0.0577818 0.0192295 0)
(0.0522428 0.0336727 0)
(0.0458484 0.0511062 0)
(0.061995 0.0711263 0)
(0.0121059 0.0992588 0)
(0.0541311 0.120204 0)
(-0.0685095 0.0430257 0)
(-0.255001 -0.0132333 0)
(0.691244 0.418354 0)
(-0.27178 0.182954 0)
(-0.00783481 0.111505 0)
(-0.00709683 0.0830366 0)
(0.00402324 0.0527196 0)
(0.0198155 0.0140008 0)
(0.0490599 -0.0323583 0)
(0.0682637 -0.0715297 0)
(0.0809185 -0.10046 0)
(0.0874042 -0.118353 0)
(0.0886384 -0.125445 0)
(0.086139 -0.123268 0)
(0.0810478 -0.113635 0)
(0.0746278 -0.098445 0)
(0.0683011 -0.0796627 0)
(0.0636916 -0.0591947 0)
(0.0623818 -0.0400205 0)
(0.06392 -0.0271521 0)
(0.0642816 -0.0236704 0)
(0.0601411 -0.0250343 0)
(0.0524551 -0.0250609 0)
(0.0442889 -0.0227363 0)
(0.0376823 -0.0191511 0)
(0.0332448 -0.0146874 0)
(0.031596 -0.00980191 0)
(0.0324755 -0.00711801 0)
(0.0345041 -0.00612985 0)
(0.0370142 -0.00545061 0)
(0.0398427 -0.00399788 0)
(0.0428377 -0.000876436 0)
(0.0457749 0.00441166 0)
(0.0475817 0.0117536 0)
(0.0484182 0.0213495 0)
(0.0495419 0.0346702 0)
(0.0506436 0.0511152 0)
(0.0676884 0.0713989 0)
(0.0621919 0.0872606 0)
(0.0904415 0.0889182 0)
(0.107073 0.0542682 0)
(-0.125284 -0.0194743 0)
(0.744524 0.457847 0)
(-0.287612 0.167985 0)
(0.0216399 0.0559082 0)
(0.0585973 0.0483285 0)
(0.0859157 0.0293352 0)
(0.126678 -0.0134659 0)
(0.154443 -0.054078 0)
(0.169317 -0.0850304 0)
(0.172758 -0.105709 0)
(0.166722 -0.11656 0)
(0.153646 -0.118369 0)
(0.136155 -0.112646 0)
(0.116579 -0.101171 0)
(0.0969371 -0.0858228 0)
(0.0789463 -0.068441 0)
(0.0639833 -0.0507081 0)
(0.0528934 -0.0347597 0)
(0.0452755 -0.0235311 0)
(0.0389163 -0.0185338 0)
(0.0317323 -0.0174773 0)
(0.0237503 -0.0170116 0)
(0.0162658 -0.0157451 0)
(0.0103827 -0.0138887 0)
(0.00659241 -0.0117034 0)
(0.00516876 -0.00959681 0)
(0.00576648 -0.00861555 0)
(0.00749294 -0.0084958 0)
(0.00984554 -0.00840135 0)
(0.0127656 -0.00750098 0)
(0.0163681 -0.0048617 0)
(0.0214311 0.000546074 0)
(0.0270166 0.00843585 0)
(0.0323886 0.0179956 0)
(0.0390829 0.0296174 0)
(0.0470093 0.0429476 0)
(0.0643346 0.0589148 0)
(0.0783207 0.0674792 0)
(0.105973 0.0620602 0)
(0.145612 0.0504007 0)
(-0.0320484 0.0876939 0)
(0.848782 0.457259 0)
(-0.0556893 0.144245 0)
(0.115332 -0.0399354 0)
(0.210637 -0.0679191 0)
(0.252609 -0.0720414 0)
(0.274794 -0.0803088 0)
(0.284105 -0.0901287 0)
(0.279412 -0.0975712 0)
(0.261793 -0.101126 0)
(0.234392 -0.100259 0)
(0.200964 -0.0949988 0)
(0.165098 -0.0859728 0)
(0.129734 -0.0740501 0)
(0.0970886 -0.0603857 0)
(0.0686536 -0.0462115 0)
(0.0453201 -0.0325998 0)
(0.027453 -0.0209546 0)
(0.0147645 -0.0131982 0)
(0.0055129 -0.00986928 0)
(-0.00236901 -0.00938154 0)
(-0.00934524 -0.00970691 0)
(-0.015275 -0.00988072 0)
(-0.0197896 -0.009873 0)
(-0.0227018 -0.00977719 0)
(-0.0240354 -0.00977278 0)
(-0.0241846 -0.0101428 0)
(-0.0237325 -0.0107609 0)
(-0.0229998 -0.0112889 0)
(-0.0219652 -0.0113211 0)
(-0.0203169 -0.010329 0)
(-0.0172394 -0.00757034 0)
(-0.010146 -0.00227076 0)
(-0.0019065 0.0049468 0)
(0.00788229 0.012627 0)
(0.0190366 0.0191718 0)
(0.0357848 0.0255321 0)
(0.0532295 0.0223287 0)
(0.0768007 0.00722045 0)
(0.1392 0.0417776 0)
(-0.370054 0.186216 0)
(0.99595 0.413218 0)
(0.466229 0.271723 0)
(0.491395 0.168558 0)
(0.530472 0.0947914 0)
(0.515285 0.0457468 0)
(0.473561 0.00837113 0)
(0.425104 -0.0191266 0)
(0.371694 -0.0370777 0)
(0.313799 -0.0465001 0)
(0.254362 -0.0490247 0)
(0.196869 -0.0465624 0)
(0.144173 -0.0409127 0)
(0.0978721 -0.0332362 0)
(0.0589609 -0.024681 0)
(0.0273857 -0.0162951 0)
(0.0027136 -0.00884907 0)
(-0.0148738 -0.00360775 0)
(-0.0254268 -0.00153309 0)
(-0.0325085 -0.00152238 0)
(-0.0380758 -0.00257438 0)
(-0.0430334 -0.00395772 0)
(-0.0474182 -0.00533304 0)
(-0.0510634 -0.00660938 0)
(-0.0538948 -0.00774288 0)
(-0.056055 -0.00876009 0)
(-0.0579066 -0.00972614 0)
(-0.0599263 -0.0105775 0)
(-0.0625537 -0.0111061 0)
(-0.0661749 -0.010907 0)
(-0.0711526 -0.00931 0)
(-0.0778643 -0.00542263 0)
(-0.0866483 0.001513 0)
(-0.0956784 0.0108742 0)
(-0.107941 0.0228812 0)
(-0.127394 0.0380535 0)
(-0.156674 0.0562709 0)
(-0.197944 0.0750355 0)
(-0.245789 0.0916739 0)
(-0.314849 0.104326 0)
(-0.575101 0.111099 0)
(-0.236324 -0.100141 0)
(0.0917231 -0.0813544 0)
(0.165065 -0.0665159 0)
(0.15836 -0.046282 0)
(0.145954 -0.0284082 0)
(0.127012 -0.0153623 0)
(0.100971 -0.00650855 0)
(0.0717182 -0.000886838 0)
(0.0423573 0.00239053 0)
(0.0149454 0.004253 0)
(-0.0106454 0.00590636 0)
(-0.0302304 0.0074335 0)
(-0.045126 0.00888127 0)
(-0.0555585 0.00991143 0)
(-0.0620837 0.0101516 0)
(-0.0663979 0.00992588 0)
(-0.0697027 0.00964104 0)
(-0.0725818 0.00935755 0)
(-0.0753846 0.00905943 0)
(-0.0783253 0.0086583 0)
(-0.0814306 0.00815801 0)
(-0.0846371 0.00790744 0)
(-0.0879608 0.0080137 0)
(-0.0914744 0.00848898 0)
(-0.0952931 0.00931233 0)
(-0.0995331 0.0104238 0)
(-0.104292 0.0117319 0)
(-0.109591 0.0131241 0)
(-0.114958 0.0152138 0)
(-0.119332 0.0192525 0)
(-0.123063 0.0267847 0)
(-0.126108 0.0384964 0)
(-0.128895 0.0541978 0)
(-0.131647 0.0718371 0)
(-0.131577 0.0840794 0)
(-0.116718 0.0718775 0)
(-0.0895602 -0.00437069 0)
(-0.25245 -0.179054 0)
(0.0807624 0.133515 0)
(0.0248768 0.0297879 0)
(-0.0179125 -0.00858708 0)
(-0.0445874 -0.00262407 0)
(-0.0601881 0.00464911 0)
(-0.0688773 0.00750641 0)
(-0.0749576 0.00828993 0)
(-0.0802862 0.0077685 0)
(-0.0846451 0.00584682 0)
(-0.0879816 0.00259931 0)
(-0.0905123 -0.00179835 0)
(-0.0920066 -0.00712207 0)
(-0.0926691 -0.0128123 0)
(-0.0926208 -0.0188464 0)
(-0.0922519 -0.0252256 0)
(-0.0920133 -0.0316299 0)
(-0.0920914 -0.0376559 0)
(-0.0925613 -0.0431285 0)
(-0.0935056 -0.0479834 0)
(-0.0950356 -0.052182 0)
(-0.0973205 -0.0557878 0)
(-0.10046 -0.058998 0)
(-0.104325 -0.0616569 0)
(-0.108678 -0.0634412 0)
(-0.113157 -0.0638728 0)
(-0.117289 -0.062375 0)
(-0.120561 -0.0583531 0)
(-0.122531 -0.0512186 0)
(-0.122869 -0.0409482 0)
(-0.120951 -0.0279393 0)
(-0.115622 -0.0121179 0)
(-0.105548 0.0065683 0)
(-0.0898081 0.0276899 0)
(-0.0685021 0.0486692 0)
(-0.0433928 0.0630001 0)
(-0.0084341 0.0537038 0)
(0.137653 -0.0181803 0)
(-0.190465 -0.0945094 0)
(0.125364 -0.238511 0)
(-0.34241 -0.125008 0)
(-0.262724 0.0141559 0)
(-0.254348 -0.0124672 0)
(-0.235382 -0.002654 0)
(-0.230601 0.00977324 0)
(-0.224284 0.0195832 0)
(-0.215542 0.0278722 0)
(-0.204662 0.0359448 0)
(-0.192274 0.0442377 0)
(-0.179138 0.052955 0)
(-0.166049 0.0623099 0)
(-0.153716 0.0723423 0)
(-0.142628 0.0829125 0)
(-0.132981 0.0937806 0)
(-0.124801 0.104551 0)
(-0.118122 0.114829 0)
(-0.112912 0.124219 0)
(-0.109034 0.13246 0)
(-0.106309 0.139544 0)
(-0.104542 0.145628 0)
(-0.103519 0.150907 0)
(-0.103018 0.155621 0)
(-0.102874 0.159963 0)
(-0.102968 0.163713 0)
(-0.103198 0.166386 0)
(-0.103471 0.167323 0)
(-0.103674 0.165863 0)
(-0.103606 0.161575 0)
(-0.10282 0.154472 0)
(-0.100443 0.145459 0)
(-0.0950341 0.136119 0)
(-0.0845528 0.127948 0)
(-0.0669745 0.12255 0)
(-0.0417999 0.121216 0)
(-0.0082555 0.123653 0)
(0.0342093 0.125167 0)
(0.0693551 0.118863 0)
(0.153985 0.105082 0)
(-0.279331 0.0723776 0)
)
;

boundaryField
{
    floor
    {
        type            noSlip;
    }
    ceiling
    {
        type            noSlip;
    }
    sWall
    {
        type            noSlip;
    }
    nWall
    {
        type            noSlip;
    }
    sideWalls
    {
        type            empty;
    }
    glass1
    {
        type            noSlip;
    }
    glass2
    {
        type            noSlip;
    }
    sun
    {
        type            noSlip;
    }
    Table_master
    {
        type            noSlip;
    }
    Table_slave
    {
        type            noSlip;
    }
    inlet
    {
        type            fixedValue;
        value           uniform (0.212132 -0.212132 0);
    }
    outlet
    {
        type            zeroGradient;
    }
}


// ************************************************************************* //
