/*--------------------------------*- C++ -*----------------------------------*\
  =========                 |
  \\      /  F ield         | OpenFOAM: The Open Source CFD Toolbox
   \\    /   O peration     | Website:  https://openfoam.org
    \\  /    A nd           | Version:  6
     \\/     M anipulation  |
\*---------------------------------------------------------------------------*/
FoamFile
{
    version     2.0;
    format      ascii;
    class       volScalarField;
    location    "1900";
    object      epsilon;
}
// * * * * * * * * * * * * * * * * * * * * * * * * * * * * * * * * * * * * * //

dimensions      [0 2 -3 0 0 0 0];

internalField   nonuniform List<scalar> 
458
(
0.000270984
0.000325341
0.000308976
0.000342905
0.000375952
0.000406732
0.000435803
0.000464295
0.000492279
0.000509049
0.000509659
0.000490795
0.000454614
0.000411035
0.000370235
2.70927e-05
4.89574e-05
5.06822e-05
4.94416e-05
4.72492e-05
4.21749e-05
3.65843e-05
3.17089e-05
2.75494e-05
2.39699e-05
2.08804e-05
1.82078e-05
1.58859e-05
1.38469e-05
1.20032e-05
1.02547e-05
1.01092e-05
8.41544e-06
0.000866984
0.00149113
0.000303324
0.000262046
0.000261903
0.000267049
0.000276415
0.000291772
0.000313654
0.000333534
0.000344107
0.000338944
0.000317851
0.00029396
0.000301657
0.000379781
0.000259558
0.000217833
8.93053e-05
6.95014e-05
5.24033e-05
4.38527e-05
3.93902e-05
3.87922e-05
3.30484e-05
2.78746e-05
2.35341e-05
1.99106e-05
1.69192e-05
1.44803e-05
1.25515e-05
1.1251e-05
1.07781e-05
1.10222e-05
4.22426e-05
2.59023e-05
0.00179174
0.00426719
0.000473135
0.000268474
0.000259076
0.000270892
0.000291463
0.000320621
0.000357003
0.000391216
0.00041125
0.000408121
0.000382092
0.00034515
0.00031531
0.00028966
0.000235161
0.000410591
0.000183789
8.91407e-05
5.86853e-05
4.68486e-05
4.39203e-05
9.45107e-05
6.88934e-05
5.2017e-05
4.08567e-05
3.32466e-05
2.78574e-05
2.39135e-05
2.09784e-05
1.88618e-05
1.60887e-05
1.5135e-05
7.55729e-05
4.31125e-05
0.00316372
0.00923622
0.000908035
0.000302385
0.000268421
0.000286715
0.000318694
0.00036316
0.000419235
0.000470711
0.00049696
0.000488695
0.000450334
0.000394979
0.000333982
0.000268024
0.000201726
0.000229819
0.000272895
0.00015722
7.53329e-05
5.0942e-05
4.24431e-05
4.2271e-05
0.000108766
9.85386e-05
9.79444e-05
0.000100597
0.000102878
0.000101979
9.57682e-05
8.75952e-05
7.77278e-05
5.14393e-05
3.49687e-05
9.93764e-05
6.30193e-05
0.00508961
0.0163839
0.00195458
0.000403868
0.000290347
0.00030485
0.000348017
0.00041676
0.000512274
0.00058983
0.000617792
0.000594433
0.000534039
0.000455543
0.000370184
0.000280289
0.000194428
0.00014264
0.000124701
7.82655e-05
5.44338e-05
4.41785e-05
4.10035e-05
4.19244e-05
5.00054e-05
5.79409e-05
6.63309e-05
7.38643e-05
7.89929e-05
7.98814e-05
7.53358e-05
6.8228e-05
6.22897e-05
5.36806e-05
4.36255e-05
6.65557e-05
9.43843e-05
0.000109255
0.00011905
0.000119294
0.00772786
0.0237539
0.00448431
0.000844367
0.000433053
0.000382091
0.000413837
0.000512357
0.00068251
0.00078158
0.000791799
0.000734301
0.000637067
0.000527077
0.000418075
0.00031001
0.000210736
0.00013557
8.73989e-05
6.08594e-05
4.85313e-05
4.42974e-05
4.51873e-05
4.96114e-05
5.86036e-05
7.12829e-05
8.5504e-05
9.92015e-05
0.0001104
0.000116145
0.000112848
9.75576e-05
8.11486e-05
6.63731e-05
5.49155e-05
5.68156e-05
6.87262e-05
0.000100151
0.000398213
0.000251466
0.0108971
0.0279159
0.00976882
0.00309026
0.00150589
0.000948188
0.00079118
0.00088006
0.00105485
0.0010981
0.00103733
0.000912169
0.000758932
0.000609098
0.000474719
0.000349839
0.000234272
0.000141846
8.38167e-05
5.82649e-05
4.99059e-05
4.95572e-05
5.3931e-05
6.19109e-05
7.40265e-05
9.07232e-05
0.000110837
0.00013219
0.00015336
0.00017139
0.000181268
0.000174788
0.000147278
0.000122496
0.000108403
0.000110538
0.000132259
0.000196101
0.000771978
0.000489569
0.0116258
0.0317112
0.0172591
0.0112439
0.00676626
0.00403386
0.00271798
0.00217084
0.00187278
0.00162687
0.00138098
0.00112698
0.000883693
0.000679602
0.000520287
0.000382389
0.000251746
0.000145696
8.41533e-05
6.16517e-05
5.70079e-05
5.93558e-05
6.61213e-05
7.68631e-05
9.19563e-05
0.000111771
0.000136162
0.000164883
0.000197938
0.000235196
0.000275901
0.000317406
0.000341539
0.000354256
0.000415611
0.000585082
0.000964015
0.00147281
0.00489472
0.00119377
0.0107166
0.018005
0.0160111
0.0120987
0.00892821
0.0064468
0.0047324
0.00360274
0.00279841
0.00220335
0.00171923
0.00129937
0.000949476
0.000695457
0.000528927
0.000393428
0.000253694
0.000141871
8.89771e-05
7.3284e-05
7.05394e-05
7.34206e-05
8.04293e-05
9.15207e-05
0.00010704
0.000127391
0.000153005
0.00018468
0.000223947
0.00027335
0.000336555
0.000418096
0.000522637
0.000656944
0.000855643
0.00113757
0.00147169
0.00178789
0.00207546
0.00108147
0.00816115
0.0146309
0.00939171
0.00678744
0.00511031
0.00393423
0.00304768
0.00232553
0.00172042
0.00121409
0.000827589
0.000585986
0.000468115
0.000369628
0.000231444
0.000140715
0.000107857
9.78311e-05
9.52983e-05
9.62429e-05
0.000100483
0.000108421
0.000120352
0.00013645
0.000156871
0.000181978
0.000212622
0.000250519
0.000298775
0.000362643
0.00045062
0.000568979
0.000720609
0.000894225
0.00104116
0.00108595
0.000998873
0.000541103
0.00657109
0.0117015
0.00767851
0.00560875
0.004223
0.00316625
0.00232329
0.00168096
0.00117535
0.000782851
0.000501053
0.000337305
0.000264121
0.000217499
0.000188087
0.000156946
0.000137912
0.000126804
0.000118632
0.000112695
0.000109858
0.000110889
0.000116204
0.000126137
0.000141198
0.00016225
0.000190655
0.00022845
0.000278596
0.000345274
0.000433776
0.000548691
0.000690877
0.000846835
0.000991383
0.00110572
0.000710688
0.000554108
0.00324508
0.004108
0.0049565
0.00577793
0.00463082
0.00386751
0.00288847
0.00208626
0.00144968
0.0009798
0.000674917
0.000431352
0.000243289
0.000187679
0.00019099
0.000176746
0.000126059
0.000100684
9.06845e-05
8.86461e-05
9.03024e-05
9.46434e-05
0.000101662
0.000111506
0.000124341
0.000140372
0.000159889
0.000183322
0.000211361
0.000245204
0.000287072
0.000341434
0.00040748
0.000486947
0.000581004
0.000689737
0.000805223
0.000762611
0.00058682
0.000453857
)
;

boundaryField
{
    floor
    {
        Cmu             0.09;
        kappa           0.41;
        E               9.8;
        type            epsilonWallFunction;
        value           nonuniform List<scalar> 
36
(
0.000370235
2.70927e-05
4.89574e-05
5.06822e-05
4.94416e-05
4.72492e-05
4.21749e-05
3.65843e-05
3.17089e-05
2.75494e-05
2.39699e-05
2.08804e-05
1.82078e-05
1.58859e-05
1.38469e-05
1.20032e-05
1.02547e-05
1.01092e-05
8.41544e-06
8.41544e-06
2.59023e-05
4.31125e-05
6.30193e-05
0.000109255
0.00011905
0.000119294
0.000370235
0.000379781
0.000259558
0.000217833
2.70927e-05
0.000217833
8.93053e-05
0.000410591
0.000183789
0.000272895
)
;
    }
    ceiling
    {
        Cmu             0.09;
        kappa           0.41;
        E               9.8;
        type            epsilonWallFunction;
        value           nonuniform List<scalar> 
43
(
0.00324508
0.004108
0.0049565
0.00577793
0.00463082
0.00386751
0.00288847
0.00208626
0.00144968
0.0009798
0.000674917
0.000431352
0.000243289
0.000187679
0.00019099
0.000176746
0.000126059
0.000100684
9.06845e-05
8.86461e-05
9.03024e-05
9.46434e-05
0.000101662
0.000111506
0.000124341
0.000140372
0.000159889
0.000183322
0.000211361
0.000245204
0.000287072
0.000341434
0.00040748
0.000486947
0.000581004
0.000689737
0.000805223
0.000762611
0.00058682
0.000453857
0.0107166
0.018005
0.00657109
)
;
    }
    sWall
    {
        Cmu             0.09;
        kappa           0.41;
        E               9.8;
        type            epsilonWallFunction;
        value           uniform 0.00324508;
    }
    nWall
    {
        Cmu             0.09;
        kappa           0.41;
        E               9.8;
        type            epsilonWallFunction;
        value           nonuniform List<scalar> 6(0.000119294 0.000251466 0.000489569 0.000541103 0.000554108 0.000453857);
    }
    sideWalls
    {
        type            empty;
    }
    glass1
    {
        Cmu             0.09;
        kappa           0.41;
        E               9.8;
        type            epsilonWallFunction;
        value           nonuniform List<scalar> 9(0.000270984 0.000866984 0.00179174 0.00316372 0.00508961 0.00772786 0.0108971 0.0116258 0.0107166);
    }
    glass2
    {
        Cmu             0.09;
        kappa           0.41;
        E               9.8;
        type            epsilonWallFunction;
        value           nonuniform List<scalar> 2(0.00119377 0.00108147);
    }
    sun
    {
        Cmu             0.09;
        kappa           0.41;
        E               9.8;
        type            epsilonWallFunction;
        value           nonuniform List<scalar> 
14
(
0.000270984
0.000325341
0.000308976
0.000342905
0.000375952
0.000406732
0.000435803
0.000464295
0.000492279
0.000509049
0.000509659
0.000490795
0.000454614
0.000411035
)
;
    }
    Table_master
    {
        Cmu             0.09;
        kappa           0.41;
        E               9.8;
        type            epsilonWallFunction;
        value           nonuniform List<scalar> 9(9.45107e-05 6.88934e-05 5.2017e-05 4.08567e-05 3.32466e-05 2.78574e-05 2.39135e-05 2.09784e-05 1.88618e-05);
    }
    Table_slave
    {
        Cmu             0.09;
        kappa           0.41;
        E               9.8;
        type            epsilonWallFunction;
        value           nonuniform List<scalar> 9(0.000108766 9.85386e-05 9.79444e-05 0.000100597 0.000102878 0.000101979 9.57682e-05 8.75952e-05 7.77278e-05);
    }
    inlet
    {
        type            turbulentMixingLengthDissipationRateInlet;
        mixingLength    0.01;
        phi             phi;
        k               k;
        value           uniform 0.000101881;
    }
    outlet
    {
        type            zeroGradient;
    }
}


// ************************************************************************* //
