/*--------------------------------*- C++ -*----------------------------------*\
  =========                 |
  \\      /  F ield         | OpenFOAM: The Open Source CFD Toolbox
   \\    /   O peration     | Website:  https://openfoam.org
    \\  /    A nd           | Version:  6
     \\/     M anipulation  |
\*---------------------------------------------------------------------------*/
FoamFile
{
    version     2.0;
    format      ascii;
    class       surfaceScalarField;
    location    "1900";
    object      phi;
}
// * * * * * * * * * * * * * * * * * * * * * * * * * * * * * * * * * * * * * //

dimensions      [1 0 -1 0 0 0 0];

internalField   nonuniform List<scalar> 
850
(
-0.00274814
0.00280901
-0.00343132
0.000683253
-0.00402333
0.000592077
-0.00455059
0.000527336
-0.00496985
0.000419324
-0.00525983
0.000290048
-0.0054018
0.000142036
-0.00537575
-2.59908e-05
-0.00515996
-0.00021572
-0.00474407
-0.000415826
-0.00414209
-0.000601916
-0.00338888
-0.000753149
-0.00251138
-0.000877427
-0.00145234
-0.00105897
-0.00145027
-0.000268351
0.000272257
0.000289516
-0.000557801
0.000835521
-0.000545945
0.00122098
-0.000385395
0.00149292
-0.00027188
0.00161642
-0.000123437
0.00163686
-2.03831e-05
0.00162035
1.65862e-05
0.00158964
3.07838e-05
0.00154959
4.01235e-05
0.00150259
4.70837e-05
0.00144807
5.46002e-05
0.00137825
6.99104e-05
0.00127013
0.000108204
0.00108824
0.000181988
0.000835805
0.000252522
0.000627961
0.000207935
0.000633183
-0.00197268
0.00494296
-0.00279663
0.00150727
-0.00348486
0.00128038
-0.00403535
0.00107789
-0.00446621
0.000850247
-0.00477282
0.000596714
-0.0049401
0.000309381
-0.00494785
-1.81842e-05
-0.00478087
-0.000382646
-0.00443953
-0.000757109
-0.00395153
-0.00108985
-0.00336658
-0.00133804
-0.00275029
-0.00149365
-0.00224515
-0.00156405
-0.00231442
-0.00138093
-0.00150433
-0.000806068
-0.000898142
-0.000601763
-0.000886602
0.0009816
-0.000700582
0.00111808
-0.000694232
0.00120072
-0.000628533
0.00138875
-0.000573372
0.00158686
-0.000469949
0.0016201
-0.000156625
0.00161488
-1.51187e-05
0.00161164
1.98883e-05
0.00160837
3.41128e-05
0.0016041
4.44621e-05
0.00159943
5.18254e-05
0.00159377
6.03325e-05
0.00158322
8.05374e-05
0.00153521
0.000156295
0.00134385
0.000373435
0.00101486
0.000581595
0.000602376
0.000620507
0.00124795
-0.00141893
0.00660557
-0.00223085
0.00231927
-0.00288967
0.00193926
-0.00339135
0.00157964
-0.00379312
0.00125207
-0.00409278
0.000896444
-0.00426937
0.000486024
-0.00429573
8.23364e-06
-0.00414902
-0.000529301
-0.00383291
-0.00107315
-0.00338313
-0.00153956
-0.00285685
-0.00186426
-0.00232685
-0.00202359
-0.0018851
-0.00200573
-0.00150253
-0.00176343
-0.000936441
-0.0013721
-0.000373853
-0.0011643
-0.00125054
0.000557031
-0.00124545
0.000820224
-0.000957392
0.000985724
-0.000794
0.00117395
-0.000761568
0.00150258
-0.000798544
0.00134614
0.00133122
0.0013513
0.00138562
0.00143029
0.00148233
0.00154288
0.00162363
0.00178015
0.0015132
0.000640463
0.00115103
0.00094384
0.000601565
0.00117006
0.00186793
-0.00103322
0.0079511
-0.00176934
0.00305546
-0.00225372
0.00242372
-0.00264072
0.0019667
-0.00297203
0.00158346
-0.00323653
0.00116101
-0.00340414
0.000653698
-0.00343649
4.06409e-05
-0.00329741
-0.000668324
-0.00299702
-0.00137348
-0.00258572
-0.00195079
-0.00212594
-0.00232395
-0.00167944
-0.00247001
-0.00128939
-0.00239571
-0.00091572
-0.00213704
-0.000496857
-0.00179091
-0.000138423
-0.00152268
-4.11262e-05
-0.00134779
0.000769525
-0.0007976
0.000520133
-0.000996031
0.000607899
-0.00104513
0.000740227
-0.000926304
0.000823115
-0.000844432
0.000752542
-0.000727947
0.00118081
-0.000428394
0.00150988
-0.000329203
0.00181149
-0.000301743
0.00208987
-0.000278509
0.00232688
-0.000237139
0.00248914
-0.000162393
0.00252629
-3.72792e-05
0.00238132
0.000144842
0.00198019
0.000401001
0.00177235
0.000848332
0.0013907
0.00132555
0.00078986
0.00177096
0.00268129
-0.000751896
0.00907308
-0.00138973
0.00369337
-0.00157237
0.00260642
-0.00178085
0.00217525
-0.0020013
0.00180398
-0.00219474
0.00135452
-0.00232167
0.000780693
-0.00233253
5.15566e-05
-0.0021813
-0.000819486
-0.00190191
-0.0016528
-0.00155851
-0.00229411
-0.00120523
-0.00267713
-0.000881744
-0.0027934
-0.000608487
-0.00266889
-0.000367722
-0.00237774
-0.000139374
-0.0020192
3.22734e-05
-0.00169428
0.0001137
-0.00142918
0.000405527
-0.0010894
0.000475921
-0.0010664
0.000480994
-0.00105018
0.00052961
-0.0009749
0.000583471
-0.000898274
0.000659524
-0.00080398
0.000897323
-0.000666173
0.00115479
-0.00058665
0.0014061
-0.000553035
0.00164895
-0.000521338
0.00187207
-0.000460239
0.00205226
-0.000342552
0.00215395
-0.000138947
0.00214157
0.000157239
0.00202139
0.000521205
0.00189533
0.000974423
0.0017672
0.00145372
0.00160096
0.00193726
0.00236492
0.00191739
0.00172516
0.000663053
0.00171511
3.29138e-05
0.00180047
-0.000672203
0.0101644
-0.00116865
0.00418989
-0.000871623
0.00230947
-0.000785353
0.00208905
-0.000869337
0.00188803
-0.000970063
0.00145531
-0.00101457
0.000825269
-0.000951586
-1.13757e-05
-0.000769369
-0.00100164
-0.000539181
-0.00188291
-0.000314095
-0.00251909
-0.000121386
-0.00286973
2.5675e-05
-0.00294035
0.000122833
-0.00276596
0.000179653
-0.00243448
0.00021178
-0.00205127
0.000218117
-0.00170057
0.000204302
-0.00141533
0.000279007
-0.00116408
0.000286563
-0.00107393
0.000261604
-0.00102521
0.000259178
-0.000972457
0.000282668
-0.000921745
0.000346273
-0.000867566
0.000484342
-0.000804222
0.000662391
-0.000764677
0.000854558
-0.000745179
0.00105345
-0.000720209
0.00125494
-0.000661701
0.00145141
-0.000538993
0.00162764
-0.000315155
0.00174599
3.8916e-05
0.00180049
0.000466728
0.00186313
0.000911801
0.00200401
0.00131287
0.00226318
0.00167813
0.00248643
0.00169419
0.0019976
0.00115194
0.00113562
0.000894954
0.00300082
-0.000811288
0.0114387
-0.000795006
0.00417368
0.000166114
0.00134841
0.000554468
0.00170076
0.000559751
0.00188281
0.000541227
0.00147389
0.000621564
0.000744984
0.000788778
-0.000178551
0.000956834
-0.00116964
0.00106537
-0.00199135
0.0010971
-0.0025507
0.00106274
-0.00283523
0.000977154
-0.00285464
0.00084975
-0.00263846
0.000689698
-0.00227435
0.000517017
-0.00187852
0.000351244
-0.00153475
0.00021131
-0.00127537
0.000134234
-0.00108698
5.6935e-05
-0.000996617
-1.7846e-05
-0.000950408
-7.30454e-05
-0.00091724
-0.000102374
-0.000892397
-9.84238e-05
-0.000871496
-4.91201e-05
-0.000853503
3.4239e-05
-0.000848011
0.000137983
-0.000848896
0.000257718
-0.000839916
0.000396595
-0.000800549
0.000562257
-0.000704625
0.000763861
-0.00051673
0.000994418
-0.000191614
0.00122267
0.000238501
0.00145264
0.000681859
0.00174353
0.00102201
0.00210977
0.00131193
0.0024708
0.0013332
0.0026082
0.00101458
0.00197046
0.00153274
0.00503622
0.00235415
0.00960192
0.00296057
0.00356733
0.00319991
0.00110914
0.00310791
0.00179282
0.00291575
0.00207502
0.00284253
0.00154715
0.00289449
0.000693058
0.00299521
-0.000279248
0.00298982
-0.00116419
0.00283455
-0.00183596
0.00256064
-0.00227664
0.0022249
-0.00249932
0.0018624
-0.00249201
0.00147829
-0.00225424
0.0010798
-0.00187578
0.000698544
-0.0014972
0.000370282
-0.00120644
0.000116531
-0.00102158
-6.34213e-05
-0.000907004
-0.000210836
-0.000849185
-0.000340958
-0.00082027
-0.000453963
-0.000804217
-0.00054865
-0.00079769
-0.000622207
-0.000797915
-0.000671726
-0.000803956
-0.000703004
-0.000816703
-0.000721484
-0.000830384
-0.000727698
-0.00083367
-0.000716621
-0.000811593
-0.000674468
-0.000746745
-0.000569921
-0.000621245
-0.000344711
-0.000416792
-1.22627e-05
-9.3918e-05
0.000356099
0.000313526
0.000733907
0.000644231
0.00112722
0.00091865
0.00145535
0.00100512
0.00158023
0.000889743
0.000836788
0.00227623
0.00617116
0.010172
0.0137334
0.0123967
0.00244597
0.0102781
0.00391149
0.00878817
0.00356501
0.00778201
0.00255336
0.00699782
0.0014773
0.00622756
0.000491085
0.00539913
-0.000335637
0.00455264
-0.000989296
0.00375294
-0.00147672
0.00304241
-0.00178858
0.00241061
-0.00186006
0.0018015
-0.00164503
0.00118999
-0.00126419
0.000635181
-0.000942338
0.000199136
-0.000770354
-0.000101015
-0.000721407
-0.000315258
-0.000692743
-0.000501559
-0.000662868
-0.000680078
-0.000641734
-0.000851771
-0.000632504
-0.00101689
-0.000632546
-0.00117603
-0.000638748
-0.00133089
-0.000649069
-0.00148639
-0.000661164
-0.00164766
-0.000669083
-0.00181885
-0.00066245
-0.00200424
-0.000626159
-0.00221027
-0.000540678
-0.00244746
-0.000384027
-0.00272988
-0.000134329
-0.00304562
0.000221854
-0.00342181
0.000689756
-0.004036
0.00125846
-0.00501818
0.00190087
-0.00651345
0.00250043
-0.00841089
0.00278723
-0.00816532
0.00203071
-0.00166524
0.00314047
0.00365322
0.00402689
0.00302539
0.00526803
0.00232414
0.00557739
0.00224424
0.00541303
0.00164189
0.00507525
0.00082912
0.00460254
0.000137325
0.00400056
-0.000387044
0.00335005
-0.000825944
0.00273213
-0.00117045
0.00214968
-0.00127749
0.00153458
-0.00102985
0.000842336
-0.00057189
0.000220852
-0.000320814
-0.000192245
-0.000357231
-0.000423667
-0.000489966
-0.00060641
-0.000509984
-0.00080021
-0.000469052
-0.0010054
-0.000436527
-0.00121602
-0.000421859
-0.00143126
-0.000417284
-0.0016528
-0.000417177
-0.00188363
-0.000418204
-0.00212771
-0.000417049
-0.00238799
-0.000408766
-0.00266428
-0.00038612
-0.00295115
-0.000339253
-0.00323592
-0.000255872
-0.00349693
-0.000122973
-0.0037038
7.25787e-05
-0.00385401
0.000372103
-0.00396736
0.000803144
-0.00407864
0.00136979
-0.0042022
0.00202447
-0.00431487
0.00261314
-0.00425531
0.00272772
-0.00268028
0.00045572
-0.0042582
-0.000641371
0.00433642
0.000895009
0.00148931
0.00178343
0.00143598
0.0024783
0.00154961
0.00289178
0.00122866
0.0030306
0.000690566
0.00291522
0.000252985
0.00263407
-0.000105622
0.00223796
-0.000429608
0.00176913
-0.000701529
0.00124517
-0.000753512
0.000675544
-0.000460196
8.04917e-05
2.31763e-05
-0.00038369
0.000143381
-0.000616007
-0.000124898
-0.000784513
-0.000321445
-0.000958675
-0.000335808
-0.00114723
-0.000280482
-0.0013435
-0.00024024
-0.00154499
-0.000220347
-0.00175174
-0.000210508
-0.00196378
-0.000205107
-0.00218056
-0.00020139
-0.00240074
-0.000196829
-0.00262138
-0.000188091
-0.0028367
-0.000170767
-0.00303658
-0.000139331
-0.00320535
-8.70649e-05
-0.00332411
-4.17619e-06
-0.00336397
0.000112483
-0.00327888
0.000287052
-0.00302588
0.000550193
-0.00258593
0.000929878
-0.00197894
0.00141753
-0.00104289
0.00167713
0.000610177
0.00107469
0.0014842
-0.000418257
-0.00267762
-0.00694202
-0.00925782
-0.00488811
-0.00338231
-0.00193404
-0.000374347
0.000863264
0.00156295
0.00182584
0.00173113
0.00131312
0.000623302
-0.000118926
-0.000567968
-0.00053389
-0.000379605
-0.000492876
-0.000802091
-0.00112532
-0.00139311
-0.00162068
-0.00182849
-0.00202668
-0.00221974
-0.00240942
-0.0025949
-0.00277202
-0.0029322
-0.00306133
-0.00313859
-0.00313337
-0.0030119
-0.00271629
-0.00215795
-0.00122033
0.000204528
0.00188853
0.00297007
0.0025591
)
;

boundaryField
{
    floor
    {
        type            calculated;
        value           nonuniform List<scalar> 
36
(
0
0
0
0
0
0
0
0
0
0
0
0
0
0
0
0
0
0
0
-5.13767e-06
-1.23021e-05
-1.8334e-05
-2.34261e-05
-2.32273e-05
-2.27955e-05
-2.24144e-05
-2.00418e-06
-3.94978e-06
-4.36734e-06
-4.56229e-06
-3.82834e-06
-6.92009e-06
-8.69866e-06
-9.86781e-06
-1.21241e-05
-1.30178e-05
)
;
    }
    ceiling
    {
        type            calculated;
        value           nonuniform List<scalar> 
43
(
-3.66509e-05
-3.48677e-05
-3.3129e-05
-1.63016e-05
-1.20953e-05
-9.87982e-06
-8.68486e-06
-8.86471e-06
-9.65421e-06
-1.07062e-05
-1.15242e-05
-1.186e-05
-1.14747e-05
-1.11499e-05
-1.08904e-05
-1.09023e-05
-1.16189e-05
-1.222e-05
-1.25647e-05
-1.26777e-05
-1.26489e-05
-1.25162e-05
-1.22984e-05
-1.20138e-05
-1.16815e-05
-1.13185e-05
-1.09381e-05
-1.05497e-05
-1.01583e-05
-9.76448e-06
-9.36345e-06
-8.94084e-06
-8.52123e-06
-8.10669e-06
-7.69854e-06
-7.29045e-06
-6.82227e-06
-6.805e-06
-7.24842e-06
-7.04416e-06
8.82627e-06
6.01562e-06
-4.1604e-05
)
;
    }
    sWall
    {
        type            calculated;
        value           uniform -0.000237589;
    }
    nWall
    {
        type            calculated;
        value           nonuniform List<scalar> 6(-6.28746e-05 -6.46658e-05 -6.48875e-05 -8.72783e-05 -9.63426e-05 -0.000111432);
    }
    sideWalls
    {
        type            empty;
        value           nonuniform 0();
    }
    glass1
    {
        type            calculated;
        value           nonuniform List<scalar> 9(-6.07907e-05 -0.000161194 -0.00024359 -0.00031222 -0.000369998 -0.000418998 -0.000462921 -0.000517327 -0.000578865);
    }
    glass2
    {
        type            calculated;
        value           nonuniform List<scalar> 2(-0.000298091 -0.000328877);
    }
    sun
    {
        type            calculated;
        value           uniform 0;
    }
    Table_master
    {
        type            calculated;
        value           nonuniform List<scalar> 9(-1.53649e-07 -1.53746e-07 -1.53763e-07 -1.53769e-07 -1.53772e-07 -1.53773e-07 -1.5377e-07 -1.5376e-07 -1.53724e-07);
    }
    Table_slave
    {
        type            calculated;
        value           nonuniform List<scalar> 9(1.53705e-07 1.53636e-07 1.53538e-07 1.53447e-07 1.5337e-07 1.5332e-07 1.53313e-07 1.53323e-07 1.53384e-07);
    }
    inlet
    {
        type            calculated;
        value           uniform -0.00434744;
    }
    outlet
    {
        type            calculated;
        value           nonuniform List<scalar> 2(0.00721642 0.00235083);
    }
}


// ************************************************************************* //
