/*--------------------------------*- C++ -*----------------------------------*\
  =========                 |
  \\      /  F ield         | OpenFOAM: The Open Source CFD Toolbox
   \\    /   O peration     | Website:  https://openfoam.org
    \\  /    A nd           | Version:  6
     \\/     M anipulation  |
\*---------------------------------------------------------------------------*/
FoamFile
{
    version     2.0;
    format      ascii;
    class       volScalarField;
    location    "1900";
    object      T;
}
// * * * * * * * * * * * * * * * * * * * * * * * * * * * * * * * * * * * * * //

dimensions      [0 0 0 1 0 0 0];

internalField   nonuniform List<scalar> 
458
(
303.133
302.843
302.834
302.835
302.836
302.836
302.835
302.833
302.831
302.826
302.819
302.808
302.797
302.787
302.779
302.693
302.697
302.695
302.692
302.688
302.683
302.677
302.671
302.663
302.654
302.644
302.633
302.621
302.608
302.593
302.575
302.553
302.546
303.337
302.888
302.866
302.874
302.883
302.889
302.894
302.895
302.894
302.887
302.873
302.852
302.827
302.801
302.777
302.763
302.756
302.76
302.719
302.712
302.706
302.702
302.697
302.689
302.68
302.67
302.659
302.648
302.636
302.623
302.609
302.595
302.58
302.563
302.541
302.536
303.541
302.942
302.9
302.915
302.933
302.95
302.963
302.971
302.974
302.966
302.945
302.913
302.874
302.835
302.801
302.777
302.76
302.753
302.736
302.724
302.717
302.712
302.709
302.702
302.692
302.681
302.669
302.657
302.644
302.631
302.617
302.602
302.589
302.571
302.547
302.536
303.738
303.008
302.933
302.951
302.98
303.009
303.035
303.054
303.064
303.056
303.027
302.98
302.924
302.87
302.825
302.792
302.767
302.751
302.744
302.734
302.726
302.721
302.718
302.715
302.712
302.709
302.707
302.706
302.704
302.702
302.7
302.698
302.694
302.662
302.623
302.58
302.548
303.924
303.089
302.969
302.979
303.015
303.055
303.095
303.129
303.149
303.144
303.106
303.043
302.969
302.9
302.845
302.803
302.773
302.753
302.741
302.733
302.728
302.724
302.721
302.719
302.717
302.715
302.714
302.712
302.711
302.709
302.706
302.702
302.697
302.683
302.653
302.611
302.567
302.566
302.565
302.607
304.086
303.192
303.034
303.011
303.039
303.082
303.13
303.18
303.216
303.216
303.17
303.092
303.002
302.92
302.856
302.809
302.777
302.755
302.742
302.734
302.73
302.727
302.724
302.723
302.722
302.72
302.72
302.718
302.717
302.714
302.711
302.706
302.7
302.69
302.669
302.637
302.601
302.589
302.584
302.615
304.227
303.36
303.199
303.125
303.108
303.124
303.163
303.219
303.265
303.261
303.205
303.114
303.014
302.926
302.858
302.81
302.776
302.755
302.742
302.735
302.731
302.729
302.728
302.727
302.726
302.726
302.726
302.725
302.724
302.721
302.717
302.711
302.703
302.693
302.678
302.655
302.629
302.614
302.606
302.625
304.448
303.797
303.62
303.47
303.36
303.304
303.294
303.315
303.326
303.291
303.209
303.1
302.992
302.905
302.842
302.798
302.769
302.751
302.741
302.736
302.733
302.732
302.732
302.732
302.732
302.733
302.733
302.733
302.732
302.73
302.726
302.721
302.712
302.701
302.69
302.675
302.661
302.656
302.656
302.781
304.761
304.467
304.174
303.937
303.749
303.614
303.529
303.469
303.39
303.277
303.147
303.02
302.917
302.847
302.803
302.776
302.759
302.748
302.742
302.738
302.737
302.736
302.737
302.738
302.74
302.741
302.743
302.744
302.744
302.744
302.743
302.742
302.744
302.749
302.758
302.775
302.801
302.831
302.859
302.925
297.217
301.016
302.294
302.729
302.899
302.948
302.948
302.92
302.869
302.814
302.777
302.76
302.754
302.752
302.75
302.748
302.745
302.743
302.741
302.742
302.743
302.745
302.748
302.751
302.754
302.757
302.76
302.763
302.766
302.771
302.775
302.782
302.793
302.808
302.829
302.851
302.871
302.889
298.139
300.887
301.877
302.348
302.57
302.657
302.675
302.673
302.662
302.663
302.691
302.716
302.733
302.748
302.753
302.755
302.753
302.75
302.749
302.75
302.751
302.753
302.756
302.759
302.763
302.766
302.77
302.774
302.778
302.782
302.787
302.793
302.802
302.813
302.828
302.843
302.842
302.871
300
299.942
299.943
301.564
302.074
302.336
302.505
302.548
302.552
302.547
302.561
302.614
302.71
302.753
302.762
302.769
302.775
302.775
302.772
302.77
302.769
302.769
302.77
302.771
302.772
302.774
302.776
302.778
302.78
302.783
302.785
302.788
302.791
302.795
302.8
302.806
302.819
302.824
302.823
302.858
)
;

boundaryField
{
    floor
    {
        type            wallHeatTransfer;
        Tinf            uniform 305.2;
        alphaWall       uniform 0.24;
        value           nonuniform List<scalar> 
36
(
303.047
303.203
303.144
303.139
303.139
303.141
303.148
303.158
303.168
303.177
303.185
303.193
303.201
303.207
303.214
303.22
303.226
303.212
303.231
303.231
303.083
303.025
302.995
302.957
302.949
302.985
303.047
303.03
303.051
303.067
303.203
303.067
303.105
303.017
303.059
303.037
)
;
    }
    ceiling
    {
        type            wallHeatTransfer;
        Tinf            uniform 303.2;
        alphaWall       uniform 0.24;
        value           nonuniform List<scalar> 
43
(
300.199
300.132
300.124
301.651
302.138
302.388
302.55
302.594
302.602
302.604
302.621
302.676
302.77
302.811
302.819
302.826
302.836
302.839
302.839
302.837
302.836
302.835
302.835
302.834
302.834
302.834
302.834
302.834
302.834
302.834
302.834
302.834
302.835
302.837
302.839
302.844
302.853
302.859
302.86
302.894
304.69
304.417
298.397
)
;
    }
    sWall
    {
        type            wallHeatTransfer;
        Tinf            uniform 315.2;
        alphaWall       uniform 0.36;
        value           uniform 301.381;
    }
    nWall
    {
        type            wallHeatTransfer;
        Tinf            uniform 307.2;
        alphaWall       uniform 0.36;
        value           nonuniform List<scalar> 6(303.543 303.405 303.298 303.508 303.489 303.509);
    }
    sideWalls
    {
        type            empty;
    }
    glass1
    {
        type            wallHeatTransfer;
        Tinf            uniform 315.2;
        alphaWall       uniform 4.3;
        value           nonuniform List<scalar> 9(311.74 310.946 310.445 310.064 309.76 309.5 309.297 309.366 309.599);
    }
    glass2
    {
        type            wallHeatTransfer;
        Tinf            uniform 307.2;
        alphaWall       uniform 4.3;
        value           nonuniform List<scalar> 2(305.506 305.59);
    }
    sun
    {
        type            wallHeatTransfer;
        Tinf            uniform 305.2;
        alphaWall       uniform 0.24;
        value           nonuniform List<scalar> 
14
(
303.38
303.112
303.108
303.102
303.096
303.091
303.086
303.08
303.075
303.068
303.061
303.055
303.049
303.046
)
;
    }
    Table_master
    {
        type            zeroGradient;
    }
    Table_slave
    {
        type            zeroGradient;
    }
    inlet
    {
        type            fixedValue;
        value           uniform 292.15;
    }
    outlet
    {
        type            zeroGradient;
    }
}


// ************************************************************************* //
