/*--------------------------------*- C++ -*----------------------------------*\
  =========                 |
  \\      /  F ield         | OpenFOAM: The Open Source CFD Toolbox
   \\    /   O peration     | Website:  https://openfoam.org
    \\  /    A nd           | Version:  6
     \\/     M anipulation  |
\*---------------------------------------------------------------------------*/
FoamFile
{
    version     2.0;
    format      ascii;
    class       surfaceScalarField;
    location    "2000";
    object      phi;
}
// * * * * * * * * * * * * * * * * * * * * * * * * * * * * * * * * * * * * * //

dimensions      [1 0 -1 0 0 0 0];

internalField   nonuniform List<scalar> 
850
(
-0.00233488
0.00239366
-0.00248511
0.000150334
-0.00260602
0.000121014
-0.00275464
0.000148728
-0.00288754
0.000132999
-0.00298695
9.95159e-05
-0.00304377
5.69187e-05
-0.00304982
6.14852e-06
-0.002995
-5.47235e-05
-0.00286642
-0.000128479
-0.00265093
-0.000215393
-0.00233505
-0.000315787
-0.00188723
-0.000447723
-0.00119394
-0.000693193
-0.00119262
-0.000475611
0.000479126
-0.000464867
-1.07092e-05
-0.000374148
-9.06978e-05
-0.000377865
3.74466e-06
-0.000447843
7.00286e-05
-0.000477158
2.93867e-05
-0.000342582
-0.000134491
-7.77491e-05
-0.000264744
0.000241967
-0.000319631
0.000404225
-0.000162182
0.000503035
-9.87401e-05
0.000591791
-8.86905e-05
0.000666281
-7.44271e-05
0.00068404
-1.76959e-05
0.000702682
-1.85756e-05
0.000761826
-5.90843e-05
0.000690176
7.16911e-05
0.000693937
-0.00168822
0.00423237
-0.0021871
0.000649321
-0.00243858
0.000372597
-0.00262005
0.000330294
-0.00276384
0.000276894
-0.00287246
0.000208229
-0.00294328
0.000127843
-0.0029715
3.44585e-05
-0.00295227
-7.3851e-05
-0.00288132
-0.000199337
-0.00275296
-0.000343659
-0.00255754
-0.000511125
-0.00228453
-0.000720635
-0.00199219
-0.000985446
-0.00201654
-0.00116818
-0.000939949
-0.00107423
0.000181663
-0.00111911
0.000189838
0.000685488
-0.000198829
0.000576228
9.86052e-05
0.000373202
0.000112393
0.000332281
4.47326e-05
0.000243871
0.000158508
7.35584e-05
0.000199765
-3.83547e-05
-2.25101e-05
-2.19116e-05
-0.000281096
6.24522e-05
-0.000403908
9.58989e-05
-0.000195553
9.84769e-05
-0.000101251
5.63086e-05
-4.64606e-05
-3.8984e-05
2.09286e-05
-0.000126158
6.95464e-05
-4.25284e-05
-0.000102143
0.000206835
-0.000308419
0.000278795
-2.45962e-07
0.000981724
-0.00123754
0.00569065
-0.00185585
0.00126774
-0.00214324
0.000660087
-0.00233236
0.000519523
-0.00246719
0.000411822
-0.00256649
0.000307623
-0.0026351
0.000196552
-0.00267182
7.12678e-05
-0.00267468
-7.08974e-05
-0.0026435
-0.00023043
-0.00257928
-0.000407793
-0.0024843
-0.000606015
-0.00237411
-0.00083074
-0.00229609
-0.00106339
-0.00223727
-0.00122691
-0.00200196
-0.00130945
-0.00169948
-0.0014215
-0.00150376
-0.000600623
0.000409914
-0.000648205
0.000146234
-0.000544639
8.8712e-06
-0.000346277
-0.000153584
0.000184412
-0.000372127
0.000384397
0.000362115
8.12521e-05
-0.000322419
-0.000517755
-0.000618794
-0.000665045
-0.000643912
-0.000574172
-0.000436612
-0.000239691
-0.000820275
7.52496e-05
-0.00104584
0.000225352
-5.06783e-05
-0.000907283
0.00687466
-0.00153626
0.00189682
-0.00177666
0.000900596
-0.00193439
0.000677359
-0.0020409
0.000518429
-0.00211576
0.000382577
-0.00216718
0.000248073
-0.0021965
0.000100678
-0.00220406
-6.32473e-05
-0.00219346
-0.000240942
-0.00217172
-0.000429447
-0.00215016
-0.000627492
-0.00214948
-0.000831345
-0.00219287
-0.00101992
-0.00226321
-0.0011565
-0.00233342
-0.00123916
-0.00248723
-0.00126762
-0.00297223
-0.00101868
-0.00245367
-0.000511885
-0.00191109
-0.000132599
-0.00171855
-4.62457e-05
-0.00159108
-0.000118532
-0.00152089
-0.000223694
-0.00160876
-0.000284186
-0.00137953
-0.000229298
-0.00116123
-0.000218375
-0.000940392
-0.000220918
-0.000714954
-0.000225518
-0.000482053
-0.000232985
-0.000235383
-0.000246757
3.27785e-05
-0.000268252
0.000316773
-0.000284089
0.000595327
-0.000278652
0.000637068
-0.000281382
0.000811619
-9.92343e-05
0.000870472
0.000166583
0.000829731
-0.000655873
0.00785411
-0.00125875
0.0024998
-0.00132995
0.00097192
-0.00135534
0.000702866
-0.00141492
0.000578117
-0.0014725
0.000440255
-0.0015116
0.000287276
-0.00153224
0.000121407
-0.00153701
-5.83846e-05
-0.001534
-0.000243865
-0.00153474
-0.000428627
-0.00155343
-0.000608723
-0.00160575
-0.000778938
-0.0016995
-0.000926096
-0.00182284
-0.00103308
-0.00196982
-0.0010921
-0.00216419
-0.00107318
-0.00229975
-0.000883044
-0.00222696
-0.000584596
-0.00201154
-0.000347944
-0.00180628
-0.000251438
-0.00166222
-0.000262519
-0.00157437
-0.00031146
-0.00151373
-0.000344758
-0.00139596
-0.000346997
-0.0012617
-0.000352568
-0.00112183
-0.000360718
-0.000977698
-0.000369589
-0.000829167
-0.000381459
-0.000673974
-0.000401895
-0.00050679
-0.000435385
-0.000309886
-0.000480942
-4.84341e-05
-0.000540055
0.000276756
-0.00060652
0.000783226
-0.000605644
0.00142942
-0.000479522
0.00257986
-0.000320602
0.00282226
-0.000235023
0.00221158
0.00061858
0.00225521
-0.000585705
0.00880433
-0.00105425
0.00296847
-0.00070193
0.000619727
-0.000402447
0.000403519
-0.00038852
0.000564319
-0.000476002
0.000527856
-0.000550883
0.000362268
-0.000605298
0.000175924
-0.000639054
-2.45347e-05
-0.000659618
-0.000223212
-0.000687823
-0.000400338
-0.000739987
-0.000556478
-0.000828605
-0.000690241
-0.000956522
-0.000798101
-0.00111556
-0.000873969
-0.00129852
-0.000909062
-0.00148948
-0.000882142
-0.00161199
-0.000760457
-0.00161977
-0.000576739
-0.00154274
-0.000424898
-0.00144656
-0.000347548
-0.00137349
-0.000335515
-0.00132991
-0.000354962
-0.00129869
-0.000375908
-0.00125867
-0.000386943
-0.00121536
-0.000395821
-0.00117471
-0.000401297
-0.00114072
-0.000403529
-0.00111471
-0.000407409
-0.00109467
-0.000421887
-0.00107323
-0.000456775
-0.00103384
-0.000520281
-0.000953758
-0.00062009
-0.000802242
-0.000757983
-0.000482459
-0.00092537
0.000155972
-0.00111789
0.00103808
-0.00120264
0.00150124
-0.000698115
0.00132895
0.000790946
0.00362375
-0.000744813
0.00995311
-0.000416248
0.00264003
0.000657632
-0.000454014
0.00119863
-0.000137333
0.00115101
0.000612086
0.00100842
0.000670573
0.00086404
0.000506778
0.000716169
0.000323909
0.000575942
0.000115798
0.00046044
-0.000107615
0.000361796
-0.000301606
0.000254186
-0.000448784
0.000121359
-0.000557334
-4.38939e-05
-0.00063277
-0.000236478
-0.000681309
-0.000444104
-0.000701359
-0.000643503
-0.000682668
-0.00079174
-0.000612145
-0.000863144
-0.000505259
-0.000878612
-0.000409354
-0.000873504
-0.00035258
-0.000874623
-0.000334321
-0.000890648
-0.000338862
-0.00091731
-0.000349173
-0.000949336
-0.000354846
-0.000991967
-0.000353121
-0.00105392
-0.00033928
-0.0011453
-0.00031209
-0.00127371
-0.000278949
-0.00144118
-0.000254368
-0.00164081
-0.000257087
-0.00185681
-0.000304233
-0.00206832
-0.000408524
-0.00224974
-0.000576511
-0.0023621
-0.000812952
-0.0023385
-0.00114143
-0.00197618
-0.0015649
-0.000855698
-0.00181853
0.00037881
-0.000443481
0.0040494
0.00221774
0.00819141
0.00335055
0.00150733
0.00412762
-0.00123098
0.00377891
0.000211488
0.00331091
0.0010802
0.00295645
0.00102514
0.00262227
0.00084108
0.00231744
0.00062885
0.00204634
0.000387004
0.00179471
0.000144108
0.00156651
-7.33096e-05
0.0013612
-0.00024338
0.00116096
-0.000357017
0.000953742
-0.000425467
0.00073484
-0.000462328
0.000508902
-0.000475344
0.000292109
-0.000465799
0.000110875
-0.000430835
-1.71506e-05
-0.000377158
-0.000101232
-0.000325197
-0.000163434
-0.000290302
-0.000223003
-0.000274675
-0.000288997
-0.000272792
-0.000362623
-0.000275471
-0.000443782
-0.000273612
-0.000537942
-0.00025889
-0.000656284
-0.000220868
-0.000817561
-0.000150749
-0.00104378
-5.2667e-05
-0.00135887
6.07679e-05
-0.00178507
0.000169165
-0.00232894
0.000239694
-0.00296887
0.000231463
-0.00365805
0.000112722
-0.00435685
-0.000114095
-0.00510713
-0.000391094
-0.00602824
-0.000643719
-0.00696754
-0.00087917
-0.00603504
-0.00137591
-0.00176215
0.00869119
0.0101864
0.00945744
-0.000501953
0.00678896
0.00288003
0.00570584
0.0021634
0.00486629
0.00186478
0.00416199
0.00154547
0.00363662
0.00115432
0.0032486
0.000775112
0.00293438
0.000458418
0.00264781
0.000213357
0.00237414
3.03739e-05
0.00211565
-9.8438e-05
0.00187161
-0.000181345
0.0016382
-0.000228835
0.00141284
-0.000249906
0.00119939
-0.000252272
0.00100908
-0.000240441
0.00085155
-0.000219555
0.000724552
-0.000198122
0.000617323
-0.000182995
0.000518796
-0.00017607
0.000421588
-0.000175506
0.000323019
-0.000176824
0.000223548
-0.000174063
0.000124689
-0.000159952
2.90268e-05
-0.00012513
-6.09952e-05
-6.06529e-05
-0.000145119
3.1526e-05
-0.000235177
0.000150889
-0.000344326
0.000278374
-0.000483116
0.000378542
-0.000672039
0.000420441
-0.000951107
0.000391845
-0.00134644
0.000281292
-0.00183287
9.53898e-05
-0.00239712
-7.94147e-05
-0.00296929
-0.000306943
-0.00280334
-0.0015418
-0.00432916
-0.00181679
0.00271356
0.000727067
0.000336238
0.00242466
0.000465884
0.00288408
0.00140545
0.00299163
0.001438
0.00300619
0.00113984
0.00297616
0.00080523
0.00291193
0.000522738
0.00281875
0.00030663
0.00269773
0.000151482
0.00255573
4.3644e-05
0.00240093
-2.64607e-05
0.00223955
-6.73623e-05
0.0020755
-8.57809e-05
0.00191259
-8.92793e-05
0.00175618
-8.39531e-05
0.00161173
-7.50272e-05
0.00148105
-6.73563e-05
0.00136204
-6.39081e-05
0.001251
-6.49573e-05
0.00114446
-6.88826e-05
0.00104058
-7.28623e-05
0.000939894
-7.32959e-05
0.000845817
-6.57936e-05
0.000765548
-4.47797e-05
0.000708786
-3.80943e-06
0.000681234
5.91558e-05
0.000686677
0.000145521
0.000722897
0.000242224
0.000780406
0.000321099
0.000849272
0.000351639
0.000936548
0.00030463
0.00107441
0.000143486
0.00128235
-0.000112486
0.00163902
-0.000436029
0.00214725
-0.000815109
0.00201306
-0.00140755
-0.00226045
-0.001068
0.00378322
-0.000206222
-0.000525458
0.000440664
-0.000180928
0.00110754
0.00073866
0.00165875
0.000886882
0.00207704
0.000721644
0.00236856
0.000513801
0.00255206
0.000339326
0.00264732
0.000211457
0.00267538
0.000123515
0.00265227
6.68369e-05
0.00258903
3.68644e-05
0.0024963
2.54588e-05
0.00238741
2.31883e-05
0.00227298
2.52342e-05
0.00216097
2.81413e-05
0.00205624
2.9779e-05
0.00196002
2.8946e-05
0.00187073
2.54618e-05
0.00178576
2.00907e-05
0.00170288
1.40741e-05
0.00162133
8.77279e-06
0.00154254
5.57431e-06
0.00147081
6.01713e-06
0.00141404
1.20804e-05
0.00138414
2.617e-05
0.00138773
5.56526e-05
0.00143702
9.63185e-05
0.00153803
0.000141291
0.00168342
0.000175781
0.00185595
0.000179188
0.00203431
0.000126336
0.00218558
-7.71438e-06
0.0022828
-0.000209638
0.0023546
-0.000507768
0.00257109
-0.00103152
0.00266065
-0.00149705
0.000466742
-0.00359506
-0.00435942
-0.000574465
-0.0011057
-0.00129805
-0.000572188
0.000300415
0.00100617
0.00150268
0.00182341
0.00201503
0.00211761
0.00216258
0.00217684
0.00217923
0.0021791
0.00218099
0.00218591
0.00219269
0.00219892
0.00220196
0.00219994
0.00219222
0.00217955
0.00216403
0.00214934
0.00214115
0.00214752
0.00218391
0.00226156
0.00238478
0.00254303
0.00270512
0.00281458
0.00278994
0.00256323
0.00203804
0.000988406
-0.000526639
)
;

boundaryField
{
    floor
    {
        type            calculated;
        value           nonuniform List<scalar> 
36
(
0
0
0
0
0
0
0
0
0
0
0
0
0
0
0
0
0
0
0
-3.73448e-06
-8.97142e-06
-1.3375e-05
-9.82568e-06
-7.281e-06
-7.80314e-06
-8.48624e-06
-1.23263e-06
-2.27721e-06
-2.41799e-06
-3.19919e-06
-3.46397e-06
-4.87508e-06
-7.50084e-06
-5.80695e-06
-8.05694e-06
-6.61236e-06
)
;
    }
    ceiling
    {
        type            calculated;
        value           nonuniform List<scalar> 
43
(
-1.76162e-06
-1.90138e-06
-1.66186e-06
5.83639e-06
1.14973e-05
1.28845e-05
1.43661e-05
1.59814e-05
1.73741e-05
1.86937e-05
1.99206e-05
2.10219e-05
2.19576e-05
2.26804e-05
2.31591e-05
2.33974e-05
2.3428e-05
2.33034e-05
2.30796e-05
2.28027e-05
2.25022e-05
2.21907e-05
2.18691e-05
2.15323e-05
2.11728e-05
2.07834e-05
2.03564e-05
1.98824e-05
1.93433e-05
1.87557e-05
1.8159e-05
1.76114e-05
1.71807e-05
1.69484e-05
1.70108e-05
1.71478e-05
1.74944e-05
1.81782e-05
1.80624e-05
1.62327e-05
1.4731e-05
1.22252e-05
-1.53808e-06
)
;
    }
    sWall
    {
        type            calculated;
        value           uniform -0.000143732;
    }
    nWall
    {
        type            calculated;
        value           nonuniform List<scalar> 6(-3.50534e-05 -3.95007e-05 -4.6766e-05 -5.55827e-05 -6.64793e-05 -7.60696e-05);
    }
    sideWalls
    {
        type            empty;
        value           nonuniform 0();
    }
    glass1
    {
        type            calculated;
        value           nonuniform List<scalar> 9(-5.86819e-05 -0.000150387 -0.000220645 -0.000276633 -0.000323483 -0.000364423 -0.000403871 -0.000455948 -0.000514415);
    }
    glass2
    {
        type            calculated;
        value           nonuniform List<scalar> 2(-0.000223424 -0.000236278);
    }
    sun
    {
        type            calculated;
        value           uniform 0;
    }
    Table_master
    {
        type            calculated;
        value           nonuniform List<scalar> 9(-1.53295e-07 -1.53403e-07 -1.53491e-07 -1.53507e-07 -1.534e-07 -1.53315e-07 -1.53252e-07 -1.53199e-07 -1.53121e-07);
    }
    Table_slave
    {
        type            calculated;
        value           nonuniform List<scalar> 9(1.52343e-07 1.52427e-07 1.52497e-07 1.52565e-07 1.52633e-07 1.52701e-07 1.5276e-07 1.52733e-07 1.52624e-07);
    }
    inlet
    {
        type            calculated;
        value           uniform -0.00139859;
    }
    outlet
    {
        type            calculated;
        value           nonuniform List<scalar> 2(0.00374063 0.000766342);
    }
}


// ************************************************************************* //
