/*--------------------------------*- C++ -*----------------------------------*=========                 |
  \      /  F ield         | OpenFOAM: The Open Source CFD Toolbox
   \    /   O peration     | Website:  https://openfoam.org
    \  /    A nd           | Version:  6
     \/     M anipulation  |
\*---------------------------------------------------------------------------*/
FoamFile
{
    version     2.0;
    format      ascii;
    class       volScalarField;
    location    "2000";
    object      PPD;
}
// * * * * * * * * * * * * * * * * * * * * * * * * * * * * * * * * * * * * * //

dimensions      [0 0 0 0 0 0 0];

internalField   nonuniform List<scalar> 
458
(
82.03522371464621
75.21757146238517
75.9142260929377
75.82948756675131
75.77208569204093
75.73945373208814
75.7427052745065
75.81099784369033
75.92975145631314
76.11219466259716
76.36995953776274
76.77626321574206
77.41850969770435
77.99682216890974
77.44869212017167
63.824335583201396
63.57025213219656
63.08637970104059
61.111916116127
59.716256968697834
59.14553525424059
59.35319831627678
59.66441974169295
60.001186505438724
59.81990232772633
59.586645966886685
59.48291458992011
59.50885093766371
59.63849753021554
60.13059924337147
60.802468360612984
61.00881418841535
61.31797444919868
83.2677578597496
76.0854045536753
77.29111105828227
77.09465023605432
77.12194296591709
77.16838470426293
77.24933678744178
77.31741864240611
77.4211918713479
77.54125172195607
77.62253126237377
77.7313665360631
77.7859830155446
77.63816954888227
77.20040412596225
77.78618065954888
78.56033643492057
76.77333316794349
64.24951205173096
67.15962026690907
67.3079313951884
67.03587323459257
65.71586935517107
63.49394711704745
61.36945819781089
61.292227910891825
61.42092943518792
61.78087033672585
61.703793641185925
61.5752671933746
61.9349341936225
63.849721089111604
65.8660379246367
65.51536515211825
63.824335583201396
60.867800648355434
86.083545193075
76.95178175112085
78.9516155045699
78.52956154958383
78.6575716698982
78.84525892775123
79.03717905069298
79.224915096181
79.36558038418049
79.48064166739552
79.50062169272678
79.4184295432626
79.13169390414829
78.57723744973829
77.80648335033189
77.16544408360915
76.29216346089041
74.7830543727369
72.2611908720938
72.0276238160283
72.28450531031403
72.91104621654516
72.7491602571971
67.3079313951884
65.33966593664144
63.59567899985235
62.98433138699358
64.68502340948419
65.81600186639136
66.76314237680671
67.77622480136583
69.11960890651355
70.82477853764763
67.35732315116161
65.08825689575758
58.448306595786796
88.90357855131033
78.57967680637259
80.90171672978127
80.18598470508289
80.35864167745473
80.68228758597849
81.01444729706682
81.3263479889159
81.57655689400121
81.74347465413047
81.7712287650013
81.6040351941827
81.18893010242746
80.4828538316058
79.50647541064093
78.32730664784454
76.7747892335338
74.93028121663049
73.93947327821856
74.25974727548578
74.93683819576864
75.9804870473248
76.63065676518268
76.92046676978892
77.41826707888502
78.05880486122953
78.49795781578922
78.60187224818438
78.72623943284765
78.87087751598348
79.01502137405117
79.13817823024937
78.994459736224
77.7636254924837
75.68920104294418
73.44019175275878
72.98030657288804
91.36154317679545
80.99519775622608
83.31979111266912
82.62380252246474
82.60664724292339
82.90839479383422
83.28762831960262
83.66435095472791
84.00226580752846
84.24420678459103
84.29369210611367
84.13826771641392
83.70892519449143
83.00389369094557
82.06215413062552
80.93506884105416
79.6486002624482
78.43931627567989
77.70312564411168
77.4283217636011
77.60482513576578
77.9345520052315
78.16078421822309
78.2855136324115
78.46634522025612
78.7361055915598
79.10317601016047
79.4037604489878
79.52575346456997
79.64737618717668
79.76862731511157
79.86938513575913
79.86938513575913
79.60687650395944
79.09716655281369
77.9456028627651
75.34687922696017
73.72901379647523
72.99505131528699
74.29247485782838
93.33809051255963
84.13172194142275
86.85748951174878
86.14515869026454
85.68455263842797
85.53456136374044
85.65130264379462
85.8995424221563
86.1939666060978
86.45249752967358
86.6284983825698
86.6284983825698
86.3788326302187
85.70714989764801
84.84739811404796
83.80304563086864
82.67917612225511
81.6377976694749
80.84745333787993
80.35991527400498
80.13199015503747
80.00255590344419
79.87090710591781
79.7303706013293
79.62421143201571
79.57641083337941
79.60893378773609
79.70901342822354
79.8463435487188
79.99451001441392
80.13700503901705
80.25416254051649
80.37095985903687
80.47772925655414
80.50805513237725
80.42880949892717
80.26981232900995
79.37910065316885
76.7686977224807
74.06640550118988
94.931195851901
88.19353971158691
90.86773911809536
89.76371891656652
88.6554630663234
88.1460124242243
88.02352129073485
87.83572093898476
87.77555429780233
87.80566118693258
87.88072218081672
87.88072218081672
87.76048317750167
87.47189344213555
86.99191270091174
86.35589954072628
85.6013404176881
84.78775479787195
84.00092496074879
83.28216540225353
82.69419563242229
82.20808174544365
81.77185351091214
81.38783521133074
81.03852259144165
80.74477599681134
80.52784013160782
80.35596284492429
80.10783064686242
79.874085859028
79.63620989531354
79.37012349202335
79.1092596679865
78.84002634350415
78.61338668675468
78.41067130148896
78.21457287877597
78.28903300647369
79.92971522728294
72.16294101662893
96.75379234839379
94.59114414163366
93.20122388341055
91.94117522590768
90.7874913697122
89.86277732448593
89.14484395124731
88.65334248888297
88.41148734282731
88.30602610039688
88.28463334598467
88.28770570428415
88.28933893253424
88.24031542043667
88.12735209353829
87.71519911715524
87.11686095105077
86.43642714173852
85.70116018296602
84.97655449262227
84.33596945219924
83.75141965982169
83.20929624024394
82.67563744616665
82.18923597700902
81.71452781519912
81.29115382415398
80.97996554709499
80.82334311553319
80.66900283896054
79.97917383284219
79.25526948525396
78.53665710208516
77.87132996033574
77.26941305707571
76.74521772781985
76.28770812614887
75.9303421187793
75.10104070288571
72.8859327185653
98.43712185035702
97.63188538079079
93.04204452021276
91.00479511206454
90.33404868216567
89.92827456470316
89.49771911778782
89.11684210033528
88.82421104121636
88.61324719916213
88.4449723026897
88.31048475654386
88.20891098914257
88.09963267138694
87.99018345609595
87.84317685739447
87.6647270618838
87.43619122279976
87.07009353311484
86.46855620362949
85.86659523279204
85.26558768923745
84.70147599544946
84.12484159563832
83.53578926809185
82.95284100391486
82.37719783175069
81.8481351313099
81.44571442939173
81.19420294872687
81.07750706336728
81.05802018662007
81.13590333149425
81.25240577737753
81.34920763183051
80.54694102768454
80.06038825278404
79.77934962972026
78.44810718036872
75.5799520586339
14.252486310954765
76.88040977113536
86.60135208228817
88.30559294698318
88.74395961013231
88.81724491471364
88.73847782115732
88.59946957616609
88.44137134892254
88.2745924483425
88.14024497150957
87.99212438931642
87.85783936822824
87.68989533069833
87.50332783092713
87.27992630603089
87.01314140566393
86.71164821056271
86.38884302338548
86.03164889471451
85.69356942797754
85.36434255700067
84.8909093774978
84.30089574354419
83.67972394204507
83.06301919877941
82.50811414787168
82.01912949838606
81.63794115692839
81.38783521133074
81.25240577737753
81.21361465266976
81.23301559724072
81.16020032093635
80.51130934252122
79.6365291712159
78.1745058655879
77.88868890524134
32.95992480549607
72.21369778604435
85.78402329996764
88.49421320868153
88.81328765108209
88.86812096958917
88.73007693829665
88.50426731432742
88.27196193566493
88.04785623307465
87.84042701206653
87.6456488981998
87.4626206108998
87.28692638677984
87.096206965005
86.89986517092699
86.6581970058066
86.38090189052912
86.06408917319618
85.70672440937257
85.326868158895
84.92666272497225
84.50800127643407
84.05370254815601
83.57982086400534
83.09794353673296
82.59665065371233
82.06148747202099
81.52461648159604
80.94541135629018
80.36441887039325
79.8347439962599
79.34102290274464
78.92866447836975
78.61974212395373
78.24803515722147
77.29962567414779
79.15406994618128
48.41496418742741
48.17447354209616
44.23494973302802
76.92595438624103
85.26452514912967
87.11957086916749
87.93699574673225
88.06632453068285
87.87193350919026
87.5528032022777
87.22369108462634
86.89229348832937
86.58489985195963
86.26608540729048
85.97233256561131
85.7042512893886
85.44244947627953
85.20126983340758
84.93797281082016
84.68338937563749
84.39449129159337
84.08626548954089
83.7373605828929
83.36628411918805
82.97361786150503
82.54030428130548
82.06797797142181
81.58005463493171
81.06463730209668
80.53467440358058
79.98978517619356
79.42454784635271
78.91439471405367
78.43059546994289
78.05469386708528
77.88899932443289
78.06280816657798
78.5022205484797
78.3418265809111
73.42612180232848
)
;

boundaryField
{
    ".*"
    {
        type            zeroGradient;
    }
}


// ************************************************************************* //
