/*--------------------------------*- C++ -*----------------------------------*\
  =========                 |
  \\      /  F ield         | OpenFOAM: The Open Source CFD Toolbox
   \\    /   O peration     | Website:  https://openfoam.org
    \\  /    A nd           | Version:  6
     \\/     M anipulation  |
\*---------------------------------------------------------------------------*/
FoamFile
{
    version     2.0;
    format      ascii;
    class       volScalarField;
    location    "2000";
    object      T;
}
// * * * * * * * * * * * * * * * * * * * * * * * * * * * * * * * * * * * * * //

dimensions      [0 0 0 1 0 0 0];

internalField   nonuniform List<scalar> 
458
(
304.253
303.96
303.957
303.964
303.971
303.977
303.982
303.987
303.991
303.994
303.995
303.994
303.992
303.989
303.985
303.317
303.307
303.288
303.211
303.157
303.135
303.143
303.155
303.168
303.161
303.152
303.148
303.149
303.154
303.173
303.199
303.207
303.219
304.47
304.027
304.001
304.011
304.023
304.033
304.042
304.048
304.053
304.056
304.054
304.049
304.038
304.021
303.996
303.973
303.947
303.885
303.435
303.45
303.456
303.445
303.392
303.304
303.221
303.218
303.223
303.237
303.234
303.229
303.243
303.318
303.398
303.384
303.317
303.258
304.668
304.109
304.049
304.058
304.075
304.091
304.105
304.117
304.125
304.13
304.129
304.122
304.106
304.081
304.046
304.006
303.965
303.93
303.662
303.652
303.663
303.69
303.683
303.456
303.377
303.308
303.284
303.351
303.396
303.434
303.475
303.53
303.601
303.458
303.367
303.304
304.849
304.213
304.114
304.11
304.129
304.15
304.17
304.188
304.202
304.211
304.213
304.206
304.189
304.161
304.121
304.071
304.011
303.944
303.887
303.844
303.858
303.884
303.906
303.923
303.938
303.941
303.944
303.949
303.955
303.962
303.969
303.975
303.968
303.909
303.813
303.713
303.693
305.016
304.342
304.222
304.191
304.197
304.215
304.237
304.259
304.279
304.294
304.3
304.297
304.282
304.255
304.217
304.171
304.12
304.069
304.026
303.996
303.985
303.984
303.985
303.985
303.984
303.983
303.985
303.988
303.994
304
304.006
304.011
304.011
303.998
303.973
303.927
303.87
303.885
303.883
303.891
305.167
304.504
304.403
304.355
304.327
304.318
304.325
304.34
304.358
304.374
304.385
304.385
304.374
304.35
304.315
304.27
304.221
304.172
304.128
304.094
304.071
304.055
304.043
304.033
304.024
304.017
304.014
304.015
304.019
304.025
304.032
304.038
304.043
304.044
304.043
304.039
304.031
304.018
303.969
303.924
305.309
304.722
304.684
304.629
304.562
304.51
304.478
304.463
304.459
304.461
304.466
304.466
304.458
304.439
304.408
304.368
304.322
304.274
304.229
304.189
304.157
304.131
304.108
304.088
304.07
304.055
304.044
304.039
304.039
304.044
304.052
304.06
304.068
304.074
304.079
304.082
304.081
304.07
304.014
303.945
305.519
305.106
305.015
304.927
304.825
304.738
304.673
304.626
304.595
304.572
304.555
304.542
304.529
304.511
304.486
304.455
304.416
304.373
304.328
304.285
304.248
304.215
304.185
304.156
304.13
304.105
304.083
304.067
304.059
304.058
304.064
304.073
304.083
304.093
304.101
304.108
304.113
304.117
304.118
304.115
305.813
305.629
305.063
304.929
304.86
304.805
304.756
304.714
304.679
304.651
304.627
304.605
304.585
304.564
304.542
304.516
304.486
304.451
304.413
304.375
304.338
304.302
304.269
304.236
304.203
304.171
304.14
304.112
304.091
304.078
304.072
304.071
304.075
304.081
304.092
304.106
304.121
304.138
304.158
304.213
302.212
304.108
304.524
304.634
304.667
304.67
304.66
304.646
304.631
304.615
304.6
304.583
304.566
304.546
304.524
304.499
304.471
304.441
304.41
304.377
304.345
304.313
304.28
304.246
304.211
304.177
304.147
304.121
304.101
304.088
304.081
304.079
304.08
304.082
304.083
304.085
304.087
304.101
302.795
303.898
304.333
304.527
304.596
304.618
304.621
304.616
304.608
304.598
304.587
304.575
304.562
304.548
304.532
304.515
304.495
304.473
304.449
304.423
304.396
304.368
304.339
304.308
304.276
304.244
304.211
304.178
304.15
304.127
304.11
304.099
304.092
304.088
304.085
304.082
304.082
304.095
303.063
303.016
303.017
304.001
304.388
304.509
304.563
304.58
304.581
304.576
304.569
304.56
304.551
304.54
304.529
304.518
304.506
304.494
304.48
304.466
304.45
304.433
304.414
304.394
304.373
304.35
304.325
304.299
304.271
304.242
304.213
304.185
304.162
304.142
304.127
304.113
304.101
304.087
304.088
304.128
)
;

boundaryField
{
    floor
    {
        type            wallHeatTransfer;
        Tinf            uniform 305.2;
        alphaWall       uniform 0.24;
        value           nonuniform List<scalar> 
36
(
304.15
303.78
303.749
303.736
303.746
303.761
303.774
303.773
303.794
303.827
303.829
303.816
303.786
303.751
303.729
303.705
303.683
303.68
303.719
303.719
303.658
303.662
303.881
304.011
304.018
304.037
304.15
304.129
304.113
304.103
303.78
304.103
303.769
304.086
303.877
304.039
)
;
    }
    ceiling
    {
        type            wallHeatTransfer;
        Tinf            uniform 303.2;
        alphaWall       uniform 0.24;
        value           nonuniform List<scalar> 
43
(
303.069
303.023
303.023
303.965
304.32
304.433
304.479
304.487
304.48
304.468
304.454
304.439
304.424
304.409
304.396
304.383
304.371
304.359
304.347
304.334
304.32
304.304
304.288
304.27
304.25
304.229
304.207
304.184
304.159
304.133
304.107
304.083
304.062
304.044
304.028
304.014
303.999
303.982
303.983
304.034
305.697
305.531
302.805
)
;
    }
    sWall
    {
        type            wallHeatTransfer;
        Tinf            uniform 315.2;
        alphaWall       uniform 0.36;
        value           uniform 303.906;
    }
    nWall
    {
        type            wallHeatTransfer;
        Tinf            uniform 307.2;
        alphaWall       uniform 0.36;
        value           nonuniform List<scalar> 6(304.416 304.41 304.432 304.498 304.523 304.573);
    }
    sideWalls
    {
        type            empty;
    }
    glass1
    {
        type            wallHeatTransfer;
        Tinf            uniform 315.2;
        alphaWall       uniform 4.3;
        value           nonuniform List<scalar> 9(312.599 311.586 310.929 310.457 310.119 309.875 309.733 309.854 310.114);
    }
    glass2
    {
        type            wallHeatTransfer;
        Tinf            uniform 307.2;
        alphaWall       uniform 4.3;
        value           nonuniform List<scalar> 2(306.164 306.12);
    }
    sun
    {
        type            wallHeatTransfer;
        Tinf            uniform 305.2;
        alphaWall       uniform 0.24;
        value           nonuniform List<scalar> 
14
(
304.394
304.142
304.157
304.16
304.163
304.164
304.165
304.166
304.166
304.166
304.165
304.162
304.159
304.155
)
;
    }
    Table_master
    {
        type            zeroGradient;
    }
    Table_slave
    {
        type            zeroGradient;
    }
    inlet
    {
        type            fixedValue;
        value           uniform 293.15;
    }
    outlet
    {
        type            zeroGradient;
    }
}


// ************************************************************************* //
