/*--------------------------------*- C++ -*----------------------------------*\
  =========                 |
  \\      /  F ield         | OpenFOAM: The Open Source CFD Toolbox
   \\    /   O peration     | Website:  https://openfoam.org
    \\  /    A nd           | Version:  6
     \\/     M anipulation  |
\*---------------------------------------------------------------------------*/
FoamFile
{
    version     2.0;
    format      ascii;
    class       volVectorField;
    location    "2000";
    object      U;
}
// * * * * * * * * * * * * * * * * * * * * * * * * * * * * * * * * * * * * * //

dimensions      [0 1 -1 0 0 0 0];

internalField   nonuniform List<vector> 
458
(
(0.0944065 0.063792 0)
(-0.131216 0.000735523 0)
(-0.109251 0.00192578 0)
(-0.115921 0.00265488 0)
(-0.122175 0.00194331 0)
(-0.127278 0.000714335 0)
(-0.130719 -0.000816008 0)
(-0.132164 -0.00264652 0)
(-0.131256 -0.0048516 0)
(-0.127562 -0.00761922 0)
(-0.120136 -0.0111121 0)
(-0.107224 -0.015705 0)
(-0.0877526 -0.0225493 0)
(-0.0679437 -0.0338751 0)
(-0.0705252 -0.0497295 0)
(0.0301953 0.0102659 0)
(-0.026876 -0.00306707 0)
(-0.0170666 -0.0031187 0)
(-0.0168848 0.000533418 0)
(-0.0191165 0.000661022 0)
(-0.021766 -0.00504691 0)
(-0.0170317 -0.00970296 0)
(-0.00733749 -0.0134624 0)
(0.00296985 -0.0156184 0)
(0.0130236 -0.0106533 0)
(0.0200013 -0.00775844 0)
(0.0241188 -0.00608107 0)
(0.0270266 -0.00485939 0)
(0.02955 -0.00311932 0)
(0.0301285 -0.00171096 0)
(0.0308156 -0.00302656 0)
(0.0364682 9.9352e-05 0)
(-0.0113864 0.0168512 0)
(0.286036 0.139902 0)
(-0.153562 0.0155593 0)
(-0.0981612 0.0104014 0)
(-0.109473 0.0107203 0)
(-0.116557 0.00941517 0)
(-0.122086 0.00733109 0)
(-0.126003 0.0047508 0)
(-0.128213 0.00167455 0)
(-0.12846 -0.00200555 0)
(-0.126565 -0.00637891 0)
(-0.122135 -0.0114967 0)
(-0.11452 -0.0175786 0)
(-0.104079 -0.025574 0)
(-0.0941173 -0.0367531 0)
(-0.0864107 -0.0467241 0)
(-0.0643152 -0.0350991 0)
(-0.0271828 -0.0349606 0)
(-0.0309566 0.0488386 0)
(0.0891778 0.00772278 0)
(0.0314408 0.00580076 0)
(0.0136978 0.00298342 0)
(0.0125883 0.0029245 0)
(0.0113629 0.00696017 0)
(0.00890449 0.00769302 0)
(-1.96871e-05 -0.00183818 0)
(0.0037087 -0.0125441 0)
(-0.00206401 -0.0165806 0)
(0.00127481 -0.00852501 0)
(0.00461501 -0.00453605 0)
(0.00410362 -0.00304367 0)
(0.00055004 -0.000721905 0)
(-0.00462005 0.0021427 0)
(-0.00225467 -0.00363593 0)
(0.00370618 -0.0115989 0)
(0.0219319 -0.00276063 0)
(-0.0652058 0.0342483 0)
(0.441503 0.213197 0)
(-0.19409 0.0405087 0)
(-0.0796737 0.0221295 0)
(-0.0966985 0.0182456 0)
(-0.103965 0.0147534 0)
(-0.109022 0.0109532 0)
(-0.11266 0.00669046 0)
(-0.114987 0.00179771 0)
(-0.115872 -0.00379735 0)
(-0.115175 -0.0101744 0)
(-0.112941 -0.017418 0)
(-0.10919 -0.0256798 0)
(-0.104748 -0.0353669 0)
(-0.101177 -0.0462079 0)
(-0.0972972 -0.0547407 0)
(-0.0884261 -0.0565634 0)
(-0.0832101 -0.0624334 0)
(-0.106576 -0.0622477 0)
(0.0295371 0.00818083 0)
(-0.0306569 0.006462 0)
(-0.0259649 0.00444357 0)
(-0.019904 -0.00163053 0)
(-0.0140957 -0.00686691 0)
(0.0193828 0.0042813 0)
(0.0209993 -0.000778004 0)
(0.0162791 -0.008055 0)
(-0.00776646 -0.0145158 0)
(-0.0208984 -0.00844558 0)
(-0.0253258 -0.00547213 0)
(-0.0290239 -0.00351157 0)
(-0.0306117 -0.00206999 0)
(-0.0273809 -0.0016692 0)
(-0.0124466 -0.00482382 0)
(-0.0170835 0.00189353 0)
(-0.0458966 0.0141577 0)
(-0.129364 0.0261492 0)
(0.561664 0.273169 0)
(-0.230972 0.0695906 0)
(-0.05818 0.0344765 0)
(-0.078761 0.026115 0)
(-0.0862265 0.0201455 0)
(-0.0900723 0.0149134 0)
(-0.0927561 0.009596 0)
(-0.0945288 0.00365439 0)
(-0.0953327 -0.0030485 0)
(-0.0950974 -0.0104699 0)
(-0.0942196 -0.0185572 0)
(-0.0930664 -0.0272939 0)
(-0.0925073 -0.0366138 0)
(-0.0934368 -0.0456532 0)
(-0.0953472 -0.0522334 0)
(-0.0977565 -0.0552496 0)
(-0.105697 -0.0553479 0)
(-0.122013 -0.0407651 0)
(-0.118823 0.00474726 0)
(-0.0874923 0.00654553 0)
(-0.0803447 0.00274619 0)
(-0.0712489 -0.00325999 0)
(-0.0673948 -0.00947639 0)
(-0.068023 -0.013921 0)
(-0.0652566 -0.0101142 0)
(-0.0549807 -0.00949598 0)
(-0.0453759 -0.00976543 0)
(-0.0357126 -0.0101429 0)
(-0.0257889 -0.0106373 0)
(-0.01559 -0.0113418 0)
(-0.0050428 -0.0122693 0)
(0.00806258 -0.0127533 0)
(0.020836 -0.0121258 0)
(0.0262258 -0.010158 0)
(0.0342209 0.000907091 0)
(0.03736 0.0102496 0)
(-0.0198652 0.0220501 0)
(0.650471 0.321538 0)
(-0.257069 0.099428 0)
(-0.038691 0.0437278 0)
(-0.0526762 0.0317505 0)
(-0.0598309 0.0240868 0)
(-0.0627694 0.0175673 0)
(-0.0647111 0.0112512 0)
(-0.06599 0.00448041 0)
(-0.0665201 -0.00292093 0)
(-0.0663027 -0.0107532 0)
(-0.0660821 -0.0188309 0)
(-0.0663413 -0.0270285 0)
(-0.0677947 -0.0351221 0)
(-0.0709397 -0.042403 0)
(-0.0755647 -0.0477802 0)
(-0.0816072 -0.0509959 0)
(-0.0899025 -0.0516869 0)
(-0.0977694 -0.0450402 0)
(-0.0987834 -0.0262747 0)
(-0.0916535 -0.0123305 0)
(-0.0823647 -0.0074763 0)
(-0.0744929 -0.00876137 0)
(-0.0697629 -0.0116795 0)
(-0.0668302 -0.0136961 0)
(-0.0629805 -0.0128789 0)
(-0.057431 -0.0130118 0)
(-0.0514633 -0.0133443 0)
(-0.0453119 -0.0137946 0)
(-0.0389909 -0.0144032 0)
(-0.0324661 -0.0153235 0)
(-0.0255714 -0.0166282 0)
(-0.0177256 -0.0179507 0)
(-0.00846711 -0.0190022 0)
(0.00401094 -0.0199418 0)
(0.0226765 -0.0151937 0)
(0.0528217 -0.00383665 0)
(0.0756231 0.0172851 0)
(0.118878 0.0328829 0)
(0.129967 0.0602032 0)
(-0.0206741 0.110181 0)
(0.703991 0.363189 0)
(-0.274974 0.121646 0)
(-0.0217332 0.0399845 0)
(-0.0128269 0.0308524 0)
(-0.0153395 0.028514 0)
(-0.0192262 0.0212626 0)
(-0.0225449 0.0133099 0)
(-0.0251873 0.00552152 0)
(-0.0272279 -0.00273109 0)
(-0.027957 -0.0108574 0)
(-0.0288119 -0.0184638 0)
(-0.0304221 -0.0255514 0)
(-0.0334045 -0.0320043 0)
(-0.0381037 -0.03745 0)
(-0.0444058 -0.0413246 0)
(-0.0520466 -0.0432254 0)
(-0.0606533 -0.0422536 0)
(-0.067879 -0.0362862 0)
(-0.0706599 -0.0261375 0)
(-0.0687697 -0.0177674 0)
(-0.064571 -0.0138412 0)
(-0.0606785 -0.0136 0)
(-0.0582143 -0.0149596 0)
(-0.0567342 -0.0162262 0)
(-0.055223 -0.0165803 0)
(-0.0533535 -0.0170042 0)
(-0.0514826 -0.0174435 0)
(-0.0498424 -0.0178641 0)
(-0.0485506 -0.0184143 0)
(-0.0475929 -0.0193772 0)
(-0.0467696 -0.0210084 0)
(-0.0455865 -0.0234229 0)
(-0.0432767 -0.0267866 0)
(-0.0383543 -0.0311044 0)
(-0.0278302 -0.0354039 0)
(-0.00858045 -0.0398844 0)
(0.0195792 -0.0442429 0)
(0.0487134 -0.0350531 0)
(0.0916687 0.021839 0)
(-0.0681362 0.122993 0)
(0.725969 0.400807 0)
(-0.277528 0.104541 0)
(0.0177775 -0.0205686 0)
(0.054387 0.0101901 0)
(0.0543251 0.0306858 0)
(0.0464358 0.027729 0)
(0.0399186 0.0187984 0)
(0.0340051 0.0101347 0)
(0.0279543 0.000946075 0)
(0.022059 -0.00839133 0)
(0.0179091 -0.0163005 0)
(0.0136567 -0.0225714 0)
(0.00855978 -0.0275006 0)
(0.00212229 -0.0312746 0)
(-0.00584594 -0.033914 0)
(-0.014677 -0.0351047 0)
(-0.0238355 -0.0342128 0)
(-0.0316655 -0.0302584 0)
(-0.0364342 -0.0242278 0)
(-0.0380535 -0.0189116 0)
(-0.0379414 -0.0159234 0)
(-0.0376594 -0.0151501 0)
(-0.0379986 -0.0156014 0)
(-0.0389517 -0.0162922 0)
(-0.0401975 -0.016704 0)
(-0.041708 -0.0169153 0)
(-0.0438306 -0.016827 0)
(-0.0470248 -0.0164673 0)
(-0.051725 -0.0161729 0)
(-0.0581317 -0.0165003 0)
(-0.0661377 -0.0179602 0)
(-0.0752645 -0.0209192 0)
(-0.0847248 -0.0258662 0)
(-0.0933835 -0.0334348 0)
(-0.0994679 -0.0441812 0)
(-0.101445 -0.0584461 0)
(-0.0983704 -0.0733255 0)
(-0.0841253 -0.0751407 0)
(0.0323287 -0.0117593 0)
(-0.136211 0.190468 0)
(0.822984 0.408613 0)
(-0.0512148 0.0682387 0)
(0.125536 -0.0890773 0)
(0.18534 -0.0309845 0)
(0.164022 0.0143534 0)
(0.134889 0.0239895 0)
(0.118235 0.0211534 0)
(0.105944 0.0150644 0)
(0.0944252 0.00708344 0)
(0.0830192 -0.00182385 0)
(0.0722939 -0.0100708 0)
(0.0632561 -0.016389 0)
(0.0546572 -0.0207672 0)
(0.0458954 -0.0235312 0)
(0.0366326 -0.0251265 0)
(0.0268959 -0.0257605 0)
(0.0170874 -0.0252483 0)
(0.00822041 -0.0231402 0)
(0.00144759 -0.0197759 0)
(-0.00299119 -0.0165427 0)
(-0.00587328 -0.0144841 0)
(-0.00833655 -0.0136482 0)
(-0.0109862 -0.0136131 0)
(-0.0139893 -0.0138169 0)
(-0.0172962 -0.0138116 0)
(-0.0209744 -0.0133142 0)
(-0.0253656 -0.0119852 0)
(-0.0311537 -0.00963668 0)
(-0.0392755 -0.00654518 0)
(-0.0505968 -0.00339798 0)
(-0.0663234 -0.00136924 0)
(-0.0874741 -0.00194347 0)
(-0.113639 -0.00610379 0)
(-0.143256 -0.0135783 0)
(-0.173888 -0.0225188 0)
(-0.204906 -0.0306914 0)
(-0.234966 -0.0338756 0)
(-0.262741 -0.0220439 0)
(-0.319104 0.0154224 0)
(-0.496409 0.0842896 0)
(0.954263 0.374531 0)
(0.451729 0.203482 0)
(0.296849 0.0691302 0)
(0.369723 0.0838433 0)
(0.292313 0.0838608 0)
(0.225345 0.0728727 0)
(0.189634 0.0587849 0)
(0.166501 0.0436593 0)
(0.148125 0.0289718 0)
(0.133338 0.0160703 0)
(0.120671 0.00538324 0)
(0.108461 -0.00307106 0)
(0.096966 -0.00889486 0)
(0.0861486 -0.0124046 0)
(0.0758473 -0.0142025 0)
(0.0659003 -0.0148268 0)
(0.0563035 -0.0146053 0)
(0.0474162 -0.0136443 0)
(0.0398103 -0.0121528 0)
(0.0337181 -0.0106312 0)
(0.0288023 -0.00948717 0)
(0.0244813 -0.00885377 0)
(0.0203224 -0.00862952 0)
(0.0161169 -0.00856085 0)
(0.0118424 -0.0083302 0)
(0.00756378 -0.00757925 0)
(0.00337437 -0.00584594 0)
(-0.000722963 -0.00267779 0)
(-0.00428086 0.00190486 0)
(-0.00765109 0.00754297 0)
(-0.0120217 0.0134218 0)
(-0.0176425 0.0182052 0)
(-0.0248652 0.0201528 0)
(-0.0341108 0.0174198 0)
(-0.0494151 0.00789071 0)
(-0.0716468 -0.00873619 0)
(-0.0866157 -0.031945 0)
(-0.0882397 -0.0679033 0)
(-0.129337 -0.126083 0)
(-0.456785 -0.193425 0)
(-1.25449 -0.0331269 0)
(0.180534 0.0874043 0)
(0.107479 0.0770821 0)
(0.112857 0.0786008 0)
(0.124621 0.069657 0)
(0.129811 0.0541421 0)
(0.129674 0.0381639 0)
(0.127469 0.0248963 0)
(0.12411 0.0150982 0)
(0.119607 0.0084808 0)
(0.113892 0.00425489 0)
(0.10736 0.00169892 0)
(0.100449 0.000246538 0)
(0.0933545 -0.000380581 0)
(0.0862105 -0.000487357 0)
(0.0792087 -0.00030103 0)
(0.0726226 -5.06021e-06 0)
(0.0666556 0.000195976 0)
(0.0612976 0.000163003 0)
(0.0563824 -0.00012311 0)
(0.051724 -0.000584005 0)
(0.0471958 -0.00106534 0)
(0.0427677 -0.00135334 0)
(0.0385223 -0.0011678 0)
(0.0346808 -0.00014121 0)
(0.0315993 0.0020475 0)
(0.0299229 0.00518679 0)
(0.0294035 0.00947688 0)
(0.0302695 0.0143522 0)
(0.0322505 0.0185117 0)
(0.0349108 0.0206417 0)
(0.0381428 0.019903 0)
(0.0421328 0.0154999 0)
(0.0495447 0.0071953 0)
(0.0629852 -0.00192433 0)
(0.083409 -0.0104848 0)
(0.117863 -0.0509519 0)
(-0.0701804 -0.132574 0)
(-0.55626 0.11389 0)
(0.181647 0.0127879 0)
(0.00423225 -0.00470957 0)
(0.0309789 0.0402492 0)
(0.0602785 0.0462439 0)
(0.0816546 0.0345114 0)
(0.0966027 0.0185488 0)
(0.106888 0.00346724 0)
(0.113047 -0.0097565 0)
(0.115726 -0.0211433 0)
(0.115739 -0.0307328 0)
(0.113761 -0.0382581 0)
(0.110266 -0.0435913 0)
(0.105781 -0.0470082 0)
(0.100832 -0.0488367 0)
(0.0958392 -0.0494807 0)
(0.0910901 -0.0493876 0)
(0.0867234 -0.0489784 0)
(0.0827246 -0.048548 0)
(0.0789834 -0.0482241 0)
(0.0753755 -0.0479997 0)
(0.0718239 -0.0477796 0)
(0.068335 -0.0474128 0)
(0.0650253 -0.046699 0)
(0.0621653 -0.0453747 0)
(0.0602655 -0.0430753 0)
(0.0595822 -0.038971 0)
(0.0606106 -0.0332512 0)
(0.063802 -0.0269689 0)
(0.0691412 -0.0217769 0)
(0.0760336 -0.0194164 0)
(0.0835594 -0.0216098 0)
(0.0909048 -0.0300162 0)
(0.0972906 -0.039895 0)
(0.101026 -0.0496315 0)
(0.106341 -0.0604277 0)
(0.135675 -0.0774712 0)
(-0.0617317 -0.0822814 0)
(0.138267 -0.159779 0)
(-0.181443 -0.0310875 0)
(-0.263618 0.151708 0)
(0.108485 0.00285622 0)
(-0.072815 0.0468137 0)
(-0.0423219 0.0825373 0)
(-0.00365604 0.0940459 0)
(0.0301465 0.0962372 0)
(0.0540573 0.0985263 0)
(0.0720862 0.104055 0)
(0.083754 0.112456 0)
(0.0902162 0.122752 0)
(0.0932012 0.1338 0)
(0.0942252 0.14415 0)
(0.0943743 0.152635 0)
(0.0942871 0.158775 0)
(0.0942547 0.162517 0)
(0.0943702 0.164176 0)
(0.0946167 0.164288 0)
(0.0949103 0.163445 0)
(0.0951345 0.162161 0)
(0.0951806 0.160776 0)
(0.0949841 0.159445 0)
(0.0945418 0.158174 0)
(0.0939141 0.156857 0)
(0.0932256 0.1553 0)
(0.0926763 0.153215 0)
(0.092571 0.150198 0)
(0.0933514 0.145428 0)
(0.0956422 0.138939 0)
(0.0998616 0.131476 0)
(0.105927 0.124209 0)
(0.112965 0.118226 0)
(0.119228 0.114454 0)
(0.122178 0.113827 0)
(0.117572 0.109568 0)
(0.102583 0.100192 0)
(0.0870603 0.079061 0)
(0.105818 0.0637222 0)
(-0.460936 0.148778 0)
)
;

boundaryField
{
    floor
    {
        type            noSlip;
    }
    ceiling
    {
        type            noSlip;
    }
    sWall
    {
        type            noSlip;
    }
    nWall
    {
        type            noSlip;
    }
    sideWalls
    {
        type            empty;
    }
    glass1
    {
        type            noSlip;
    }
    glass2
    {
        type            noSlip;
    }
    sun
    {
        type            noSlip;
    }
    Table_master
    {
        type            noSlip;
    }
    Table_slave
    {
        type            noSlip;
    }
    inlet
    {
        type            fixedValue;
        value           uniform (0.114805 -0.277164 0);
    }
    outlet
    {
        type            zeroGradient;
    }
}


// ************************************************************************* //
