/*--------------------------------*- C++ -*----------------------------------*\
  =========                 |
  \\      /  F ield         | OpenFOAM: The Open Source CFD Toolbox
   \\    /   O peration     | Website:  https://openfoam.org
    \\  /    A nd           | Version:  6
     \\/     M anipulation  |
\*---------------------------------------------------------------------------*/
FoamFile
{
    version     2.0;
    format      ascii;
    class       volScalarField;
    location    "1900";
    object      alphat;
}
// * * * * * * * * * * * * * * * * * * * * * * * * * * * * * * * * * * * * * //

dimensions      [1 -1 -1 0 0 0 0];

internalField   nonuniform List<scalar> 
458
(
0.000832964
0.000853418
0.000774697
0.000803658
0.000835312
0.00086502
0.000892787
0.000919303
0.000945601
0.000973212
0.000997382
0.00101675
0.00103161
0.00104393
0.00105322
0.000377552
0.000406417
0.000405089
0.000331992
0.000285112
0.000268888
0.000252166
0.000233329
0.000229498
0.000242707
0.000254341
0.000284929
0.000316182
0.000365143
0.000453771
0.000517867
0.000518746
0.000461714
0.00144095
0.00250372
0.00178239
0.00237326
0.00257529
0.00277646
0.00298239
0.00317494
0.00333015
0.00341718
0.0034464
0.00337664
0.0031508
0.00268144
0.00190897
0.00114616
0.00109314
0.000812346
0.000511374
0.00113747
0.00132821
0.00132825
0.00107743
0.00072106
0.000427208
0.000314809
0.000292163
0.00033987
0.000461749
0.000772041
0.00117643
0.00158401
0.00204117
0.00196967
0.00182629
0.000587876
0.00196648
0.0041513
0.00190203
0.00341364
0.00392442
0.00417988
0.00440317
0.00459811
0.0047551
0.00486109
0.00492173
0.00490854
0.00477355
0.00444855
0.00387934
0.00310518
0.00216416
0.00119514
0.000977505
0.00260656
0.00240272
0.00203162
0.00147543
0.000548075
0.000424011
0.000334165
0.000337155
0.000423226
0.000503011
0.000588578
0.000690722
0.000828306
0.00227346
0.0020309
0.0015175
0.000722505
0.00245835
0.00619129
0.00215397
0.00362592
0.00466476
0.00495512
0.00514858
0.00531398
0.00545703
0.00557498
0.00567978
0.00577936
0.0058403
0.00578866
0.00549945
0.00482423
0.0036788
0.00227297
0.00129535
0.00303229
0.00313524
0.00266514
0.00203472
0.00139641
0.000899691
0.000894604
0.000893837
0.000895598
0.000901313
0.000913689
0.000936377
0.0009744
0.00105148
0.00311277
0.00364684
0.0034386
0.00116893
0.00291052
0.00837428
0.00283722
0.00330976
0.00487467
0.00523962
0.00538875
0.00549631
0.00558862
0.00568001
0.00580142
0.00600985
0.00630286
0.0066485
0.00697628
0.00719535
0.00722695
0.00701416
0.00658889
0.006385
0.00596317
0.00551726
0.00514274
0.00483855
0.00459117
0.00444467
0.00430259
0.00416655
0.00405381
0.00398787
0.00398637
0.00405278
0.00418335
0.00439596
0.00449786
0.00437954
0.00369691
0.00163622
0.00147593
0.00132102
0.00332977
0.0103009
0.00417036
0.00296887
0.00450068
0.00507334
0.00526594
0.00534614
0.00536354
0.00535382
0.00541639
0.0056165
0.00596055
0.00644639
0.00703448
0.00764251
0.0081544
0.00842461
0.00836933
0.00808248
0.00769118
0.00731883
0.00701443
0.00675421
0.00649399
0.00620909
0.00589037
0.00554962
0.00521787
0.00493968
0.00475002
0.00465122
0.00461305
0.00459063
0.00455919
0.00447847
0.00415591
0.00346945
0.00264958
0.0013493
0.00372226
0.0116829
0.00656615
0.00344631
0.00339419
0.00416627
0.00474271
0.00505566
0.00513894
0.00498929
0.00495263
0.00503902
0.00525944
0.00564462
0.00620759
0.00690555
0.00761687
0.00816357
0.0084161
0.00839887
0.00824485
0.00807008
0.00791993
0.00777742
0.00760185
0.00736089
0.00703781
0.0066308
0.00616274
0.00568736
0.00526567
0.00492727
0.00466302
0.00443243
0.00418183
0.00384796
0.00336048
0.00275821
0.00215325
0.00130789
0.00381768
0.0120136
0.00886007
0.00620956
0.00443287
0.00393948
0.00432712
0.00478915
0.00489717
0.00472705
0.00460613
0.00457152
0.00462636
0.00478819
0.005096
0.00558921
0.00624311
0.00692027
0.00742471
0.00768826
0.00780651
0.00787511
0.00794717
0.00802375
0.00807616
0.00806875
0.00796717
0.00774366
0.00739299
0.00695382
0.00648268
0.00598062
0.00544538
0.00488285
0.00431759
0.0038031
0.00328433
0.00284376
0.00244816
0.0015451
0.00370308
0.00445117
0.00507442
0.00508047
0.00468819
0.00424413
0.00397109
0.00387217
0.0038579
0.00388454
0.00392748
0.00397376
0.00402283
0.00408717
0.00419537
0.00439378
0.00472834
0.00519089
0.00568694
0.00611697
0.00645834
0.00674508
0.00702144
0.00731015
0.00760918
0.0079
0.0081513
0.00832075
0.00836119
0.00824484
0.0079853
0.00767612
0.00740602
0.00722595
0.00704108
0.00641632
0.00541013
0.00459411
0.00442753
0.00176922
0.00418559
0.0054829
0.00506789
0.00466107
0.00434449
0.00411764
0.00395562
0.00383619
0.00374483
0.00367127
0.00360839
0.00355482
0.00351685
0.00351058
0.00356236
0.00370016
0.00393236
0.00423711
0.00457969
0.00493662
0.00530526
0.00569574
0.00611838
0.00657453
0.00704933
0.00750504
0.00787877
0.00808641
0.00811693
0.00800763
0.0078302
0.00764736
0.00746474
0.00726187
0.00676588
0.00580676
0.00536316
0.00174652
0.00312235
0.00566688
0.00515552
0.00476674
0.00444023
0.00416562
0.00393619
0.00374285
0.0035528
0.00336757
0.00319533
0.00304113
0.00290873
0.00280236
0.00272829
0.00269553
0.00271455
0.00279407
0.00293829
0.00314628
0.0034136
0.00373402
0.00410025
0.00450349
0.00493106
0.00535526
0.00574817
0.00610258
0.00636436
0.00650408
0.00652851
0.00646133
0.00631399
0.00606826
0.00546054
0.00457485
0.00431926
0.00153094
0.00219034
0.00245029
0.00271758
0.00281114
0.00249758
0.00229892
0.00212957
0.00198022
0.00184684
0.00172635
0.00162109
0.00152718
0.0014412
0.00136129
0.00128655
0.00121673
0.00115206
0.00109309
0.00104052
0.000995015
0.000957117
0.000927181
0.000905419
0.000891949
0.000886789
0.000889808
0.000900676
0.000920184
0.000950265
0.000992783
0.00104693
0.0011079
0.00116649
0.00121172
0.00123361
0.00122331
0.00120272
0.00117051
0.00118698
0.00113524
)
;

boundaryField
{
    floor
    {
        type            compressible::alphatWallFunction;
        Prt             0.85;
        value           nonuniform List<scalar> 
36
(
0.000149757
5.01162e-05
5.46707e-05
5.44572e-05
4.28139e-05
3.51751e-05
3.24923e-05
2.97095e-05
2.65373e-05
2.58828e-05
2.81165e-05
3.00656e-05
3.51359e-05
4.02425e-05
4.81104e-05
6.20431e-05
7.19134e-05
7.20519e-05
6.32967e-05
6.32959e-05
8.24946e-05
0.000102458
0.000165848
0.00022923
0.000207758
0.000186762
0.000149756
0.000162702
0.000155328
0.000115542
5.01155e-05
0.00011554
7.09237e-05
0.000169467
0.000139083
0.000183226
)
;
    }
    ceiling
    {
        type            compressible::alphatWallFunction;
        Prt             0.85;
        value           nonuniform List<scalar> 
43
(
0.000301942
0.000335271
0.000369153
0.000380944
0.000341309
0.000315927
0.000294103
0.000274701
0.00025724
0.000241346
0.000227361
0.000214799
0.000203223
0.000192394
0.000182199
0.000172615
0.000163683
0.000155486
0.000148135
0.000141738
0.000136383
0.000132135
0.000129037
0.000127113
0.000126374
0.000126803
0.000128352
0.00013113
0.000135401
0.00014141
0.00014902
0.000157536
0.000165667
0.000171913
0.000174925
0.000173508
0.000170672
0.000166225
0.000168498
0.000161335
0.000491439
0.000581903
0.000419812
)
;
    }
    sWall
    {
        type            compressible::alphatWallFunction;
        Prt             0.85;
        value           uniform 0.000300848;
    }
    nWall
    {
        type            compressible::alphatWallFunction;
        Prt             0.85;
        value           nonuniform List<scalar> 6(0.000186531 0.000190385 0.000184743 0.000243636 0.000214932 0.000161003);
    }
    sideWalls
    {
        type            empty;
    }
    glass1
    {
        type            compressible::alphatWallFunction;
        Prt             0.85;
        value           nonuniform List<scalar> 9(0.000115169 0.00019832 0.000267204 0.000330017 0.000386687 0.000438475 0.000486385 0.000498087 0.00048441);
    }
    glass2
    {
        type            compressible::alphatWallFunction;
        Prt             0.85;
        value           nonuniform List<scalar> 2(0.000215502 0.000245192);
    }
    sun
    {
        type            compressible::alphatWallFunction;
        Prt             0.85;
        value           nonuniform List<scalar> 
14
(
0.000118535
0.000121455
0.000110093
0.000114288
0.000118852
0.000123117
0.000127087
0.000130865
0.0001346
0.000138508
0.000141918
0.000144643
0.00014673
0.000148457
)
;
    }
    Table_master
    {
        type            compressible::alphatWallFunction;
        Prt             0.85;
        value           nonuniform List<scalar> 9(7.66687e-05 5.75924e-05 4.33319e-05 4.37737e-05 5.74382e-05 6.97876e-05 8.27603e-05 9.79468e-05 0.000117984);
    }
    Table_slave
    {
        type            compressible::alphatWallFunction;
        Prt             0.85;
        value           nonuniform List<scalar> 9(0.000128225 0.000127501 0.000127393 0.000127646 0.000128462 0.000130226 0.000133451 0.000138834 0.000149674);
    }
    inlet
    {
        type            fixedValue;
        value           uniform 1.94e-05;
    }
    outlet
    {
        type            zeroGradient;
    }
}


// ************************************************************************* //
