/*--------------------------------*- C++ -*----------------------------------*\
  =========                 |
  \\      /  F ield         | OpenFOAM: The Open Source CFD Toolbox
   \\    /   O peration     | Website:  https://openfoam.org
    \\  /    A nd           | Version:  6
     \\/     M anipulation  |
\*---------------------------------------------------------------------------*/
FoamFile
{
    version     2.0;
    format      ascii;
    class       volScalarField;
    location    "1900";
    object      k;
}
// * * * * * * * * * * * * * * * * * * * * * * * * * * * * * * * * * * * * * //

dimensions      [0 2 -2 0 0 0 0];

internalField   nonuniform List<scalar> 
458
(
0.00101968
0.00106804
0.00088004
0.00094714
0.00102329
0.00109743
0.00116907
0.0012396
0.00131158
0.00138934
0.00145923
0.00151644
0.00156106
0.00159849
0.00162698
0.000207744
0.000240657
0.000239034
0.000160484
0.000118341
0.000105245
9.25778e-05
7.92531e-05
7.66519e-05
8.575e-05
9.41619e-05
0.000118162
0.000145504
0.000194052
0.00029993
0.000390999
0.0003924
0.000310886
0.00305654
0.00612786
0.00157417
0.00145308
0.00153645
0.00164331
0.00175758
0.00187931
0.0020082
0.00214054
0.00226822
0.00236923
0.00241161
0.00234322
0.00212604
0.00192657
0.00175198
0.000967312
0.000381269
0.000798392
0.000764946
0.000640382
0.000469036
0.0002753
0.000157822
0.000115405
0.000110825
0.000148002
0.000208598
0.000353024
0.000595769
0.000892895
0.00114413
0.0011648
0.00128408
0.000504034
0.00570123
0.0143564
0.00256177
0.00188031
0.00191808
0.0020307
0.00216069
0.00230352
0.00245734
0.00261678
0.00277316
0.00290339
0.00298461
0.00299208
0.00291239
0.00276355
0.0024868
0.0020938
0.00139652
0.00216408
0.0016002
0.0013434
0.00105973
0.00043833
0.000262207
0.000162797
0.000165483
0.000261059
0.000369116
0.000505786
0.000697113
0.00100339
0.0014806
0.00141259
0.00128968
0.000762292
0.00892216
0.0258787
0.00421085
0.00223442
0.00218214
0.00230139
0.00245227
0.00262064
0.00280314
0.0029948
0.00318606
0.00335462
0.00348869
0.00357558
0.00358579
0.00348001
0.00322368
0.00281384
0.00245837
0.00246105
0.00194408
0.00165645
0.0014512
0.0012824
0.00118722
0.00117388
0.00117192
0.0011766
0.00119173
0.00122476
0.00128641
0.00139308
0.00162218
0.00237287
0.00277815
0.00302988
0.00200181
0.0125219
0.0392851
0.00702766
0.00258677
0.00235692
0.00248164
0.00266542
0.00287608
0.00310822
0.00335657
0.00359662
0.00380883
0.00400514
0.00419698
0.0043643
0.00446415
0.00445152
0.00425956
0.00378575
0.00308127
0.00261242
0.00234768
0.00222548
0.00218089
0.00217195
0.00217757
0.00220381
0.00225632
0.0023465
0.00249197
0.00271166
0.00301854
0.00341327
0.00383237
0.0043832
0.00483856
0.00477005
0.00393153
0.00319869
0.00256247
0.0164071
0.0510626
0.0117377
0.00326976
0.00258424
0.00268476
0.00291224
0.00317921
0.00347033
0.00378006
0.0040197
0.0041933
0.00435771
0.00456077
0.00480495
0.00504424
0.0051827
0.0050712
0.0046318
0.00401686
0.00347836
0.00311933
0.00292866
0.00284115
0.00280316
0.00279335
0.00281314
0.00286548
0.00296217
0.00312714
0.00338844
0.0037623
0.00424142
0.00479547
0.00541205
0.00602457
0.00619777
0.00555898
0.00383616
0.00267395
0.0205207
0.0575399
0.0204837
0.00633847
0.00367213
0.00339574
0.00362621
0.00395135
0.00429052
0.00457954
0.00464336
0.00461469
0.00459115
0.00464462
0.00480776
0.00505913
0.00529594
0.0053388
0.00507907
0.00461127
0.00412599
0.00375565
0.00353063
0.00341797
0.00337717
0.00338779
0.00344232
0.00353329
0.00365737
0.00382441
0.00405592
0.00436762
0.0047539
0.00517396
0.0055441
0.00571634
0.00547165
0.00475072
0.00371917
0.00251264
0.0216178
0.0667757
0.0373773
0.0208177
0.0113128
0.00730911
0.0063592
0.00625507
0.00625546
0.00593113
0.00552117
0.00514236
0.00483588
0.00462827
0.0045481
0.00461757
0.00480468
0.00496488
0.00491957
0.00467275
0.00434967
0.00406418
0.00387319
0.00378141
0.00377492
0.00384622
0.00399468
0.00421778
0.00450763
0.00485197
0.00522851
0.00557802
0.0058236
0.00592461
0.00590064
0.00584237
0.00571217
0.00560097
0.00538464
0.00351276
0.0203798
0.0293869
0.0280902
0.0233764
0.0180908
0.0137097
0.0107178
0.00883562
0.00758264
0.00664549
0.00592141
0.00534472
0.00487762
0.00450387
0.00422538
0.00405839
0.00401545
0.00406362
0.00410993
0.00408188
0.00398294
0.00386217
0.00377008
0.00373624
0.00377336
0.0038901
0.00409672
0.00440391
0.00481984
0.00531187
0.0058547
0.00646247
0.00715481
0.00797558
0.00885029
0.00914739
0.00881782
0.00893411
0.0106177
0.00460712
0.0193796
0.0233533
0.0180501
0.0141249
0.0113038
0.00928323
0.00781115
0.00670492
0.00584603
0.00516534
0.00461458
0.00416226
0.0037906
0.0034939
0.00327588
0.00314085
0.00307914
0.00306497
0.00307241
0.00308962
0.00312098
0.00317964
0.00328029
0.00343634
0.00365943
0.00395851
0.00433732
0.00478139
0.00527954
0.0057956
0.0062964
0.00676025
0.00713296
0.0073411
0.00713246
0.00643697
0.00825512
0.00448576
0.0143495
0.0209823
0.016044
0.0128793
0.0105469
0.00877985
0.00743095
0.00638944
0.00555901
0.0048847
0.00433116
0.00387132
0.00348586
0.00316257
0.00289564
0.00268422
0.00252993
0.00243372
0.00239406
0.00240707
0.00246762
0.00257018
0.00270891
0.00287779
0.00307139
0.00328342
0.00351802
0.00379903
0.0041263
0.00447675
0.00480245
0.00504498
0.00514031
0.00502566
0.00464557
0.00423792
0.00652176
0.00344703
0.00706853
0.00884232
0.0108767
0.0116576
0.0092049
0.00779914
0.0066923
0.00578628
0.00503284
0.00439734
0.00387725
0.00344084
0.00306414
0.0027336
0.0024415
0.00218353
0.00195745
0.00176204
0.00159647
0.00145975
0.00135053
0.00126722
0.00120829
0.00117245
0.00115876
0.0011665
0.001195
0.00124715
0.00132983
0.00145126
0.0016136
0.00180671
0.00200249
0.00216049
0.00223897
0.00220152
0.00212788
0.00201531
0.00207222
0.00189584
)
;

boundaryField
{
    floor
    {
        type            kqRWallFunction;
        value           nonuniform List<scalar> 
36
(
0.00162698
0.000207744
0.000240657
0.000239034
0.000160484
0.000118341
0.000105245
9.25778e-05
7.92531e-05
7.66519e-05
8.575e-05
9.41619e-05
0.000118162
0.000145504
0.000194052
0.00029993
0.000390999
0.0003924
0.000310886
0.000310886
0.000504034
0.000762292
0.00200181
0.00393153
0.00319869
0.00256247
0.00162698
0.00192657
0.00175198
0.000967312
0.000207744
0.000967312
0.000381269
0.0020938
0.00139652
0.00245837
)
;
    }
    ceiling
    {
        type            kqRWallFunction;
        value           nonuniform List<scalar> 
43
(
0.00706853
0.00884232
0.0108767
0.0116576
0.0092049
0.00779914
0.0066923
0.00578628
0.00503284
0.00439734
0.00387725
0.00344084
0.00306414
0.0027336
0.0024415
0.00218353
0.00195745
0.00176204
0.00159647
0.00145975
0.00135053
0.00126722
0.00120829
0.00117245
0.00115876
0.0011665
0.001195
0.00124715
0.00132983
0.00145126
0.0016136
0.00180671
0.00200249
0.00216049
0.00223897
0.00220152
0.00212788
0.00201531
0.00207222
0.00189584
0.0203798
0.0293869
0.0143495
)
;
    }
    sWall
    {
        type            kqRWallFunction;
        value           uniform 0.00706853;
    }
    nWall
    {
        type            kqRWallFunction;
        value           nonuniform List<scalar> 6(0.00256247 0.00267395 0.00251264 0.00448576 0.00344703 0.00189584);
    }
    sideWalls
    {
        type            empty;
    }
    glass1
    {
        type            kqRWallFunction;
        value           nonuniform List<scalar> 9(0.00101968 0.00305654 0.00570123 0.00892216 0.0125219 0.0164071 0.0205207 0.0216178 0.0203798);
    }
    glass2
    {
        type            kqRWallFunction;
        value           nonuniform List<scalar> 2(0.00351276 0.00460712);
    }
    sun
    {
        type            kqRWallFunction;
        value           nonuniform List<scalar> 
14
(
0.00101968
0.00106804
0.00088004
0.00094714
0.00102329
0.00109743
0.00116907
0.0012396
0.00131158
0.00138934
0.00145923
0.00151644
0.00156106
0.00159849
)
;
    }
    Table_master
    {
        type            kqRWallFunction;
        value           nonuniform List<scalar> 9(0.00043833 0.000262207 0.000162797 0.000165483 0.000261059 0.000369116 0.000505786 0.000697113 0.00100339);
    }
    Table_slave
    {
        type            kqRWallFunction;
        value           nonuniform List<scalar> 9(0.00118722 0.00117388 0.00117192 0.0011766 0.00119173 0.00122476 0.00128641 0.00139308 0.00162218);
    }
    inlet
    {
        type            turbulentIntensityKineticEnergyInlet;
        intensity       0.05;
        value           uniform 3.75e-05;
    }
    outlet
    {
        type            zeroGradient;
    }
}


// ************************************************************************* //
