/*--------------------------------*- C++ -*----------------------------------*=========                 |
  \      /  F ield         | OpenFOAM: The Open Source CFD Toolbox
   \    /   O peration     | Website:  https://openfoam.org
    \  /    A nd           | Version:  6
     \/     M anipulation  |
\*---------------------------------------------------------------------------*/
FoamFile
{
    version     2.0;
    format      ascii;
    class       volScalarField;
    location    "1900";
    object      PMV;
}
// * * * * * * * * * * * * * * * * * * * * * * * * * * * * * * * * * * * * * //

dimensions      [0 0 0 0 0 0 0];

internalField   nonuniform List<scalar> 
458
(
1.7391009688385222
1.5656236956408283
1.5882686815152374
1.580549931177495
1.5722473240421464
1.5654378142683523
1.5607174205755188
1.5578555237165401
1.558123319107443
1.561453098376283
1.5679910144074554
1.5805763116572409
1.6008506150486554
1.6195646576597924
1.6009226178304643
1.198187680488811
1.185231652653216
1.1780336921363312
1.1554793571740511
1.1406025330985108
1.1367632852204281
1.137243192671298
1.1401226285873773
1.1444417538246885
1.151640217584744
1.152600005198269
1.156919026996585
1.162677664496135
1.1761142164750003
1.2097038093932393
1.2408915876468336
1.2476086007589102
1.255285024236418
1.7467454796459616
1.5741618044275454
1.6134432688914941
1.601602385034434
1.596045944869414
1.5927278729914995
1.5910524807736843
1.5904659950062332
1.5910672094853109
1.5936180123024974
1.5973980035302802
1.6009450943095656
1.6036560745812938
1.599749776281559
1.5874245163492673
1.6073188946587535
1.6450734514259948
1.6140694043390584
1.1381451738653627
1.2524063860895465
1.2701575821454898
1.281671336944621
1.261042224938637
1.1861913718544772
1.160758126156584
1.1641173132754496
1.1689161113348279
1.1890705167320053
1.1991473703728484
1.2164213967383835
1.261042224938637
1.3171692286279102
1.37280488390316
1.3646521872403046
1.3200472366445177
1.2211409686380068
1.820282534069551
1.5782667524629128
1.6479522312705968
1.6317472800440813
1.6317024840802592
1.6335870837188906
1.636941301520887
1.640486156646492
1.6446574418171795
1.6480237772095694
1.6505080635487837
1.6485006040710306
1.6406522341889869
1.6235541442632198
1.5991772047997665
1.5786725349446518
1.550930709505983
1.5080995148531668
1.4126048770256032
1.3972611828383237
1.4106869778690307
1.4337005477264604
1.4360976382932702
1.297022321117692
1.2480883823632771
1.20682480811932
1.2097038093932393
1.2672790765756556
1.3166895576067312
1.360335937060995
1.4015767116056688
1.4490414004814476
1.4825949846114719
1.4164406207331437
1.3733618920512867
1.2165750888213225
1.9100772168782811
1.5929293310583141
1.6796798451902712
1.6620491328886549
1.6692100580448348
1.6786335841540543
1.6890237645575052
1.6996031387440618
1.7092191096366858
1.7168618064113021
1.7207879637187682
1.7183049135104431
1.7067648605325267
1.684080580584937
1.6523570469994737
1.6127170476454848
1.5618201689379323
1.5009515478186024
1.4659993278184433
1.4738121104011317
1.501405849363899
1.5454122721088
1.5729169120400655
1.5862631451352633
1.602217871170357
1.6200694420969484
1.6387179517911266
1.6507287447278176
1.6536009551975195
1.6574304570900127
1.662695811307484
1.6679609188828541
1.669875441773123
1.6430691681288638
1.6167356045236192
1.5836910792430252
1.5738581969276528
2.003585486686129
1.6187348849044834
1.7023368122862976
1.6886215516470058
1.7037232424966797
1.7220166869428313
1.7416028369047378
1.7607415721638267
1.7781778207647423
1.792414873382625
1.8013589523888032
1.8016304487808028
1.7917756426110558
1.7710661236624128
1.7420546433205764
1.7054534639390955
1.6637893516941642
1.6258793977272974
1.6034304471393208
1.596867310085429
1.6065028773087338
1.6211506675488772
1.6313554243220338
1.6370727795001827
1.6434179513513814
1.6522664067283832
1.6629172817841242
1.6764864569142781
1.6923206375219846
1.7014601903333753
1.7095941224973281
1.718684219504081
1.7263383983091007
1.7296869151119125
1.7330353173413353
1.7349486383052128
1.7195090130432245
1.6704814000642747
1.6287111194204056
1.6493282624492334
2.089833625448161
1.6557759277614634
1.7257087223629288
1.7123018688291207
1.7335843587578474
1.760972658672058
1.7899648045304808
1.8191060295830421
1.846695269227638
1.8711114390376162
1.885343645044433
1.8884388014960636
1.8813247822719796
1.864918986036003
1.8400871762737847
1.8079784038379394
1.772153445134432
1.7388691119481747
1.7148359795049084
1.7015606574331252
1.6973556684507718
1.696898021684935
1.6952913164290389
1.692884834949537
1.691029387070434
1.6911291257782655
1.6938692647634541
1.6989942324405405
1.7070752104324913
1.716781274806872
1.7279684238790167
1.7390298244573734
1.7490910610039094
1.7591170450252316
1.7710922339899715
1.7836719989525782
1.7807592140112614
1.7723778535383472
1.7217628201326094
1.6449098370158148
2.1619090261946994
1.730784833478156
1.8076616390950278
1.7547664301093417
1.7684055051977825
1.803374786768481
1.8436932310819016
1.8864463235516185
1.9122240838499382
1.938469213308523
1.9580268980825641
1.9694215393798584
1.961746554025954
1.950758530484597
1.9346856039554592
1.9119570736813014
1.8843476537725512
1.8564642519079175
1.8329998840768942
1.8155746936052792
1.802779087502652
1.7922318414985674
1.77990047794463
1.767947348255476
1.7579054988950875
1.749297330291652
1.7423411868594398
1.7367280426223977
1.7344247786366478
1.7346289639399064
1.736027136948734
1.7364693972798626
1.7360266382224052
1.734606372867728
1.731108885648138
1.7261917142799106
1.7203625909688605
1.7228113851690527
1.7663991029363206
1.5788465492257138
2.284390714780717
2.0074002818986862
2.008879294030398
1.894105858897425
1.8761140576428075
1.884059018685887
1.8950399614332936
1.914133166666673
1.9403775428855243
1.9555780084990713
1.9609772384165882
1.967274646635467
1.9730570646707686
1.9772497028411258
1.9796710116549792
1.9783888780163004
1.971379867805412
1.9480102966284798
1.9217689607097583
1.896472133240901
1.8735539436660196
1.8530169962516274
1.8348634759915976
1.818617328516167
1.8033238922566925
1.7894618208391302
1.777509979980848
1.7689036571667598
1.765078361033866
1.7684255039740617
1.7721825948945495
1.7585881958820357
1.7432089497074053
1.7261763260137197
1.7087206024625585
1.694736475975934
1.683905603922829
1.679012980710595
1.6638606372449019
1.6105155941083311
2.4585625671995275
2.315214001024741
2.211389224828161
2.098436837028028
2.011869199419024
1.9616486414485765
1.935721731824128
1.9248215212423114
1.9228315403255785
1.9263299913180754
1.9333734499777875
1.9414874379489826
1.9494272914187174
1.9572334228281605
1.9642776740581296
1.9694308806593475
1.9729616108640333
1.973805621608797
1.9710609338143468
1.9561190966607038
1.9346523862045513
1.9136559009731546
1.8940851640912069
1.8749865428342198
1.8563606012094696
1.8386856196916541
1.8219623902625703
1.8061916250391297
1.7932860642464363
1.7856374089457197
1.783725140210214
1.7870715830701764
1.7937640827626924
1.8004560620991321
1.8061916250391297
1.815272130232414
1.7970381379706493
1.7819010204116215
1.7323266832786839
1.640520019026232
1.6749974221931403
1.9693703897096269
1.9944749419329026
1.9869456205640301
1.9712184714809138
1.958291109934623
1.9507280874488817
1.946886604767496
1.9455996593509912
1.9454821343413566
1.9474343601203832
1.9497804759625281
1.952879091393694
1.9555614048673227
1.9571793818138117
1.9580257875953064
1.9558200610685044
1.9512394174750514
1.944178045257753
1.9352814655207191
1.9253535275639684
1.9151839006624918
1.9049833265041969
1.8921755307836772
1.8730764044122303
1.8544499877253011
1.8367745709297454
1.8210066723190834
1.8085813275806177
1.8014120162708813
1.7972025435486991
1.7883273896044733
1.7843625791808688
1.784607084240409
1.7831538739075878
1.7738124657687788
1.7069978259705332
1.6722256574650598
1.7277395989593916
1.9685442755600464
2.0055619633481228
2.000492145070162
1.9836403289562567
1.9692619123876276
1.9594593541453977
1.9537453643641538
1.9498694236323615
1.9478112021121978
1.9471552639920326
1.9470162066052814
1.9475374857441896
1.9483493699760333
1.94808840815944
1.9474761756923409
1.9453300979149737
1.941646804119346
1.936587385019356
1.9299110056389637
1.9218877534113767
1.9132060409911908
1.9029663484368637
1.892059023353432
1.8801801347363578
1.866706569557174
1.851589883543863
1.8331775187097339
1.8122949279468148
1.7900081214344479
1.7683845933641371
1.7504964009817994
1.7374812983766648
1.7295224999613577
1.7287229029604851
1.7344047632215198
1.7002919930644127
1.6768081080054746
1.825472822648258
1.7830397297680105
1.7865024462043968
2.0044573882476997
2.034097390187336
2.009054228313235
1.9836352403380881
1.9658367760522215
1.9548515222479435
1.948645070994756
1.9454690222202269
1.9437344143273176
1.9432924536112668
1.9431148126690918
1.943234183689214
1.9426710273108645
1.94152015571672
1.9384742035800482
1.934444604303066
1.9295516069733272
1.9235753511042495
1.9168526257569731
1.9096763097352663
1.902745870894923
1.8951484773008465
1.886874051334801
1.8782977433188113
1.8682310055961047
1.8562853623400386
1.8422728085075382
1.824322415583956
1.8039173257408507
1.7819026853444175
1.7615833614859375
1.7453157017507808
1.7343424103120475
1.7301534997013537
1.7355339092016848
1.7116082601145948
1.6816951488284724
)
;

boundaryField
{
    ".*"
    {
        type            zeroGradient;
    }
}


// ************************************************************************* //
