/*--------------------------------*- C++ -*----------------------------------*=========                 |
  \      /  F ield         | OpenFOAM: The Open Source CFD Toolbox
   \    /   O peration     | Website:  https://openfoam.org
    \  /    A nd           | Version:  6
     \/     M anipulation  |
\*---------------------------------------------------------------------------*/
FoamFile
{
    version     2.0;
    format      ascii;
    class       volScalarField;
    location    "1900";
    object      PPD;
}
// * * * * * * * * * * * * * * * * * * * * * * * * * * * * * * * * * * * * * //

dimensions      [0 0 0 0 0 0 0];

internalField   nonuniform List<scalar> 
458
(
63.82365570390678
54.46468358875084
55.698180638964494
55.277829744751074
54.82555564900826
54.454555865125
54.197362147545384
54.04142913724562
54.05602014918023
54.23744629521797
54.59366499652162
55.27926660551306
56.38300915767151
57.40039707008004
56.386926633237515
35.15491983665348
34.52502226649949
34.17721664498417
33.09758156281559
32.39413446425098
32.21374229490516
32.23626542955368
32.37155959596221
32.574998180951226
32.91537846181329
32.96088593780749
33.166026508736905
33.44045013306727
34.084730006569714
35.71889503343931
37.26480115586606
37.601166512512236
37.98700610221111
64.22764900524884
54.92985345978144
57.067799039930115
56.423909908771066
56.12155596457491
55.94095103655469
55.84974499072778
55.81781552543637
55.85054683839874
55.98940545588818
56.195138751689996
56.38814951317427
56.53563117342346
56.32311300233019
55.652215731836655
56.734845041247645
58.78379798764643
57.101828601279934
32.278617525885835
37.84214024276903
38.738778342834415
39.32449126198468
38.27736408048175
34.57151260348536
33.348861478824176
33.509216197387914
33.73889584662217
34.71114657721073
35.20177298133905
36.04961004912344
38.27736408048175
41.14954012999538
44.062088629016785
43.631714737275736
41.29871520469632
36.282713448437754
68.05260200703277
55.15346736588656
58.939612112671895
58.06165868256266
58.059228986575036
58.161435904116125
58.34328080189183
58.53536911377463
58.76127569466007
58.94348364360879
59.07788707516297
58.96928481971577
58.54436612515905
57.617045840037946
56.291957802356116
55.17557060176606
53.664138084044566
51.33274544184442
46.1783151272473
45.35964211791824
46.075803988232025
47.30902294958647
47.437849703236836
40.11026034661293
37.625237319677076
35.57754774163686
35.71889503343931
38.59284841767785
41.12469439986172
43.404330643467
45.58956061376046
48.13459770394627
49.94836044891666
46.38348311754462
44.09153387593005
36.057191280835056
72.53313691506366
55.95191755462731
60.65162723570976
59.70153492474998
60.08783199610001
60.59534242660704
61.15371000920178
61.72083685732002
62.23498762392447
62.642665623693304
62.851747171174914
62.71954410822441
62.10388844528956
60.88822759146853
59.17788435372025
57.02832742365834
54.25744649242258
50.94435969468055
49.05002256569813
49.47265677909484
50.96903597335206
53.36350265604361
54.862034228725086
55.58897589074859
56.45739432878934
57.42781455886412
58.439565831550226
59.089823623049114
59.2451404345902
59.4521055554698
59.73644168506892
60.02048553686373
60.123698880987426
58.67527524712567
57.246709502782956
55.44890812262168
54.91331371434022
76.91241585656716
57.35532457174349
61.86713516822193
61.13211987931811
61.94129301452276
62.917131068182165
63.95598887212151
64.96448932328607
65.87699258538966
66.61725486804853
67.07995758241259
67.09397358627191
66.58411490835701
65.505570043442
63.97987470795786
62.03380149894577
59.79545981555134
57.743273672495995
56.52335783064077
56.16625770837528
56.690468526062695
57.48653657178965
58.040404278899494
58.35040702935859
58.69416262080454
59.17298303397364
59.74839537320488
60.47979544025963
61.33060279728172
61.8202322018839
62.25501201069858
62.739745455661975
63.1469090591557
63.32473386461953
63.50236508626789
63.603780292220264
62.78366512342942
60.15635834245208
57.89694860364765
59.01406486930128
80.63953752123683
59.36270348474017
63.11344913230386
62.399534463831124
63.531473337132745
64.9766233736468
66.49018430563041
67.9923906404706
69.39479691717868
70.61826546143831
71.32323634112892
71.47571886665439
71.12480008872633
70.30961435185927
69.06075807788892
67.42118475716765
65.56242647609346
63.811386307477356
62.534689736617956
61.82560815902597
61.60048173729963
61.575965721009275
61.489872667387026
61.36086057304026
61.26133777541435
61.26668870953345
61.41364533839245
61.68823589614286
62.12047131446645
62.63837452156124
63.23349564199423
63.81989098839026
64.35139354888109
64.87915779695547
65.50693565020376
66.16319561053136
66.01154431873496
65.57415780375115
62.903624054472935
58.77494025835984
83.49536311135022
63.38299877755411
67.40487984458909
64.65037931542875
65.36634202125066
67.18398329324847
69.24319341541198
71.37759421724951
72.63720964951608
73.89671602535026
74.81936611227783
75.35038451477551
74.99324855028236
74.4781081081352
73.71662474663769
72.62427433175901
71.27410499782766
69.88637958625871
68.7011719398737
67.8114531514309
67.15325271482959
66.60776680674678
65.96679980479195
65.34235232926021
64.81548520447006
64.36227069881339
63.99502162585828
63.69804063895376
63.576019458264355
63.58684038790248
63.66091813011132
63.68434283707993
63.660891712716186
63.585643194992684
63.40019187756086
63.13911509489601
62.82910628057067
62.95940642228314
65.26125245449211
55.18504918504663
87.76253195945085
77.08394786751974
77.15029197408094
71.7541195416448
70.86677012648974
71.25986109595479
71.7999099056917
72.7296253352629
73.98735438256354
74.7046064148497
74.95732789588753
75.25070905071964
75.51877284494876
75.71233508130709
75.82381057262393
75.76481029015503
75.44115215605001
74.34856869346625
73.09802584363976
71.87006145741205
70.73969141535412
69.71322029374869
68.79585553640392
67.96736948217949
67.18135810817876
66.46408069468768
65.84215891000505
65.39242101776176
65.19203110438053
65.36738908510412
65.56395038839035
64.85136775400478
64.04088324641332
63.1382974285561
62.20836587002018
61.46013431461633
60.878824629573586
60.61575397828918
59.799306659910236
56.908657639411985
92.51570832338922
88.71621512424841
85.31012683999212
80.99324838102788
77.28413671165404
74.98867807875668
73.76599272183778
73.24474222803278
73.14913349622486
73.31712537057645
73.65405047818436
74.04001007486485
74.41539398754576
74.782206745377
75.11127385627523
75.35081782630084
75.51435813630404
75.55338123762209
75.42637969729867
74.72998202564159
73.71504140370965
72.70653317107102
71.75310475046672
70.81082721046702
69.88117807048766
68.98975536787273
68.13851288050697
67.32918160202917
66.66240542661639
66.26541748469909
66.16596063228025
66.33995551243504
66.68717195134263
67.03333331910454
67.32918160202917
67.79593593383007
66.85666184151376
66.07101343056847
63.46478819587264
58.53720357695632
60.39963247521612
75.34801178923131
76.50038014027487
76.15735390955956
75.43367704984607
74.83173425562167
74.47667467533799
74.29552343133896
74.23471512602381
74.22915905866442
74.32138664784527
74.43203869367574
74.5778724564438
74.70382757651461
74.77967508966623
74.81931412325463
74.71595938576226
74.50074651314921
74.16747383089333
73.74502018127393
73.27027928400857
72.7804372401403
72.28558762930963
71.65940488468983
70.71596534472222
69.78524226514116
68.89285590641902
68.08964457842815
67.45221246387302
67.0826971431276
66.86516617024071
66.40518559573334
66.1991227216551
66.21184046246245
66.13623351167567
65.64912965824334
62.11633657516617
60.25034665623421
63.2213431589132
75.30967628880133
77.0013619129329
76.77289046572395
76.00606190311689
75.34297942461102
74.88639026411633
74.6185796632849
74.43622985532514
74.33917354619278
74.30821000684936
74.30164379311636
74.32625467986267
74.36456602585369
74.35225433336886
74.32336059334634
74.2219706991368
74.0475670958091
73.80720892287675
73.48864113696263
73.10374143113437
72.6847599794417
72.18733066608236
71.65368444837651
71.0681899274383
70.39883027831746
69.64143569042456
68.71020102912442
67.64312599778754
66.49243207877895
65.36524714422838
64.42548526929542
63.73792625800042
63.316006855787876
63.27355853267027
63.57495869006151
61.757712107802
60.49710837598445
68.31780882732136
66.13029290708795
66.3103813604052
76.9516730192403
78.26755205205944
77.15813309352887
76.00582865303264
75.18385404236156
74.67051905419878
74.37851364386246
74.22853914396167
74.14647543260654
74.12554901531053
74.11713589840468
74.12278946366061
74.09611314157121
74.04156160073866
73.89695321413168
73.70513647448266
73.47144766102325
73.18488593695164
72.8610574067323
72.51368521679204
72.17658200523755
71.80522761192185
71.39866929960377
70.97500568745237
70.47483792301054
69.87740215542226
69.17137489644159
68.25908660834419
67.21196410029043
66.07110012512454
65.0086854890362
64.15216925316582
63.57165409374426
63.34949729320874
63.63478988721044
62.36252439772811
60.760006432936144
)
;

boundaryField
{
    ".*"
    {
        type            zeroGradient;
    }
}


// ************************************************************************* //
