// -*- C++ -*-
// File generated by PyFoam - sorry for the ugliness

FoamFile
{
 version 2.0;
 format ascii;
 class volVectorField;
 location "300";
 object U;
}

dimensions [ 0 1 -1 0 0 0 0 ];

internalField nonuniform List<vector> 458
(
  (0.0382472 0.089951 0)
  (-0.174985 0.0261462 0)
  (-0.200795 0.0185482 0)
  (-0.233957 0.0125261 0)
  (-0.258277 0.0057354 0)
  (-0.272361 -0.001672 0)
  (-0.273976 -0.00988097 0)
  (-0.260989 -0.0191775 0)
  (-0.233026 -0.0290109 0)
  (-0.191584 -0.0376721 0)
  (-0.141162 -0.043311 0)
  (-0.0883647 -0.0442914 0)
  (-0.0403301 -0.0387079 0)
  (0.00191979 -0.0196501 0)
  (-0.0113729 0.0115855 0)
  (-0.00371459 0.00957298 0)
  (-0.0356353 -0.0210984 0)
  (-0.00985676 -0.0322737 0)
  (0.0193496 -0.0249239 0)
  (0.0384543 -0.0168923 0)
  (0.0522099 -0.00902355 0)
  (0.0598506 -0.00492187 0)
  (0.0628045 -0.00339791 0)
  (0.0635965 -0.00279586 0)
  (0.0637262 -0.00242481 0)
  (0.0635389 -0.00211616 0)
  (0.0630045 -0.00180193 0)
  (0.0619792 -0.00133287 0)
  (0.060023 -0.000365017 0)
  (0.0561346 0.00153946 0)
  (0.0492991 0.00324268 0)
  (0.046996 0.00381691 0)
  (-0.0243005 0.0225824 0)
  (0.222546 0.185134 0)
  (-0.165417 0.0706975 0)
  (-0.164284 0.0568258 0)
  (-0.199514 0.0446873 0)
  (-0.224304 0.030628 0)
  (-0.239337 0.0143943 0)
  (-0.242547 -0.00468448 0)
  (-0.231659 -0.0266435 0)
  (-0.206931 -0.0489357 0)
  (-0.170323 -0.0672737 0)
  (-0.126547 -0.0777714 0)
  (-0.0815188 -0.0779731 0)
  (-0.0406961 -0.0664983 0)
  (-0.00517117 -0.0411103 0)
  (0.0216665 -0.00840664 0)
  (0.0473606 0.0136524 0)
  (0.0587908 0.0416301 0)
  (-0.0199086 0.0806504 0)
  (0.0858563 0.0427291 0)
  (0.0160032 -0.0219159 0)
  (0.0289475 -0.0384053 0)
  (0.043546 -0.0344827 0)
  (0.0552324 -0.0248963 0)
  (0.0612728 -0.0105004 0)
  (0.0626604 -0.00197839 0)
  (0.0625292 0.00124734 0)
  (0.0625646 0.00247358 0)
  (0.0627989 0.00317113 0)
  (0.0629417 0.0036137 0)
  (0.0629305 0.00398265 0)
  (0.0627807 0.00463769 0)
  (0.062025 0.00639347 0)
  (0.0584099 0.011598 0)
  (0.0491452 0.0152579 0)
  (0.0521539 0.0161041 0)
  (-0.0756772 0.0492531 0)
  (0.391388 0.277858 0)
  (-0.184314 0.113762 0)
  (-0.125057 0.0928783 0)
  (-0.160519 0.0708582 0)
  (-0.183539 0.0474564 0)
  (-0.1987 0.0210081 0)
  (-0.203283 -0.0098164 0)
  (-0.193476 -0.0448107 0)
  (-0.170565 -0.079583 0)
  (-0.137586 -0.106577 0)
  (-0.0997274 -0.12017 0)
  (-0.0621821 -0.117981 0)
  (-0.0290824 -0.100301 0)
  (-0.000523722 -0.0685488 0)
  (0.0224165 -0.0354603 0)
  (0.036601 -0.0133836 0)
  (0.0418494 0.0126266 0)
  (-0.041503 0.0627006 0)
  (0.136046 -0.016704 0)
  (0.0726862 -0.0367264 0)
  (0.0626416 -0.042927 0)
  (0.0656079 -0.040205 0)
  (0.0696702 -0.0346746 0)
  (0.0715082 -0.0252038 0)
  (0.0634789 -0.0160473 0)
  (0.0575883 -0.0112532 0)
  (0.0557272 -0.00863585 0)
  (0.0556121 -0.00697334 0)
  (0.0559454 -0.00581091 0)
  (0.0565643 -0.00489433 0)
  (0.0578718 -0.00384689 0)
  (0.0608285 -0.000644277 0)
  (0.0591374 0.0161348 0)
  (0.0454023 0.0261353 0)
  (0.0614841 0.030212 0)
  (-0.122391 0.0747848 0)
  (0.544247 0.352986 0)
  (-0.221527 0.15262 0)
  (-0.0819393 0.124679 0)
  (-0.11722 0.0945195 0)
  (-0.135125 0.0647641 0)
  (-0.148329 0.0304482 0)
  (-0.153013 -0.0114014 0)
  (-0.142218 -0.0600631 0)
  (-0.120181 -0.107102 0)
  (-0.0915342 -0.141281 0)
  (-0.0611876 -0.156556 0)
  (-0.0327862 -0.151551 0)
  (-0.00878534 -0.128452 0)
  (0.0119529 -0.0909605 0)
  (0.0284485 -0.0524486 0)
  (0.0406904 -0.018454 0)
  (0.0550521 0.0148706 0)
  (0.0483149 0.0529936 0)
  (0.0932522 0.0693606 0)
  (0.0910773 -0.00546162 0)
  (0.0753013 -0.0322906 0)
  (0.0695214 -0.0381229 0)
  (0.0663351 -0.0370533 0)
  (0.0615834 -0.0314356 0)
  (0.0622771 -0.0190836 0)
  (0.0727493 -0.0129061 0)
  (0.0815876 -0.00968233 0)
  (0.0873695 -0.00771309 0)
  (0.0912901 -0.0059752 0)
  (0.0933872 -0.00391306 0)
  (0.092023 -0.00109474 0)
  (0.0856272 0.00287095 0)
  (0.0719559 0.0085966 0)
  (0.0560693 0.0274276 0)
  (0.0391062 0.0423087 0)
  (0.0698328 0.0518551 0)
  (-0.173686 0.0946474 0)
  (0.678172 0.411444 0)
  (-0.26727 0.18463 0)
  (-0.0370098 0.144374 0)
  (-0.0703152 0.109628 0)
  (-0.0799054 0.0766885 0)
  (-0.0881691 0.0376299 0)
  (-0.0898691 -0.0129446 0)
  (-0.0743156 -0.0747261 0)
  (-0.0537023 -0.131178 0)
  (-0.0320824 -0.168493 0)
  (-0.0123766 -0.182545 0)
  (0.00418277 -0.173453 0)
  (0.0166805 -0.145721 0)
  (0.0269941 -0.10665 0)
  (0.0360538 -0.065041 0)
  (0.0441865 -0.0273349 0)
  (0.0557141 0.0048201 0)
  (0.0680978 0.0202449 0)
  (0.0822437 -0.00277281 0)
  (0.0806986 -0.0249445 0)
  (0.0728853 -0.0326478 0)
  (0.0640563 -0.0337118 0)
  (0.0565647 -0.0315901 0)
  (0.0507051 -0.0258576 0)
  (0.0497095 -0.0152388 0)
  (0.0536879 -0.00943945 0)
  (0.0584931 -0.00728337 0)
  (0.0629663 -0.0060555 0)
  (0.0671728 -0.00406032 0)
  (0.0706433 -0.000245877 0)
  (0.0723584 0.00562389 0)
  (0.0707924 0.013476 0)
  (0.0656262 0.0236734 0)
  (0.058214 0.0391808 0)
  (0.0449408 0.055582 0)
  (0.0793059 0.0737871 0)
  (-0.0247096 0.0999659 0)
  (0.050201 0.166242 0)
  (-0.095401 0.0883121 0)
  (-0.291245 0.00483655 0)
  (0.777623 0.460142 0)
  (-0.313108 0.206243 0)
  (-2.83997e-07 0.143127 0)
  (-0.0214065 0.114646 0)
  (-0.0210815 0.0832987 0)
  (-0.0227004 0.0433853 0)
  (-0.0135863 -0.0135461 0)
  (0.0103682 -0.092154 0)
  (0.0262801 -0.151083 0)
  (0.0371672 -0.185041 0)
  (0.0431349 -0.194347 0)
  (0.0447518 -0.18166 0)
  (0.0435432 -0.15162 0)
  (0.0414325 -0.11132 0)
  (0.0398151 -0.069244 0)
  (0.0398524 -0.032477 0)
  (0.0440251 -0.00522062 0)
  (0.0526608 0.00646067 0)
  (0.0586536 -0.00187857 0)
  (0.0569054 -0.0132382 0)
  (0.050017 -0.0211027 0)
  (0.0416272 -0.024419 0)
  (0.034178 -0.0242496 0)
  (0.0286727 -0.0211211 0)
  (0.0266637 -0.0158742 0)
  (0.028299 -0.0130021 0)
  (0.0317872 -0.0122309 0)
  (0.0361533 -0.0116885 0)
  (0.0411225 -0.0098289 0)
  (0.0463539 -0.00535302 0)
  (0.0518652 0.00272138 0)
  (0.0552206 0.0135521 0)
  (0.0567351 0.0263993 0)
  (0.0581699 0.0416231 0)
  (0.0562855 0.0577993 0)
  (0.0832049 0.0786041 0)
  (0.0638393 0.0871994 0)
  (0.10215 0.0986622 0)
  (0.124362 0.0558608 0)
  (-0.145597 -0.037433 0)
  (0.83287 0.504288 0)
  (-0.33776 0.190615 0)
  (0.0305488 0.0922122 0)
  (0.0401327 0.0984127 0)
  (0.0471183 0.0800181 0)
  (0.0532699 0.0347072 0)
  (0.0819313 -0.0375528 0)
  (0.104764 -0.109262 0)
  (0.113313 -0.160643 0)
  (0.110937 -0.187294 0)
  (0.100517 -0.19056 0)
  (0.0847882 -0.174018 0)
  (0.0667871 -0.14229 0)
  (0.0494604 -0.102324 0)
  (0.0349606 -0.0619768 0)
  (0.0250775 -0.0285781 0)
  (0.0214205 -0.00650672 0)
  (0.0235129 0.00243243 0)
  (0.0252536 -0.000949164 0)
  (0.0234474 -0.00829493 0)
  (0.0182207 -0.0144305 0)
  (0.0116169 -0.0175982 0)
  (0.00537633 -0.0182865 0)
  (0.000626568 -0.0172632 0)
  (-0.001469 -0.0155745 0)
  (-0.000865664 -0.0151982 0)
  (0.00143891 -0.015898 0)
  (0.00475667 -0.0164444 0)
  (0.00900549 -0.0155996 0)
  (0.0143575 -0.0120433 0)
  (0.0212548 -0.00422671 0)
  (0.0310459 0.00820425 0)
  (0.039074 0.021689 0)
  (0.0480376 0.0355164 0)
  (0.0566005 0.0486826 0)
  (0.0795427 0.06479 0)
  (0.09327 0.0670324 0)
  (0.12788 0.0590564 0)
  (0.175427 0.0465918 0)
  (-0.0102364 0.0955731 0)
  (0.941318 0.507161 0)
  (-0.0740589 0.171929 0)
  (0.113859 0.0252123 0)
  (0.169744 0.0194244 0)
  (0.168155 0.0113745 0)
  (0.170265 -0.0347397 0)
  (0.202964 -0.0849947 0)
  (0.215248 -0.128875 0)
  (0.206494 -0.15943 0)
  (0.183108 -0.172286 0)
  (0.150387 -0.167371 0)
  (0.113175 -0.147391 0)
  (0.0758701 -0.115702 0)
  (0.0424667 -0.0784792 0)
  (0.0156493 -0.042807 0)
  (-0.00203287 -0.0160756 0)
  (-0.00953831 -0.00212478 0)
  (-0.0106764 0.00232513 0)
  (-0.0105982 4.30244e-05 0)
  (-0.0122572 -0.00485501 0)
  (-0.0161409 -0.00915796 0)
  (-0.0210863 -0.011813 0)
  (-0.0259209 -0.013182 0)
  (-0.0297716 -0.0139201 0)
  (-0.032077 -0.0146883 0)
  (-0.0330115 -0.016052 0)
  (-0.0331882 -0.0177649 0)
  (-0.032935 -0.0192207 0)
  (-0.0321641 -0.0197522 0)
  (-0.0304285 -0.0186388 0)
  (-0.0267851 -0.0150464 0)
  (-0.0184704 -0.00808804 0)
  (-0.00357416 0.00228582 0)
  (0.00956355 0.0128692 0)
  (0.0220303 0.0194843 0)
  (0.0408591 0.0263398 0)
  (0.056136 0.0212356 0)
  (0.0790897 0.00819774 0)
  (0.147959 0.0597596 0)
  (-0.501389 0.225085 0)
  (1.08967 0.447746 0)
  (0.528825 0.298437 0)
  (0.54065 0.247233 0)
  (0.53203 0.179999 0)
  (0.483819 0.120133 0)
  (0.445907 0.0583786 0)
  (0.400862 -0.00887779 0)
  (0.347589 -0.0671752 0)
  (0.289669 -0.105949 0)
  (0.229241 -0.121874 0)
  (0.167812 -0.118226 0)
  (0.10829 -0.100642 0)
  (0.0539194 -0.0730736 0)
  (0.00937483 -0.0421782 0)
  (-0.0225021 -0.0161496 0)
  (-0.0372427 -0.00359229 0)
  (-0.0434319 0.0015782 0)
  (-0.0446318 0.00239214 0)
  (-0.0451866 0.000382615 0)
  (-0.0465797 -0.00287298 0)
  (-0.0493663 -0.00602519 0)
  (-0.0528945 -0.00854523 0)
  (-0.0565573 -0.0105106 0)
  (-0.0600047 -0.012156 0)
  (-0.0632259 -0.0136955 0)
  (-0.0665778 -0.015236 0)
  (-0.0705424 -0.0165672 0)
  (-0.0754837 -0.0172602 0)
  (-0.0816699 -0.016744 0)
  (-0.0894035 -0.0143139 0)
  (-0.0991725 -0.00908132 0)
  (-0.111435 -0.00018011 0)
  (-0.124794 0.0123952 0)
  (-0.140563 0.0277511 0)
  (-0.167001 0.0453036 0)
  (-0.206431 0.0635315 0)
  (-0.261097 0.077905 0)
  (-0.321864 0.0852758 0)
  (-0.40264 0.0858805 0)
  (-0.689757 0.076951 0)
  (0.203718 0.0510848 0)
  (0.291851 0.113783 0)
  (0.3129 0.0879685 0)
  (0.289752 0.0359782 0)
  (0.26299 -0.0127211 0)
  (0.231583 -0.0461983 0)
  (0.189653 -0.0641849 0)
  (0.140291 -0.0673482 0)
  (0.0861251 -0.0590641 0)
  (0.0317463 -0.0434434 0)
  (-0.0201291 -0.0223086 0)
  (-0.0500144 -0.00883126 0)
  (-0.0662029 -0.00253744 0)
  (-0.0726299 -0.00126986 0)
  (-0.0745424 -0.00198903 0)
  (-0.074849 -0.0037749 0)
  (-0.0751329 -0.00627573 0)
  (-0.0759669 -0.00889741 0)
  (-0.0774404 -0.0109982 0)
  (-0.079297 -0.0128295 0)
  (-0.0815082 -0.0144183 0)
  (-0.084178 -0.015807 0)
  (-0.0875394 -0.0170229 0)
  (-0.0919089 -0.0180122 0)
  (-0.0975411 -0.0185255 0)
  (-0.104473 -0.018079 0)
  (-0.112404 -0.0159634 0)
  (-0.120577 -0.0113335 0)
  (-0.127924 -0.00330813 0)
  (-0.133503 0.00813741 0)
  (-0.13751 0.0233206 0)
  (-0.140545 0.0426711 0)
  (-0.144216 0.0651538 0)
  (-0.149197 0.0873506 0)
  (-0.150846 0.101263 0)
  (-0.127222 0.0922806 0)
  (-0.0336848 0.0317914 0)
  (-0.214632 -0.192873 0)
  (0.107287 0.336396 0)
  (-0.00340096 0.208595 0)
  (0.0234207 0.119385 0)
  (0.0406308 0.0664436 0)
  (0.0444801 0.0336912 0)
  (0.0415896 0.0117254 0)
  (0.0221247 -0.00104971 0)
  (-0.0126066 0.00650409 0)
  (-0.0482158 0.022112 0)
  (-0.0762993 0.0337237 0)
  (-0.093224 0.0407069 0)
  (-0.0999795 0.0435645 0)
  (-0.101521 0.0452951 0)
  (-0.100758 0.0469428 0)
  (-0.099214 0.0488297 0)
  (-0.0975978 0.0508767 0)
  (-0.0963683 0.0526038 0)
  (-0.0957791 0.0530673 0)
  (-0.0957257 0.0521067 0)
  (-0.0962239 0.0515192 0)
  (-0.0972496 0.0513437 0)
  (-0.0987321 0.0514753 0)
  (-0.100609 0.0518044 0)
  (-0.102849 0.0521265 0)
  (-0.105425 0.0521544 0)
  (-0.108287 0.0515429 0)
  (-0.111334 0.0498926 0)
  (-0.114269 0.0466243 0)
  (-0.116184 0.0426628 0)
  (-0.1155 0.0410806 0)
  (-0.110361 0.0439714 0)
  (-0.099471 0.0526348 0)
  (-0.0832938 0.0669221 0)
  (-0.0638162 0.0825605 0)
  (-0.0436817 0.08965 0)
  (0.0352336 0.0377886 0)
  (0.154633 -0.0759724 0)
  (-0.0538039 -0.0632501 0)
  (-0.450198 -0.539944 0)
  (-0.66833 -0.155137 0)
  (-0.473566 0.171677 0)
  (-0.37643 0.0343746 0)
  (-0.230674 -0.0340258 0)
  (-0.162527 -0.0816741 0)
  (-0.133346 -0.113215 0)
  (-0.127796 -0.123528 0)
  (-0.13312 -0.119542 0)
  (-0.139779 -0.114324 0)
  (-0.139624 -0.110566 0)
  (-0.134768 -0.109431 0)
  (-0.127941 -0.112452 0)
  (-0.120647 -0.119111 0)
  (-0.114205 -0.126958 0)
  (-0.108875 -0.135071 0)
  (-0.104606 -0.143226 0)
  (-0.101356 -0.151463 0)
  (-0.0991803 -0.159305 0)
  (-0.098288 -0.165399 0)
  (-0.0989502 -0.169432 0)
  (-0.101022 -0.172287 0)
  (-0.104044 -0.174069 0)
  (-0.107651 -0.174838 0)
  (-0.111503 -0.174508 0)
  (-0.115261 -0.172827 0)
  (-0.118567 -0.169378 0)
  (-0.121016 -0.163602 0)
  (-0.122169 -0.154784 0)
  (-0.121585 -0.142028 0)
  (-0.118594 -0.125964 0)
  (-0.111423 -0.107931 0)
  (-0.0970874 -0.0882088 0)
  (-0.0730341 -0.0666626 0)
  (-0.0397307 -0.0430052 0)
  (0.00995524 -0.0173364 0)
  (0.0538907 -0.02666 0)
  (0.119174 -0.095047 0)
  (0.134133 -0.144775 0)
  (-0.538104 -0.0286809 0)
)
;

boundaryField
{
  floor
  {
    type noSlip;
  }
  ceiling
  {
    type noSlip;
  }
  sWall
  {
    type noSlip;
  }
  nWall
  {
    type noSlip;
  }
  sideWalls
  {
    type empty;
  }
  glass1
  {
    type noSlip;
  }
  glass2
  {
    type noSlip;
  }
  sun
  {
    type noSlip;
  }
  Table_master
  {
    type noSlip;
  }
  Table_slave
  {
    type noSlip;
  }
  inlet
  {
    type fixedValue;
    value uniform (0.0382683 -0.092388 0);
  }
  outlet
  {
    type zeroGradient;
  }
} 	// ************************************************************************* //

