/*--------------------------------*- C++ -*----------------------------------*\
  =========                 |
  \\      /  F ield         | OpenFOAM: The Open Source CFD Toolbox
   \\    /   O peration     | Website:  https://openfoam.org
    \\  /    A nd           | Version:  6
     \\/     M anipulation  |
\*---------------------------------------------------------------------------*/
FoamFile
{
    version     2.0;
    format      ascii;
    class       volScalarField;
    location    "2700";
    object      alphat;
}
// * * * * * * * * * * * * * * * * * * * * * * * * * * * * * * * * * * * * * //

dimensions      [1 -1 -1 0 0 0 0];

internalField   nonuniform List<scalar> 
458
(
0.000795635
0.000813999
0.000681754
0.000683867
0.000695138
0.00070712
0.000720058
0.000734754
0.000749587
0.000764402
0.000778893
0.000792758
0.000806285
0.000820441
0.000832885
0.000296735
0.000324771
0.000338505
0.000295437
0.000243786
0.000204471
0.000211736
0.000231725
0.000258031
0.000285536
0.00030795
0.000314294
0.000311344
0.000312512
0.000320731
0.00032983
0.000313669
0.000286626
0.00144744
0.00301147
0.00206713
0.00296641
0.00331287
0.00343691
0.00348751
0.00348999
0.00347455
0.00343148
0.00334532
0.00318775
0.00290889
0.00242147
0.00165317
0.000919766
0.000875288
0.000586199
0.000437145
0.000832373
0.000945013
0.000875423
0.000515796
0.000327053
0.000382635
0.000524781
0.000701279
0.000869272
0.000998108
0.00104537
0.00106841
0.00112538
0.00133773
0.00112989
0.000798299
0.000386461
0.002055
0.00582024
0.00312487
0.00373549
0.00469639
0.00513465
0.00534419
0.00542656
0.0054334
0.00539169
0.00530497
0.00515841
0.00491286
0.00449488
0.0038313
0.00296039
0.00194424
0.00095087
0.000685595
0.00178662
0.00151931
0.00112009
0.000686086
0.000300505
0.000319619
0.000351748
0.000384854
0.000419708
0.000458295
0.000505149
0.000568556
0.000668553
0.00214613
0.00228749
0.00196186
0.00059268
0.0026217
0.00928515
0.00572244
0.00479518
0.00521344
0.00566645
0.00603867
0.00631921
0.00648909
0.0065721
0.00659899
0.00657799
0.00648546
0.00624926
0.00575389
0.00488572
0.00358209
0.00202846
0.000992683
0.00245872
0.00238911
0.00184128
0.00133876
0.000973822
0.000709253
0.000714531
0.000720829
0.000729204
0.000741956
0.000761712
0.000791961
0.000838627
0.000916215
0.00289253
0.00308236
0.00268899
0.000834534
0.00312245
0.012706
0.00949283
0.00736626
0.00653985
0.00622638
0.00623588
0.0064446
0.00673772
0.00699884
0.00721053
0.00740075
0.00757554
0.00769525
0.0076946
0.00752151
0.00715573
0.00660327
0.00596331
0.00567813
0.00517681
0.00473772
0.00444464
0.00423469
0.00406311
0.00396755
0.0038759
0.00377891
0.00368054
0.00359384
0.00353846
0.00353353
0.00359086
0.00373665
0.00366096
0.00349623
0.00305682
0.00122587
0.0010544
0.000907107
0.00356156
0.0152012
0.0130414
0.0102442
0.00865169
0.00753954
0.00683465
0.00650457
0.0065067
0.00673466
0.00707552
0.00743661
0.00785106
0.00825949
0.00858235
0.00876011
0.00876103
0.00855141
0.00813582
0.00762837
0.00712023
0.00669657
0.00637669
0.00613838
0.00595301
0.00579741
0.00564719
0.00548191
0.00528479
0.0050504
0.00479504
0.00455194
0.00434161
0.00414958
0.00394302
0.00370547
0.00337418
0.00280451
0.00206509
0.000960342
0.00386982
0.0154639
0.0134591
0.0116614
0.0102223
0.00883197
0.00771526
0.00691423
0.0064236
0.00624114
0.00635281
0.00674866
0.00731176
0.00796065
0.00856259
0.00900354
0.00924217
0.00924313
0.00900837
0.00861784
0.00817878
0.0077715
0.00743134
0.00716224
0.00695452
0.00679502
0.00666993
0.00655895
0.00642885
0.00623444
0.00594131
0.00556278
0.00515173
0.00474213
0.00433211
0.00389743
0.00339364
0.00277804
0.00209049
0.000985471
0.00381496
0.0118684
0.011602
0.0117173
0.0108487
0.00953698
0.00830501
0.00731318
0.00659162
0.00613877
0.00594932
0.00602766
0.00639803
0.00703354
0.00776128
0.00841214
0.00887157
0.00908677
0.00905464
0.0088378
0.00852782
0.00819787
0.00789256
0.00763288
0.00742601
0.00727402
0.00717936
0.00714289
0.00715499
0.00717884
0.00713956
0.00696016
0.00662726
0.00616082
0.00559285
0.00495006
0.00429861
0.00364373
0.00309031
0.00163218
0.00359741
0.00410215
0.0141132
0.0141672
0.0119731
0.00992298
0.00842525
0.00737963
0.00666168
0.00619444
0.00594126
0.00588966
0.00603752
0.0063772
0.00687614
0.00742374
0.00789372
0.00821452
0.00835512
0.00833712
0.00821225
0.00803242
0.00783672
0.00765041
0.00748842
0.00736044
0.00727591
0.00724705
0.00728876
0.00741063
0.00759202
0.00776961
0.00790912
0.00798372
0.0080267
0.00806977
0.00784009
0.00710817
0.00645306
0.00179744
0.0266775
0.0222634
0.0132625
0.0100364
0.00857657
0.00764004
0.00701389
0.00661693
0.00639963
0.00632258
0.00634916
0.00644895
0.00660259
0.0068001
0.00702915
0.00725272
0.00743029
0.00754804
0.0076033
0.00760483
0.00756745
0.00750703
0.00743763
0.00737074
0.00731639
0.00728502
0.00728927
0.00734313
0.00744715
0.00760607
0.00781832
0.00803961
0.00817997
0.00809439
0.00772388
0.00701758
0.0057787
0.00182138
0.00832546
0.0147634
0.0102101
0.00820184
0.00744501
0.00698748
0.00669056
0.00651498
0.00644033
0.00644554
0.006508
0.00660847
0.00673376
0.00687533
0.00702533
0.00717293
0.00730517
0.0074106
0.00748312
0.00752373
0.00753839
0.00753474
0.00751953
0.00749737
0.00747065
0.00744019
0.00740634
0.00737069
0.00733735
0.00731553
0.00731808
0.00732797
0.00723036
0.00698912
0.00653203
0.00578622
0.0049756
0.00190159
0.00211417
0.00329065
0.00581218
0.00456097
0.00338664
0.0025227
0.00216805
0.00200142
0.00188847
0.00180308
0.00173945
0.00169474
0.00166603
0.00165021
0.00164429
0.00164551
0.00165151
0.00166032
0.00167
0.00167854
0.00168465
0.00168782
0.00168818
0.00168633
0.00168298
0.00167882
0.00167431
0.00166964
0.00166474
0.00165936
0.00165323
0.00164517
0.00163322
0.0016158
0.00159762
0.00157361
0.0015357
0.00147092
0.00142329
0.00146517
)
;

boundaryField
{
    floor
    {
        type            compressible::alphatWallFunction;
        Prt             0.85;
        value           nonuniform List<scalar> 
36
(
0.000118635
3.71753e-05
4.17422e-05
4.39611e-05
3.69641e-05
2.83885e-05
2.16956e-05
2.29442e-05
2.63509e-05
3.07743e-05
3.53347e-05
3.90078e-05
4.00409e-05
3.95609e-05
3.97515e-05
4.10879e-05
4.25637e-05
3.99433e-05
3.55175e-05
3.5517e-05
5.16255e-05
8.33719e-05
0.000118869
0.000173867
0.000150076
0.000129278
0.000118634
0.000131063
0.000124717
8.24092e-05
3.71747e-05
8.24082e-05
5.95771e-05
0.000135474
9.71554e-05
0.00014138
)
;
    }
    ceiling
    {
        type            compressible::alphatWallFunction;
        Prt             0.85;
        value           nonuniform List<scalar> 
43
(
0.000292343
0.000440919
0.000742917
0.000595154
0.000452702
0.000344666
0.000299242
0.000277625
0.000262861
0.000251636
0.000243232
0.000237305
0.000233491
0.000231385
0.000230595
0.000230757
0.000231553
0.000232724
0.00023401
0.000235142
0.000235953
0.000236372
0.000236419
0.00023617
0.000235725
0.000235171
0.000234569
0.000233947
0.000233295
0.000232578
0.00023176
0.000230685
0.000229092
0.000226768
0.000224341
0.000221129
0.00021605
0.000207337
0.000200904
0.000206562
0.000478646
0.000540041
0.001031
)
;
    }
    sWall
    {
        type            compressible::alphatWallFunction;
        Prt             0.85;
        value           uniform 0.000291377;
    }
    nWall
    {
        type            compressible::alphatWallFunction;
        Prt             0.85;
        value           nonuniform List<scalar> 6(0.000129122 0.000136678 0.000140227 0.000253707 0.000264234 0.000206276);
    }
    sideWalls
    {
        type            empty;
    }
    glass1
    {
        type            compressible::alphatWallFunction;
        Prt             0.85;
        value           nonuniform List<scalar> 9(0.000110512 0.000200081 0.00027967 0.000351767 0.000414207 0.000468177 0.000505717 0.00049922 0.000472983);
    }
    glass2
    {
        type            compressible::alphatWallFunction;
        Prt             0.85;
        value           nonuniform List<scalar> 2(0.000228068 0.000249923);
    }
    sun
    {
        type            compressible::alphatWallFunction;
        Prt             0.85;
        value           nonuniform List<scalar> 
14
(
0.000113268
0.000115908
9.66277e-05
9.69405e-05
9.86006e-05
0.000100362
0.000102259
0.000104409
0.000106574
0.000108731
0.000110835
0.000112845
0.000114801
0.000116843
)
;
    }
    Table_master
    {
        type            compressible::alphatWallFunction;
        Prt             0.85;
        value           nonuniform List<scalar> 9(3.78535e-05 4.09681e-05 4.61495e-05 5.14238e-05 5.69134e-05 6.29234e-05 7.01351e-05 7.97632e-05 9.46844e-05);
    }
    Table_slave
    {
        type            compressible::alphatWallFunction;
        Prt             0.85;
        value           nonuniform List<scalar> 9(0.000100678 0.000101452 0.000102374 0.0001036 0.000105463 0.000108341 0.000112731 0.000119465 0.000130563);
    }
    inlet
    {
        type            fixedValue;
        value           uniform 1.94e-05;
    }
    outlet
    {
        type            zeroGradient;
    }
}


// ************************************************************************* //
