/*--------------------------------*- C++ -*----------------------------------*\
  =========                 |
  \\      /  F ield         | OpenFOAM: The Open Source CFD Toolbox
   \\    /   O peration     | Website:  https://openfoam.org
    \\  /    A nd           | Version:  6
     \\/     M anipulation  |
\*---------------------------------------------------------------------------*/
FoamFile
{
    version     2.0;
    format      ascii;
    class       volScalarField;
    location    "2700";
    object      k;
}
// * * * * * * * * * * * * * * * * * * * * * * * * * * * * * * * * * * * * * //

dimensions      [0 2 -2 0 0 0 0];

internalField   nonuniform List<scalar> 
458
(
0.000943819
0.000986247
0.00069182
0.000696153
0.000719316
0.000744349
0.000771853
0.0008037
0.000836491
0.000869888
0.000903179
0.000935609
0.000967787
0.00100203
0.0010326
0.000129906
0.000155634
0.000169106
0.000128804
8.76996e-05
6.16945e-05
6.61505e-05
7.9223e-05
9.82265e-05
0.000120283
0.000139913
0.000145737
0.000143012
0.000144093
0.000151793
0.000160569
0.000145209
0.000121237
0.00312788
0.00657127
0.00180199
0.00136731
0.00134452
0.00136374
0.00138928
0.00141874
0.00145422
0.00149334
0.00153431
0.00157173
0.00159117
0.00155663
0.00141531
0.00125918
0.00114007
0.000511033
0.000282242
0.000447522
0.00041543
0.000310277
0.000152556
0.000103554
0.000124015
0.000177513
0.000250436
0.000324544
0.000382397
0.000415756
0.000439393
0.00046289
0.000498885
0.00043967
0.0003674
0.000220756
0.00631275
0.0173326
0.00459159
0.00242435
0.00211773
0.00204745
0.00202028
0.00200887
0.00201495
0.00203469
0.00206598
0.00210402
0.00213622
0.00213348
0.00205866
0.00191032
0.00166542
0.00134522
0.0006962
0.00102152
0.000723387
0.000534769
0.000362844
0.000133508
0.000151068
0.000183025
0.000219166
0.000260745
0.000311003
0.000377986
0.000479087
0.000662932
0.00103511
0.00106525
0.000969173
0.000521774
0.010287
0.0326043
0.0113015
0.0051211
0.0036699
0.00317406
0.00291834
0.00275848
0.00266139
0.00261888
0.00261784
0.00264911
0.00269845
0.00273406
0.00270508
0.00256663
0.00228277
0.00183587
0.00146531
0.00133889
0.0010943
0.000917012
0.000810715
0.000758159
0.000749198
0.000760414
0.000773895
0.000791998
0.000819954
0.00086421
0.000934213
0.00104752
0.00125018
0.00167785
0.00181831
0.00175786
0.00103682
0.0146093
0.0492347
0.0227671
0.0114579
0.00744626
0.00559605
0.00456676
0.00394501
0.00355193
0.00332736
0.00322992
0.0032252
0.00328821
0.00338549
0.00346513
0.00347526
0.00337464
0.00311754
0.00268223
0.00219876
0.00187081
0.00168577
0.00160408
0.00157174
0.00155713
0.00155114
0.00155518
0.00157254
0.00160999
0.00167706
0.00178518
0.00194443
0.00215492
0.00238809
0.00262076
0.00285272
0.00299338
0.00224122
0.00165796
0.00122705
0.0190291
0.0616597
0.0376772
0.0221817
0.0149077
0.0105715
0.00780709
0.00605589
0.0049404
0.00428476
0.00392851
0.00378684
0.00379457
0.00390558
0.00406054
0.00419055
0.00422495
0.00408184
0.00373132
0.00329139
0.0029101
0.00263441
0.00245706
0.00234833
0.0022804
0.00223637
0.00221134
0.00220457
0.00222005
0.00226672
0.00235821
0.00250883
0.00272226
0.00298144
0.00326008
0.00351894
0.00365044
0.00339469
0.00235308
0.00137542
0.0224912
0.0627825
0.0487558
0.0354648
0.0253738
0.0179039
0.0127917
0.00938993
0.00715155
0.00572447
0.00486248
0.00438143
0.00420162
0.00423833
0.00441269
0.00462578
0.00478685
0.00479484
0.00460192
0.00427508
0.00392329
0.00361734
0.00338191
0.00321346
0.00309716
0.00301907
0.00297147
0.00295127
0.00295973
0.0030027
0.00309133
0.00323937
0.00344838
0.0036962
0.00394191
0.00412733
0.00414827
0.00386716
0.003227
0.00144845
0.0218881
0.0538656
0.057158
0.0485582
0.0366914
0.0260337
0.0183149
0.0130835
0.00962208
0.00736907
0.00593455
0.00506807
0.00460608
0.00446259
0.00455415
0.00477992
0.00503783
0.00521317
0.00522
0.00506759
0.00483284
0.00458243
0.0043568
0.00417346
0.00403434
0.00393525
0.00387271
0.00384656
0.0038615
0.00392808
0.00406477
0.00429695
0.00462358
0.00500347
0.00535328
0.00558869
0.00572359
0.00578625
0.00588048
0.00397707
0.0194989
0.0253412
0.106103
0.0845863
0.0546432
0.0346156
0.0226979
0.0156085
0.0112835
0.00857291
0.00684937
0.00576867
0.00513833
0.0048465
0.00481339
0.00497623
0.00524535
0.00551364
0.00569412
0.0057514
0.00570471
0.00559412
0.00545774
0.00532272
0.00520399
0.00510788
0.00503688
0.0049936
0.00498417
0.00502146
0.0051299
0.0053354
0.00564959
0.00610634
0.00674371
0.00758117
0.00826685
0.00842021
0.0109008
0.00482332
0.233688
0.167766
0.0597095
0.0302213
0.0201935
0.0146558
0.0112261
0.00903075
0.00762374
0.00675035
0.00625283
0.00602591
0.0059962
0.0061059
0.00631156
0.00657491
0.00684225
0.00705674
0.00719331
0.00725423
0.00725703
0.00722331
0.00717146
0.00711405
0.00705842
0.00700879
0.00696918
0.00694656
0.00695705
0.00700437
0.0071163
0.00730227
0.00751823
0.00770488
0.00769894
0.00740175
0.00732211
0.00495156
0.103973
0.0897989
0.039238
0.0216285
0.0155038
0.0124418
0.0106418
0.00956229
0.00897462
0.00874045
0.00875391
0.00893103
0.00920964
0.00954676
0.00990778
0.0102522
0.0105419
0.010758
0.0108953
0.0109642
0.0109835
0.0109724
0.0109449
0.0109076
0.0108595
0.0107939
0.0107
0.0105681
0.0103847
0.0101565
0.00992667
0.00974609
0.00954547
0.00928105
0.00884776
0.00804458
0.00809326
0.00539741
0.00675472
0.0163266
0.0506982
0.0312178
0.0172103
0.00954868
0.00705249
0.00600955
0.00534976
0.00487629
0.00453758
0.00430671
0.00416149
0.00408233
0.00405256
0.00405809
0.00408719
0.00413036
0.00417812
0.00422033
0.0042505
0.00426583
0.00426698
0.00425688
0.00423928
0.0042176
0.00419418
0.00417003
0.00414484
0.00411729
0.00408609
0.00404553
0.00398618
0.00390086
0.0038129
0.0036985
0.00352185
0.00323038
0.00302377
0.00320341
)
;

boundaryField
{
    floor
    {
        type            kqRWallFunction;
        value           nonuniform List<scalar> 
36
(
0.0010326
0.000129906
0.000155634
0.000169106
0.000128804
8.76996e-05
6.16945e-05
6.61505e-05
7.9223e-05
9.82265e-05
0.000120283
0.000139913
0.000145737
0.000143012
0.000144093
0.000151793
0.000160569
0.000145209
0.000121237
0.000121237
0.000220756
0.000521774
0.00103682
0.00224122
0.00165796
0.00122705
0.0010326
0.00125918
0.00114007
0.000511033
0.000129906
0.000511033
0.000282242
0.00134522
0.0006962
0.00146531
)
;
    }
    ceiling
    {
        type            kqRWallFunction;
        value           nonuniform List<scalar> 
43
(
0.00675472
0.0163266
0.0506982
0.0312178
0.0172103
0.00954868
0.00705249
0.00600955
0.00534976
0.00487629
0.00453758
0.00430671
0.00416149
0.00408233
0.00405256
0.00405809
0.00408719
0.00413036
0.00417812
0.00422033
0.0042505
0.00426583
0.00426698
0.00425688
0.00423928
0.0042176
0.00419418
0.00417003
0.00414484
0.00411729
0.00408609
0.00404553
0.00398618
0.00390086
0.0038129
0.0036985
0.00352185
0.00323038
0.00302377
0.00320341
0.0194989
0.0253412
0.103973
)
;
    }
    sWall
    {
        type            kqRWallFunction;
        value           uniform 0.00675472;
    }
    nWall
    {
        type            kqRWallFunction;
        value           nonuniform List<scalar> 6(0.00122705 0.00137542 0.00144845 0.00495156 0.00539741 0.00320341);
    }
    sideWalls
    {
        type            empty;
    }
    glass1
    {
        type            kqRWallFunction;
        value           nonuniform List<scalar> 9(0.000943819 0.00312788 0.00631275 0.010287 0.0146093 0.0190291 0.0224912 0.0218881 0.0194989);
    }
    glass2
    {
        type            kqRWallFunction;
        value           nonuniform List<scalar> 2(0.00397707 0.00482332);
    }
    sun
    {
        type            kqRWallFunction;
        value           nonuniform List<scalar> 
14
(
0.000943819
0.000986247
0.00069182
0.000696153
0.000719316
0.000744349
0.000771853
0.0008037
0.000836491
0.000869888
0.000903179
0.000935609
0.000967787
0.00100203
)
;
    }
    Table_master
    {
        type            kqRWallFunction;
        value           nonuniform List<scalar> 9(0.000133508 0.000151068 0.000183025 0.000219166 0.000260745 0.000311003 0.000377986 0.000479087 0.000662932);
    }
    Table_slave
    {
        type            kqRWallFunction;
        value           nonuniform List<scalar> 9(0.000749198 0.000760414 0.000773895 0.000791998 0.000819954 0.00086421 0.000934213 0.00104752 0.00125018);
    }
    inlet
    {
        type            turbulentIntensityKineticEnergyInlet;
        intensity       0.05;
        value           uniform 3.75e-05;
    }
    outlet
    {
        type            zeroGradient;
    }
}


// ************************************************************************* //
