/*--------------------------------*- C++ -*----------------------------------*\
  =========                 |
  \\      /  F ield         | OpenFOAM: The Open Source CFD Toolbox
   \\    /   O peration     | Website:  https://openfoam.org
    \\  /    A nd           | Version:  6
     \\/     M anipulation  |
\*---------------------------------------------------------------------------*/
FoamFile
{
    version     2.0;
    format      ascii;
    class       volScalarField;
    location    "2700";
    object      nut;
}
// * * * * * * * * * * * * * * * * * * * * * * * * * * * * * * * * * * * * * //

dimensions      [0 2 -1 0 0 0 0];

internalField   nonuniform List<scalar> 
458
(
0.000689921
0.000705259
0.000590668
0.000592509
0.000602282
0.000612669
0.000623884
0.000636623
0.000649478
0.000662315
0.000674869
0.000686878
0.000698589
0.000710842
0.000721604
0.000255944
0.000280145
0.000292017
0.000254857
0.000210299
0.000176385
0.000182645
0.000199879
0.000222565
0.000246288
0.000265624
0.000271096
0.000268548
0.00026956
0.000276666
0.000284544
0.000270592
0.000247251
0.00125598
0.00261011
0.00179147
0.00257085
0.00287117
0.00297872
0.00302261
0.00302478
0.00301141
0.00297406
0.00289934
0.0027627
0.0025209
0.00209834
0.00143241
0.000796851
0.000758225
0.000507637
0.000377262
0.000718382
0.000815614
0.000755532
0.000445116
0.000282263
0.000330228
0.000452896
0.000605218
0.000750217
0.000861461
0.000902398
0.000922454
0.000971821
0.00115541
0.000975826
0.000689319
0.000333646
0.00178429
0.00504668
0.00270906
0.00323836
0.00407145
0.00445146
0.00463318
0.00470464
0.00471061
0.00467445
0.0045992
0.00447199
0.00425888
0.00389616
0.0033205
0.00256525
0.00168438
0.000823622
0.000592505
0.00154379
0.00131274
0.000967817
0.000592814
0.000259475
0.000276013
0.000303806
0.00033245
0.000362615
0.000396021
0.000436589
0.000491519
0.000578183
0.00185695
0.0019792
0.00169752
0.000512937
0.00227771
0.0080554
0.00496355
0.00415893
0.00452154
0.00491435
0.00523712
0.00548041
0.00562776
0.00569977
0.00572306
0.0057047
0.00562416
0.00541881
0.00498853
0.00423496
0.00310409
0.00175714
0.000859597
0.00212846
0.00206858
0.00159467
0.0011598
0.00084383
0.000614661
0.000619245
0.000624709
0.000631973
0.00064303
0.000660154
0.000686369
0.000726799
0.000793997
0.0025063
0.0026708
0.00233003
0.000723088
0.00271435
0.0110301
0.00823985
0.00639352
0.00567563
0.00540301
0.00541079
0.00559158
0.00584569
0.00607214
0.00625575
0.00642069
0.00657208
0.00667547
0.00667418
0.00652309
0.00620477
0.00572464
0.00516898
0.00492122
0.00448671
0.00410639
0.00385262
0.00367079
0.00352212
0.00343931
0.00335989
0.00327584
0.00319062
0.00311552
0.0030676
0.00306341
0.0031132
0.00323966
0.00317419
0.00303156
0.00265073
0.00106309
0.000914351
0.000786603
0.00309784
0.0132056
0.0113304
0.00890029
0.00751529
0.00654789
0.00593457
0.00564704
0.0056482
0.00584561
0.00614116
0.00645439
0.00681387
0.00716794
0.00744749
0.00760086
0.00760056
0.00741756
0.00705608
0.00661525
0.00617422
0.00580666
0.0055292
0.00532248
0.00516167
0.00502668
0.00489638
0.00475307
0.00458218
0.00437904
0.00415776
0.00394714
0.00376495
0.00359864
0.0034197
0.00321384
0.00292662
0.00243254
0.00179102
0.000832811
0.00336785
0.0134443
0.0117058
0.0101418
0.00888827
0.00767729
0.0067048
0.00600722
0.00557981
0.00542047
0.00551683
0.00586003
0.00634857
0.00691154
0.00743357
0.0078156
0.00802175
0.00802147
0.00781667
0.0074769
0.00709529
0.00674147
0.00644601
0.00621227
0.00603183
0.00589325
0.00578455
0.00568813
0.0055752
0.00540658
0.00515244
0.00482433
0.00446808
0.00411306
0.00375765
0.00338076
0.00294383
0.00240983
0.00181331
0.000854645
0.00332238
0.0103294
0.0100987
0.010198
0.00943999
0.00829626
0.00722249
0.00635821
0.00572949
0.0053348
0.00516935
0.00523677
0.00555794
0.00610938
0.00674089
0.00730548
0.00770362
0.0078895
0.00786057
0.00767136
0.00740147
0.00711441
0.00684886
0.00662301
0.00644305
0.00631076
0.00622823
0.00619621
0.00620638
0.0062268
0.00619257
0.00603695
0.00574833
0.00534396
0.00485156
0.00429419
0.00372924
0.00316125
0.00268123
0.00141622
0.0031358
0.00357485
0.0122915
0.0123354
0.0104222
0.00863532
0.00733003
0.00641873
0.00579296
0.00538562
0.00516469
0.00511918
0.00524712
0.00554176
0.00597471
0.00644984
0.00685743
0.0071353
0.00725658
0.00724009
0.00713085
0.00697395
0.00680337
0.006641
0.00649981
0.00638817
0.00631427
0.00628869
0.00632436
0.0064296
0.00658654
0.00674028
0.00686108
0.00692574
0.00696306
0.00700054
0.00680143
0.00616659
0.00559843
0.00155961
0.0232001
0.0193748
0.0115421
0.00873333
0.00746193
0.00664605
0.00610041
0.00575433
0.00556467
0.00549707
0.00551965
0.0056059
0.00573896
0.00591011
0.00610859
0.00630225
0.00645588
0.00655749
0.0066048
0.00660544
0.00657229
0.00651917
0.00645827
0.00639957
0.00635177
0.00632393
0.00632701
0.00637314
0.00646282
0.00660016
0.00678383
0.00697546
0.00709702
0.00702268
0.00670119
0.00608837
0.0050135
0.00158022
0.00724118
0.0128447
0.00888327
0.0071358
0.00647697
0.00607839
0.00581953
0.00566626
0.00560083
0.00560487
0.00565873
0.00574565
0.00585415
0.00597678
0.0061067
0.00623449
0.00634888
0.00643992
0.00650233
0.00653699
0.00654909
0.00654528
0.00653143
0.00651154
0.00648771
0.00646062
0.00643058
0.00639899
0.00636941
0.00634983
0.00635145
0.00635953
0.00627444
0.00606481
0.00566795
0.0050206
0.00431701
0.00164986
0.0018456
0.00286932
0.00505641
0.00396779
0.00294608
0.00219442
0.00188586
0.00174084
0.00164251
0.00156815
0.00151272
0.00147374
0.00144868
0.00143484
0.00142961
0.00143058
0.00143571
0.00144327
0.00145159
0.00145891
0.00146411
0.00146675
0.00146695
0.00146521
0.00146218
0.00145843
0.00145438
0.00145019
0.0014458
0.00144099
0.00143552
0.00142837
0.00141786
0.0014026
0.0013867
0.00136574
0.00133273
0.00127639
0.00123489
0.00127102
)
;

boundaryField
{
    floor
    {
        type            nutkWallFunction;
        Cmu             0.09;
        kappa           0.41;
        E               9.8;
        value           nonuniform List<scalar> 
36
(
8.73686e-05
2.72902e-05
3.06423e-05
3.22723e-05
2.71378e-05
2.08446e-05
1.59324e-05
1.68484e-05
1.93482e-05
2.25939e-05
2.594e-05
2.86352e-05
2.93931e-05
2.90407e-05
2.91809e-05
3.01628e-05
3.12478e-05
2.93244e-05
2.60759e-05
2.60758e-05
3.79186e-05
6.13462e-05
8.75485e-05
0.000128152
0.000110611
9.52805e-05
8.73686e-05
9.65186e-05
9.18351e-05
6.06672e-05
2.72901e-05
6.06672e-05
4.37433e-05
9.9749e-05
7.14015e-05
0.000104071
)
;
    }
    ceiling
    {
        type            nutkWallFunction;
        Cmu             0.09;
        kappa           0.41;
        E               9.8;
        value           nonuniform List<scalar> 
43
(
0.000216721
0.0003266
0.000549203
0.000439927
0.000334582
0.000254689
0.000221099
0.00020511
0.000194186
0.000185877
0.000179655
0.000175265
0.000172436
0.000170871
0.000170277
0.000170387
0.000170966
0.00017182
0.00017276
0.000173585
0.000174172
0.000174469
0.00017449
0.000174294
0.000173951
0.000173528
0.000173069
0.000172595
0.000172098
0.000171554
0.000170935
0.000170126
0.000168935
0.000167206
0.000165401
0.00016302
0.000159261
0.000152822
0.00014806
0.000152209
0.000354451
0.00039984
0.000762051
)
;
    }
    sWall
    {
        type            nutkWallFunction;
        Cmu             0.09;
        kappa           0.41;
        E               9.8;
        value           uniform 0.000216769;
    }
    nWall
    {
        type            nutkWallFunction;
        Cmu             0.09;
        kappa           0.41;
        E               9.8;
        value           nonuniform List<scalar> 6(9.52805e-05 0.000100857 0.000103479 0.000187216 0.000194987 0.000152218);
    }
    sideWalls
    {
        type            empty;
    }
    glass1
    {
        type            nutkWallFunction;
        Cmu             0.09;
        kappa           0.41;
        E               9.8;
        value           nonuniform List<scalar> 9(8.34404e-05 0.000150613 0.000210122 0.000263949 0.000310542 0.000350818 0.000378869 0.000374177 0.000354812);
    }
    glass2
    {
        type            nutkWallFunction;
        Cmu             0.09;
        kappa           0.41;
        E               9.8;
        value           nonuniform List<scalar> 2(0.000168781 0.000184938);
    }
    sun
    {
        type            nutkWallFunction;
        Cmu             0.09;
        kappa           0.41;
        E               9.8;
        value           nonuniform List<scalar> 
14
(
8.34771e-05
8.53617e-05
7.11618e-05
7.13931e-05
7.26165e-05
7.3914e-05
7.53118e-05
7.68958e-05
7.84904e-05
8.0079e-05
8.16288e-05
8.31082e-05
8.45478e-05
8.60509e-05
)
;
    }
    Table_master
    {
        type            nutkWallFunction;
        Cmu             0.09;
        kappa           0.41;
        E               9.8;
        value           nonuniform List<scalar> 9(2.77826e-05 3.00722e-05 3.38809e-05 3.77588e-05 4.17963e-05 4.62177e-05 5.15244e-05 5.86129e-05 6.96035e-05);
    }
    Table_slave
    {
        type            nutkWallFunction;
        Cmu             0.09;
        kappa           0.41;
        E               9.8;
        value           nonuniform List<scalar> 9(7.4162e-05 7.47334e-05 7.54139e-05 7.63174e-05 7.76902e-05 7.98109e-05 8.30447e-05 8.80034e-05 9.61736e-05);
    }
    inlet
    {
        type            calculated;
        value           uniform 3.3541e-05;
    }
    outlet
    {
        type            calculated;
        value           nonuniform List<scalar> 2(0.0018456 0.00286932);
    }
}


// ************************************************************************* //
