// -*- C++ -*-
// File generated by PyFoam - sorry for the ugliness

FoamFile
{
 version 2.0;
 format ascii;
 class volVectorField;
 location "300";
 object U;
}

dimensions [ 0 1 -1 0 0 0 0 ];

internalField nonuniform List<vector> 458
(
  (0.0923733 0.0665765 0)
  (-0.133867 0.00378802 0)
  (-0.121352 0.00803611 0)
  (-0.139499 0.00843578 0)
  (-0.156886 0.00701091 0)
  (-0.172382 0.00479242 0)
  (-0.18497 0.00201241 0)
  (-0.193839 -0.00132174 0)
  (-0.198192 -0.00529151 0)
  (-0.19705 -0.0100572 0)
  (-0.188628 -0.0160718 0)
  (-0.170103 -0.0239001 0)
  (-0.140052 -0.035162 0)
  (-0.108173 -0.0532977 0)
  (-0.108076 -0.0790181 0)
  (0.0263473 0.00786639 0)
  (-0.0219949 -0.00509513 0)
  (-0.0122341 -0.00585183 0)
  (-0.00470455 0.0015385 0)
  (-0.00545068 0.00787954 0)
  (-0.0158842 0.0044669 0)
  (-0.0220393 -0.00215906 0)
  (-0.0223713 -0.00482473 0)
  (-0.0189775 -0.00570665 0)
  (-0.0148862 -0.00657089 0)
  (-0.00907651 -0.00815992 0)
  (0.0012077 -0.0112529 0)
  (0.00958947 -0.0108268 0)
  (0.0168889 -0.00767358 0)
  (0.0216972 -0.00426451 0)
  (0.0239864 -0.00678145 0)
  (0.0333963 -0.00477218 0)
  (-0.0190012 0.0138949 0)
  (0.287642 0.145408 0)
  (-0.157282 0.0227371 0)
  (-0.113214 0.0279779 0)
  (-0.13769 0.0283643 0)
  (-0.156791 0.0263416 0)
  (-0.173466 0.0229483 0)
  (-0.187173 0.0184053 0)
  (-0.197364 0.0126554 0)
  (-0.203378 0.00553401 0)
  (-0.204363 -0.00319763 0)
  (-0.199445 -0.013546 0)
  (-0.187736 -0.0255293 0)
  (-0.170153 -0.0402313 0)
  (-0.152374 -0.0594446 0)
  (-0.137782 -0.0768291 0)
  (-0.103802 -0.0642139 0)
  (-0.0529743 -0.0670487 0)
  (-0.00400186 0.0509545 0)
  (0.0954698 0.00941691 0)
  (0.0209632 0.00573652 0)
  (0.00299335 -0.000948234 0)
  (0.00766411 -0.00431541 0)
  (0.0204567 0.00542812 0)
  (0.0207167 0.0137235 0)
  (0.014016 0.00899558 0)
  (0.00916565 0.00193881 0)
  (0.00522056 -0.0033068 0)
  (0.0037915 -0.00587318 0)
  (0.00377096 -0.00823068 0)
  (0.00821039 -0.0127121 0)
  (0.0050988 -0.0129524 0)
  (0.00556121 -0.00633042 0)
  (0.00582273 -0.00311501 0)
  (0.0119599 -0.0106092 0)
  (0.0237207 -0.00442463 0)
  (-0.0714762 0.0323578 0)
  (0.453659 0.223441 0)
  (-0.201836 0.0519132 0)
  (-0.095015 0.0520029 0)
  (-0.126736 0.0477546 0)
  (-0.145538 0.0427866 0)
  (-0.162106 0.0362391 0)
  (-0.176001 0.0279758 0)
  (-0.186872 0.0178793 0)
  (-0.194164 0.00587842 0)
  (-0.197099 -0.00794543 0)
  (-0.194913 -0.0235029 0)
  (-0.188082 -0.0406239 0)
  (-0.178168 -0.0589477 0)
  (-0.168131 -0.0772151 0)
  (-0.156986 -0.0897273 0)
  (-0.138771 -0.0903848 0)
  (-0.124714 -0.0963718 0)
  (-0.142154 -0.090619 0)
  (0.00890015 0.0275774 0)
  (-0.0439859 0.00778153 0)
  (-0.0414553 -0.00414608 0)
  (-0.0335069 -0.0175765 0)
  (-0.0307039 -0.0262998 0)
  (0.0308492 0.00882899 0)
  (0.0314017 0.00702382 0)
  (0.0330675 0.00326114 0)
  (0.0338577 0.000136487 0)
  (0.0314343 -0.00265826 0)
  (0.0261438 -0.00584639 0)
  (0.0185751 -0.0107044 0)
  (-0.00323534 -0.0115356 0)
  (-0.0212061 0.00295401 0)
  (0.0239672 -0.00241441 0)
  (0.00920558 0.00786593 0)
  (-0.0314638 0.0166069 0)
  (-0.136977 0.0214287 0)
  (0.591005 0.289378 0)
  (-0.249765 0.0858857 0)
  (-0.0696285 0.0762604 0)
  (-0.109364 0.0670325 0)
  (-0.125686 0.0599472 0)
  (-0.140402 0.0514261 0)
  (-0.153128 0.0409152 0)
  (-0.1636 0.0280919 0)
  (-0.171333 0.0127249 0)
  (-0.175555 -0.00514014 0)
  (-0.175073 -0.0249326 0)
  (-0.171558 -0.0455797 0)
  (-0.16668 -0.0655675 0)
  (-0.162482 -0.0826409 0)
  (-0.15895 -0.0932854 0)
  (-0.15616 -0.0960818 0)
  (-0.16123 -0.0918386 0)
  (-0.17755 -0.0643516 0)
  (-0.168059 0.00363908 0)
  (-0.115759 0.0167498 0)
  (-0.101523 0.00104722 0)
  (-0.0870476 -0.0121708 0)
  (-0.0836577 -0.0228673 0)
  (-0.0880096 -0.0272343 0)
  (-0.084108 -0.0164324 0)
  (-0.0669938 -0.0145323 0)
  (-0.0505389 -0.0156105 0)
  (-0.033139 -0.0178733 0)
  (-0.0148341 -0.0210091 0)
  (0.0118417 -0.0239338 0)
  (0.0354629 -0.0238989 0)
  (0.0596664 -0.0222208 0)
  (0.0824784 -0.0187858 0)
  (0.093126 -0.0104568 0)
  (0.0893113 0.0117391 0)
  (0.0736045 0.0294425 0)
  (0.0116365 0.0451455 0)
  (0.703092 0.344128 0)
  (-0.293359 0.12082 0)
  (-0.0407794 0.0956634 0)
  (-0.0873048 0.0827099 0)
  (-0.0996451 0.0739693 0)
  (-0.110584 0.0638046 0)
  (-0.120146 0.0514833 0)
  (-0.128209 0.0364743 0)
  (-0.134493 0.0183572 0)
  (-0.138191 -0.00283909 0)
  (-0.137448 -0.0258829 0)
  (-0.134873 -0.0485175 0)
  (-0.132048 -0.0685851 0)
  (-0.130458 -0.0841708 0)
  (-0.130416 -0.0937414 0)
  (-0.132339 -0.0974039 0)
  (-0.137499 -0.0947897 0)
  (-0.142034 -0.0794321 0)
  (-0.13631 -0.0460023 0)
  (-0.118267 -0.0210911 0)
  (-0.0982408 -0.0155836 0)
  (-0.0845096 -0.0198585 0)
  (-0.0781999 -0.025042 0)
  (-0.0753016 -0.0267632 0)
  (-0.0697754 -0.0224868 0)
  (-0.0600418 -0.0219539 0)
  (-0.0485867 -0.0236913 0)
  (-0.0357673 -0.0271142 0)
  (-0.0216297 -0.031759 0)
  (-0.00541673 -0.0358811 0)
  (0.0135435 -0.0376852 0)
  (0.0327763 -0.0363452 0)
  (0.0524241 -0.0297776 0)
  (0.0705274 -0.0151732 0)
  (0.0889691 0.0115701 0)
  (0.103252 0.0359562 0)
  (0.103062 0.0561421 0)
  (0.131035 0.0678331 0)
  (0.127749 0.0847075 0)
  (-0.071419 0.12859 0)
  (0.781359 0.392977 0)
  (-0.330641 0.152012 0)
  (-0.0158098 0.104985 0)
  (-0.0610477 0.0940532 0)
  (-0.0693983 0.0837974 0)
  (-0.0754128 0.0719687 0)
  (-0.0799715 0.0583239 0)
  (-0.0834575 0.0420339 0)
  (-0.0860933 0.0222625 0)
  (-0.0867649 -0.0014424 0)
  (-0.0838266 -0.0272416 0)
  (-0.0809104 -0.0508778 0)
  (-0.0792752 -0.0700506 0)
  (-0.0797134 -0.0836633 0)
  (-0.0822567 -0.0912239 0)
  (-0.0867788 -0.0927662 0)
  (-0.0926559 -0.087422 0)
  (-0.0963492 -0.0730916 0)
  (-0.0933091 -0.0524461 0)
  (-0.0835559 -0.0357626 0)
  (-0.0721317 -0.0287348 0)
  (-0.0640175 -0.0280671 0)
  (-0.0600728 -0.0294391 0)
  (-0.058142 -0.0299378 0)
  (-0.0553767 -0.02906 0)
  (-0.0508272 -0.0299923 0)
  (-0.0450997 -0.0328519 0)
  (-0.0384955 -0.0372583 0)
  (-0.0311832 -0.0427598 0)
  (-0.023022 -0.0483355 0)
  (-0.0134776 -0.052513 0)
  (-0.0020459 -0.0538303 0)
  (0.0119256 -0.0494413 0)
  (0.0284509 -0.0361812 0)
  (0.0505954 -0.0114097 0)
  (0.0798017 0.0178435 0)
  (0.0973982 0.0307317 0)
  (0.106717 0.0218549 0)
  (0.11474 0.0436624 0)
  (-0.084752 0.123658 0)
  (0.803604 0.436906 0)
  (-0.351244 0.154524 0)
  (0.003458 0.0843621 0)
  (-0.0217732 0.102063 0)
  (-0.0315532 0.0922019 0)
  (-0.0345287 0.0755473 0)
  (-0.0336179 0.0596179 0)
  (-0.0310544 0.0424882 0)
  (-0.0280796 0.0220141 0)
  (-0.0212634 -0.00355154 0)
  (-0.0146236 -0.031108 0)
  (-0.0116408 -0.0537048 0)
  (-0.0119922 -0.0704512 0)
  (-0.0153349 -0.08149 0)
  (-0.0211213 -0.0870994 0)
  (-0.0286345 -0.0875304 0)
  (-0.0366279 -0.0823376 0)
  (-0.0425349 -0.0709823 0)
  (-0.0438795 -0.0561569 0)
  (-0.0409548 -0.0430909 0)
  (-0.0367864 -0.0351073 0)
  (-0.0342732 -0.0315504 0)
  (-0.0341904 -0.0304567 0)
  (-0.0355215 -0.0301593 0)
  (-0.0368924 -0.030418 0)
  (-0.037817 -0.032231 0)
  (-0.0386216 -0.035674 0)
  (-0.0396169 -0.0404713 0)
  (-0.0410222 -0.0463503 0)
  (-0.0426844 -0.0526812 0)
  (-0.0440035 -0.0583638 0)
  (-0.0441397 -0.061873 0)
  (-0.0418654 -0.0610058 0)
  (-0.0355181 -0.0535287 0)
  (-0.0228726 -0.038458 0)
  (0.00162348 -0.0181944 0)
  (0.0335284 -0.00833446 0)
  (0.0636335 -0.0113724 0)
  (0.101409 0.0392608 0)
  (-0.0903679 0.175525 0)
  (0.90276 0.460374 0)
  (-0.157374 0.133066 0)
  (0.0628004 0.0283272 0)
  (0.0821836 0.0562229 0)
  (0.0504517 0.0670519 0)
  (0.0349379 0.0542234 0)
  (0.0356441 0.0384459 0)
  (0.0418328 0.022896 0)
  (0.0486904 0.00306946 0)
  (0.0633335 -0.0191014 0)
  (0.0701298 -0.0387955 0)
  (0.0702418 -0.0550265 0)
  (0.0657602 -0.0671608 0)
  (0.0580107 -0.0749999 0)
  (0.0479932 -0.0785931 0)
  (0.0366464 -0.0781066 0)
  (0.025096 -0.0735835 0)
  (0.0150272 -0.0650945 0)
  (0.00818803 -0.0540829 0)
  (0.00475981 -0.0434525 0)
  (0.00295905 -0.0353859 0)
  (0.000746336 -0.0302161 0)
  (-0.00289063 -0.027434 0)
  (-0.0076381 -0.0262913 0)
  (-0.012968 -0.0263819 0)
  (-0.0187761 -0.0278576 0)
  (-0.0257114 -0.0305562 0)
  (-0.0343232 -0.0342115 0)
  (-0.0451753 -0.0388501 0)
  (-0.0584077 -0.0443056 0)
  (-0.0735841 -0.0499336 0)
  (-0.0897037 -0.0545103 0)
  (-0.105111 -0.0561753 0)
  (-0.117726 -0.0528504 0)
  (-0.125489 -0.0427458 0)
  (-0.126051 -0.0247685 0)
  (-0.116203 0.00218143 0)
  (-0.0981284 0.04618 0)
  (-0.113604 0.12143 0)
  (-0.456091 0.237431 0)
  (1.03159 0.436401 0)
  (0.49747 0.296894 0)
  (0.482682 0.255262 0)
  (0.42419 0.203759 0)
  (0.337974 0.161698 0)
  (0.272033 0.117895 0)
  (0.233845 0.0777848 0)
  (0.213073 0.0448864 0)
  (0.202166 0.0171092 0)
  (0.190176 -0.00787667 0)
  (0.177327 -0.0287028 0)
  (0.16366 -0.0445454 0)
  (0.149003 -0.0554749 0)
  (0.133371 -0.0619857 0)
  (0.117092 -0.0645883 0)
  (0.100721 -0.0637292 0)
  (0.0849807 -0.0598342 0)
  (0.0707741 -0.0534562 0)
  (0.0590012 -0.0455506 0)
  (0.0499416 -0.0374512 0)
  (0.0428969 -0.0303098 0)
  (0.0367142 -0.0247174 0)
  (0.0304426 -0.0208524 0)
  (0.0235922 -0.0185828 0)
  (0.0160282 -0.0176494 0)
  (0.00767009 -0.0177882 0)
  (-0.00281737 -0.0186343 0)
  (-0.0158593 -0.0195773 0)
  (-0.0328326 -0.0207461 0)
  (-0.0550343 -0.0225178 0)
  (-0.0831459 -0.0248092 0)
  (-0.117196 -0.0268457 0)
  (-0.15627 -0.0272131 0)
  (-0.198546 -0.0244307 0)
  (-0.241322 -0.0176284 0)
  (-0.281818 -0.00788704 0)
  (-0.315347 0.00042147 0)
  (-0.33638 7.43083e-05 0)
  (-0.373876 -0.0136938 0)
  (-0.578028 -0.0411338 0)
  (0.0687382 0.167327 0)
  (0.223857 0.202681 0)
  (0.262334 0.174697 0)
  (0.258274 0.132502 0)
  (0.257849 0.0919262 0)
  (0.25941 0.057488 0)
  (0.258544 0.0296041 0)
  (0.253678 0.00747804 0)
  (0.24278 -0.0105455 0)
  (0.227981 -0.0246197 0)
  (0.210416 -0.0348542 0)
  (0.191066 -0.0414865 0)
  (0.170928 -0.0448387 0)
  (0.150941 -0.045287 0)
  (0.131951 -0.0432611 0)
  (0.114688 -0.0392845 0)
  (0.0996957 -0.0340254 0)
  (0.0871511 -0.0282304 0)
  (0.0767744 -0.0225218 0)
  (0.0679955 -0.0173038 0)
  (0.0602004 -0.0128766 0)
  (0.052851 -0.00950598 0)
  (0.0455165 -0.00735317 0)
  (0.03786 -0.00624044 0)
  (0.0294152 -0.00557594 0)
  (0.0200646 -0.00457882 0)
  (0.00987916 -0.00287216 0)
  (-0.00122123 -0.000615758 0)
  (-0.0126614 0.00185975 0)
  (-0.0243578 0.00424489 0)
  (-0.0361506 0.00675029 0)
  (-0.0476449 0.0101666 0)
  (-0.0602511 0.0157716 0)
  (-0.0744905 0.0250147 0)
  (-0.0843815 0.0355885 0)
  (-0.0733132 0.0326774 0)
  (0.0865078 -0.0489227 0)
  (-0.21718 -0.21048 0)
  (0.0122491 0.268757 0)
  (0.0846443 0.208972 0)
  (0.128403 0.153012 0)
  (0.171454 0.108764 0)
  (0.208742 0.0712814 0)
  (0.234879 0.040675 0)
  (0.248992 0.0165029 0)
  (0.253155 -0.00226705 0)
  (0.249546 -0.016145 0)
  (0.239818 -0.025838 0)
  (0.225602 -0.0323689 0)
  (0.208338 -0.0364025 0)
  (0.189388 -0.0384491 0)
  (0.169997 -0.0389558 0)
  (0.151247 -0.0383599 0)
  (0.134013 -0.0371397 0)
  (0.118895 -0.035834 0)
  (0.106137 -0.03497 0)
  (0.0955987 -0.0349058 0)
  (0.0868608 -0.0357003 0)
  (0.0793876 -0.0370826 0)
  (0.0726457 -0.0384874 0)
  (0.066171 -0.0391553 0)
  (0.0596933 -0.0381196 0)
  (0.0533492 -0.0344092 0)
  (0.0476466 -0.0287981 0)
  (0.0432662 -0.0223931 0)
  (0.0401194 -0.0162227 0)
  (0.0379745 -0.0109868 0)
  (0.0365765 -0.00667394 0)
  (0.035823 -0.00262261 0)
  (0.0361194 0.00228364 0)
  (0.03819 0.00852797 0)
  (0.0424975 0.0141009 0)
  (0.0499272 0.0117567 0)
  (0.0706753 -0.0113643 0)
  (0.12317 -0.0533541 0)
  (-0.197091 -0.115772 0)
  (-0.190942 -0.362897 0)
  (-0.436422 -0.0787209 0)
  (-0.286482 0.209036 0)
  (-0.160414 0.145322 0)
  (-0.0228466 0.107347 0)
  (0.0806316 0.0796146 0)
  (0.145392 0.0605441 0)
  (0.190082 0.0472239 0)
  (0.215851 0.0389 0)
  (0.226499 0.0346156 0)
  (0.226559 0.0328714 0)
  (0.219512 0.0322861 0)
  (0.207551 0.0327233 0)
  (0.192339 0.0342565 0)
  (0.175272 0.0370267 0)
  (0.157571 0.0411851 0)
  (0.140286 0.0468601 0)
  (0.124272 0.0541085 0)
  (0.110165 0.0628455 0)
  (0.0983508 0.0727768 0)
  (0.0889601 0.0833637 0)
  (0.0819048 0.0938286 0)
  (0.0769458 0.103207 0)
  (0.0737568 0.110465 0)
  (0.0719911 0.114656 0)
  (0.0713582 0.114789 0)
  (0.0716248 0.109734 0)
  (0.0727771 0.100859 0)
  (0.0748578 0.0899693 0)
  (0.0779091 0.0788001 0)
  (0.081958 0.0686699 0)
  (0.0869692 0.0599847 0)
  (0.0931092 0.0526819 0)
  (0.100996 0.0468889 0)
  (0.111434 0.0429651 0)
  (0.124013 0.0402651 0)
  (0.136314 0.0358167 0)
  (0.139669 0.0262603 0)
  (0.157642 0.00641216 0)
  (-0.182748 -0.0316995 0)
)
;

boundaryField
{
  floor
  {
    type noSlip;
  }
  ceiling
  {
    type noSlip;
  }
  sWall
  {
    type noSlip;
  }
  nWall
  {
    type noSlip;
  }
  sideWalls
  {
    type empty;
  }
  glass1
  {
    type noSlip;
  }
  glass2
  {
    type noSlip;
  }
  sun
  {
    type noSlip;
  }
  Table_master
  {
    type noSlip;
  }
  Table_slave
  {
    type noSlip;
  }
  inlet
  {
    type fixedValue;
    value uniform (0.156072 -0.784628 0);
  }
  outlet
  {
    type zeroGradient;
  }
} 	// ************************************************************************* //

