/*--------------------------------*- C++ -*----------------------------------*\
  =========                 |
  \\      /  F ield         | OpenFOAM: The Open Source CFD Toolbox
   \\    /   O peration     | Website:  https://openfoam.org
    \\  /    A nd           | Version:  6
     \\/     M anipulation  |
\*---------------------------------------------------------------------------*/
FoamFile
{
    version     2.0;
    format      ascii;
    class       volScalarField;
    location    "2000";
    object      nut;
}
// * * * * * * * * * * * * * * * * * * * * * * * * * * * * * * * * * * * * * //

dimensions      [0 2 -1 0 0 0 0];

internalField   nonuniform List<scalar> 
458
(
0.000673651
0.000694236
0.000668287
0.00069061
0.000710807
0.000728274
0.000743514
0.000757177
0.00076997
0.000782763
0.000793353
0.000800398
0.000804093
0.00080611
0.000806835
0.000432584
0.000536354
0.00057703
0.000594326
0.000592506
0.000571376
0.000547336
0.000525057
0.000504952
0.000486297
0.000468675
0.000451788
0.000435346
0.000418936
0.000401982
0.000383347
0.000365687
0.000331966
0.00109216
0.00167602
0.00134281
0.00163372
0.00174106
0.00185238
0.00196233
0.00206188
0.00213874
0.00217691
0.00218006
0.00212225
0.00197187
0.00168529
0.00124345
0.000838112
0.000795444
0.000712483
0.000595172
0.00142037
0.00185805
0.00198717
0.00184761
0.00144681
0.00131768
0.00125577
0.00119218
0.00112223
0.00104988
0.000976258
0.000898176
0.000811591
0.000731046
0.000665359
0.000746424
0.000398759
0.0014763
0.00269694
0.00143921
0.00237489
0.00258944
0.00272765
0.00284077
0.00293126
0.00299914
0.00303981
0.00305269
0.00301728
0.0029086
0.00269913
0.00237308
0.00195211
0.0014391
0.000896406
0.000719932
0.00224195
0.00228835
0.00206234
0.00166389
0.000608844
0.00053983
0.000485616
0.000449023
0.000424006
0.0004052
0.000390028
0.000378095
0.000371241
0.000455649
0.000553887
0.000858725
0.000451795
0.00186741
0.00422115
0.00150128
0.00267285
0.00311312
0.00326356
0.00336145
0.00343165
0.0034827
0.00351656
0.00353413
0.00352783
0.00347965
0.00336212
0.00313145
0.00273169
0.00213537
0.00142861
0.000926826
0.00227795
0.00214007
0.00187912
0.00168132
0.0013612
0.000580464
0.000586301
0.00059734
0.000608083
0.000614523
0.000612861
0.00059975
0.000581335
0.000559066
0.000550772
0.000569268
0.000932831
0.000514389
0.0022589
0.00616215
0.00205913
0.00250233
0.00334319
0.00355589
0.00365317
0.00370954
0.00374336
0.00376738
0.00378291
0.00380485
0.00381814
0.00379738
0.00371166
0.00353957
0.00328889
0.00296921
0.00254473
0.00216242
0.00177782
0.00150039
0.00149853
0.00167512
0.00184034
0.00200505
0.00212419
0.00221824
0.0022757
0.00228253
0.00222244
0.00201321
0.00169042
0.00133331
0.001044
0.000981051
0.000791274
0.000612966
0.000636555
0.000644799
0.00265183
0.00819204
0.00376994
0.00232808
0.00304639
0.00350848
0.00372806
0.00384161
0.00387865
0.00386869
0.00384819
0.003882
0.00392533
0.00394546
0.00391172
0.00379917
0.00358883
0.00324174
0.00273068
0.00215335
0.00164994
0.00133003
0.00138993
0.00163558
0.00186274
0.00209161
0.00227837
0.00244005
0.00256441
0.00263953
0.00265593
0.00257365
0.00234063
0.00197997
0.00158808
0.0012501
0.000993482
0.00101173
0.00148622
0.000833891
0.00303309
0.00985632
0.00689373
0.00387815
0.00275803
0.00275485
0.0031733
0.00358205
0.0038563
0.00386034
0.00382217
0.00386059
0.0039041
0.00392928
0.00391355
0.00383174
0.00366038
0.00335476
0.00288727
0.00231359
0.00172358
0.00126171
0.00130045
0.00157476
0.00179758
0.00200238
0.00219901
0.0023862
0.00254845
0.00267311
0.00276533
0.00282348
0.00272019
0.0024336
0.00206943
0.00170803
0.00140346
0.00130315
0.00165388
0.0010187
0.0031232
0.00977887
0.00824345
0.00691702
0.00521284
0.00398226
0.00347268
0.00345857
0.00366754
0.00378092
0.00379333
0.00379919
0.00380833
0.00380665
0.00377408
0.00369188
0.0035426
0.00329951
0.00294103
0.00247278
0.00186849
0.00123056
0.00121256
0.00151978
0.00175553
0.00194716
0.00212291
0.00228518
0.00243247
0.002569
0.00270923
0.00287111
0.00302862
0.00289224
0.00263708
0.00245926
0.00244566
0.00252823
0.00323994
0.00140289
0.00305021
0.00366241
0.00430646
0.00459778
0.00460741
0.00432679
0.00400058
0.00376781
0.00365615
0.00360547
0.00360321
0.00362019
0.00362986
0.00361193
0.0035526
0.00344414
0.0032825
0.00306309
0.00278272
0.00244105
0.00198156
0.00119443
0.00109768
0.00143143
0.00168203
0.00185799
0.00199836
0.00211167
0.00219892
0.00226104
0.00229842
0.00230827
0.00228411
0.00223242
0.00218505
0.00217212
0.00215751
0.0020935
0.00199566
0.00136866
0.00283053
0.0054161
0.00500938
0.00472299
0.00445117
0.00421971
0.00404457
0.00391353
0.00379824
0.00368826
0.00357086
0.0034356
0.00327635
0.00309152
0.00288308
0.00265538
0.00241542
0.00216628
0.00183885
0.00110629
0.000923775
0.00124666
0.00150163
0.00166686
0.00178585
0.00187393
0.00193529
0.00197361
0.00199514
0.00200935
0.00202766
0.0020475
0.0020528
0.00203247
0.00195269
0.00178566
0.00155834
0.00110181
0.00263259
0.00589108
0.00540535
0.00502268
0.00471709
0.00444626
0.00419214
0.00395792
0.00373682
0.00347505
0.00320006
0.00292625
0.00266099
0.00240749
0.00216695
0.00194056
0.00173207
0.00154511
0.00132838
0.000863021
0.00069492
0.0008968
0.00107848
0.00122538
0.00135685
0.00148346
0.00160797
0.00172945
0.00184376
0.00194208
0.00202723
0.00210716
0.00217079
0.00219712
0.002182
0.00213639
0.00188733
0.00110972
0.00208326
0.00225864
0.00241093
0.0025621
0.0023822
0.00222607
0.00203364
0.00187593
0.00173172
0.0015982
0.00147367
0.00136778
0.00127162
0.00118046
0.00109161
0.00100353
0.000915525
0.000827653
0.000741056
0.000658371
0.000582948
0.000518484
0.000505919
0.000554623
0.00059965
0.000643194
0.000685892
0.000728285
0.000770936
0.000814677
0.000860866
0.000911903
0.000968316
0.00102794
0.00109076
0.00115549
0.00122843
0.00121041
0.00111234
0.00102534
)
;

boundaryField
{
    floor
    {
        type            nutkWallFunction;
        Cmu             0.09;
        kappa           0.41;
        E               9.8;
        value           nonuniform List<scalar> 
36
(
9.77177e-05
5.10281e-05
6.43296e-05
6.94602e-05
7.16321e-05
7.14071e-05
6.87575e-05
6.57277e-05
6.2905e-05
6.03449e-05
5.79582e-05
5.56931e-05
5.35125e-05
5.13795e-05
4.92405e-05
4.70195e-05
4.45643e-05
4.22232e-05
3.77115e-05
3.77115e-05
4.65958e-05
5.35133e-05
6.15472e-05
7.39635e-05
7.68992e-05
7.79214e-05
9.77177e-05
0.000101481
9.63408e-05
8.62574e-05
5.1028e-05
8.62574e-05
7.17539e-05
0.000108452
8.71628e-05
0.000112066
)
;
    }
    ceiling
    {
        type            nutkWallFunction;
        Cmu             0.09;
        kappa           0.41;
        E               9.8;
        value           nonuniform List<scalar> 
43
(
0.000242346
0.00026127
0.00027758
0.000293785
0.000274654
0.000257913
0.000237094
0.000219868
0.000203979
0.000189138
0.000175174
0.000163198
0.000152232
0.000141751
0.000131447
0.000121138
0.000110733
0.000100227
8.97451e-05
7.96003e-05
7.02125e-05
6.20718e-05
6.04809e-05
6.66584e-05
7.23109e-05
7.77285e-05
8.29983e-05
8.81919e-05
9.33813e-05
9.86682e-05
0.000104215
0.000110304
0.000116989
0.000124005
0.000131348
0.000138865
0.000147278
0.000145204
0.00013386
0.000123701
0.000345373
0.00040861
0.000300993
)
;
    }
    sWall
    {
        type            nutkWallFunction;
        Cmu             0.09;
        kappa           0.41;
        E               9.8;
        value           uniform 0.000242411;
    }
    nWall
    {
        type            nutkWallFunction;
        Cmu             0.09;
        kappa           0.41;
        E               9.8;
        value           nonuniform List<scalar> 6(7.79177e-05 0.000100979 0.000122926 0.000132644 0.000133564 0.000123708);
    }
    sideWalls
    {
        type            empty;
    }
    glass1
    {
        type            nutkWallFunction;
        Cmu             0.09;
        kappa           0.41;
        E               9.8;
        value           nonuniform List<scalar> 9(8.14353e-05 0.000131624 0.000175699 0.000219265 0.000261882 0.000303866 0.000343982 0.000353395 0.000345797);
    }
    glass2
    {
        type            nutkWallFunction;
        Cmu             0.09;
        kappa           0.41;
        E               9.8;
        value           nonuniform List<scalar> 2(0.000167249 0.000163364);
    }
    sun
    {
        type            nutkWallFunction;
        Cmu             0.09;
        kappa           0.41;
        E               9.8;
        value           nonuniform List<scalar> 
14
(
8.14837e-05
8.40175e-05
8.08236e-05
8.35721e-05
8.60496e-05
8.81854e-05
9.00439e-05
9.17062e-05
9.32595e-05
9.48096e-05
9.60906e-05
9.69416e-05
9.73874e-05
9.76305e-05
)
;
    }
    Table_master
    {
        type            nutkWallFunction;
        Cmu             0.09;
        kappa           0.41;
        E               9.8;
        value           nonuniform List<scalar> 9(7.34605e-05 6.47901e-05 5.78835e-05 5.31673e-05 4.99151e-05 4.74543e-05 4.54586e-05 4.3882e-05 4.29735e-05);
    }
    Table_slave
    {
        type            nutkWallFunction;
        Cmu             0.09;
        kappa           0.41;
        E               9.8;
        value           nonuniform List<scalar> 9(6.99046e-05 7.06363e-05 7.20179e-05 7.33594e-05 7.41619e-05 7.39544e-05 7.23176e-05 7.0012e-05 6.7212e-05);
    }
    inlet
    {
        type            calculated;
        value           uniform 0.000100623;
    }
    outlet
    {
        type            calculated;
        value           nonuniform List<scalar> 2(0.00208326 0.00225864);
    }
}


// ************************************************************************* //
