/*--------------------------------*- C++ -*----------------------------------*\
  =========                 |
  \\      /  F ield         | OpenFOAM: The Open Source CFD Toolbox
   \\    /   O peration     | Website:  https://openfoam.org
    \\  /    A nd           | Version:  6
     \\/     M anipulation  |
\*---------------------------------------------------------------------------*/
FoamFile
{
    version     2.0;
    format      ascii;
    class       volScalarField;
    location    "2300";
    object      nut;
}
// * * * * * * * * * * * * * * * * * * * * * * * * * * * * * * * * * * * * * //

dimensions      [0 2 -1 0 0 0 0];

internalField   nonuniform List<scalar> 
458
(
0.000733704
0.000769516
0.000758001
0.000784509
0.000807624
0.000827452
0.000844784
0.000860456
0.000875351
0.00089022
0.000901108
0.000907091
0.000908533
0.000908045
0.000906836
0.000568322
0.000535317
0.000518021
0.000509516
0.000502301
0.000489412
0.000474727
0.000460531
0.000447283
0.000434782
0.000422865
0.000411342
0.000399956
0.000388298
0.000375781
0.000361193
0.000345098
0.000313679
0.00111706
0.00190677
0.00164892
0.00193441
0.00209096
0.00225201
0.00240944
0.00255096
0.00265843
0.00271329
0.00272588
0.00266275
0.00248004
0.00211799
0.00152768
0.000931077
0.000860721
0.000807269
0.000677252
0.000994376
0.001284
0.00148948
0.00154289
0.00128028
0.00117203
0.00110383
0.00104403
0.000986878
0.000930832
0.000873652
0.00081088
0.000738736
0.000672088
0.000619239
0.000669166
0.000368671
0.00146231
0.002832
0.00184333
0.00275092
0.00300575
0.00318398
0.00332379
0.00343294
0.00351692
0.00357135
0.00361066
0.0036176
0.00357067
0.00345478
0.00324899
0.00285997
0.00208093
0.000954411
0.000771232
0.00151035
0.00188951
0.0020475
0.00190524
0.000588938
0.000533447
0.000487737
0.000451401
0.000422838
0.000400257
0.000382368
0.000368699
0.000360047
0.000419832
0.000508415
0.0007441
0.000407856
0.00181717
0.00421301
0.00182176
0.00304931
0.00346374
0.00360974
0.00368137
0.00371538
0.00373665
0.00375794
0.00378761
0.00381372
0.00381704
0.00378582
0.00370271
0.00350881
0.00308557
0.00223238
0.000910078
0.00202381
0.00228354
0.00227923
0.00221742
0.00197566
0.000575857
0.000558151
0.000556245
0.000558316
0.000558053
0.000551297
0.000536921
0.000520826
0.000499819
0.000482634
0.000503608
0.0007911
0.000448745
0.00218324
0.00606372
0.00229347
0.00285013
0.00361469
0.00378883
0.00381982
0.00379489
0.00376057
0.00375365
0.00378065
0.0038258
0.00385267
0.00383954
0.00377259
0.00364854
0.00349893
0.00335555
0.00308046
0.00281566
0.0025543
0.00232487
0.00219193
0.00212247
0.00200327
0.00205617
0.00213121
0.0021869
0.00220647
0.00217664
0.00206529
0.00182937
0.00151029
0.00115458
0.00088233
0.000842657
0.000650407
0.000519332
0.000550282
0.000571795
0.00256316
0.00808946
0.00404081
0.00263431
0.00324144
0.00364098
0.00380064
0.00382804
0.00377531
0.00370512
0.00374292
0.00381334
0.00385624
0.00384503
0.00376475
0.00362777
0.00349152
0.00338639
0.00321432
0.00291889
0.0025701
0.00227836
0.00214445
0.00213827
0.00221784
0.00234592
0.00246881
0.00256411
0.00262272
0.00263753
0.00259903
0.00243769
0.00215415
0.00175958
0.00136611
0.00107386
0.000839003
0.000842903
0.00124382
0.000758966
0.00293554
0.00975487
0.00716355
0.00419471
0.00314976
0.00297983
0.00322476
0.00353093
0.00376183
0.00368954
0.0037548
0.00382392
0.00385813
0.00383498
0.00373831
0.00358433
0.003439
0.00333797
0.00321096
0.00295423
0.00255829
0.00225297
0.00213758
0.00214736
0.00222716
0.00234227
0.00246191
0.00256908
0.00265133
0.00270911
0.00274206
0.00272097
0.00252278
0.00218296
0.00180558
0.00146834
0.00118935
0.00109638
0.00138244
0.00091414
0.00302417
0.00949803
0.00819627
0.00705496
0.00555829
0.00440744
0.00385463
0.00373824
0.00383945
0.00385175
0.00385693
0.00386822
0.0038624
0.0038077
0.00368137
0.0035035
0.00335788
0.00328866
0.00321909
0.00296996
0.00254364
0.00225148
0.00214432
0.0021411
0.0021888
0.00226115
0.00234121
0.00242105
0.00249873
0.00258041
0.00267521
0.00278392
0.00280922
0.00253838
0.00226429
0.00207836
0.00203594
0.00209456
0.0027248
0.00127763
0.00295898
0.00355629
0.00421081
0.00451413
0.00460251
0.00442445
0.00417964
0.00399883
0.0039047
0.00386304
0.00386275
0.00386518
0.00383303
0.00373452
0.00355467
0.00333731
0.00320802
0.00320187
0.0031985
0.00293189
0.00251144
0.00224589
0.00212992
0.00209156
0.00209111
0.0021081
0.00212972
0.0021487
0.00216083
0.00216224
0.00214686
0.00210608
0.00203152
0.00194718
0.00189149
0.00188346
0.00188855
0.00185844
0.00179205
0.0012619
0.00264908
0.0053593
0.00501784
0.00481017
0.00461916
0.00446202
0.0043443
0.00423601
0.00411748
0.00397805
0.00380182
0.00357142
0.00328235
0.00301537
0.00296079
0.00307606
0.0031419
0.00285957
0.0025126
0.00228295
0.00213957
0.0020443
0.00197915
0.00193321
0.00189766
0.00186634
0.0018366
0.00180939
0.00178844
0.00177904
0.00178615
0.00179258
0.00180058
0.00180173
0.0017647
0.0016584
0.00149906
0.00106819
0.00248855
0.00580879
0.00543672
0.0051305
0.00487534
0.00466362
0.00444914
0.00423438
0.00395836
0.00364107
0.00330836
0.00296439
0.00261159
0.00239476
0.00266521
0.00307532
0.00331597
0.00316568
0.0029334
0.0027184
0.00252629
0.00235375
0.0022035
0.00207843
0.00197883
0.00190346
0.00185074
0.0018188
0.00180447
0.00180112
0.00181568
0.00185098
0.00189484
0.00192557
0.00193086
0.00191861
0.00194129
0.00108556
0.00196148
0.00213788
0.00228593
0.00245011
0.00231862
0.00220509
0.00200518
0.00183892
0.00167763
0.0015193
0.00138422
0.00126579
0.00115235
0.00103567
0.000906935
0.000766561
0.000757091
0.000792979
0.000790656
0.000760649
0.000732672
0.000710149
0.00069365
0.000684484
0.000683494
0.00069038
0.000704091
0.000723464
0.000747638
0.000776271
0.000809726
0.000849422
0.000893859
0.000941782
0.000993973
0.00104897
0.00110913
0.00109775
0.00101727
0.000947443
)
;

boundaryField
{
    floor
    {
        type            nutkWallFunction;
        Cmu             0.09;
        kappa           0.41;
        E               9.8;
        value           nonuniform List<scalar> 
36
(
0.0001097
6.83702e-05
6.42009e-05
6.20036e-05
6.09201e-05
5.99991e-05
5.83498e-05
5.64639e-05
5.4634e-05
5.29198e-05
5.12965e-05
4.97434e-05
4.82365e-05
4.67422e-05
4.52066e-05
4.35513e-05
4.1613e-05
3.94629e-05
3.52273e-05
3.52272e-05
4.26079e-05
4.77797e-05
5.31095e-05
6.21713e-05
6.6095e-05
6.88059e-05
0.0001097
0.000112581
0.000104195
9.77714e-05
6.83702e-05
9.77714e-05
8.1928e-05
0.000115346
9.34145e-05
0.00011009
)
;
    }
    ceiling
    {
        type            nutkWallFunction;
        Cmu             0.09;
        kappa           0.41;
        E               9.8;
        value           nonuniform List<scalar> 
43
(
0.000229106
0.000248258
0.000264204
0.000281884
0.000267856
0.000255664
0.00023401
0.000215816
0.000197994
0.000180317
0.000165074
0.000151574
0.00013851
0.00012492
0.00010972
9.28515e-05
9.16876e-05
9.60398e-05
9.57623e-05
9.21259e-05
8.87193e-05
8.59656e-05
8.39418e-05
8.28152e-05
8.26938e-05
8.35411e-05
8.52247e-05
8.75967e-05
9.05458e-05
9.40243e-05
9.80694e-05
0.000102844
0.000108157
0.000113854
0.000120019
0.000126477
0.000133496
0.000132172
0.00012276
0.000114525
0.000335877
0.000397775
0.000285703
)
;
    }
    sWall
    {
        type            nutkWallFunction;
        Cmu             0.09;
        kappa           0.41;
        E               9.8;
        value           uniform 0.000229168;
    }
    nWall
    {
        type            nutkWallFunction;
        Cmu             0.09;
        kappa           0.41;
        E               9.8;
        value           nonuniform List<scalar> 6(6.88001e-05 9.19245e-05 0.000110576 0.000128731 0.000130758 0.000114529);
    }
    sideWalls
    {
        type            empty;
    }
    glass1
    {
        type            nutkWallFunction;
        Cmu             0.09;
        kappa           0.41;
        E               9.8;
        value           nonuniform List<scalar> 9(8.88225e-05 0.000134529 0.000174124 0.000213739 0.000253726 0.000294472 0.000333795 0.000343084 0.000336274);
    }
    glass2
    {
        type            nutkWallFunction;
        Cmu             0.09;
        kappa           0.41;
        E               9.8;
        value           nonuniform List<scalar> 2(0.000152984 0.000151181);
    }
    sun
    {
        type            nutkWallFunction;
        Cmu             0.09;
        kappa           0.41;
        E               9.8;
        value           nonuniform List<scalar> 
14
(
8.8845e-05
9.32028e-05
9.18041e-05
9.50197e-05
9.78131e-05
0.000100202
0.000102284
0.000104163
0.000105945
0.00010772
0.000109018
0.000109731
0.000109902
0.000109844
)
;
    }
    Table_master
    {
        type            nutkWallFunction;
        Cmu             0.09;
        kappa           0.41;
        E               9.8;
        value           nonuniform List<scalar> 9(7.09598e-05 6.39663e-05 5.81385e-05 5.34576e-05 4.97451e-05 4.67877e-05 4.44298e-05 4.26188e-05 4.1468e-05);
    }
    Table_slave
    {
        type            nutkWallFunction;
        Cmu             0.09;
        kappa           0.41;
        E               9.8;
        value           nonuniform List<scalar> 9(6.93169e-05 6.70888e-05 6.68489e-05 6.71105e-05 6.70777e-05 6.62254e-05 6.44069e-05 6.23639e-05 5.96857e-05);
    }
    inlet
    {
        type            calculated;
        value           uniform 0.000100623;
    }
    outlet
    {
        type            calculated;
        value           nonuniform List<scalar> 2(0.00196148 0.00213788);
    }
}


// ************************************************************************* //
