/*--------------------------------*- C++ -*----------------------------------*=========                 |
  \      /  F ield         | OpenFOAM: The Open Source CFD Toolbox
   \    /   O peration     | Website:  https://openfoam.org
    \  /    A nd           | Version:  6
     \/     M anipulation  |
\*---------------------------------------------------------------------------*/
FoamFile
{
    version     2.0;
    format      ascii;
    class       volScalarField;
    location    "2300";
    object      PPD;
}
// * * * * * * * * * * * * * * * * * * * * * * * * * * * * * * * * * * * * * //

dimensions      [0 0 0 0 0 0 0];

internalField   nonuniform List<scalar> 
458
(
82.18082855435026
74.53658290024929
73.38012724827672
72.47991416872925
71.87646869455091
71.49988011632738
71.42552553872702
71.5493878309052
71.94772798249063
72.6636861136158
73.80884167072534
75.42777381231085
77.29912462654327
77.68214322429694
78.70875695409075
82.97444122823038
82.52998858082262
82.23013683782511
82.30536480050108
82.51133078655363
82.75301644968539
82.99282071258193
83.10906977138394
83.16246320312047
83.1028626033301
82.82700317744798
82.4365888657085
81.98443043573003
81.52596223426303
81.08073646724495
80.66926913980843
80.45186722665237
80.39235382901943
82.02219501639368
75.54704263220697
74.91758384231713
74.12873446909379
73.60614950786096
73.26996751347218
73.12524233193531
73.02806495121436
72.98432815912555
73.19256398152994
73.73757006920721
74.74820367041812
76.21519542820043
76.84835084625081
77.32048522933138
77.68214322429694
78.22983036517469
79.10039076250374
82.99282071258193
81.6986231725183
81.48747375596984
81.60280905400991
81.69069170282683
81.94730463009996
82.19481862042758
82.41517780207907
82.57100687346804
82.63726660647974
82.6218450688001
82.54414210762998
82.4049549788057
82.22676651381352
82.07494045321332
81.94646487508525
81.62199361877876
80.335144275843
83.90290917234756
76.0474198458782
76.37948287551954
76.0688856587243
75.93727119949781
75.82523451771308
75.71132089974229
75.27420383416447
74.56117439042822
73.8609101881224
73.52379169590114
73.7393334920309
74.59486890240902
75.9686167423806
76.69716606417919
77.1493326522001
77.70333021508357
78.08690374477223
80.09410166134371
79.85280241392255
79.67068410806154
79.89483153287536
80.26689423421726
80.73118180585169
81.51825505798074
82.13711422184757
82.47650208966027
82.65159826596782
82.70424070135579
82.68023966139683
82.59358281410724
82.35203872078927
82.15318238185996
82.17282695584198
81.85976738294038
80.97804044055232
86.52278734366666
76.71506619080539
77.63706197119237
78.09316026376072
78.76401443644802
79.27040293306631
79.19144357543843
77.94040063168552
75.9610453054952
74.06468261303121
72.77279898176425
72.39617871874354
72.945470045355
74.0950154898334
75.37145363710874
76.16111650744195
76.17527070884852
75.8330643804974
75.08226204470103
75.93134829991061
76.98865752450442
78.07195137968692
79.20293093780477
80.28355954193219
81.03614247912003
81.3244157024098
81.59354243767523
81.9348517701728
82.27596056668219
82.61899643883815
82.9741839512697
83.39437815020821
83.96285863892604
83.7558520510987
83.15312084525449
82.10810129787308
81.16908669018729
89.15945804060956
77.93118889889885
78.93086720287145
80.05056128644716
81.92794306123733
83.53898716322237
82.34413215114336
79.24588643350992
76.0277446221947
73.30512731790577
71.53538579926075
70.9546061372588
71.45010571804838
72.73073150324963
74.21315040170228
75.39785756491608
75.79561172116851
75.77266672250076
75.95150568755369
76.72687923120334
77.8692183266909
79.18723276833907
80.49858085605953
81.71452628602549
82.70872775241757
83.33652205438854
83.84556276685201
84.29377346804475
84.67061578944205
84.96230574221579
85.13019896624571
85.22741061844955
85.21873082058089
84.81786266336837
84.0031685480501
82.56354114817694
81.75173059997186
81.07495245899364
80.72067918006616
80.21361415418268
91.42924107363815
79.86527115245156
81.03946091768785
82.20888752067864
84.39166990546887
84.27977129462839
81.47963317795976
78.1195420109816
74.5552177014192
71.560778739766
69.74729741856575
69.39271057694158
70.29069487513402
72.01442596557558
74.02784903109793
75.75263035273628
76.79731208158155
77.31449271388318
78.02624329488441
79.04061121680544
80.32989548888133
81.68166572815092
82.97808460966075
83.91526042892677
84.61807842176114
85.23490466960084
85.75403953212317
86.18081639597952
86.55176303434352
86.82195581720165
86.97930766626041
86.80928082966987
86.47643222262559
85.87429398831613
84.98427332684048
83.71947159913456
82.87210343612108
82.97302694201642
82.29909575720808
81.00924662869915
93.3511322722802
83.33195497285219
85.72883802075748
85.20179589863828
84.5146223749146
82.4980620408686
79.16037239163869
75.07104261248219
71.13044371729816
68.33566447638978
67.20844401948784
67.8031792110504
69.7253040122531
72.41794983911302
75.29056928289077
77.77334029224302
79.16189355744457
80.15335328221941
81.10021254432486
82.04129660240777
82.95605056309375
83.8439749022206
84.63541411633102
85.33625296104913
85.93556160692307
86.43952201839123
86.85352017262443
87.1821077149129
87.42897811746353
87.59695296021384
87.6728339405316
87.62734069968474
87.47493077975561
87.10256177212679
86.16456517739411
85.07879770763964
84.22580502701504
83.86555729183549
82.47531245261456
81.92852897859461
95.54441707851407
91.37558337087654
90.12640537421639
87.75611110897607
84.49649178048408
79.58155860459567
73.73744994325621
68.36197287762357
64.71044421134769
63.41680252992203
64.39424699751356
67.09815038050094
70.80687157724326
75.00377064192394
78.22983036517469
79.93294465199389
81.25563440449028
82.23013683782511
83.1211637130067
83.9863640644786
84.79091790580897
85.50423902078167
86.11567209860061
86.63158349246766
87.05754287397214
87.39828412849994
87.65768130989342
87.85374630209597
87.95849470938597
87.98831673415697
87.95849470938597
87.88373335636291
87.74842033445336
87.52077744350021
87.21313128896016
86.86928473159932
86.55176303434352
86.28751421775551
83.50147735315166
80.77689818271534
97.72895640139767
96.23147137364995
93.83013472707178
86.55365729133696
74.63599056183595
63.25025450057859
56.0000352059538
53.31069051607365
54.408960500749544
58.34599423046498
64.06514828118111
70.22606970303592
75.64823815085684
78.75015296512213
81.15857636726017
82.56727091653903
83.4848264108975
84.25137921584589
84.97971113403823
85.67106351455294
86.31054371431487
86.71917080809845
87.01394884971481
87.25134867116716
87.43943610084766
87.55170419561637
87.60056757524629
87.56085746238494
87.45214533514022
87.2635926283676
86.9860446932469
86.65831220828332
86.27116243098808
85.85209565169826
85.38996382157862
84.84752792275815
84.29858326670276
83.85173936958395
83.41073178063556
82.5017211149051
91.49942028842032
43.23382656750384
8.091672522251244
7.848267615321205
22.19471298358914
39.99977991451226
56.4023897398511
66.49250471952956
73.83163135638196
77.99892510423251
80.08067570824745
81.42200357881042
82.5446268275262
83.40830487399148
84.1391800858596
84.77834546915719
85.38545071630018
85.9093666523771
86.33563579548665
86.66038522552552
86.88020271054648
87.01840271924178
87.07618972047601
87.0823341385479
87.01479421936224
86.91114219856834
86.75179935452239
86.56950370801232
86.35105947255067
86.12251863120224
85.9213356354008
85.74145188118258
85.58758750180695
85.4671693929325
85.4459687325843
85.72400192901296
86.59306627780607
85.54942938847834
60.145202771826156
5.304780261048634
16.0073442177584
35.87111467994198
50.65433951922198
60.855234876524015
68.10278957084155
73.30993667311498
77.09035359069813
79.61293932478105
81.32183741568537
82.56559402141698
83.50068993803775
84.22990669845797
84.8324380163153
85.34506231432802
85.781593502766
86.12423228220862
86.37876607491565
86.53641218499655
86.63545271715353
86.65999441385455
86.64070204862108
86.59191582918777
86.49763986925909
86.379546749838
86.26022037878482
86.15961943488273
86.10111051030965
86.10250478859825
86.17415905055701
86.35003221318178
86.62567543444786
87.0415778030086
87.57642096010872
88.19575057478514
86.31713338855468
87.05407934486362
9.085914443076717
7.203188096768727
8.315371541241362
39.02477816857471
55.32357995916651
63.35322724885156
68.75578655701989
72.94386791741577
76.11606799106906
78.53410599034704
80.34012298242098
81.64173854984365
82.5799367440062
83.26538360630147
83.77715808556864
84.16621075409994
84.45964704825153
84.68080828716066
84.831932684242
84.9166300627501
84.95869842271946
84.9624013468043
84.94805340446824
84.89584504657313
84.82249081398011
84.74610539493538
84.68836423385386
84.61797856089113
84.57768428631726
84.56128112953927
84.5848825268853
84.67955206849926
84.8041661438206
84.98428906280708
85.15933947851053
85.27481240423506
85.32429056734142
85.35436075278858
84.98687135597777
84.61248298246781
)
;

boundaryField
{
    ".*"
    {
        type            zeroGradient;
    }
}


// ************************************************************************* //
