/*--------------------------------*- C++ -*----------------------------------*=========                 |
  \      /  F ield         | OpenFOAM: The Open Source CFD Toolbox
   \    /   O peration     | Website:  https://openfoam.org
    \  /    A nd           | Version:  6
     \/     M anipulation  |
\*---------------------------------------------------------------------------*/
FoamFile
{
    version     2.0;
    format      ascii;
    class       volScalarField;
    location    "600";
    object      PPD;
}
// * * * * * * * * * * * * * * * * * * * * * * * * * * * * * * * * * * * * * //

dimensions      [0 0 0 0 0 0 0];

internalField   nonuniform List<scalar> 
458
(
78.91725884505006
71.24880953998627
71.51043636262565
70.90241668942828
70.3650838651968
69.93411567033742
69.59204519939361
69.39523819043251
69.27373403332594
69.32437680848813
69.54254071422487
69.97296037915527
70.75515675587361
71.4876114204611
70.77730730033669
59.13573704277461
58.95419016023096
58.642731158370054
56.533979546735566
54.65350128421599
53.97387468845205
53.947734041918416
54.156858714609
54.28755965571485
54.54895077185135
54.36597879993788
54.02615598178223
53.86931223186447
53.81703124056597
54.36597879993788
55.67253059850341
55.7769971001281
55.803111892272284
79.8231411620809
71.39442177147838
72.27492553667543
71.55600336317413
71.12311408850843
70.81673480666498
70.5744972744948
70.41665553381087
70.34547840624478
70.37215131487945
70.43467048930427
70.55619964266243
70.63275627503637
70.48032760065111
69.95763060482788
70.63280929932768
71.68696711681804
73.44062890504793
57.965347871830694
61.76715742241521
62.330630969414116
62.815895282685595
61.15064631192616
58.51287243501966
56.533979546735566
55.48968766843165
55.515810046984775
55.515810046984775
55.881451694228204
55.69864830203846
55.43744104942309
57.70674229506907
60.45499515766259
59.860826245323715
58.12301698524968
54.78982834573331
82.8733674355959
71.35404056267576
73.32653958547021
72.57543361321858
72.40855785376763
72.32019479734221
72.30387536440796
72.30133150962423
72.33587632811236
72.38766703283717
72.41327860995335
72.28848403064308
71.98597010340306
71.32154997478449
70.43888664260639
69.79428389786557
68.88564158610004
67.61353272595193
67.13825451708288
67.1629534125644
67.90127025793988
68.56121631331914
68.29288236411463
61.818449877222065
59.731481277194106
58.72062303338543
57.654679015731226
56.7165758147061
58.12301698524968
59.757355152069174
61.20209092614716
62.89239441370067
66.71752685987809
61.99786852209942
59.18758827013122
51.7342217756456
86.11020043685643
71.7837813381022
74.23009745236081
73.6192892422201
73.80494138076037
74.03859989068508
74.30604419469154
74.55649368232216
74.76451896494845
74.90912915496611
74.97877747783181
74.79924136287016
74.30477298672525
73.42043984686597
72.22939161082473
70.84594052308545
69.08222646604206
67.03838565809323
66.13009723220247
66.98331180010061
68.22838861273691
69.45884063511345
69.8827163849495
69.85008444931444
70.26625636750919
71.19240604372624
71.99999357919936
72.09340055801286
72.186685540196
72.32638297948316
72.48901207415197
72.58177201040152
72.5585937292655
71.3852125913599
69.33404869728346
67.03405707778687
66.94046306238954
89.02157754731897
72.80776321137398
74.92769149668187
74.53608865789772
75.0839230894175
75.66351114213553
76.25777381800046
76.83993548990044
77.33272633121328
77.6671588526141
77.82470921159702
77.68629106471708
77.15664316338435
76.29867291100389
75.17713728366539
73.86119194888893
72.39226925171891
71.09974659970584
70.47028691529897
70.42475882187766
70.83800650338378
71.23010716727885
71.32833551410297
71.3068285621196
71.50229084635022
71.9207870132132
72.49794206289907
72.6975459782891
72.79002368405753
72.95155523143876
73.08970046790165
73.22755716710782
73.25050509652414
73.08970046790165
72.53540764011842
69.10519991559536
66.21950333911312
64.4388410854694
64.21631240692962
66.02431531066523
91.32686592127264
74.42594995144937
75.88505849745889
75.33465048991414
76.1217112494744
77.03225175442051
77.99670418337294
78.95501697174191
79.81626199514955
80.47069315547807
80.7746450842547
80.57609507024881
79.98249109570604
79.10951083802394
78.0746731839879
76.93714007522954
75.75528132045832
74.7816516912321
74.1684571991036
73.87508955733125
73.76054980064833
73.59631193434224
73.3253279227777
73.02135980306106
72.87355623556856
72.85062813603469
72.9405443265735
73.12063523134927
73.22755716710782
73.38802274444579
73.54808994993743
73.7077557737401
73.77606037028033
73.77606037028033
73.63937690456142
73.29637671519596
71.97854198361541
69.91148868485428
67.83944070416428
65.88678380339665
92.92701250767699
77.75842225998716
79.37386433007757
76.90219378971864
77.13339848612453
78.26555119704199
79.58967083186721
81.06830254069757
81.88756535082139
82.58286902132072
83.11726440302598
82.89259120524996
82.04861450352941
81.17384803300128
80.30267217207484
79.42699965221996
78.6148779338522
77.97308253889183
77.5725245751537
77.33166950708043
76.96290624239691
76.18363520812004
75.45886350100156
74.83629081914225
74.31979535743979
73.91244580904437
73.63937690456142
73.52524771069577
73.35352670310135
73.07485682627072
72.79797766449342
72.4840473043524
72.16484403412441
71.87537307575296
71.67063535638496
71.63307871076044
71.64444958371391
71.75129130608316
69.9309151929028
64.38820186077652
95.21729574204758
87.80898376587275
86.72656213124108
82.55136968165658
80.87912983513073
80.8202389890847
81.34951235534295
81.89017040214986
82.28673426890956
82.19204420896928
82.143846241238
81.96683784029901
81.61793439226827
81.1592830530531
80.6767300456572
80.21004392781202
79.85412566773884
79.63735630809205
79.57579849702977
79.08287309332007
78.33873293725205
77.56057159564618
76.76922114259925
76.0307201690953
75.34819668850787
74.74679238091831
74.2746691349501
73.93514760947733
73.84429045991467
73.54154955449408
72.63098859902027
71.69717142977106
70.77072392918893
69.88572889115117
69.08913823408128
68.3768154849734
67.81254529595569
67.31397527798768
65.99287981943583
62.64592826029278
97.43971715319609
95.39070434491927
93.13139449432688
89.94882620885188
86.83022950674199
84.50189999777957
82.99410501532407
82.09697414187717
81.6372771766642
81.34990187690418
80.96400564731124
80.51432035013701
80.06842310454951
79.67012622317137
79.31379501114924
79.05404809216694
78.91972944351431
78.88603760012168
78.9264156711883
78.99376564143488
79.03283082314971
78.54673719654343
77.8987131385321
77.2199634721191
76.50979500687782
75.81149650694334
75.14843867585643
74.56738116051376
74.18431515233448
74.0485313547943
74.1617055525502
74.40994592599196
73.30689954390114
72.1182171711717
71.00724113060492
70.06323944869254
69.39305222419037
69.07029289956157
68.45244127221338
65.96926783944394
26.80842095100587
53.2927705147003
69.22906566813298
75.1567969956602
77.23745016307613
77.90466953919544
78.08376644126616
78.02374419557873
77.9208248880718
77.71615964151574
77.47970341532411
77.28289772060421
77.14777170645348
77.0928242141517
77.11021306205123
77.2078856979561
77.34121619957033
77.50555848330978
77.6165164030551
77.68964946508558
77.69007281122379
77.63744307116033
77.36928117364579
76.74765364052996
76.11815501613655
75.45886350100156
74.90332357492746
74.49996020919976
74.252093318775
74.22950904395194
74.36488764366088
74.56738116051376
74.74679238091831
74.83629081914225
74.83629081914225
74.63472492232246
70.8871909844648
67.30896744859116
24.52297743934568
53.92111112837204
65.60751353143087
70.7652668132456
72.89943733226939
73.70459093971651
73.98303522392365
74.03609565917294
74.09238263493651
74.16336726418169
74.25848351389908
74.41347775535964
74.61332406032011
74.86413063370593
75.12037614234973
75.40280505920425
75.65820356550644
75.8604302865123
75.99474445492753
76.04168801123859
76.04325463038568
75.98593985607071
75.88500678866771
75.76408892048323
75.59380643569513
75.3996029148028
75.1979969417373
74.92578904723021
74.54357469354235
73.99041710314302
73.33962417252692
72.7345191242724
72.23269931227368
71.84372482058271
71.41429025407976
71.13653972941547
69.1340646018304
67.59724331712555
36.47794640209601
34.331159299191754
36.077715990539
57.23217843080787
68.24268635429901
71.98132805747692
71.86882949533944
71.51356943677138
71.32058558350145
71.23805617325537
71.31759658506581
71.55817285597078
71.88960409722746
72.280153482017
72.69899354770271
73.13366816984588
73.51132806873963
73.79862791271015
73.8966815835832
73.81144915195519
73.57447418004713
73.25209503883711
72.93731543166086
72.65463035828932
72.43691375329684
72.31638830834098
72.21352790287435
72.10838137139984
71.98803624599859
71.81922771308464
71.56794104889806
71.16724608969045
70.65266544527371
70.03323927419326
69.46051329110757
69.0465297915625
68.87066810144935
69.18351937861527
68.55520672998911
67.70418438163759
)
;

boundaryField
{
    ".*"
    {
        type            zeroGradient;
    }
}


// ************************************************************************* //
