// -*- C++ -*-
// File generated by PyFoam - sorry for the ugliness

FoamFile
{
 version 2.0;
 format ascii;
 class volScalarField;
 location "600";
 object T;
}

dimensions [ 0 0 0 1 0 0 0 ];

internalField nonuniform List<scalar> 458
(
  303.952
  303.651
  303.644
  303.647
  303.649
  303.651
  303.652
  303.654
  303.654
  303.655
  303.655
  303.652
  303.648
  303.642
  303.634
  302.986
  302.979
  302.967
  302.886
  302.814
  302.788
  302.787
  302.795
  302.8
  302.81
  302.803
  302.79
  302.784
  302.782
  302.803
  302.853
  302.857
  302.858
  304.166
  303.69
  303.666
  303.673
  303.68
  303.687
  303.692
  303.696
  303.699
  303.701
  303.699
  303.693
  303.68
  303.661
  303.634
  303.61
  303.585
  303.567
  303.067
  303.088
  303.11
  303.129
  303.064
  302.962
  302.886
  302.846
  302.847
  302.847
  302.861
  302.854
  302.844
  302.931
  303.037
  303.014
  302.947
  302.884
  304.369
  303.742
  303.695
  303.706
  303.721
  303.735
  303.748
  303.758
  303.766
  303.771
  303.771
  303.762
  303.745
  303.716
  303.677
  303.634
  303.589
  303.555
  303.301
  303.302
  303.332
  303.359
  303.348
  303.09
  303.009
  302.97
  302.929
  302.893
  302.947
  303.01
  303.066
  303.132
  303.284
  303.097
  302.988
  302.919
  304.557
  303.805
  303.724
  303.738
  303.761
  303.784
  303.806
  303.825
  303.84
  303.85
  303.854
  303.847
  303.828
  303.795
  303.749
  303.693
  303.627
  303.553
  303.492
  303.447
  303.468
  303.487
  303.495
  303.499
  303.502
  303.502
  303.503
  303.507
  303.511
  303.517
  303.524
  303.528
  303.527
  303.5
  303.423
  303.322
  303.293
  304.731
  303.879
  303.755
  303.764
  303.793
  303.823
  303.853
  303.882
  303.907
  303.925
  303.934
  303.932
  303.915
  303.885
  303.843
  303.792
  303.735
  303.678
  303.628
  303.591
  303.572
  303.561
  303.551
  303.542
  303.535
  303.531
  303.531
  303.533
  303.537
  303.544
  303.55
  303.556
  303.557
  303.55
  303.526
  303.469
  303.409
  303.416
  303.419
  303.435
  304.882
  303.966
  303.8
  303.785
  303.814
  303.847
  303.882
  303.917
  303.95
  303.978
  303.996
  304
  303.988
  303.961
  303.923
  303.877
  303.825
  303.773
  303.724
  303.682
  303.649
  303.622
  303.6
  303.581
  303.567
  303.557
  303.552
  303.552
  303.556
  303.563
  303.57
  303.577
  303.58
  303.58
  303.574
  303.559
  303.539
  303.521
  303.486
  303.462
  304.998
  304.107
  303.919
  303.841
  303.841
  303.866
  303.898
  303.932
  303.967
  304.004
  304.033
  304.045
  304.037
  304.013
  303.98
  303.94
  303.896
  303.85
  303.805
  303.763
  303.724
  303.688
  303.655
  303.627
  303.604
  303.586
  303.574
  303.569
  303.571
  303.577
  303.586
  303.594
  303.6
  303.603
  303.602
  303.599
  303.594
  303.583
  303.511
  303.482
  305.201
  304.505
  304.297
  304.113
  304.003
  303.961
  303.959
  303.976
  304.002
  304.04
  304.065
  304.071
  304.06
  304.037
  304.007
  303.972
  303.936
  303.899
  303.862
  303.825
  303.789
  303.752
  303.715
  303.681
  303.65
  303.623
  303.602
  303.587
  303.583
  303.587
  303.597
  303.608
  303.617
  303.623
  303.627
  303.628
  303.626
  303.621
  303.613
  303.619
  305.478
  305.185
  304.973
  304.735
  304.528
  304.376
  304.275
  304.213
  304.18
  304.156
  304.128
  304.097
  304.065
  304.033
  304
  303.968
  303.938
  303.909
  303.881
  303.854
  303.827
  303.799
  303.768
  303.736
  303.703
  303.671
  303.641
  303.615
  303.598
  303.592
  303.597
  303.608
  303.624
  303.64
  303.655
  303.669
  303.681
  303.693
  303.705
  303.746
  301.93
  303.167
  303.742
  303.954
  304.029
  304.052
  304.056
  304.049
  304.037
  304.018
  303.995
  303.971
  303.947
  303.924
  303.902
  303.882
  303.863
  303.846
  303.828
  303.81
  303.79
  303.768
  303.743
  303.714
  303.685
  303.655
  303.63
  303.612
  303.601
  303.6
  303.606
  303.615
  303.623
  303.627
  303.627
  303.618
  303.611
  303.624
  302.019
  303.115
  303.509
  303.709
  303.809
  303.856
  303.876
  303.881
  303.881
  303.877
  303.87
  303.862
  303.853
  303.844
  303.834
  303.825
  303.816
  303.807
  303.798
  303.788
  303.778
  303.766
  303.751
  303.733
  303.711
  303.687
  303.663
  303.639
  303.62
  303.608
  303.603
  303.603
  303.604
  303.604
  303.601
  303.597
  303.592
  303.614
  302.651
  302.606
  302.605
  303.222
  303.491
  303.64
  303.697
  303.727
  303.743
  303.749
  303.752
  303.755
  303.757
  303.758
  303.758
  303.758
  303.757
  303.756
  303.753
  303.749
  303.744
  303.738
  303.732
  303.725
  303.717
  303.709
  303.699
  303.687
  303.673
  303.657
  303.641
  303.626
  303.615
  303.606
  303.6
  303.596
  303.591
  303.586
  303.582
  303.61
)
;

boundaryField
{
  floor
  {
    type wallHeatTransfer;
    Tinf uniform 305.2;
    alphaWall uniform 0.24;
    value nonuniform List<scalar> 36
(
  303.824
  303.506
  303.459
  303.449
  303.462
  303.489
  303.521
  303.543
  303.566
  303.602
  303.618
  303.618
  303.604
  303.552
  303.514
  303.448
  303.363
  303.348
  303.388
  303.388
  303.314
  303.311
  303.515
  303.585
  303.596
  303.624
  303.824
  303.793
  303.777
  303.815
  303.506
  303.815
  303.47
  303.74
  303.551
  303.68
)
;
  }
  ceiling
  {
    type wallHeatTransfer;
    Tinf uniform 303.2;
    alphaWall uniform 0.24;
    value nonuniform List<scalar> 43
(
  302.689
  302.646
  302.643
  303.221
  303.473
  303.61
  303.661
  303.687
  303.699
  303.703
  303.704
  303.704
  303.703
  303.702
  303.7
  303.697
  303.694
  303.689
  303.683
  303.677
  303.671
  303.664
  303.657
  303.651
  303.645
  303.639
  303.631
  303.622
  303.612
  303.6
  303.588
  303.577
  303.569
  303.563
  303.56
  303.556
  303.551
  303.546
  303.542
  303.565
  305.372
  305.106
  302.093
)
;
  }
  sWall
  {
    type wallHeatTransfer;
    Tinf uniform 315.2;
    alphaWall uniform 0.36;
    value uniform 303.928;
  }
  nWall
  {
    type wallHeatTransfer;
    Tinf uniform 307.2;
    alphaWall uniform 0.36;
    value nonuniform List<scalar> 6
(
  304.011
  303.977
  303.985
  304.037
  304.067
  304.172
)
;
  }
  sideWalls
  {
    type empty;
  }
  glass1
  {
    type wallHeatTransfer;
    Tinf uniform 315.2;
    alphaWall uniform 4.3;
    value nonuniform List<scalar> 9
(
  312.48
  311.609
  311.047
  310.623
  310.299
  310.042
  309.821
  309.858
  310.055
)
;
  }
  glass2
  {
    type wallHeatTransfer;
    Tinf uniform 307.2;
    alphaWall uniform 4.3;
    value nonuniform List<scalar> 2
(
  305.952
  305.872
)
;
  }
  sun
  {
    type wallHeatTransfer;
    Tinf uniform 305.2;
    alphaWall uniform 0.24;
    value nonuniform List<scalar> 14
(
  304.135
  303.872
  303.873
  303.87
  303.866
  303.863
  303.86
  303.857
  303.855
  303.852
  303.849
  303.844
  303.839
  303.832
)
;
  }
  Table_master
  {
    type zeroGradient;
  }
  Table_slave
  {
    type zeroGradient;
  }
  inlet
  {
    type fixedValue;
    value uniform 296.15;
  }
  outlet
  {
    type zeroGradient;
  }
} 	// ************************************************************************* //

