/*--------------------------------*- C++ -*----------------------------------*\
  =========                 |
  \\      /  F ield         | OpenFOAM: The Open Source CFD Toolbox
   \\    /   O peration     | Website:  https://openfoam.org
    \\  /    A nd           | Version:  6
     \\/     M anipulation  |
\*---------------------------------------------------------------------------*/
FoamFile
{
    version     2.0;
    format      ascii;
    class       volScalarField;
    location    "1700";
    object      epsilon;
}
// * * * * * * * * * * * * * * * * * * * * * * * * * * * * * * * * * * * * * //

dimensions      [0 2 -3 0 0 0 0];

internalField   nonuniform List<scalar> 
458
(
0.000516363
0.000230728
0.000115387
8.13666e-05
7.23223e-05
7.05866e-05
6.82208e-05
6.47259e-05
6.12066e-05
5.8059e-05
5.55205e-05
5.45169e-05
5.93558e-05
8.94594e-05
0.000202214
0.000112145
0.000121193
3.72532e-05
1.47946e-05
7.30962e-06
5.29312e-06
5.1142e-06
5.73638e-06
6.77644e-06
8.36146e-06
1.09685e-05
1.54603e-05
2.08736e-05
2.23674e-05
3.07825e-05
4.96178e-05
0.000117506
9.2583e-05
0.00170784
0.00149704
0.000623755
0.000150351
8.98513e-05
7.43847e-05
6.5727e-05
6.20483e-05
6.239e-05
6.56063e-05
7.14011e-05
8.21098e-05
0.000110547
0.0002162
0.000729677
0.000502242
0.000599681
0.000438238
0.000320835
0.00050221
0.000123998
3.17436e-05
1.50454e-05
1.46968e-05
1.63736e-05
2.12475e-05
2.7507e-05
3.60867e-05
4.77718e-05
6.31367e-05
8.2214e-05
0.00011646
0.000159911
0.000275584
0.000749546
0.000376341
0.00460291
0.00563812
0.00195307
0.000419947
0.000187119
0.000127221
0.000100728
9.54793e-05
0.000103032
0.000118932
0.000142264
0.00017582
0.0002294
0.000330024
0.000540094
0.000901001
0.0013493
0.000835762
0.000619759
0.000640746
0.000188413
0.000104732
8.05345e-05
2.59898e-05
3.4138e-05
4.85354e-05
6.8185e-05
9.63851e-05
0.000138926
0.000206694
0.000322306
0.000543234
0.000522425
0.000833266
0.00197602
0.000998287
0.0102648
0.015496
0.00550117
0.001363
0.000435163
0.000226179
0.000153389
0.00014459
0.000162985
0.000194766
0.000235473
0.000285008
0.000349093
0.000438336
0.000565643
0.000729374
0.000972891
0.00145671
0.000687151
0.000370439
0.000290253
0.000234984
0.000251576
0.000300077
0.000389271
0.00041564
0.000446137
0.000478534
0.00052057
0.000582542
0.000680855
0.000846324
0.00114595
0.000847839
0.00120785
0.00196598
0.00210466
0.0191896
0.034495
0.0126728
0.00476987
0.00130809
0.000449792
0.000238766
0.000205458
0.000217583
0.000238779
0.00026276
0.000290684
0.000322504
0.000356923
0.000389728
0.000414633
0.000431945
0.000426517
0.000368597
0.00030579
0.000291877
0.000290397
0.000302769
0.00032112
0.000341519
0.000359996
0.000378905
0.000400525
0.000429431
0.00047238
0.00053974
0.000648452
0.000826931
0.0011199
0.00166588
0.00261969
0.00427709
0.00616737
0.00698417
0.00722768
0.0301104
0.0662991
0.0251805
0.0107016
0.00412506
0.00102445
0.000401159
0.000300642
0.000294339
0.000312386
0.000340243
0.000374231
0.000412749
0.000454195
0.000496284
0.00053574
0.000567672
0.000586592
0.000582719
0.000565998
0.000556475
0.00055518
0.00056213
0.000574535
0.00058783
0.000598841
0.000609865
0.000622109
0.000638691
0.000664781
0.000708472
0.000783556
0.000916327
0.00116074
0.00163045
0.00256157
0.00449314
0.00845814
0.01479
0.0146315
0.0399556
0.0942706
0.0397024
0.0178817
0.00711813
0.00173523
0.000637058
0.000473404
0.000479549
0.000527041
0.000590217
0.000661976
0.000739187
0.000821056
0.000907884
0.000997978
0.0010835
0.00114772
0.00117864
0.00117953
0.00116356
0.00114158
0.00111996
0.00110274
0.00109025
0.001081
0.00107334
0.00106655
0.00106186
0.00106254
0.00107407
0.00110561
0.00117328
0.00130739
0.00157139
0.0021348
0.00362368
0.00922053
0.0284804
0.0260652
0.057551
0.121747
0.0652685
0.0239175
0.00693542
0.00201321
0.00100179
0.000934789
0.00104729
0.00119745
0.00135549
0.00151276
0.00165693
0.00178884
0.00191935
0.00205512
0.00216409
0.0022349
0.00227019
0.00226705
0.00223309
0.00218089
0.00212182
0.00206495
0.00201456
0.00197108
0.00193283
0.0018981
0.00186672
0.00184047
0.00182345
0.00182324
0.00185322
0.00193921
0.00213447
0.00259645
0.00399443
0.0102884
0.046784
0.0446701
0.10383
0.258209
0.357753
0.0537121
0.00888238
0.00328054
0.00262625
0.0028609
0.00323188
0.00356082
0.00383192
0.00408975
0.00425212
0.00432762
0.00434565
0.00432002
0.00430003
0.00428451
0.00426069
0.00421576
0.00414582
0.00405552
0.00395363
0.00384971
0.0037507
0.0036602
0.00357901
0.00350682
0.00344369
0.00339114
0.0033531
0.00333754
0.00335885
0.00344218
0.00363693
0.00408059
0.0053612
0.0110739
0.0451147
0.0453924
0.899299
0.386132
0.03889
0.0149343
0.0126197
0.0122266
0.012161
0.0118945
0.0114714
0.0108937
0.0103014
0.00976601
0.0093076
0.00894369
0.00867072
0.00847397
0.00832952
0.00821033
0.0080935
0.00796578
0.00782377
0.00767159
0.00751687
0.0073674
0.00722936
0.00710694
0.00700316
0.00692105
0.00686526
0.00684422
0.00687308
0.00697796
0.00720415
0.00764988
0.00870355
0.0126116
0.0220811
0.0181849
0.444577
0.242914
0.1113
0.0672807
0.0477888
0.0374599
0.0310315
0.0266093
0.0233889
0.0210078
0.0192489
0.0179744
0.0170892
0.0165224
0.0162091
0.0160828
0.016073
0.0161121
0.0161465
0.0161436
0.0160926
0.0159996
0.0158803
0.0157523
0.0156318
0.0155308
0.0154582
0.0154215
0.0154289
0.0154935
0.0156379
0.0158976
0.0163186
0.0169628
0.0180944
0.0228455
0.0200829
0.0106025
0.00685294
0.0115455
0.0610651
0.0609476
0.0534952
0.0455582
0.0385572
0.0326855
0.0278514
0.0239052
0.0206979
0.0181024
0.0160152
0.014353
0.0130492
0.01205
0.0113101
0.0107883
0.0104439
0.0102359
0.0101228
0.0100666
0.0100352
0.0100053
0.00996261
0.00990054
0.00981806
0.00971717
0.00960088
0.00947199
0.0093327
0.009185
0.00903192
0.00887927
0.00873716
0.0086248
0.008609
0.00912491
0.00876799
0.0069852
)
;

boundaryField
{
    floor
    {
        Cmu             0.09;
        kappa           0.41;
        E               9.8;
        type            epsilonWallFunction;
        value           nonuniform List<scalar> 
36
(
0.000202214
0.000112145
0.000121193
3.72532e-05
1.47946e-05
7.30962e-06
5.29312e-06
5.1142e-06
5.73638e-06
6.77644e-06
8.36146e-06
1.09685e-05
1.54603e-05
2.08736e-05
2.23674e-05
3.07825e-05
4.96178e-05
0.000117506
9.2583e-05
9.2583e-05
0.000376341
0.000998287
0.00210466
0.00616737
0.00698417
0.00722768
0.000202214
0.000502242
0.000599681
0.000438238
0.000112145
0.000438238
0.000320835
0.000835762
0.000619759
0.000687151
)
;
    }
    ceiling
    {
        Cmu             0.09;
        kappa           0.41;
        E               9.8;
        type            epsilonWallFunction;
        value           nonuniform List<scalar> 
43
(
0.00685294
0.0115455
0.0610651
0.0609476
0.0534952
0.0455582
0.0385572
0.0326855
0.0278514
0.0239052
0.0206979
0.0181024
0.0160152
0.014353
0.0130492
0.01205
0.0113101
0.0107883
0.0104439
0.0102359
0.0101228
0.0100666
0.0100352
0.0100053
0.00996261
0.00990054
0.00981806
0.00971717
0.00960088
0.00947199
0.0093327
0.009185
0.00903192
0.00887927
0.00873716
0.0086248
0.008609
0.00912491
0.00876799
0.0069852
0.10383
0.258209
0.444577
)
;
    }
    sWall
    {
        Cmu             0.09;
        kappa           0.41;
        E               9.8;
        type            epsilonWallFunction;
        value           uniform 0.00685294;
    }
    nWall
    {
        Cmu             0.09;
        kappa           0.41;
        E               9.8;
        type            epsilonWallFunction;
        value           nonuniform List<scalar> 6(0.00722768 0.0146315 0.0260652 0.0181849 0.0106025 0.0069852);
    }
    sideWalls
    {
        type            empty;
    }
    glass1
    {
        Cmu             0.09;
        kappa           0.41;
        E               9.8;
        type            epsilonWallFunction;
        value           nonuniform List<scalar> 9(0.000516363 0.00170784 0.00460291 0.0102648 0.0191896 0.0301104 0.0399556 0.057551 0.10383);
    }
    glass2
    {
        Cmu             0.09;
        kappa           0.41;
        E               9.8;
        type            epsilonWallFunction;
        value           nonuniform List<scalar> 2(0.0446701 0.0453924);
    }
    sun
    {
        Cmu             0.09;
        kappa           0.41;
        E               9.8;
        type            epsilonWallFunction;
        value           nonuniform List<scalar> 
14
(
0.000516363
0.000230728
0.000115387
8.13666e-05
7.23223e-05
7.05866e-05
6.82208e-05
6.47259e-05
6.12066e-05
5.8059e-05
5.55205e-05
5.45169e-05
5.93558e-05
8.94594e-05
)
;
    }
    Table_master
    {
        Cmu             0.09;
        kappa           0.41;
        E               9.8;
        type            epsilonWallFunction;
        value           nonuniform List<scalar> 9(2.59898e-05 3.4138e-05 4.85354e-05 6.8185e-05 9.63851e-05 0.000138926 0.000206694 0.000322306 0.000543234);
    }
    Table_slave
    {
        Cmu             0.09;
        kappa           0.41;
        E               9.8;
        type            epsilonWallFunction;
        value           nonuniform List<scalar> 9(0.000389271 0.00041564 0.000446137 0.000478534 0.00052057 0.000582542 0.000680855 0.000846324 0.00114595);
    }
    inlet
    {
        type            turbulentMixingLengthDissipationRateInlet;
        mixingLength    0.01;
        phi             phi;
        k               k;
        value           uniform 0.899299;
    }
    outlet
    {
        type            zeroGradient;
    }
}


// ************************************************************************* //
