/*--------------------------------*- C++ -*----------------------------------*\
  =========                 |
  \\      /  F ield         | OpenFOAM: The Open Source CFD Toolbox
   \\    /   O peration     | Website:  https://openfoam.org
    \\  /    A nd           | Version:  6
     \\/     M anipulation  |
\*---------------------------------------------------------------------------*/
FoamFile
{
    version     2.0;
    format      ascii;
    class       volScalarField;
    location    "400";
    object      T;
}
// * * * * * * * * * * * * * * * * * * * * * * * * * * * * * * * * * * * * * //

dimensions      [0 0 0 1 0 0 0];

internalField   nonuniform List<scalar> 
458
(
303.947
303.65
303.645
303.649
303.652
303.655
303.657
303.658
303.659
303.659
303.658
303.654
303.647
303.637
303.624
302.106
302.101
302.103
302.046
302.015
301.996
301.993
301.988
301.996
302.008
301.992
301.962
301.943
301.943
301.961
301.984
301.968
301.955
304.166
303.699
303.68
303.691
303.701
303.711
303.719
303.725
303.729
303.73
303.728
303.718
303.699
303.668
303.626
303.585
303.546
303.499
302.275
302.318
302.367
302.414
302.38
302.267
302.143
302.113
302.144
302.147
302.085
302.077
302.066
302.093
302.216
302.224
302.104
301.993
304.374
303.759
303.719
303.738
303.76
303.78
303.798
303.814
303.826
303.832
303.833
303.822
303.797
303.755
303.696
303.626
303.552
303.491
302.833
302.789
302.815
302.897
302.948
302.652
302.547
302.492
302.43
302.334
302.189
302.238
302.348
302.46
302.58
302.423
302.344
302.291
304.567
303.829
303.756
303.78
303.811
303.843
303.873
303.9
303.923
303.938
303.945
303.939
303.916
303.873
303.809
303.724
303.617
303.49
303.376
303.281
303.311
303.374
303.432
303.481
303.518
303.52
303.521
303.523
303.526
303.529
303.531
303.53
303.524
303.453
303.299
303.155
303.119
304.743
303.909
303.793
303.81
303.848
303.888
303.927
303.965
303.998
304.024
304.039
304.042
304.028
303.996
303.945
303.877
303.795
303.71
303.635
303.581
303.56
303.557
303.558
303.558
303.555
303.551
303.55
303.55
303.552
303.555
303.556
303.554
303.547
303.528
303.475
303.391
303.307
303.312
303.313
303.33
304.893
304.003
303.847
303.834
303.869
303.91
303.953
303.995
304.035
304.07
304.097
304.111
304.108
304.087
304.05
303.996
303.929
303.855
303.784
303.723
303.679
303.647
303.623
303.604
303.588
303.577
303.57
303.568
303.569
303.572
303.572
303.569
303.561
303.547
303.524
303.482
303.436
303.413
303.384
303.361
305.011
304.154
303.987
303.91
303.902
303.928
303.964
304.001
304.039
304.084
304.126
304.15
304.154
304.142
304.116
304.079
304.029
303.97
303.906
303.843
303.784
303.733
303.691
303.657
303.628
303.605
303.59
303.583
303.582
303.584
303.583
303.58
303.571
303.558
303.539
303.514
303.482
303.453
303.419
303.386
305.214
304.554
304.379
304.22
304.109
304.055
304.043
304.054
304.079
304.125
304.161
304.178
304.179
304.167
304.147
304.12
304.087
304.046
303.998
303.944
303.887
303.827
303.773
303.724
303.68
303.641
303.613
303.597
303.592
303.593
303.594
303.592
303.586
303.575
303.559
303.537
303.513
303.494
303.488
303.521
305.492
305.212
305.03
304.828
304.636
304.487
304.385
304.322
304.29
304.268
304.245
304.223
304.2
304.177
304.153
304.128
304.102
304.074
304.042
304.004
303.961
303.912
303.86
303.806
303.751
303.694
303.647
303.616
303.603
303.602
303.607
303.612
303.618
303.623
303.629
303.636
303.643
303.651
303.659
303.693
302.101
303.419
303.968
304.15
304.207
304.22
304.218
304.21
304.199
304.182
304.164
304.145
304.125
304.106
304.086
304.066
304.044
304.019
303.99
303.956
303.916
303.871
303.82
303.764
303.706
303.655
303.621
303.605
303.602
303.605
303.61
303.615
303.62
303.625
303.628
303.629
303.62
303.642
302.374
303.388
303.775
303.962
304.049
304.087
304.101
304.103
304.1
304.095
304.087
304.078
304.068
304.057
304.045
304.031
304.017
304.001
303.982
303.959
303.931
303.897
303.857
303.811
303.76
303.707
303.661
303.629
303.611
303.603
303.602
303.604
303.607
303.611
303.613
303.61
303.607
303.632
303.098
303.041
303.041
303.562
303.779
303.938
303.985
304.007
304.016
304.018
304.017
304.015
304.012
304.008
304.003
303.996
303.988
303.978
303.967
303.953
303.938
303.921
303.903
303.881
303.856
303.827
303.794
303.756
303.716
303.677
303.643
303.618
303.603
303.595
303.592
303.592
303.591
303.59
303.591
303.622
)
;

boundaryField
{
    floor
    {
        type            wallHeatTransfer;
        Tinf            uniform 305.2;
        alphaWall       uniform 0.24;
        value           nonuniform List<scalar> 
36
(
303.818
302.858
302.818
302.813
302.857
302.889
302.915
302.934
302.975
302.988
302.977
302.931
302.876
302.824
302.762
302.725
302.684
302.651
302.687
302.687
302.591
302.758
303.368
303.51
303.519
303.548
303.818
303.775
303.745
303.765
302.858
303.765
302.836
303.685
303.147
303.578
)
;
    }
    ceiling
    {
        type            wallHeatTransfer;
        Tinf            uniform 303.2;
        alphaWall       uniform 0.24;
        value           nonuniform List<scalar> 
43
(
303.106
303.052
303.051
303.539
303.742
303.888
303.93
303.947
303.952
303.95
303.945
303.939
303.933
303.926
303.917
303.908
303.897
303.885
303.872
303.858
303.844
303.83
303.814
303.796
303.774
303.749
303.72
303.687
303.652
303.618
303.59
303.571
303.56
303.555
303.555
303.556
303.556
303.554
303.553
303.578
305.386
305.132
302.424
)
;
    }
    sWall
    {
        type            wallHeatTransfer;
        Tinf            uniform 315.2;
        alphaWall       uniform 0.36;
        value           uniform 304.374;
    }
    nWall
    {
        type            wallHeatTransfer;
        Tinf            uniform 307.2;
        alphaWall       uniform 0.36;
        value           nonuniform List<scalar> 6(303.97 303.922 303.902 304.061 304.072 304.152);
    }
    sideWalls
    {
        type            empty;
    }
    glass1
    {
        type            wallHeatTransfer;
        Tinf            uniform 315.2;
        alphaWall       uniform 4.3;
        value           nonuniform List<scalar> 9(312.504 311.649 311.079 310.639 310.301 310.029 309.804 309.846 310.049);
    }
    glass2
    {
        type            wallHeatTransfer;
        Tinf            uniform 307.2;
        alphaWall       uniform 4.3;
        value           nonuniform List<scalar> 2(305.912 305.899);
    }
    sun
    {
        type            wallHeatTransfer;
        Tinf            uniform 305.2;
        alphaWall       uniform 0.24;
        value           nonuniform List<scalar> 
14
(
304.132
303.874
303.876
303.874
303.871
303.869
303.866
303.864
303.862
303.859
303.855
303.849
303.841
303.831
)
;
    }
    Table_master
    {
        type            zeroGradient;
    }
    Table_slave
    {
        type            zeroGradient;
    }
    inlet
    {
        type            fixedValue;
        value           uniform 299.15;
    }
    outlet
    {
        type            zeroGradient;
    }
}


// ************************************************************************* //
