/*--------------------------------*- C++ -*----------------------------------*\
  =========                 |
  \\      /  F ield         | OpenFOAM: The Open Source CFD Toolbox
   \\    /   O peration     | Website:  https://openfoam.org
    \\  /    A nd           | Version:  6
     \\/     M anipulation  |
\*---------------------------------------------------------------------------*/
FoamFile
{
    version     2.0;
    format      ascii;
    class       volScalarField;
    location    "100";
    object      epsilon;
}
// * * * * * * * * * * * * * * * * * * * * * * * * * * * * * * * * * * * * * //

dimensions      [0 2 -3 0 0 0 0];

internalField   nonuniform List<scalar> 
458
(
0.000117243
0.000125163
0.00010075
0.00011221
0.00012451
0.000136419
0.00014789
0.000159149
0.000170618
0.00018302
0.000194115
0.000202578
0.000207979
0.000210923
0.000211035
4.37715e-05
8.53997e-05
8.605e-05
6.90251e-05
5.22504e-05
3.87013e-05
2.89092e-05
2.19945e-05
1.72277e-05
1.39544e-05
1.17009e-05
1.01189e-05
8.99233e-06
8.19425e-06
9.54181e-06
1.79602e-05
1.98411e-05
1.33808e-05
0.000579257
0.00139139
0.000125706
9.0258e-05
9.22447e-05
9.63926e-05
0.000101433
0.00010806
0.000117027
0.000129005
0.000142904
0.000157569
0.000171262
0.000181979
0.000195849
0.000249646
0.000209933
0.000102686
7.77146e-05
0.000143068
9.59633e-05
7.13659e-05
5.57672e-05
3.04719e-05
2.2249e-05
1.68387e-05
1.33683e-05
1.09988e-05
9.31941e-06
8.03874e-06
7.1045e-06
8.06524e-06
2.48318e-05
6.39565e-05
8.40026e-05
4.09158e-05
0.00146169
0.00460206
0.000281289
0.000101669
9.46757e-05
9.8474e-05
0.000104525
0.000112749
0.00012331
0.000136139
0.000150298
0.000163564
0.000174111
0.000181019
0.00018662
0.00019736
0.000211683
0.000240507
0.000234512
0.000208014
0.000110714
8.54082e-05
7.46182e-05
2.5268e-05
1.43382e-05
1.18434e-05
9.73483e-06
7.88726e-06
6.62812e-06
5.70715e-06
5.2467e-06
1.12964e-05
0.000103825
0.000182271
0.000201814
5.90509e-05
0.0028851
0.0102164
0.000656589
0.000128213
0.000104154
0.000109318
0.000118261
0.000129603
0.000143232
0.000159
0.000176284
0.000190874
0.000200645
0.000205229
0.000205743
0.00020536
0.000210525
0.000232103
0.000273804
0.000160333
9.15918e-05
7.37621e-05
7.96449e-05
9.91093e-05
0.000135365
0.000146177
0.000163927
0.000189645
0.000229364
0.000259143
0.000279037
0.000288341
0.000277883
0.000216551
0.000206676
0.000296084
0.000273475
0.00487394
0.0178664
0.00143144
0.000176396
0.000115045
0.000121862
0.000136605
0.000155433
0.000177888
0.000203356
0.000230322
0.000251206
0.000263743
0.000268633
0.000266216
0.000256208
0.000238607
0.0002115
0.000164997
9.87577e-05
6.76604e-05
5.91374e-05
6.12328e-05
6.80373e-05
7.69431e-05
8.79677e-05
0.000104931
0.000129246
0.000164143
0.000200357
0.000224802
0.00024224
0.000239791
0.000211452
0.000184455
0.000195424
0.000226919
0.00032043
0.000279221
0.000228533
0.00743886
0.0251721
0.00290834
0.000298563
0.000138722
0.000139817
0.000160463
0.000189364
0.000225279
0.000267866
0.000310089
0.000335987
0.000347126
0.000349244
0.000345472
0.000335265
0.000313392
0.000270364
0.000205907
0.000139537
9.39053e-05
7.25293e-05
6.5168e-05
6.38815e-05
6.64634e-05
7.42172e-05
8.91987e-05
0.000113317
0.000149541
0.00019905
0.000249213
0.000299049
0.000331388
0.000328574
0.000268514
0.000221746
0.000203588
0.000217666
0.000428429
0.000374838
0.0106771
0.0286047
0.00613814
0.000998238
0.000327405
0.000234357
0.00024183
0.000275917
0.000324359
0.000391884
0.000440244
0.000452736
0.000444525
0.000428413
0.000410627
0.000392274
0.000367732
0.000324966
0.000260419
0.00019036
0.000134648
0.00010066
8.26618e-05
7.32596e-05
6.97699e-05
7.31065e-05
8.42583e-05
0.000106741
0.000147812
0.000210136
0.000284411
0.000373032
0.000455634
0.000522054
0.000518949
0.000438987
0.000408854
0.000418547
0.000853309
0.000647627
0.0117345
0.0385288
0.0162799
0.00693392
0.00266971
0.00117573
0.000795906
0.000702023
0.000688013
0.000703161
0.000668916
0.000615188
0.000558884
0.000507165
0.000462274
0.000424102
0.000389074
0.000347514
0.000290465
0.000227656
0.000172542
0.000132581
0.000107283
9.24646e-05
8.5684e-05
8.64425e-05
9.1991e-05
0.00010773
0.00015343
0.000238959
0.00034745
0.000470096
0.000609793
0.000783139
0.00102151
0.00127656
0.00160635
0.00185779
0.00458438
0.00118512
0.0109383
0.0195811
0.014917
0.010455
0.00683665
0.00432222
0.0027886
0.0019197
0.00144231
0.00113449
0.000920983
0.000767202
0.000651808
0.000562007
0.000490034
0.000430879
0.000380364
0.000333461
0.00028561
0.000237082
0.000192384
0.000155782
0.000129193
0.000112882
0.000107066
0.000111696
0.000113457
0.000110843
0.000152497
0.00026195
0.000410946
0.00056007
0.000712064
0.000881048
0.00106971
0.00128259
0.00152352
0.0017815
0.00205416
0.00112134
0.00572696
0.00645245
0.00531807
0.00389966
0.00279089
0.00203446
0.00153468
0.00119651
0.000958523
0.000785559
0.000655716
0.000554944
0.000474113
0.000407345
0.000350838
0.000301901
0.000258534
0.000219821
0.000186112
0.000158426
0.00013801
0.000126767
0.000128056
0.000143921
0.0001516
0.000114134
0.000130129
0.000240645
0.000408337
0.000561303
0.000691214
0.000827719
0.000972171
0.00109983
0.00116235
0.00114883
0.00105903
0.000625205
0.00388471
0.00590335
0.00476969
0.003554
0.00262961
0.00197212
0.00151105
0.00118293
0.000944104
0.000767122
0.000632279
0.000526434
0.000440916
0.000370197
0.000310938
0.000261224
0.000219933
0.000186305
0.000159736
0.000139775
0.000126316
0.000119951
0.000121435
0.00012691
0.000120151
9.34906e-05
9.11089e-05
0.000187666
0.000298689
0.000382183
0.000501358
0.000672002
0.000901219
0.00113168
0.00127484
0.00133311
0.000813834
0.000650805
0.00282773
0.00319601
0.00356714
0.00431698
0.00355627
0.00273195
0.00220711
0.0018146
0.00151032
0.00126773
0.00107307
0.000916337
0.000784949
0.000672042
0.000573734
0.000487815
0.000413009
0.000348511
0.000293673
0.000247799
0.000210067
0.000179577
0.00015549
0.000137226
0.000124522
0.000116458
0.000109174
9.90701e-05
9.22384e-05
0.00013871
0.000222098
0.000276415
0.00034911
0.000474051
0.000639088
0.000861409
0.000989168
0.00092855
0.00071351
0.000547272
)
;

boundaryField
{
    floor
    {
        Cmu             0.09;
        kappa           0.41;
        E               9.8;
        type            epsilonWallFunction;
        value           nonuniform List<scalar> 
36
(
0.000211035
4.37715e-05
8.53997e-05
8.605e-05
6.90251e-05
5.22504e-05
3.87013e-05
2.89092e-05
2.19945e-05
1.72277e-05
1.39544e-05
1.17009e-05
1.01189e-05
8.99233e-06
8.19425e-06
9.54181e-06
1.79602e-05
1.98411e-05
1.33808e-05
1.33808e-05
4.09158e-05
5.90509e-05
0.000273475
0.00032043
0.000279221
0.000228533
0.000211035
0.000249646
0.000209933
0.000102686
4.37715e-05
0.000102686
7.77146e-05
0.000240507
0.000234512
0.000273804
)
;
    }
    ceiling
    {
        Cmu             0.09;
        kappa           0.41;
        E               9.8;
        type            epsilonWallFunction;
        value           nonuniform List<scalar> 
43
(
0.00282773
0.00319601
0.00356714
0.00431698
0.00355627
0.00273195
0.00220711
0.0018146
0.00151032
0.00126773
0.00107307
0.000916337
0.000784949
0.000672042
0.000573734
0.000487815
0.000413009
0.000348511
0.000293673
0.000247799
0.000210067
0.000179577
0.00015549
0.000137226
0.000124522
0.000116458
0.000109174
9.90701e-05
9.22384e-05
0.00013871
0.000222098
0.000276415
0.00034911
0.000474051
0.000639088
0.000861409
0.000989168
0.00092855
0.00071351
0.000547272
0.0109383
0.0195811
0.00388471
)
;
    }
    sWall
    {
        Cmu             0.09;
        kappa           0.41;
        E               9.8;
        type            epsilonWallFunction;
        value           uniform 0.00282773;
    }
    nWall
    {
        Cmu             0.09;
        kappa           0.41;
        E               9.8;
        type            epsilonWallFunction;
        value           nonuniform List<scalar> 6(0.000228533 0.000374838 0.000647627 0.000625205 0.000650805 0.000547272);
    }
    sideWalls
    {
        type            empty;
    }
    glass1
    {
        Cmu             0.09;
        kappa           0.41;
        E               9.8;
        type            epsilonWallFunction;
        value           nonuniform List<scalar> 9(0.000117243 0.000579257 0.00146169 0.0028851 0.00487394 0.00743886 0.0106771 0.0117345 0.0109383);
    }
    glass2
    {
        Cmu             0.09;
        kappa           0.41;
        E               9.8;
        type            epsilonWallFunction;
        value           nonuniform List<scalar> 2(0.00118512 0.00112134);
    }
    sun
    {
        Cmu             0.09;
        kappa           0.41;
        E               9.8;
        type            epsilonWallFunction;
        value           nonuniform List<scalar> 
14
(
0.000117243
0.000125163
0.00010075
0.00011221
0.00012451
0.000136419
0.00014789
0.000159149
0.000170618
0.00018302
0.000194115
0.000202578
0.000207979
0.000210923
)
;
    }
    Table_master
    {
        Cmu             0.09;
        kappa           0.41;
        E               9.8;
        type            epsilonWallFunction;
        value           nonuniform List<scalar> 9(2.5268e-05 1.43382e-05 1.18434e-05 9.73483e-06 7.88726e-06 6.62812e-06 5.70715e-06 5.2467e-06 1.12964e-05);
    }
    Table_slave
    {
        Cmu             0.09;
        kappa           0.41;
        E               9.8;
        type            epsilonWallFunction;
        value           nonuniform List<scalar> 9(0.000135365 0.000146177 0.000163927 0.000189645 0.000229364 0.000259143 0.000279037 0.000288341 0.000277883);
    }
    inlet
    {
        type            turbulentMixingLengthDissipationRateInlet;
        mixingLength    0.01;
        phi             phi;
        k               k;
        value           uniform 0.000101881;
    }
    outlet
    {
        type            zeroGradient;
    }
}


// ************************************************************************* //
