/*--------------------------------*- C++ -*----------------------------------*\
  =========                 |
  \\      /  F ield         | OpenFOAM: The Open Source CFD Toolbox
   \\    /   O peration     | Website:  https://openfoam.org
    \\  /    A nd           | Version:  6
     \\/     M anipulation  |
\*---------------------------------------------------------------------------*/
FoamFile
{
    version     2.0;
    format      ascii;
    class       volScalarField;
    location    "100";
    object      T;
}
// * * * * * * * * * * * * * * * * * * * * * * * * * * * * * * * * * * * * * //

dimensions      [0 0 0 1 0 0 0];

internalField   nonuniform List<scalar> 
458
(
302.937
302.593
302.586
302.591
302.595
302.598
302.6
302.602
302.603
302.604
302.604
302.602
302.599
302.594
302.589
302.325
302.321
302.349
302.361
302.357
302.348
302.333
302.313
302.289
302.263
302.237
302.214
302.193
302.177
302.159
302.148
302.147
302.169
303.174
302.63
302.601
302.608
302.616
302.623
302.629
302.634
302.637
302.64
302.639
302.634
302.624
302.607
302.585
302.566
302.545
302.547
302.335
302.331
302.356
302.374
302.354
302.317
302.274
302.24
302.208
302.176
302.148
302.123
302.104
302.094
302.112
302.123
302.119
302.155
303.396
302.685
302.627
302.638
302.653
302.667
302.679
302.69
302.698
302.702
302.703
302.695
302.679
302.654
302.619
302.581
302.545
302.522
302.396
302.394
302.402
302.397
302.369
302.246
302.179
302.15
302.123
302.096
302.076
302.062
302.053
302.066
302.195
302.168
302.169
302.17
303.6
302.753
302.656
302.669
302.692
302.714
302.735
302.754
302.769
302.779
302.783
302.777
302.759
302.728
302.685
302.633
302.573
302.513
302.469
302.442
302.455
302.462
302.457
302.448
302.44
302.433
302.427
302.42
302.408
302.4
302.396
302.392
302.387
302.373
302.343
302.306
302.287
303.789
302.832
302.688
302.695
302.724
302.754
302.785
302.813
302.838
302.857
302.867
302.867
302.854
302.827
302.788
302.739
302.684
302.63
302.586
302.556
302.543
302.531
302.519
302.504
302.491
302.478
302.466
302.451
302.433
302.42
302.416
302.413
302.408
302.398
302.379
302.351
302.319
302.315
302.31
302.336
303.952
302.924
302.733
302.716
302.746
302.781
302.817
302.853
302.887
302.916
302.936
302.944
302.938
302.917
302.885
302.843
302.793
302.743
302.697
302.66
302.632
302.609
302.586
302.564
302.544
302.524
302.503
302.479
302.453
302.435
302.431
302.431
302.426
302.416
302.398
302.375
302.349
302.334
302.32
302.339
304.076
303.073
302.852
302.766
302.77
302.8
302.835
302.872
302.91
302.95
302.982
302.999
302.999
302.986
302.962
302.928
302.888
302.844
302.8
302.761
302.726
302.694
302.663
302.633
302.604
302.575
302.544
302.509
302.472
302.446
302.444
302.447
302.445
302.435
302.415
302.389
302.365
302.347
302.332
302.345
304.298
303.511
303.264
303.045
302.921
302.883
302.892
302.916
302.947
302.992
303.024
303.039
303.039
303.029
303.011
302.986
302.955
302.92
302.881
302.845
302.81
302.776
302.742
302.707
302.671
302.633
302.592
302.546
302.495
302.456
302.455
302.46
302.462
302.457
302.441
302.407
302.387
302.374
302.369
302.504
304.602
304.273
304.039
303.761
303.522
303.35
303.238
303.172
303.139
303.119
303.102
303.086
303.07
303.052
303.033
303.011
302.987
302.961
302.932
302.903
302.872
302.842
302.81
302.777
302.741
302.699
302.649
302.595
302.53
302.466
302.463
302.473
302.482
302.489
302.496
302.505
302.518
302.543
302.572
302.646
301.601
302.579
302.978
303.101
303.128
303.127
303.119
303.109
303.096
303.081
303.064
303.046
303.027
303.008
302.989
302.969
302.948
302.926
302.903
302.879
302.853
302.825
302.794
302.758
302.719
302.665
302.588
302.477
302.464
302.477
302.492
302.504
302.514
302.525
302.537
302.553
302.567
302.574
301.663
302.538
302.819
302.944
302.997
303.017
303.023
303.021
303.016
303.01
303.001
302.992
302.982
302.971
302.959
302.947
302.934
302.919
302.904
302.887
302.868
302.848
302.825
302.799
302.772
302.745
302.683
302.502
302.459
302.467
302.479
302.492
302.504
302.516
302.527
302.538
302.53
302.556
302.143
302.106
302.106
302.599
302.801
302.885
302.916
302.93
302.936
302.937
302.936
302.934
302.932
302.929
302.926
302.922
302.916
302.91
302.903
302.895
302.886
302.877
302.866
302.855
302.842
302.829
302.815
302.799
302.759
302.572
302.464
302.467
302.474
302.481
302.49
302.501
302.51
302.514
302.511
302.544
)
;

boundaryField
{
    floor
    {
        type            wallHeatTransfer;
        Tinf            uniform 305.2;
        alphaWall       uniform 0.24;
        value           nonuniform List<scalar> 
36
(
302.92
302.851
302.774
302.797
302.83
302.857
302.885
302.908
302.926
302.94
302.948
302.954
302.957
302.958
302.961
302.924
302.824
302.81
302.882
302.882
302.72
302.688
302.634
302.645
302.652
302.692
302.92
302.887
302.882
302.947
302.851
302.947
302.796
302.851
302.742
302.794
)
;
    }
    ceiling
    {
        type            wallHeatTransfer;
        Tinf            uniform 303.2;
        alphaWall       uniform 0.24;
        value           nonuniform List<scalar> 
43
(
302.212
302.175
302.173
302.634
302.826
302.906
302.936
302.95
302.956
302.958
302.958
302.958
302.957
302.955
302.953
302.95
302.947
302.943
302.938
302.932
302.926
302.919
302.912
302.903
302.894
302.883
302.872
302.86
302.827
302.66
302.556
302.554
302.555
302.556
302.558
302.564
302.569
302.574
302.576
302.609
304.539
304.231
301.754
)
;
    }
    sWall
    {
        type            wallHeatTransfer;
        Tinf            uniform 315.2;
        alphaWall       uniform 0.36;
        value           uniform 303.379;
    }
    nWall
    {
        type            wallHeatTransfer;
        Tinf            uniform 307.2;
        alphaWall       uniform 0.36;
        value           nonuniform List<scalar> 6(303.191 303.1 303.012 303.215 303.193 303.21);
    }
    sideWalls
    {
        type            empty;
    }
    glass1
    {
        type            wallHeatTransfer;
        Tinf            uniform 315.2;
        alphaWall       uniform 4.3;
        value           nonuniform List<scalar> 9(312.24 311.2 310.552 310.079 309.73 309.462 309.232 309.277 309.498);
    }
    glass2
    {
        type            wallHeatTransfer;
        Tinf            uniform 307.2;
        alphaWall       uniform 4.3;
        value           nonuniform List<scalar> 2(305.402 305.473);
    }
    sun
    {
        type            wallHeatTransfer;
        Tinf            uniform 305.2;
        alphaWall       uniform 0.24;
        value           nonuniform List<scalar> 
14
(
303.267
302.968
302.982
302.976
302.97
302.964
302.959
302.955
302.95
302.945
302.94
302.935
302.93
302.925
)
;
    }
    Table_master
    {
        type            zeroGradient;
    }
    Table_slave
    {
        type            zeroGradient;
    }
    inlet
    {
        type            fixedValue;
        value           uniform 299.15;
    }
    outlet
    {
        type            zeroGradient;
    }
}


// ************************************************************************* //
