/*--------------------------------*- C++ -*----------------------------------*\
  =========                 |
  \\      /  F ield         | OpenFOAM: The Open Source CFD Toolbox
   \\    /   O peration     | Website:  https://openfoam.org
    \\  /    A nd           | Version:  6
     \\/     M anipulation  |
\*---------------------------------------------------------------------------*/
FoamFile
{
    version     2.0;
    format      ascii;
    class       volVectorField;
    location    "1600";
    object      U;
}
// * * * * * * * * * * * * * * * * * * * * * * * * * * * * * * * * * * * * * //

dimensions      [0 1 -1 0 0 0 0];

internalField   nonuniform List<vector> 
458
(
(0.104714 0.0650146 0)
(-0.133264 -0.000464496 0)
(-0.109693 0.00422844 0)
(-0.121847 0.00600158 0)
(-0.134556 0.00554819 0)
(-0.14635 0.00409963 0)
(-0.156028 0.00199801 0)
(-0.162716 -0.000679401 0)
(-0.165637 -0.00395649 0)
(-0.163964 -0.00793348 0)
(-0.156185 -0.0129347 0)
(-0.140057 -0.0193546 0)
(-0.1146 -0.0285089 0)
(-0.0883424 -0.043157 0)
(-0.0906392 -0.0634315 0)
(0.024155 0.0104412 0)
(-0.030195 -0.00734599 0)
(-0.0203776 -0.0091 0)
(-0.0133153 -0.00459413 0)
(-0.0108555 0.0021836 0)
(-0.0191141 0.00389845 0)
(-0.0248755 0.00204744 0)
(-0.0271318 0.000617852 0)
(-0.0277014 -0.00106111 0)
(-0.0254058 -0.00307795 0)
(-0.0196132 -0.00527876 0)
(-0.0121856 -0.00666046 0)
(-0.00704751 -0.00532652 0)
(-0.00342176 -0.00364227 0)
(0.00443696 -0.00913963 0)
(0.0149216 -0.0201473 0)
(0.032219 -0.0141139 0)
(-0.0128379 0.00924287 0)
(0.305542 0.143298 0)
(-0.160356 0.0138866 0)
(-0.104214 0.017531 0)
(-0.123083 0.0200913 0)
(-0.137534 0.019659 0)
(-0.150379 0.0174159 0)
(-0.160961 0.0138417 0)
(-0.168712 0.00905554 0)
(-0.173002 0.00303125 0)
(-0.173115 -0.00433831 0)
(-0.168395 -0.012985 0)
(-0.158062 -0.022911 0)
(-0.142751 -0.0349475 0)
(-0.126656 -0.0504188 0)
(-0.111788 -0.0639115 0)
(-0.0798307 -0.0508754 0)
(-0.0294203 -0.0485586 0)
(-0.0226834 0.0542767 0)
(0.109365 0.0122574 0)
(0.0295054 0.00743524 0)
(-0.000289104 0.00169251 0)
(-0.00753688 0.00255671 0)
(-0.00713103 0.0100899 0)
(-0.011094 0.00891924 0)
(-0.0142384 0.00457423 0)
(-0.0142741 0.00271414 0)
(-0.0145255 0.00074478 0)
(-0.0140137 -0.00272506 0)
(-0.0118716 -0.00708831 0)
(-0.0113259 -0.00852534 0)
(-0.014828 -0.00357911 0)
(-0.0142917 -0.00199774 0)
(-0.00476691 -0.0152701 0)
(0.000799671 -0.0227542 0)
(0.0160189 -0.010555 0)
(-0.0841419 0.0342867 0)
(0.472057 0.22009 0)
(-0.206742 0.0408319 0)
(-0.0889108 0.036652 0)
(-0.116154 0.0351092 0)
(-0.131227 0.0326227 0)
(-0.144404 0.0280996 0)
(-0.155397 0.0216895 0)
(-0.163898 0.0134818 0)
(-0.169447 0.00353078 0)
(-0.171437 -0.00800605 0)
(-0.169533 -0.0209699 0)
(-0.164158 -0.0351849 0)
(-0.156643 -0.0505436 0)
(-0.149187 -0.0662485 0)
(-0.140649 -0.0778845 0)
(-0.126322 -0.0800617 0)
(-0.1177 -0.0834732 0)
(-0.14402 -0.0740863 0)
(0.0234516 0.0312613 0)
(-0.0522744 0.0157585 0)
(-0.0512325 0.0096119 0)
(-0.0466197 0.00224113 0)
(-0.0360666 -0.00112198 0)
(-0.00283377 0.00769518 0)
(-0.00509763 -0.00122123 0)
(-0.00319815 -0.00418369 0)
(-0.00239062 -0.00637436 0)
(-0.00382139 -0.00935268 0)
(-0.00869504 -0.0123373 0)
(-0.0202387 -0.011477 0)
(-0.0324183 -0.00815805 0)
(-0.0316955 -0.0104263 0)
(-0.0144388 -0.0187001 0)
(-0.0216581 -0.00877017 0)
(-0.0528244 0.00492882 0)
(-0.14066 0.0186875 0)
(0.606701 0.284557 0)
(-0.253203 0.0735988 0)
(-0.0675784 0.0576822 0)
(-0.103817 0.0510717 0)
(-0.118129 0.0465512 0)
(-0.130175 0.0402174 0)
(-0.140325 0.0318217 0)
(-0.148409 0.0212874 0)
(-0.154118 0.00858913 0)
(-0.156942 -0.00604694 0)
(-0.156515 -0.021928 0)
(-0.154299 -0.0381788 0)
(-0.151944 -0.0539219 0)
(-0.151148 -0.0677007 0)
(-0.15184 -0.0767796 0)
(-0.154099 -0.0794635 0)
(-0.164136 -0.074883 0)
(-0.184352 -0.047683 0)
(-0.179472 0.0192598 0)
(-0.131364 0.024292 0)
(-0.127068 0.0106549 0)
(-0.116208 -0.000367877 0)
(-0.112335 -0.00928653 0)
(-0.109681 -0.0146695 0)
(-0.102992 -0.012985 0)
(-0.0898935 -0.0128802 0)
(-0.0764649 -0.0137723 0)
(-0.0626296 -0.0144336 0)
(-0.0488316 -0.0147888 0)
(-0.0355388 -0.0148835 0)
(-0.0226791 -0.0147981 0)
(-0.00885452 -0.0146281 0)
(0.00647073 -0.0161768 0)
(0.00651452 -0.0203089 0)
(0.0131544 -0.0100894 0)
(0.0271457 -0.00271131 0)
(-0.0600956 0.00649617 0)
(0.71443 0.338173 0)
(-0.293531 0.108625 0)
(-0.0444551 0.0767631 0)
(-0.0877778 0.0653791 0)
(-0.100295 0.0585699 0)
(-0.109549 0.0503066 0)
(-0.117095 0.0400529 0)
(-0.122921 0.0275102 0)
(-0.126864 0.0125206 0)
(-0.128355 -0.0046235 0)
(-0.127094 -0.0225343 0)
(-0.125194 -0.0393598 0)
(-0.12431 -0.0539826 0)
(-0.125697 -0.0654627 0)
(-0.12953 -0.0728002 0)
(-0.135973 -0.0758896 0)
(-0.14566 -0.0740245 0)
(-0.154612 -0.0611359 0)
(-0.154553 -0.0314029 0)
(-0.142338 -0.00666425 0)
(-0.12656 -0.000729015 0)
(-0.114438 -0.00533309 0)
(-0.107747 -0.0110802 0)
(-0.103331 -0.0151303 0)
(-0.0980959 -0.0162281 0)
(-0.0910957 -0.0176154 0)
(-0.0834358 -0.018682 0)
(-0.0756228 -0.0191409 0)
(-0.0680124 -0.018921 0)
(-0.0608753 -0.0182501 0)
(-0.0541732 -0.0176189 0)
(-0.047509 -0.0176617 0)
(-0.040703 -0.019047 0)
(-0.0333103 -0.0228233 0)
(-0.020367 -0.0240975 0)
(0.0104186 -0.0237098 0)
(0.0435857 -0.0164519 0)
(0.0964154 0.00158763 0)
(0.138601 0.0550661 0)
(-0.00651044 0.131782 0)
(0.787229 0.386475 0)
(-0.32754 0.141384 0)
(-0.0262526 0.0892161 0)
(-0.0682834 0.0772846 0)
(-0.0787989 0.0676837 0)
(-0.0841517 0.0570831 0)
(-0.0874368 0.0450598 0)
(-0.0891817 0.0309186 0)
(-0.0894563 0.0141577 0)
(-0.0871464 -0.00507566 0)
(-0.0833416 -0.0244493 0)
(-0.0804025 -0.0407855 0)
(-0.0796464 -0.0532959 0)
(-0.0817425 -0.0618968 0)
(-0.0865998 -0.0664651 0)
(-0.0939001 -0.0668506 0)
(-0.102737 -0.0620034 0)
(-0.109621 -0.0499119 0)
(-0.11036 -0.0326457 0)
(-0.104507 -0.0182818 0)
(-0.0961854 -0.0125164 0)
(-0.0897755 -0.0129786 0)
(-0.0864068 -0.015836 0)
(-0.0849002 -0.0187088 0)
(-0.0837907 -0.0206532 0)
(-0.0824714 -0.022307 0)
(-0.0811461 -0.0234061 0)
(-0.080089 -0.023596 0)
(-0.0795626 -0.022827 0)
(-0.0797551 -0.0214943 0)
(-0.0806304 -0.0204361 0)
(-0.0819027 -0.0207849 0)
(-0.0830572 -0.0237671 0)
(-0.0827376 -0.0302437 0)
(-0.0773306 -0.0401615 0)
(-0.0626408 -0.0551213 0)
(-0.0408836 -0.0753067 0)
(-0.0157604 -0.0904459 0)
(0.0832588 -0.0182167 0)
(-0.0705881 0.135361 0)
(0.806954 0.430781 0)
(-0.346178 0.148367 0)
(-0.0105964 0.0761303 0)
(-0.0347351 0.0870105 0)
(-0.0482721 0.0751615 0)
(-0.0511217 0.0591672 0)
(-0.0492388 0.0445758 0)
(-0.0455088 0.0290404 0)
(-0.0404267 0.0106755 0)
(-0.0309374 -0.0104927 0)
(-0.024595 -0.029576 0)
(-0.021495 -0.0435343 0)
(-0.0217599 -0.0528101 0)
(-0.0252571 -0.0582751 0)
(-0.0314988 -0.0604708 0)
(-0.0397477 -0.0594905 0)
(-0.0486831 -0.0545911 0)
(-0.0558193 -0.045002 0)
(-0.0588155 -0.0328512 0)
(-0.0576187 -0.0225156 0)
(-0.0547469 -0.0169151 0)
(-0.0527798 -0.0154148 0)
(-0.0527502 -0.0161544 0)
(-0.0544213 -0.0176747 0)
(-0.057205 -0.0192034 0)
(-0.0607782 -0.0204922 0)
(-0.06514 -0.0210833 0)
(-0.0704117 -0.0205612 0)
(-0.0768473 -0.0188818 0)
(-0.0847707 -0.016597 0)
(-0.0943736 -0.0148317 0)
(-0.105713 -0.0149539 0)
(-0.118303 -0.0183094 0)
(-0.131243 -0.0262826 0)
(-0.143128 -0.0403735 0)
(-0.151998 -0.0617504 0)
(-0.155418 -0.0865639 0)
(-0.147311 -0.0939524 0)
(-0.127558 -0.0293781 0)
(-0.154548 0.215023 0)
(0.907836 0.457736 0)
(-0.164518 0.1286 0)
(0.0538533 0.027366 0)
(0.0693978 0.0509638 0)
(0.0318583 0.0545249 0)
(0.0155065 0.0370038 0)
(0.0177358 0.0216509 0)
(0.024457 0.00772555 0)
(0.0346428 -0.00932879 0)
(0.0476272 -0.0247966 0)
(0.051803 -0.0367818 0)
(0.0511796 -0.0452552 0)
(0.0472472 -0.0504602 0)
(0.0407357 -0.0528194 0)
(0.0322111 -0.0527479 0)
(0.022268 -0.0505335 0)
(0.0118905 -0.0460459 0)
(0.00280648 -0.0389421 0)
(-0.00325892 -0.0301661 0)
(-0.00588221 -0.0225293 0)
(-0.00691187 -0.0174194 0)
(-0.00802131 -0.0148379 0)
(-0.0101598 -0.0139916 0)
(-0.0135643 -0.0140478 0)
(-0.0181682 -0.0143982 0)
(-0.0239063 -0.0145821 0)
(-0.0307407 -0.0140264 0)
(-0.0386157 -0.0121903 0)
(-0.0476144 -0.00883873 0)
(-0.0579695 -0.00428123 0)
(-0.0698502 0.000691317 0)
(-0.0857809 0.00411273 0)
(-0.107492 0.00302945 0)
(-0.135757 -0.00554462 0)
(-0.169498 -0.0228022 0)
(-0.204306 -0.0463896 0)
(-0.241454 -0.0733607 0)
(-0.2756 -0.0949243 0)
(-0.341138 -0.0971792 0)
(-0.598282 -0.0566432 0)
(1.04207 0.432296 0)
(0.501561 0.289062 0)
(0.470019 0.23925 0)
(0.403107 0.192576 0)
(0.312888 0.150601 0)
(0.248313 0.104615 0)
(0.212763 0.0643578 0)
(0.193109 0.0332504 0)
(0.179996 0.00855441 0)
(0.164267 -0.0116542 0)
(0.149768 -0.0262346 0)
(0.136373 -0.0355826 0)
(0.123564 -0.0406694 0)
(0.110988 -0.0424537 0)
(0.0985183 -0.0416939 0)
(0.0861841 -0.038982 0)
(0.0742555 -0.0347802 0)
(0.0634511 -0.0294939 0)
(0.0547395 -0.0237688 0)
(0.0485137 -0.0185473 0)
(0.0440576 -0.0145284 0)
(0.0403814 -0.0118618 0)
(0.0367317 -0.0102707 0)
(0.0326995 -0.00933443 0)
(0.0281231 -0.00867566 0)
(0.0229701 -0.00794991 0)
(0.0173277 -0.00674383 0)
(0.0115018 -0.00460655 0)
(0.00601384 -0.00114626 0)
(0.00201097 0.00397897 0)
(-0.00225625 0.0104874 0)
(-0.00591154 0.0174111 0)
(-0.00937542 0.0226247 0)
(-0.0129052 0.0233285 0)
(-0.0161351 0.0168691 0)
(-0.0281498 0.00146877 0)
(-0.0376112 -0.0181431 0)
(-0.0253537 -0.0515112 0)
(-0.0211839 -0.139034 0)
(-0.499837 -0.254175 0)
(-0.278403 0.203657 0)
(0.13904 0.197532 0)
(0.208464 0.153942 0)
(0.213518 0.109457 0)
(0.220462 0.0718047 0)
(0.225093 0.0421104 0)
(0.224279 0.0196489 0)
(0.218263 0.00311845 0)
(0.208199 -0.00923614 0)
(0.195914 -0.0179042 0)
(0.182354 -0.0233125 0)
(0.168283 -0.0258979 0)
(0.154346 -0.0261066 0)
(0.141033 -0.0243991 0)
(0.128695 -0.0212654 0)
(0.117631 -0.0172403 0)
(0.108127 -0.0129251 0)
(0.100314 -0.00893589 0)
(0.0939754 -0.00569403 0)
(0.088686 -0.00334543 0)
(0.0840169 -0.00179413 0)
(0.0796273 -0.000793006 0)
(0.0753269 -8.86164e-05 0)
(0.0710741 0.000570494 0)
(0.0669629 0.00142337 0)
(0.0633391 0.0026851 0)
(0.0605897 0.00467194 0)
(0.0586177 0.007804 0)
(0.0581859 0.012044 0)
(0.0597803 0.0163831 0)
(0.0631305 0.0189126 0)
(0.0673301 0.0173429 0)
(0.071417 0.0102883 0)
(0.0734543 -0.00236898 0)
(0.0733699 -0.0171029 0)
(0.0789229 -0.0329159 0)
(0.134044 -0.0838856 0)
(-0.149008 -0.192305 0)
(-0.199727 0.194202 0)
(0.114938 0.154289 0)
(0.131411 0.105739 0)
(0.163441 0.0737307 0)
(0.195631 0.0470034 0)
(0.217054 0.0243019 0)
(0.227128 0.00616499 0)
(0.229048 -0.00773033 0)
(0.225182 -0.0175155 0)
(0.217333 -0.0239772 0)
(0.206916 -0.0279587 0)
(0.195116 -0.0300737 0)
(0.182952 -0.0308246 0)
(0.171253 -0.0306485 0)
(0.160627 -0.0299463 0)
(0.151438 -0.0290886 0)
(0.143793 -0.0283828 0)
(0.137553 -0.0280019 0)
(0.132399 -0.0279232 0)
(0.127957 -0.0279753 0)
(0.123919 -0.0279196 0)
(0.120157 -0.0273224 0)
(0.116623 -0.0261612 0)
(0.113381 -0.0244114 0)
(0.110586 -0.0220588 0)
(0.108375 -0.018997 0)
(0.107023 -0.0150919 0)
(0.107047 -0.0104037 0)
(0.108978 -0.00533455 0)
(0.113064 -0.000737582 0)
(0.118901 0.00209255 0)
(0.125257 0.00170268 0)
(0.130394 -0.00292841 0)
(0.131966 -0.0116756 0)
(0.127403 -0.0237281 0)
(0.115444 -0.0400041 0)
(0.143509 -0.0729863 0)
(-0.19541 -0.130373 0)
(0.118416 -0.199727 0)
(-0.257395 -0.052138 0)
(-0.195497 0.161931 0)
(0.0221432 0.099668 0)
(0.0618838 0.0714637 0)
(0.116846 0.0603411 0)
(0.163904 0.0510007 0)
(0.19529 0.0438433 0)
(0.21195 0.0395895 0)
(0.217742 0.0381308 0)
(0.216423 0.0381856 0)
(0.210624 0.0390415 0)
(0.202076 0.04068 0)
(0.192064 0.0431283 0)
(0.181644 0.0463859 0)
(0.171683 0.050396 0)
(0.162836 0.0550192 0)
(0.15553 0.0600106 0)
(0.149945 0.0650229 0)
(0.146021 0.0696563 0)
(0.14351 0.073545 0)
(0.142083 0.0764168 0)
(0.141438 0.0780953 0)
(0.141325 0.0782002 0)
(0.141662 0.076878 0)
(0.142413 0.0742542 0)
(0.143616 0.0704424 0)
(0.145393 0.0655384 0)
(0.147996 0.0597419 0)
(0.151766 0.0534017 0)
(0.157013 0.0469292 0)
(0.163799 0.0406793 0)
(0.171625 0.0347901 0)
(0.17916 0.0291182 0)
(0.184433 0.0233649 0)
(0.184329 0.0166759 0)
(0.175744 0.00815329 0)
(0.155759 -0.00277031 0)
(0.167077 -0.0210392 0)
(-0.218206 -0.057173 0)
)
;

boundaryField
{
    floor
    {
        type            noSlip;
    }
    ceiling
    {
        type            noSlip;
    }
    sWall
    {
        type            noSlip;
    }
    nWall
    {
        type            noSlip;
    }
    sideWalls
    {
        type            empty;
    }
    glass1
    {
        type            noSlip;
    }
    glass2
    {
        type            noSlip;
    }
    sun
    {
        type            noSlip;
    }
    Table_master
    {
        type            noSlip;
    }
    Table_slave
    {
        type            noSlip;
    }
    inlet
    {
        type            fixedValue;
        value           uniform (0.1 0 0);
    }
    outlet
    {
        type            zeroGradient;
    }
}


// ************************************************************************* //
