/*--------------------------------*- C++ -*----------------------------------*\
  =========                 |
  \\      /  F ield         | OpenFOAM: The Open Source CFD Toolbox
   \\    /   O peration     | Website:  https://openfoam.org
    \\  /    A nd           | Version:  6
     \\/     M anipulation  |
\*---------------------------------------------------------------------------*/
FoamFile
{
    version     2.0;
    format      ascii;
    class       volScalarField;
    location    "1900";
    object      epsilon;
}
// * * * * * * * * * * * * * * * * * * * * * * * * * * * * * * * * * * * * * //

dimensions      [0 2 -3 0 0 0 0];

internalField   nonuniform List<scalar> 
458
(
0.000117617
0.000126385
6.70106e-05
6.40547e-05
6.74821e-05
7.1859e-05
7.6849e-05
8.23149e-05
8.82136e-05
9.44593e-05
0.000100865
0.000107182
0.000113346
0.000119686
0.000125391
1.14249e-05
9.93575e-06
9.44922e-06
1.00873e-05
1.03169e-05
1.02178e-05
1.04936e-05
1.09877e-05
1.14643e-05
1.13834e-05
1.10212e-05
1.04227e-05
9.60541e-06
8.66644e-06
7.77825e-06
6.43781e-06
4.96285e-06
3.62526e-06
0.000729688
0.00154411
0.000167456
5.71777e-05
4.80031e-05
4.85453e-05
5.11559e-05
5.47321e-05
5.91317e-05
6.44825e-05
7.1056e-05
7.92627e-05
8.96539e-05
0.000103096
0.000123674
0.000174856
0.000145688
4.94413e-05
2.58872e-05
2.21095e-05
1.9432e-05
2.0017e-05
1.99177e-05
1.89604e-05
2.24243e-05
2.63282e-05
2.90235e-05
2.97364e-05
2.85445e-05
2.60368e-05
2.28711e-05
1.94408e-05
1.56464e-05
1.20645e-05
1.05267e-05
7.26208e-06
0.00206171
0.00540516
0.000718297
0.000143078
7.68597e-05
6.49341e-05
6.30947e-05
6.48627e-05
6.85568e-05
7.376e-05
8.04245e-05
8.85903e-05
9.8108e-05
0.00010823
0.000118137
0.000129599
0.000144527
0.000184326
7.01394e-05
5.13551e-05
3.83786e-05
3.12933e-05
2.51003e-05
1.49661e-05
1.65792e-05
1.87743e-05
2.09977e-05
2.32467e-05
2.5499e-05
2.86731e-05
3.44516e-05
4.61419e-05
3.56917e-05
4.2033e-05
6.47454e-05
3.87769e-05
0.00419249
0.0116779
0.00224873
0.000487887
0.00019365
0.000122044
9.77184e-05
8.97783e-05
8.91521e-05
9.25677e-05
9.88462e-05
0.000107486
0.000117972
0.000129117
0.000139133
0.000147494
0.000156243
0.000171879
0.000216372
7.13229e-05
6.3162e-05
6.28967e-05
6.94896e-05
8.35112e-05
0.000110614
0.000105937
0.000101971
9.85322e-05
9.61228e-05
9.53506e-05
9.70957e-05
0.000102878
0.000115724
6.56126e-05
7.81766e-05
0.000102917
0.000134383
0.0069398
0.0191489
0.00527279
0.00156273
0.000645274
0.000328802
0.000200707
0.000148867
0.00012881
0.000123573
0.000126457
0.000134779
0.000146982
0.000161072
0.00017386
0.000181714
0.000181253
0.000168827
0.000142177
0.000108035
9.34526e-05
8.90547e-05
8.82335e-05
8.80052e-05
8.69176e-05
8.37408e-05
8.06009e-05
7.77814e-05
7.55064e-05
7.4053e-05
7.37854e-05
7.51945e-05
7.88849e-05
8.534e-05
0.000101716
0.00013083
0.000179283
0.000225219
0.000210671
0.000113196
0.0101377
0.0249241
0.0103132
0.00415977
0.00208111
0.00104329
0.000531814
0.00031549
0.000220336
0.000180327
0.000168066
0.000170492
0.000182052
0.000199344
0.000218371
0.000234337
0.000241806
0.000234954
0.00021236
0.000184435
0.000163902
0.000151834
0.000145004
0.000140297
0.000135733
0.000130769
0.000125843
0.000121126
0.000116771
0.000113007
0.000110187
0.000108899
0.000110155
0.000115617
0.000127899
0.000150142
0.000186911
0.000241829
0.000314391
0.000286186
0.0131314
0.025501
0.0178681
0.0104256
0.00572965
0.00298675
0.00153027
0.000808689
0.000465832
0.000310292
0.000244184
0.000225101
0.000227899
0.000244008
0.00026764
0.000293002
0.000312821
0.000318791
0.000307293
0.000285474
0.000263932
0.000247673
0.000236443
0.000228153
0.000220831
0.000213602
0.000206391
0.000199262
0.000192346
0.00018586
0.000180132
0.000175686
0.000173443
0.000175152
0.000184162
0.000206255
0.000252126
0.000345457
0.000511827
0.000584331
0.0126553
0.0255751
0.0330807
0.0227677
0.0130694
0.00664582
0.00330431
0.00170344
0.000946697
0.000585993
0.000415023
0.000337727
0.000311274
0.000315642
0.0003369
0.000367465
0.000399176
0.000421854
0.000426993
0.000417795
0.000402683
0.000387992
0.000375954
0.000366155
0.000357188
0.000348183
0.000338946
0.000329537
0.000320126
0.000310973
0.00030244
0.000295036
0.000289511
0.000287159
0.000290636
0.000304757
0.000340397
0.000455202
0.000802238
0.000843361
0.0106557
0.0183962
0.113662
0.0686753
0.0298799
0.0122727
0.00538691
0.00265244
0.00148289
0.000943216
0.000682278
0.000557496
0.000505137
0.000492168
0.000503644
0.000532333
0.000567479
0.000599616
0.000621003
0.000629733
0.000629015
0.000623494
0.000616448
0.000609058
0.000600776
0.000591311
0.000580842
0.000569712
0.000558287
0.000546934
0.000536045
0.000526086
0.000517654
0.000511599
0.000509324
0.000512369
0.000520291
0.000550763
0.000836932
0.00107571
0.342113
0.188165
0.0374137
0.0104404
0.00495968
0.00287736
0.00190974
0.00143076
0.00119281
0.00108165
0.00103853
0.00103148
0.00104307
0.00106204
0.00108548
0.00111046
0.00113445
0.00115377
0.00116593
0.0011717
0.00117309
0.00117118
0.00116477
0.00115455
0.00114181
0.0011278
0.00111349
0.00109958
0.00108653
0.00107471
0.0010644
0.0010558
0.00104867
0.00104143
0.00102953
0.00101757
0.00111475
0.00139059
0.193417
0.0914697
0.029022
0.0113006
0.00573282
0.00366645
0.00282178
0.00249145
0.00240162
0.00242238
0.00248352
0.00254855
0.00260244
0.00264312
0.00267186
0.00269013
0.00269757
0.00269515
0.00268608
0.00267411
0.0026625
0.00265151
0.00263564
0.00261491
0.00259148
0.00256765
0.00254503
0.00252436
0.00250559
0.00248804
0.00247039
0.00245051
0.00242452
0.00238482
0.00232078
0.00223431
0.00252768
0.00204262
0.00105465
0.00239392
0.0560047
0.0378629
0.0205717
0.0113286
0.00672634
0.00438122
0.00314483
0.00247989
0.00212382
0.00194056
0.0018542
0.00181994
0.00181146
0.00181392
0.00181979
0.00182523
0.0018282
0.00182705
0.00182068
0.00180901
0.00179273
0.00177363
0.00175511
0.00173435
0.00171044
0.00168354
0.00165418
0.00162284
0.00158968
0.00155442
0.00151625
0.0014737
0.00142438
0.00136432
0.00128726
0.0011865
0.00109544
0.000748746
)
;

boundaryField
{
    floor
    {
        Cmu             0.09;
        kappa           0.41;
        E               9.8;
        type            epsilonWallFunction;
        value           nonuniform List<scalar> 
36
(
0.000125391
1.14249e-05
9.93575e-06
9.44922e-06
1.00873e-05
1.03169e-05
1.02178e-05
1.04936e-05
1.09877e-05
1.14643e-05
1.13834e-05
1.10212e-05
1.04227e-05
9.60541e-06
8.66644e-06
7.77825e-06
6.43781e-06
4.96285e-06
3.62526e-06
3.62526e-06
7.26208e-06
3.87769e-05
0.000134383
0.000225219
0.000210671
0.000113196
0.000125391
0.000174856
0.000145688
4.94413e-05
1.14249e-05
4.94413e-05
2.58872e-05
0.000184326
7.01394e-05
0.000216372
)
;
    }
    ceiling
    {
        Cmu             0.09;
        kappa           0.41;
        E               9.8;
        type            epsilonWallFunction;
        value           nonuniform List<scalar> 
43
(
0.00105465
0.00239392
0.0560047
0.0378629
0.0205717
0.0113286
0.00672634
0.00438122
0.00314483
0.00247989
0.00212382
0.00194056
0.0018542
0.00181994
0.00181146
0.00181392
0.00181979
0.00182523
0.0018282
0.00182705
0.00182068
0.00180901
0.00179273
0.00177363
0.00175511
0.00173435
0.00171044
0.00168354
0.00165418
0.00162284
0.00158968
0.00155442
0.00151625
0.0014737
0.00142438
0.00136432
0.00128726
0.0011865
0.00109544
0.000748746
0.0106557
0.0183962
0.193417
)
;
    }
    sWall
    {
        Cmu             0.09;
        kappa           0.41;
        E               9.8;
        type            epsilonWallFunction;
        value           uniform 0.00105465;
    }
    nWall
    {
        Cmu             0.09;
        kappa           0.41;
        E               9.8;
        type            epsilonWallFunction;
        value           nonuniform List<scalar> 6(0.000113196 0.000286186 0.000584331 0.00139059 0.00204262 0.000748746);
    }
    sideWalls
    {
        type            empty;
    }
    glass1
    {
        Cmu             0.09;
        kappa           0.41;
        E               9.8;
        type            epsilonWallFunction;
        value           nonuniform List<scalar> 9(0.000117617 0.000729688 0.00206171 0.00419249 0.0069398 0.0101377 0.0131314 0.0126553 0.0106557);
    }
    glass2
    {
        Cmu             0.09;
        kappa           0.41;
        E               9.8;
        type            epsilonWallFunction;
        value           nonuniform List<scalar> 2(0.000843361 0.00107571);
    }
    sun
    {
        Cmu             0.09;
        kappa           0.41;
        E               9.8;
        type            epsilonWallFunction;
        value           nonuniform List<scalar> 
14
(
0.000117617
0.000126385
6.70106e-05
6.40547e-05
6.74821e-05
7.1859e-05
7.6849e-05
8.23149e-05
8.82136e-05
9.44593e-05
0.000100865
0.000107182
0.000113346
0.000119686
)
;
    }
    Table_master
    {
        Cmu             0.09;
        kappa           0.41;
        E               9.8;
        type            epsilonWallFunction;
        value           nonuniform List<scalar> 9(1.49661e-05 1.65792e-05 1.87743e-05 2.09977e-05 2.32467e-05 2.5499e-05 2.86731e-05 3.44516e-05 4.61419e-05);
    }
    Table_slave
    {
        Cmu             0.09;
        kappa           0.41;
        E               9.8;
        type            epsilonWallFunction;
        value           nonuniform List<scalar> 9(0.000110614 0.000105937 0.000101971 9.85322e-05 9.61228e-05 9.53506e-05 9.70957e-05 0.000102878 0.000115724);
    }
    inlet
    {
        type            turbulentMixingLengthDissipationRateInlet;
        mixingLength    0.01;
        phi             phi;
        k               k;
        value           uniform 0.342113;
    }
    outlet
    {
        type            zeroGradient;
    }
}


// ************************************************************************* //
