/*--------------------------------*- C++ -*----------------------------------*\
  =========                 |
  \\      /  F ield         | OpenFOAM: The Open Source CFD Toolbox
   \\    /   O peration     | Website:  https://openfoam.org
    \\  /    A nd           | Version:  6
     \\/     M anipulation  |
\*---------------------------------------------------------------------------*/
FoamFile
{
    version     2.0;
    format      ascii;
    class       volScalarField;
    location    "1900";
    object      T;
}
// * * * * * * * * * * * * * * * * * * * * * * * * * * * * * * * * * * * * * //

dimensions      [0 0 0 1 0 0 0];

internalField   nonuniform List<scalar> 
458
(
305.903
305.665
305.662
305.672
305.682
305.693
305.703
305.713
305.722
305.731
305.739
305.747
305.753
305.758
305.76
304.728
304.654
304.629
304.63
304.634
304.639
304.645
304.652
304.661
304.669
304.678
304.687
304.697
304.707
304.722
304.74
304.765
304.79
306.104
305.79
305.765
305.774
305.788
305.801
305.813
305.825
305.836
305.844
305.851
305.853
305.851
305.841
305.819
305.788
305.751
305.574
304.995
304.9
304.856
304.852
304.848
304.857
304.877
304.897
304.921
304.953
304.979
304.998
305.014
305.03
305.051
305.043
305.044
305.091
306.287
305.923
305.877
305.872
305.883
305.897
305.912
305.927
305.94
305.952
305.96
305.963
305.959
305.944
305.916
305.873
305.821
305.766
305.258
305.272
305.274
305.28
305.262
305.19
305.229
305.267
305.3
305.331
305.367
305.409
305.46
305.527
305.617
305.636
305.68
305.755
306.461
306.086
306.035
306.011
306.004
306.008
306.018
306.033
306.049
306.064
306.076
306.082
306.08
306.065
306.035
305.986
305.918
305.833
305.752
305.702
305.798
305.873
305.926
305.969
306.006
306.02
306.034
306.048
306.062
306.075
306.087
306.097
306.104
306.104
306.143
306.192
306.246
306.634
306.279
306.26
306.236
306.197
306.167
306.154
306.157
306.168
306.184
306.2
306.212
306.216
306.21
306.192
306.162
306.122
306.078
306.04
306.019
306.032
306.056
306.076
306.091
306.103
306.113
306.124
306.136
306.151
306.167
306.185
306.206
306.229
306.255
306.288
306.32
306.347
306.357
306.346
306.242
306.804
306.502
306.564
306.565
306.501
306.424
306.361
306.329
306.319
306.323
306.337
306.352
306.362
306.363
306.354
306.333
306.302
306.265
306.231
306.208
306.2
306.199
306.201
306.203
306.206
306.209
306.214
306.221
306.229
306.241
306.255
306.272
306.293
306.317
306.345
306.373
306.399
306.418
306.427
306.416
306.974
306.756
306.973
306.979
306.886
306.772
306.669
306.59
306.54
306.515
306.508
306.516
306.526
306.532
306.528
306.515
306.491
306.459
306.426
306.397
306.377
306.363
306.352
306.344
306.338
306.332
306.329
306.327
306.327
306.33
306.335
306.343
306.355
306.369
306.388
306.41
306.436
306.464
306.492
306.517
307.171
307.074
307.343
307.372
307.283
307.14
307.006
306.901
306.827
306.78
306.755
306.741
306.734
306.734
306.73
306.72
306.7
306.672
306.641
306.61
306.582
306.559
306.539
306.521
306.505
306.49
306.477
306.465
306.455
306.448
306.442
306.438
306.438
306.439
306.444
306.451
306.463
306.483
306.51
306.542
307.43
307.442
307.919
307.917
307.71
307.492
307.325
307.209
307.133
307.085
307.055
307.035
307.018
307.001
306.983
306.964
306.942
306.914
306.882
306.849
306.817
306.786
306.757
306.73
306.704
306.679
306.656
306.634
306.614
306.595
306.578
306.563
306.55
306.539
306.53
306.523
306.518
306.517
306.524
306.545
309.973
308.507
308.022
307.742
307.604
307.518
307.462
307.423
307.394
307.369
307.345
307.319
307.29
307.259
307.224
307.187
307.148
307.108
307.068
307.029
306.992
306.955
306.919
306.885
306.851
306.819
306.788
306.758
306.73
306.703
306.678
306.656
306.634
306.614
306.595
306.577
306.562
306.55
309.591
308.802
308.492
308.254
308.092
307.985
307.906
307.844
307.789
307.738
307.689
307.641
307.593
307.545
307.497
307.449
307.401
307.352
307.303
307.255
307.207
307.161
307.116
307.073
307.03
306.989
306.948
306.909
306.871
306.834
306.799
306.764
306.731
306.699
306.666
306.633
306.597
306.563
309.876
309.832
309.564
309.313
309.115
308.944
308.799
308.664
308.535
308.414
308.301
308.198
308.103
308.016
307.936
307.861
307.791
307.726
307.663
307.602
307.544
307.487
307.432
307.378
307.325
307.273
307.221
307.171
307.12
307.071
307.021
306.973
306.924
306.876
306.827
306.778
306.727
306.671
306.602
306.508
)
;

boundaryField
{
    floor
    {
        type            wallHeatTransfer;
        Tinf            uniform 305.2;
        alphaWall       uniform 0.24;
        value           nonuniform List<scalar> 
36
(
305.679
304.843
304.791
304.773
304.772
304.774
304.779
304.783
304.787
304.792
304.798
304.806
304.815
304.824
304.834
304.848
304.865
304.89
304.914
304.914
305.12
305.65
306.097
306.211
306.199
306.087
305.679
305.71
305.674
305.507
304.843
305.507
305.037
305.692
305.248
305.682
)
;
    }
    ceiling
    {
        type            wallHeatTransfer;
        Tinf            uniform 303.2;
        alphaWall       uniform 0.24;
        value           nonuniform List<scalar> 
43
(
309.303
309.373
309.38
309.116
308.888
308.685
308.506
308.343
308.193
308.057
307.938
307.833
307.741
307.659
307.584
307.515
307.451
307.39
307.332
307.276
307.222
307.169
307.118
307.067
307.017
306.968
306.919
306.871
306.823
306.775
306.728
306.682
306.635
306.588
306.541
306.493
306.441
306.384
306.315
306.2
307.236
307.275
309.462
)
;
    }
    sWall
    {
        type            wallHeatTransfer;
        Tinf            uniform 315.2;
        alphaWall       uniform 0.36;
        value           uniform 310.536;
    }
    nWall
    {
        type            wallHeatTransfer;
        Tinf            uniform 307.2;
        alphaWall       uniform 0.36;
        value           nonuniform List<scalar> 6(306.441 306.548 306.614 306.624 306.629 306.6);
    }
    sideWalls
    {
        type            empty;
    }
    glass1
    {
        type            wallHeatTransfer;
        Tinf            uniform 315.2;
        alphaWall       uniform 4.3;
        value           nonuniform List<scalar> 9(312.958 312.046 311.484 311.115 310.882 310.736 310.672 310.803 311.042);
    }
    glass2
    {
        type            wallHeatTransfer;
        Tinf            uniform 307.2;
        alphaWall       uniform 4.3;
        value           nonuniform List<scalar> 2(306.963 306.954);
    }
    sun
    {
        type            wallHeatTransfer;
        Tinf            uniform 305.2;
        alphaWall       uniform 0.24;
        value           nonuniform List<scalar> 
14
(
305.8
305.598
305.585
305.592
305.602
305.611
305.621
305.631
305.64
305.649
305.657
305.664
305.671
305.676
)
;
    }
    Table_master
    {
        type            zeroGradient;
    }
    Table_slave
    {
        type            zeroGradient;
    }
    inlet
    {
        type            fixedValue;
        value           uniform 290.15;
    }
    outlet
    {
        type            zeroGradient;
    }
}


// ************************************************************************* //
