/*--------------------------------*- C++ -*----------------------------------*\
  =========                 |
  \\      /  F ield         | OpenFOAM: The Open Source CFD Toolbox
   \\    /   O peration     | Website:  https://openfoam.org
    \\  /    A nd           | Version:  6
     \\/     M anipulation  |
\*---------------------------------------------------------------------------*/
FoamFile
{
    version     2.0;
    format      ascii;
    class       volScalarField;
    location    "300";
    object      alphat;
}
// * * * * * * * * * * * * * * * * * * * * * * * * * * * * * * * * * * * * * //

dimensions      [1 -1 -1 0 0 0 0];

internalField   nonuniform List<scalar> 
458
(
0.00082691
0.000843165
0.000748921
0.000773177
0.000802007
0.000829687
0.000856007
0.000881514
0.000907149
0.000934385
0.000958584
0.000978796
0.000995522
0.00101069
0.00102319
0.000419721
0.000459478
0.000477127
0.000404112
0.000320526
0.000278099
0.000257561
0.000259904
0.000281218
0.000314883
0.000354897
0.000395944
0.000429988
0.000468269
0.000510832
0.000538123
0.000539331
0.000480439
0.00145957
0.00255263
0.00171638
0.00237827
0.00258563
0.00277604
0.00296923
0.00314762
0.00328825
0.00336284
0.00338155
0.00330272
0.00307296
0.00260863
0.00185519
0.00112187
0.00107558
0.000806744
0.000588211
0.0011636
0.00134015
0.00134458
0.000984136
0.000421155
0.000342563
0.000404233
0.000566424
0.000806456
0.00108199
0.00137162
0.00162556
0.00185564
0.00212297
0.00198971
0.00191983
0.00062005
0.00201756
0.00441745
0.001845
0.00334098
0.00397421
0.00424203
0.00446886
0.00466742
0.00482596
0.00492937
0.00498164
0.00495098
0.0047884
0.00442572
0.00381672
0.00302617
0.00211296
0.0011889
0.0010003
0.00264935
0.00237279
0.00199748
0.0014507
0.000405006
0.000357956
0.000406661
0.000457371
0.000510726
0.00056911
0.000635575
0.000715996
0.000820738
0.00208781
0.00182015
0.00141431
0.000798021
0.00253809
0.00670316
0.00226945
0.00339672
0.00470239
0.0050603
0.00528709
0.00548671
0.00566288
0.00580783
0.0059312
0.00603441
0.00607415
0.00596723
0.0055874
0.00480859
0.00359508
0.00221007
0.00131026
0.00325223
0.00308608
0.00255888
0.00188034
0.00127813
0.000831026
0.000830536
0.000832129
0.000835243
0.000842191
0.000856443
0.000882457
0.000926073
0.00100973
0.00323885
0.00366718
0.00353397
0.00120345
0.00301232
0.00908351
0.00323371
0.0030438
0.00481476
0.00531511
0.00552916
0.0056983
0.00585174
0.0059996
0.00618299
0.00644456
0.00676437
0.00709605
0.00736208
0.00747858
0.0073824
0.00704078
0.00653865
0.00639106
0.00596777
0.00545363
0.00500593
0.00464767
0.0043683
0.00419199
0.00402773
0.00388158
0.00377624
0.00373624
0.00377475
0.00388978
0.00407501
0.00434641
0.00447547
0.00438728
0.00376431
0.00164362
0.00148185
0.00132577
0.00344927
0.0111316
0.00497769
0.002973
0.00423311
0.0049603
0.00527105
0.00545006
0.00555637
0.0056292
0.00580921
0.0061204
0.00655422
0.00709163
0.00767612
0.00822233
0.00862916
0.00877907
0.00862395
0.00827877
0.0078315
0.00738065
0.0069763
0.00661029
0.00625619
0.00589384
0.00551754
0.00514928
0.00483154
0.00460937
0.00450223
0.00449155
0.00453129
0.00456398
0.00455554
0.0044688
0.00413932
0.00344038
0.00261483
0.0013479
0.00384739
0.0125566
0.007848
0.004258
0.00344659
0.00396927
0.00460398
0.00501826
0.00517363
0.00517888
0.00530273
0.00552582
0.00586941
0.00636428
0.00700357
0.00771816
0.00837991
0.00883332
0.00898141
0.00887943
0.00864312
0.00836717
0.0080951
0.00782282
0.00752383
0.00717016
0.0067473
0.00626569
0.00576996
0.00532788
0.00498628
0.00474246
0.00455934
0.00438149
0.00415358
0.00382274
0.00333416
0.00273621
0.00213784
0.00130643
0.00392228
0.0124554
0.00984807
0.00758261
0.00545681
0.00445988
0.00452238
0.00490223
0.00501788
0.00500223
0.0050163
0.00508403
0.0052246
0.00547567
0.00588596
0.00647753
0.00718555
0.00785485
0.00828623
0.00847725
0.00851212
0.0084724
0.00841083
0.00834335
0.00825811
0.00812551
0.00790764
0.007575
0.0071366
0.00665925
0.00620277
0.00574819
0.00527279
0.0047691
0.00425398
0.00377825
0.00327722
0.0028423
0.00244926
0.00154428
0.00378464
0.00448239
0.00631927
0.00667231
0.00617345
0.00551642
0.00505727
0.00482213
0.00470369
0.00466304
0.00466659
0.00468866
0.00472543
0.00479478
0.00493644
0.00520501
0.00563446
0.00617863
0.00670778
0.00712824
0.0074245
0.00762948
0.00778682
0.0079294
0.00807486
0.00822491
0.00835981
0.00843054
0.00838131
0.00817866
0.0078511
0.00751327
0.00725176
0.00710044
0.00694901
0.00635628
0.00540302
0.004599
0.00442852
0.00176083
0.0100572
0.0117734
0.00817284
0.00678785
0.00599922
0.00549395
0.00515238
0.00490124
0.00470404
0.00454394
0.00441199
0.00430833
0.00424357
0.00424044
0.00433079
0.00453873
0.00485301
0.00522665
0.00560507
0.00595373
0.0062652
0.00655083
0.00683099
0.00712786
0.00745535
0.00780028
0.00809992
0.00824343
0.00820444
0.00802891
0.00780587
0.00760268
0.00742175
0.00724528
0.00675281
0.0057989
0.00535824
0.00173745
0.00503154
0.0112878
0.00842612
0.00705857
0.00620584
0.00559695
0.0051393
0.00478012
0.00445776
0.00417114
0.00392407
0.00371852
0.00355642
0.00344178
0.00338203
0.00338781
0.00346897
0.00362821
0.00385629
0.00413243
0.00443056
0.00472801
0.00501238
0.00528435
0.00555472
0.00583158
0.00610111
0.00636249
0.00655685
0.00664141
0.00661835
0.00651458
0.00634311
0.00607232
0.00545506
0.00456445
0.00430819
0.00152356
0.00268489
0.00325846
0.00403856
0.00395058
0.00336837
0.00295613
0.00263863
0.00238244
0.00216917
0.00198728
0.00183481
0.00170371
0.00158862
0.00148641
0.00139531
0.00131436
0.00124316
0.00118166
0.00112998
0.00108826
0.00105646
0.00103416
0.00102048
0.00101408
0.00101347
0.00101732
0.00102476
0.0010361
0.00105474
0.00108348
0.00112256
0.00116848
0.00121341
0.00124743
0.00126089
0.00124642
0.00122289
0.00118775
0.00119709
0.00113857
)
;

boundaryField
{
    floor
    {
        type            compressible::alphatWallFunction;
        Prt             0.85;
        value           nonuniform List<scalar> 
36
(
0.00014554
5.67167e-05
6.29033e-05
6.56286e-05
5.42678e-05
4.09297e-05
3.3991e-05
3.05818e-05
3.09698e-05
3.45008e-05
4.00091e-05
4.64576e-05
5.29758e-05
5.8317e-05
6.42602e-05
7.07976e-05
7.49535e-05
7.51361e-05
6.61412e-05
6.61404e-05
8.72733e-05
0.000113403
0.000170601
0.000230206
0.00020855
0.000187403
0.000145538
0.000159323
0.000152872
0.000114722
5.6716e-05
0.000114721
8.25124e-05
0.000168599
0.000142266
0.000185255
)
;
    }
    ceiling
    {
        type            compressible::alphatWallFunction;
        Prt             0.85;
        value           nonuniform List<scalar> 
43
(
0.00036511
0.000436764
0.000532183
0.000521515
0.000450312
0.000399138
0.000359221
0.000326644
0.000299239
0.000275637
0.000255673
0.000238361
0.000223041
0.000209332
0.000197024
0.000186011
0.00017626
0.000167786
0.000160624
0.000154815
0.000150369
0.000147242
0.000145317
0.000144414
0.000144325
0.000144863
0.000145906
0.000147495
0.000150107
0.000154122
0.000159565
0.000165932
0.000172135
0.000176815
0.000178663
0.000176678
0.000173442
0.000168599
0.000169887
0.000161792
0.000501376
0.000585635
0.000651013
)
;
    }
    sWall
    {
        type            compressible::alphatWallFunction;
        Prt             0.85;
        value           uniform 0.000364029;
    }
    nWall
    {
        type            compressible::alphatWallFunction;
        Prt             0.85;
        value           nonuniform List<scalar> 6(0.000187171 0.000190189 0.000184537 0.000242431 0.000213936 0.000161459);
    }
    sideWalls
    {
        type            empty;
    }
    glass1
    {
        type            compressible::alphatWallFunction;
        Prt             0.85;
        value           nonuniform List<scalar> 9(0.000114262 0.000200719 0.000273693 0.000339964 0.000399199 0.000452988 0.000501428 0.000510625 0.000494205);
    }
    glass2
    {
        type            compressible::alphatWallFunction;
        Prt             0.85;
        value           nonuniform List<scalar> 2(0.000215363 0.000244068);
    }
    sun
    {
        type            compressible::alphatWallFunction;
        Prt             0.85;
        value           nonuniform List<scalar> 
14
(
0.000117654
0.000119973
0.000106338
0.000109867
0.000114043
0.000118036
0.000121819
0.000125471
0.000129129
0.000133002
0.000136432
0.000139289
0.000141648
0.000143782
)
;
    }
    Table_master
    {
        type            compressible::alphatWallFunction;
        Prt             0.85;
        value           nonuniform List<scalar> 9(5.46165e-05 4.71413e-05 5.48635e-05 6.27782e-05 7.09859e-05 7.98449e-05 8.97941e-05 0.000101664 0.000116886);
    }
    Table_slave
    {
        type            compressible::alphatWallFunction;
        Prt             0.85;
        value           nonuniform List<scalar> 9(0.000118372 0.000118302 0.000118531 0.000118979 0.000119979 0.000122025 0.00012575 0.000131966 0.000143794);
    }
    inlet
    {
        type            fixedValue;
        value           uniform 1.94e-05;
    }
    outlet
    {
        type            zeroGradient;
    }
}


// ************************************************************************* //
