/*--------------------------------*- C++ -*----------------------------------*\
  =========                 |
  \\      /  F ield         | OpenFOAM: The Open Source CFD Toolbox
   \\    /   O peration     | Website:  https://openfoam.org
    \\  /    A nd           | Version:  6
     \\/     M anipulation  |
\*---------------------------------------------------------------------------*/
FoamFile
{
    version     2.0;
    format      ascii;
    class       surfaceScalarField;
    location    "300";
    object      phi;
}
// * * * * * * * * * * * * * * * * * * * * * * * * * * * * * * * * * * * * * //

dimensions      [1 0 -1 0 0 0 0];

internalField   nonuniform List<scalar> 
850
(
-0.00240151
0.00246648
-0.00248561
8.4268e-05
-0.00264661
0.000161169
-0.00288195
0.000235515
-0.00312301
0.000241232
-0.0033349
0.000212054
-0.00349573
0.000161003
-0.0035874
9.18408e-05
-0.00359266
5.43177e-06
-0.0034925
-9.99854e-05
-0.00326801
-0.000224326
-0.00290265
-0.000365188
-0.00235935
-0.000543124
-0.00149671
-0.000862474
-0.00149426
-0.000850042
0.000857169
-0.000870142
2.02532e-05
-0.000661269
-0.000208719
-0.000529786
-0.000131328
-0.000443403
-8.62257e-05
-0.0001722
-0.000271047
0.000123501
-0.000295552
0.000307666
-0.000184014
0.000446205
-0.000138386
0.000559879
-0.00011352
0.00065579
-9.57567e-05
0.000732449
-7.65043e-05
0.000774508
-4.19045e-05
0.000810796
-3.61351e-05
0.0008627
-5.17513e-05
0.000933086
-7.02342e-05
0.000866279
6.69579e-05
0.000872718
-0.00174278
0.00437515
-0.0022414
0.000583061
-0.00257739
0.000497327
-0.00286178
0.000520079
-0.00312315
0.000502773
-0.00335005
0.00043913
-0.00352859
0.00033972
-0.00364518
0.000208601
-0.00368685
4.72715e-05
-0.00364442
-0.000142241
-0.0035112
-0.000357375
-0.00327601
-0.000600209
-0.00292787
-0.000891094
-0.00254509
-0.00124508
-0.00255478
-0.0014844
-0.00116574
-0.00138462
0.000281129
-0.00144222
0.000295585
0.00105949
-0.000185912
0.000922237
0.000157651
0.000460605
0.000253061
0.000153228
0.000176199
-0.00018375
0.000250899
-0.000158889
-0.000295757
-8.34971e-05
-0.00037079
-5.88259e-05
-0.000208532
-5.99523e-05
-0.000137104
-7.67676e-05
-9.65469e-05
-0.000109306
-6.30595e-05
-0.000166552
-1.9097e-05
-0.000243265
3.4971e-05
-0.000298157
1.89193e-05
-0.000191462
-0.000158286
0.000108364
-0.000369897
0.000208659
-3.31769e-05
0.00109724
-0.00128681
0.00590606
-0.00194872
0.00124514
-0.00235643
0.000905207
-0.0026598
0.00082362
-0.00292203
0.000765179
-0.00314569
0.000662958
-0.00332463
0.000518832
-0.00345067
0.000334816
-0.00351558
0.000112348
-0.00351426
-0.000143385
-0.00344831
-0.000423152
-0.00332618
-0.000722171
-0.00317439
-0.00104271
-0.00305894
-0.00136036
-0.00296294
-0.00158023
-0.00265043
-0.00169696
-0.00224678
-0.00184571
-0.00194035
-0.000576079
0.000406418
-0.000677724
0.000259444
-0.00056475
0.000140237
-0.000401761
1.33593e-05
1.10787e-05
-0.000161792
-0.000284412
-0.000654877
-0.000863087
-0.000999871
-0.0010961
-0.00115884
-0.00117761
-0.00114232
-0.00112308
-0.0010613
-0.000219892
-0.00146493
3.39063e-05
-0.00153325
3.53234e-05
-0.000415887
-0.000957548
0.00717118
-0.00167376
0.00196152
-0.00207108
0.00130271
-0.00236417
0.00111687
-0.00260391
0.0010051
-0.00279948
0.000858692
-0.0029527
0.000672226
-0.00306102
0.000443311
-0.00311959
0.000171089
-0.00312547
-0.000137331
-0.00308957
-0.000458882
-0.00303831
-0.000773263
-0.00300847
-0.00107238
-0.00303444
-0.00133422
-0.00309313
-0.00152136
-0.00315031
-0.00163961
-0.00331392
-0.00168193
-0.00390406
-0.00135005
-0.0031713
-0.000720355
-0.00253387
-0.000230854
-0.00224317
-3.1102e-05
-0.00206101
-4.17601e-05
-0.0019411
-0.000106394
-0.00192062
-0.0001821
-0.00172556
-0.000195046
-0.00150555
-0.000219994
-0.00127052
-0.000235012
-0.00103461
-0.000235889
-0.000809164
-0.000225432
-0.000599023
-0.000210127
-0.00039847
-0.000200539
-0.000192087
-0.000206369
3.23661e-05
-0.000224438
0.000158706
-0.00034606
0.000488645
-0.000295851
0.000672605
-0.000148445
0.000272569
-0.000711277
0.00824412
-0.00144754
0.00269795
-0.00176488
0.00162023
-0.00202322
0.00137539
-0.00222065
0.0012027
-0.0023624
0.00100061
-0.00245883
0.000768831
-0.00251438
0.000499023
-0.00252699
0.000183877
-0.00249576
-0.000168389
-0.00244329
-0.000511183
-0.00240656
-0.000809818
-0.00241765
-0.00106113
-0.00249026
-0.00126144
-0.00260864
-0.00140281
-0.00276569
-0.00148239
-0.00299184
-0.00145561
-0.00314006
-0.00120167
-0.0030419
-0.000818344
-0.00277749
-0.000495101
-0.00249556
-0.000312855
-0.00227549
-0.000261667
-0.00210584
-0.000275868
-0.00197397
-0.000313804
-0.00182287
-0.000345978
-0.00166779
-0.000374897
-0.00151129
-0.000391342
-0.00135651
-0.0003905
-0.00120792
-0.000373859
-0.00106595
-0.000351927
-0.000923192
-0.000343131
-0.000759946
-0.000369447
-0.000530428
-0.000453788
-0.000257779
-0.000618539
0.000249031
-0.00080249
0.00104832
-0.00094756
0.00231725
-0.000996182
0.0031175
-0.000788892
0.00261992
0.000509924
0.00267439
-0.000663861
0.0093173
-0.00137301
0.00340726
-0.00143969
0.00168709
-0.00161513
0.001551
-0.00177171
0.00135945
-0.00184163
0.0010707
-0.00184973
0.0007771
-0.00181683
0.000466299
-0.00174341
0.000110628
-0.00163779
-0.00027384
-0.00154298
-0.000605826
-0.0014965
-0.000856124
-0.00151944
-0.00103801
-0.0016136
-0.00116711
-0.00176517
-0.00125106
-0.00196117
-0.00128622
-0.00217726
-0.00123935
-0.00231062
-0.00106814
-0.00230979
-0.000818995
-0.00220511
-0.000599612
-0.00206161
-0.000456183
-0.0019313
-0.000391803
-0.00182717
-0.000379824
-0.00174607
-0.000394739
-0.00167514
-0.000416738
-0.00161315
-0.000436716
-0.00156051
-0.000443805
-0.00151994
-0.000430899
-0.00149521
-0.000398427
-0.00148758
-0.000359387
-0.00149218
-0.000338366
-0.00149552
-0.000365944
-0.0014745
-0.000474643
-0.0014051
-0.000687776
-0.00120379
-0.00100364
-0.000726503
-0.00142468
0.000174825
-0.00189735
0.00129007
-0.00190397
0.00161836
0.000181797
0.00434184
-0.000927787
0.0106979
-0.00115997
0.00363962
-0.000743599
0.00127089
-0.000843263
0.00165084
-0.00106806
0.00158442
-0.00109633
0.00109914
-0.000997316
0.000678262
-0.00084624
0.000315394
-0.000663752
-7.16877e-05
-0.000488892
-0.000448529
-0.000375996
-0.000718551
-0.000341034
-0.000890914
-0.000386183
-0.000992693
-0.000504963
-0.00104816
-0.000683734
-0.00107212
-0.000902614
-0.00106717
-0.00112438
-0.0010174
-0.00128992
-0.000902431
-0.00136537
-0.00074337
-0.0013694
-0.00059541
-0.00133702
-0.000488383
-0.00130017
-0.000428481
-0.00127481
-0.000405011
-0.00126616
-0.000403215
-0.00127419
-0.00040854
-0.00130145
-0.000409288
-0.00135246
-0.000392615
-0.00143541
-0.000347781
-0.00156151
-0.000272165
-0.00174032
-0.000180411
-0.00197217
-0.000106351
-0.00224592
-9.20293e-05
-0.00254367
-0.000176736
-0.00284069
-0.000390596
-0.00309579
-0.000748374
-0.00324279
-0.00127751
-0.00316098
-0.001979
-0.00256066
-0.00250414
-0.00082629
-0.00155241
0.00357466
0.00168031
0.00952381
0.00215995
0.00316013
0.00187637
0.00155464
0.00127429
0.0022531
0.00077512
0.00208377
0.000601241
0.0012732
0.000640643
0.000639035
0.00079754
0.000158672
0.000979067
-0.000253042
0.0010771
-0.000546385
0.00108948
-0.000730766
0.00103312
-0.000834382
0.000921406
-0.000880806
0.000761079
-0.000887662
0.000556958
-0.000867823
0.000319336
-0.000829372
7.46067e-05
-0.0007725
-0.00013457
-0.000693081
-0.000279692
-0.000598074
-0.000368421
-0.000506506
-0.00042227
-0.000434359
-0.000462531
-0.000388045
-0.000503438
-0.000363929
-0.000552865
-0.000353613
-0.000614668
-0.000346562
-0.00069255
-0.000331233
-0.000791439
-0.000293552
-0.000920675
-0.000218373
-0.00109648
-9.61884e-05
-0.00134579
6.9068e-05
-0.00171207
0.000260091
-0.00223543
0.000431485
-0.00291811
0.000506103
-0.00371414
0.000405596
-0.00454213
7.97767e-05
-0.00541819
-0.000401298
-0.00653377
-0.00086326
-0.00769625
-0.0013415
-0.00697145
-0.00227704
-0.00312198
0.010084
0.0132387
0.0101965
0.00459699
0.00737969
0.00507005
0.00586441
0.00359922
0.00493013
0.00220765
0.0043194
0.00124993
0.00387419
0.000604056
0.00348276
0.00013856
0.00313511
-0.00019856
0.00283189
-0.000427383
0.0025613
-0.000563617
0.0023098
-0.000629126
0.0020659
-0.000643594
0.00182092
-0.000622666
0.0015709
-0.000579179
0.00132201
-0.000523444
0.00109206
-0.000462952
0.000898032
-0.000403875
0.000743919
-0.000352219
0.000622117
-0.000312382
0.000520043
-0.000285796
0.000426494
-0.000270204
0.000333987
-0.00026093
0.000239189
-0.000251588
0.000142215
-0.000234084
4.66714e-05
-0.000197833
-4.11128e-05
-0.000130414
-0.000114964
-2.2164e-05
-0.000177528
0.000131802
-0.000238971
0.000321701
-0.000308246
0.000500926
-0.000401192
0.000599211
-0.00056161
0.000566175
-0.000885305
0.000403633
-0.00138438
9.79338e-05
-0.00201561
-0.000231865
-0.00271414
-0.000642812
-0.00270981
-0.00228122
-0.0055364
0.000675067
0.00357187
0.00264988
0.00309541
0.00392647
0.0023228
0.00436682
0.00176747
0.00446956
0.00114736
0.00444781
0.000625985
0.00433826
0.000248282
0.00415754
-1.76666e-05
0.00392886
-0.000198533
0.00367606
-0.000310639
0.00341603
-0.000368922
0.00315867
-0.000386063
0.00290932
-0.000373148
0.00267035
-0.00034003
0.00244318
-0.000296101
0.00223071
-0.00025031
0.00203696
-0.000209948
0.0018642
-0.000179284
0.00171102
-0.000159027
0.0015727
-0.000147303
0.00144369
-0.000141016
0.0013198
-0.000136864
0.0011998
-0.000131415
0.0010864
-0.000120509
0.000987153
-9.84059e-05
0.000914174
-5.72594e-05
0.000879434
1.27507e-05
0.000897043
0.000114366
0.000973835
0.000245081
0.00110113
0.000373796
0.00124923
0.000451279
0.00138123
0.000434339
0.00148186
0.000303173
0.0015381
4.18544e-05
0.00163247
-0.00032607
0.00185956
-0.000869739
0.00162646
-0.00204795
-0.00384314
-0.000611794
0.00417643
0.00159515
0.000888642
0.00286795
0.00105018
0.00369152
0.00094408
0.00420378
0.000635286
0.0044703
0.00035964
0.00456179
0.000156962
0.00453071
1.35923e-05
0.00440935
-7.69958e-05
0.00423236
-0.000133481
0.00402586
-0.000162243
0.00380959
-0.00016962
0.00359787
-0.000161255
0.00339996
-0.000141941
0.00322014
-0.000116112
0.00305812
-8.81113e-05
0.00291024
-6.18994e-05
0.00277157
-4.04321e-05
0.00263785
-2.51428e-05
0.00250668
-1.59553e-05
0.00237754
-1.17075e-05
0.00225152
-1.06722e-05
0.00213117
-1.08896e-05
0.00202111
-1.02801e-05
0.00192944
-6.55962e-06
0.00186874
3.61696e-06
0.00185473
2.69331e-05
0.00190012
6.9143e-05
0.00201952
0.00012586
0.00220824
0.000185242
0.00243624
0.000223449
0.0026564
0.000214345
0.00281996
0.000139789
0.00287598
-1.40005e-05
0.00279355
-0.000243469
0.0024866
-0.000562626
0.00152043
-0.00108162
-0.00224127
-0.00278855
-0.00364233
0.000524915
0.00140585
0.00244811
0.00338396
0.00401062
0.0043612
0.00450862
0.00451218
0.00442472
0.00428036
0.00410688
0.00392568
0.00375256
0.00359851
0.00347012
0.00336961
0.00329531
0.00324257
0.00320533
0.00317762
0.00315461
0.0031332
0.00311223
0.0030926
0.00307751
0.00307346
0.00309369
0.00315721
0.00327859
0.00346045
0.00368152
0.00389428
0.00403311
0.00401858
0.00377497
0.00321256
0.00213152
)
;

boundaryField
{
    floor
    {
        type            calculated;
        value           nonuniform List<scalar> 
36
(
0
0
0
0
0
0
0
0
0
0
0
0
0
0
0
0
0
0
0
-6.29046e-06
-1.57159e-05
-1.99378e-05
-1.56673e-05
-1.11848e-05
-1.21819e-05
-1.32797e-05
-2.28305e-06
-4.24892e-06
-4.47996e-06
-5.68551e-06
-6.97509e-06
-8.60505e-06
-1.62586e-05
-1.06722e-05
-1.61019e-05
-1.22404e-05
)
;
    }
    ceiling
    {
        type            calculated;
        value           nonuniform List<scalar> 
43
(
1.38068e-05
1.12591e-05
9.38878e-06
7.90914e-06
8.10984e-06
8.41177e-06
8.80334e-06
9.24706e-06
9.71941e-06
1.02062e-05
1.06485e-05
1.10514e-05
1.14193e-05
1.17512e-05
1.20416e-05
1.2282e-05
1.24608e-05
1.25637e-05
1.25752e-05
1.24802e-05
1.22666e-05
1.19294e-05
1.14719e-05
1.09059e-05
1.02468e-05
9.50928e-06
8.70381e-06
7.83055e-06
6.86136e-06
5.78824e-06
4.65248e-06
3.54035e-06
2.5502e-06
1.74358e-06
1.13246e-06
6.95762e-07
3.06992e-07
-5.30316e-08
-4.12112e-07
-6.55086e-09
8.20433e-06
5.66158e-06
7.44656e-06
)
;
    }
    sWall
    {
        type            calculated;
        value           uniform -0.000151413;
    }
    nWall
    {
        type            calculated;
        value           nonuniform List<scalar> 6(-4.10158e-05 -4.89193e-05 -5.89391e-05 -6.66374e-05 -8.12773e-05 -0.00010958);
    }
    sideWalls
    {
        type            empty;
        value           nonuniform 0();
    }
    glass1
    {
        type            calculated;
        value           nonuniform List<scalar> 9(-6.47977e-05 -0.000165731 -0.000243941 -0.000307417 -0.000361507 -0.000409167 -0.000452656 -0.000506085 -0.000568292);
    }
    glass2
    {
        type            calculated;
        value           nonuniform List<scalar> 2(-0.000274662 -0.000295224);
    }
    sun
    {
        type            calculated;
        value           uniform 0;
    }
    Table_master
    {
        type            calculated;
        value           nonuniform List<scalar> 9(-1.55512e-07 -1.55434e-07 -1.55281e-07 -1.55158e-07 -1.55052e-07 -1.54954e-07 -1.54866e-07 -1.54777e-07 -1.54659e-07);
    }
    Table_slave
    {
        type            calculated;
        value           nonuniform List<scalar> 9(1.53431e-07 1.53498e-07 1.53568e-07 1.53642e-07 1.53715e-07 1.53783e-07 1.53845e-07 1.53905e-07 1.53946e-07);
    }
    inlet
    {
        type            calculated;
        value           uniform 0.000350261;
    }
    outlet
    {
        type            calculated;
        value           nonuniform List<scalar> 2(0.00292637 0.000842718);
    }
}


// ************************************************************************* //
