/*--------------------------------*- C++ -*----------------------------------*=========                 |
  \      /  F ield         | OpenFOAM: The Open Source CFD Toolbox
   \    /   O peration     | Website:  https://openfoam.org
    \  /    A nd           | Version:  6
     \/     M anipulation  |
\*---------------------------------------------------------------------------*/
FoamFile
{
    version     2.0;
    format      ascii;
    class       volScalarField;
    location    "300";
    object      PMV;
}
// * * * * * * * * * * * * * * * * * * * * * * * * * * * * * * * * * * * * * //

dimensions      [0 0 0 0 0 0 0];

internalField   nonuniform List<scalar> 
458
(
1.6644152199942017
1.48781272343809
1.5148780249667737
1.5099309741798836
1.5040909393821131
1.499198012445675
1.4955546316310724
1.494043161982728
1.4954811368328138
1.4998467557908057
1.50734899480381
1.5204989906924888
1.5410187487500382
1.559151354635419
1.536960668191187
0.8370105680541535
0.8379702220538622
0.8466071348302545
0.8355710882160297
0.8250149472756122
0.8298131832036137
0.8312526572630994
0.8168579866115239
0.8082212638828884
0.8043827411315903
0.8039029267138644
0.8077414478258057
0.8154185284818953
0.8307728324115023
0.8576432548005933
0.8787560009311459
0.8758769789246743
0.8729979601316056
1.6714171869868788
1.503007255852095
1.550370286554201
1.5410556089452487
1.5381151548779244
1.5370012490732585
1.537267397355523
1.5384299827617587
1.5406141706428298
1.5435894982005254
1.5471616650119446
1.5504443399891654
1.5518050752066093
1.5452097599595234
1.5288069054027833
1.547562874668931
1.5760174318643168
1.5143349441606526
0.7894366717405404
0.9147439740862248
0.9229012775516588
0.9267400095402282
0.9094657219417636
0.8801955130838858
0.8773164895373277
0.8758769789246743
0.8753971422312236
0.8801955130838858
0.8912317957464176
0.9113850859861077
0.9492925453801034
0.999195572894237
1.0543750551815152
1.047657696683236
0.9723248280198437
0.8172094650295529
1.747434444502576
1.5138916687432453
1.5963258573986747
1.5813022558361145
1.5837544233927063
1.5891525385155303
1.594910188851836
1.601239371170587
1.6075412979959776
1.612362586613358
1.6151005358920387
1.6126452233544333
1.6025340106044899
1.5807565501882266
1.5506037074555847
1.5220737246868628
1.4838613544238701
1.4271739650921387
1.1405378313414534
1.1258634224423365
1.1181871805379344
1.1301812641690754
1.1488915214759132
0.9440142970755362
0.9344174730731578
0.9718449904246296
1.0044737102216517
1.0351824841482733
1.0663702170919855
1.0994759421525877
1.1354585815221097
1.181033156595698
1.2251640509028752
1.1517699637179664
1.096140768594945
0.9280703380116959
1.840012616503991
1.5366318692512204
1.6396501416246319
1.62067130095128
1.6307021493455875
1.6439315893665463
1.6582433132419039
1.6727663157921797
1.6857601212260673
1.6956204099473853
1.700982643248423
1.698668296274227
1.6849243068972575
1.659135980445646
1.6210934256196567
1.5729499463558978
1.5083716822372941
1.428296968754118
1.3753400233932354
1.362709909615936
1.3866057130670488
1.4521521287536854
1.5129379378897874
1.5540653362660237
1.5880954166831636
1.6060015127824943
1.6247435981171743
1.6310715947093075
1.633464700811796
1.6363363646249065
1.638250768479821
1.638250768479821
1.6243706438237437
1.5530314990075955
1.5185471245662743
1.4941149881750422
1.487696562266795
1.9357972651101523
1.5712326880736318
1.6734538136090882
1.656335244054109
1.6733369568536285
1.6960276985451046
1.7204415916519076
1.744642198955755
1.7667825251733222
1.7857155533805773
1.7969490211368495
1.798231320372461
1.7873967217184057
1.7646361622533397
1.731630869308585
1.6901621466326955
1.6423139343049735
1.5973879344525397
1.5692212580954399
1.5574126549547036
1.5673995290315303
1.587123981492173
1.6056457026400612
1.6191729051586843
1.6303542677009748
1.6402989594239894
1.6523979818848173
1.6662100781503986
1.6813163910605975
1.687535592675243
1.6942327871584144
1.700451227462545
1.704277774469365
1.700451227462545
1.7047560828371349
1.7109738877820007
1.6952436777243343
1.6548392299347618
1.614427465671308
1.6379183883345403
2.0242079563570354
1.617920927715113
1.708881495530862
1.6908217707397153
1.711620179422114
1.7432487765539653
1.7776857574030793
1.8130867656943943
1.8474001312695278
1.8779270696118626
1.8960451984344757
1.9011754368985128
1.894316549595823
1.876119291330665
1.8471240796944983
1.810164602848417
1.7686113786739288
1.7300429373511417
1.7011489855906254
1.6838737513831332
1.6777591792559887
1.6772658429499103
1.6785923104782132
1.679307419761253
1.6796434962188806
1.6809651745609748
1.6838546186967198
1.689708885417936
1.6982335810667148
1.7085218809714644
1.7194206080998389
1.730228496666284
1.7408286704925389
1.7501120099527505
1.7620579162173897
1.7736180143224214
1.7716113544542884
1.7666210639373712
1.7155832374286977
1.6363207283476202
2.1003714406275567
1.7059551154296528
1.8211840972401305
1.7563944388557269
1.762543290242046
1.8012192545641756
1.8467860985562945
1.881557412316019
1.9149618311054974
1.9464423544211822
1.9683741889610782
1.9817201699194111
1.9869624202106757
1.9818827658147202
1.9623909062192009
1.9333740924744975
1.898553684759172
1.8635247797057832
1.8333451402056213
1.810493337724829
1.7939020696079155
1.781652905575
1.77137235786299
1.7609283109913374
1.7510009549155208
1.741335927679032
1.732923161369289
1.7273329429353461
1.725162424201135
1.7251783369051628
1.7265614619778928
1.727625416973563
1.727735233377912
1.7260139081154855
1.7232755305231844
1.7184473876952338
1.7133999843305183
1.7165056777293992
1.7575429587115454
1.5716911383178198
2.2263201250904947
1.9945029822185696
2.013464834846384
1.8989652125041565
1.881402888676887
1.8939666256728014
1.9049421881709547
1.9273650464106973
1.9602698451237401
1.9832668561700475
1.9947778677208952
2.0060469822623963
2.015589759044415
2.02258154756725
2.0255140347480256
2.015071877877942
1.994586678618763
1.9664673805883253
1.9364274665034888
1.90828223212479
1.8834666621382636
1.86150727654886
1.8419293567022128
1.8242572524388716
1.8080146066365672
1.7922466568251916
1.778387582865566
1.767394354852988
1.7621362492650143
1.7650043446094865
1.7602470463805657
1.7469467832723855
1.7322260653469903
1.7159235847356764
1.7000306307923878
1.6868630246915255
1.6773534320127645
1.6736801152633198
1.6593752506620922
1.6073708171922672
2.4044541566529243
2.2808637903867375
2.2259807178711135
2.1247039551687203
2.0387075985385876
1.9939449297104597
1.9725752893573152
1.965554692570924
1.9667395779327064
1.9745128646074759
1.9852744535904985
1.997253012425219
2.008732668598692
2.018254775957971
2.025279896814391
2.029305188824253
2.0293168230100034
2.0248850678100165
2.0126902581424932
1.9879155067074237
1.9626535862369303
1.9383351841166303
1.9159160059448002
1.8939666256728014
1.8729651661273197
1.8524352050727801
1.831899726113462
1.812314442769279
1.7960694591177833
1.7860342411265047
1.7817330778634428
1.7836447321044586
1.788901565338874
1.7941580792984606
1.7994142706857363
1.8080146066365672
1.7874394503560203
1.7742099091901504
1.7274360632896542
1.6383315494659076
2.4248427583922196
2.2214695180991555
2.1420790163254972
2.0972832834479145
2.06466268746079
2.044904197956018
2.0354098661598283
2.031190797665367
2.0300447565966446
2.031195389718385
2.0335246434702787
2.036399305385164
2.0381933337346494
2.038864359795939
2.036926705472723
2.032364065034191
2.024552370395232
2.0137837796245837
1.9999582006212735
1.985539969601665
1.9702738348810873
1.9553649228571526
1.9405607051543112
1.92164077126988
1.8982616164695825
1.8743972774329771
1.8514801871916302
1.8309444568405346
1.8147031440780654
1.8037145486595725
1.795756286457958
1.7843743053163195
1.7789646782663355
1.7782220375904656
1.777521767941527
1.769561985624477
1.7038048689702743
1.6696375039303002
2.3816397988112716
2.2527724935805993
2.222791501534518
2.1744266567522272
2.1337693495730896
2.107641584308824
2.0926030191773424
2.083918233771713
2.0775273086130177
2.0724447024708383
2.069375126056732
2.0659264148486174
2.062824390893773
2.059297630621426
2.05415368666873
2.0483114179990825
2.0402820498582925
2.0301835737683307
2.0186760591220607
2.004930163897713
1.9900489428359984
1.9745772891998878
1.958014160367472
1.940275641919394
1.9221009696272084
1.9025014919939034
1.881450392576588
1.857278575480605
1.830211697082396
1.8026366824153182
1.776643284164785
1.754886662201895
1.7395257160201172
1.7296537842747246
1.7287340142515244
1.7342517051930932
1.7026745264621226
1.6801704447816488
2.4148845685959155
2.415578612773091
2.3908656047028622
2.299565990110527
2.2711144033631947
2.224064766230296
2.1837079319564356
2.1571272921391067
2.1398014816101742
2.128299865888972
2.119162626104504
2.1111053236065196
2.103678684279426
2.0965105021531056
2.0892462547442614
2.081606031221783
2.072398319497804
2.0626267254113833
2.0524141288057947
2.0409653426292187
2.0290457484487456
2.016867189835156
2.0045606293477047
1.9911523365847157
1.9776392786421078
1.963440923693169
1.948437539872453
1.9319315708789357
1.9137053955082017
1.8926730150829019
1.8679566064110482
1.840951191208254
1.8133709958362372
1.7879155359535768
1.7668594404360025
1.7524758750608393
1.7451040982875834
1.746350299978198
1.722873988295498
1.6949765135234247
)
;

boundaryField
{
    ".*"
    {
        type            zeroGradient;
    }
}


// ************************************************************************* //
