/*--------------------------------*- C++ -*----------------------------------*=========                 |
  \      /  F ield         | OpenFOAM: The Open Source CFD Toolbox
   \    /   O peration     | Website:  https://openfoam.org
    \  /    A nd           | Version:  6
     \/     M anipulation  |
\*---------------------------------------------------------------------------*/
FoamFile
{
    version     2.0;
    format      ascii;
    class       volScalarField;
    location    "300";
    object      PPD;
}
// * * * * * * * * * * * * * * * * * * * * * * * * * * * * * * * * * * * * * //

dimensions      [0 0 0 0 0 0 0];

internalField   nonuniform List<scalar> 
458
(
59.829232323282504
50.23123959777921
51.7012932560019
51.432300506479066
51.114905310833734
50.8491240302308
50.65130748736321
50.56926634549772
50.64731793090135
50.884355647742254
51.291953240261805
52.00705875307136
53.124181907539565
54.112033503812135
52.90316537270178
19.77970607804808
19.813855789580558
20.122933517159296
19.72855370891206
19.356087827728402
19.524811487388803
19.57561686256426
19.071477217261716
18.773178747946005
18.641612184032823
18.625210147582607
18.756698886606216
19.021542436815608
19.558672088904302
20.52238636236828
21.300607487167255
21.19340445712676
21.08654229457973
60.20678682015105
51.05602870306243
53.633605584253885
53.126189588383156
52.96603901021571
52.90537536721407
52.9198696306914
52.983185123940736
53.102145739469194
53.26420995922023
53.4588026377796
53.637640084734585
53.71177513596554
53.35247087856385
52.45920422834537
53.480659527494964
55.03094048271974
51.671758155050156
18.13526788215411
22.66920713651713
22.9867149436177
23.137054359696094
22.46518870578302
21.35433668157623
21.246963392787478
21.19340445712676
21.175570412815276
21.35433668157623
21.769081311828813
22.53924713608923
24.032155358495928
26.083580906287864
28.461654249059947
28.166177577598617
24.966987492001053
19.083683244203172
64.26400690287902
51.64765187104792
56.13679010767531
55.31880593957519
55.45235785887216
55.74630471819823
56.05974008198267
56.40416007860637
56.74693921675208
57.00906076031872
57.15786463949255
57.02442347927858
56.474592731783645
55.28908358846514
53.6463225918284
52.092742531125324
50.01699864228007
46.958609649607496
32.39109044100965
31.704199398506375
31.347688584398043
31.90558563587885
32.78521224956418
23.820855514176216
23.439500115548284
24.94730087747284
26.306148062124066
27.621774037119565
28.993312796468132
30.486908228213252
32.15254720600602
34.32196254422017
36.48190189154305
32.921528563469536
30.334721994993473
23.189292710950312
69.05698223565454
52.88525944799743
58.490075926454345
57.4605027278722
58.004968028192394
58.721975437202076
59.49601849391546
60.27947294362095
60.978464310566544
61.507509495145385
61.79467691482252
61.67078312524365
60.93356282411219
59.544235741657886
57.48342790043665
54.86383389636225
51.34753895825608
47.01886731412588
44.19614621449024
43.529353104930394
44.79314571067813
48.30231083431461
51.595788888055594
53.83492118885939
55.688746499784706
56.66320192324974
57.681620328399895
58.02500858650269
58.15479951460611
58.310490998898665
58.414249296503144
58.414249296503144
57.66137389051947
53.778594048075284
51.90086786535253
50.57316467976342
50.22493984603799
73.7695901362597
54.7702782017806
60.3165050780055
59.392928891423566
60.31021094829491
61.52933496349866
62.83331138745779
64.11660125152683
65.28134135273717
66.26948004650065
66.85205176637072
66.91836816095474
66.35684750194896
65.16884716029011
63.42788282056128
61.21480534653581
58.63437431091405
56.194590788431654
54.66069231927684
54.017299178672076
54.56143872663936
55.635851117168784
56.64385058797153
57.3791179238021
57.9860963352758
58.525227714626276
59.18009785942948
59.92606242828426
60.7396412416135
61.073817180162
61.43313405415951
61.766235197022894
61.9709464072738
61.766235197022894
61.99652026265651
62.328668817525305
61.48731948745299
59.312077852429326
57.12128780009423
58.39623669373319
77.83258018475368
57.31110735327894
62.21695843296525
61.25019884720298
62.363160457362426
64.04298778568236
65.85132814999365
67.68378989137122
69.43035623385036
70.95664334023911
71.84915598085114
72.0999745442924
71.76445019533966
70.86702971142283
69.41643146613049
67.53364887732707
65.37712042185525
63.34362965610974
61.80357886028154
60.87711288564789
60.548293025923584
60.52174400616721
60.59312179975303
60.63159365300448
60.649672016339444
60.720755371602095
60.87608469608418
61.190481444959005
61.64750335162202
62.1977525407147
62.778958133837776
63.35347732866389
63.91505220949067
64.40522324492974
65.03359467058414
65.63897028906712
65.53408343629259
65.27288217046515
62.57452566109124
58.309643419024525
81.07231801052497
62.060614937377515
68.09871853329265
64.73603163243175
65.05906711665554
67.07274500064887
69.39937990993363
71.13630017786701
72.76970140427458
74.27453936128757
75.30178026229103
75.91797449657912
76.15812177707424
75.92543917500744
75.0233173532168
73.65408113260077
71.97190321456894
70.23996582675849
68.71872038373908
67.55054979973588
66.69432018585016
66.05809319080944
65.52158563028111
64.97429481684435
64.45207711191051
63.941876354976564
63.49641833701469
63.199744248055815
63.08441451511078
63.085260311174125
63.15876073175008
63.21527883364416
63.221111302254336
63.12966700298029
62.9840927576993
62.72713236277212
62.458113718472234
62.62368865712411
64.7964263991185
54.79525474377248
85.83372787911875
76.50165340806984
77.35541589524236
71.99202094795402
71.12866147354276
71.74729183209797
72.28358491685866
73.36674619758024
74.9242789209928
75.98894011098899
76.51413388852627
77.02316462532549
77.45017612876242
77.7606507778147
77.8902624148402
77.42709859137884
76.50545375079491
75.21318418050869
73.79959675606628
72.44600392157824
71.23062064931224
70.13907893266364
69.15400116349679
68.25575934853038
67.42304807783876
66.60853483649078
65.88793151993008
65.31339115472184
65.03770590923108
65.18815078820694
64.93851887547898
64.23827305938077
63.45945201496967
62.592666561539495
61.74372182166544
61.037701091784776
60.52645783900212
60.328693688048645
59.55715856480428
56.73766858130843
91.20321487379158
87.65029994680319
85.82195038331102
82.05192600977324
78.46890660493276
76.47630716840959
75.49648731678839
75.17072914365022
75.22583973498925
75.58605975389092
76.08091377084597
76.62637544194293
77.14371878420364
77.56875752804615
77.87992711001804
78.05729023003995
78.05780186738494
77.86249337426818
77.32082760177069
76.20166662748055
75.03557088320413
73.89034525335475
72.81581865564368
71.74729183209797
70.7104375882106
69.6839628426894
68.64523269524148
67.64412834489696
66.80654151959453
66.28604653648176
66.0622681995548
66.16177685018383
66.43499810397398
66.70758128640205
66.97951245916778
67.42304807783876
66.3590672153554
65.6698921321851
63.205221585822876
58.41862691523611
91.7148340478598
85.66485812301268
82.73431006541912
80.9460190005781
79.58535339346311
78.73811263182563
78.32496784836192
78.14013905394938
78.08980287292756
78.14034063328803
78.24247359563432
78.36820347982291
78.44649068299319
78.47573730689653
78.39123226360138
78.19161341421638
77.84779798916952
77.36965101087793
76.74876773933497
76.093065963539
75.38990602640393
74.69461027951218
73.99604702419828
73.0918575973719
71.95762197903876
70.78157474749308
69.6359155077584
68.59663448262326
67.76674880470523
67.20150693493764
66.79033302618062
66.19973267759839
65.91802172771281
65.87929853790652
65.84277383696951
65.42687766165116
61.94565823361475
60.11087361165702
90.60595874281388
86.73366090064658
85.71099963909052
83.96591078423863
82.40975613599404
81.36790747522093
80.75376874705856
80.39436795637214
80.1277038313278
79.9143148757836
79.78488027535249
79.63895713983584
79.50725156823904
79.35699523332396
79.13685739994168
78.88543028006468
78.53746376611565
78.09590293121909
77.58747578325338
76.97294672446156
76.29900956187541
75.58903556793975
74.81876977546715
73.98251777473335
73.11399889015384
72.16466624802618
71.13100985479318
69.92723412232897
68.55933981954358
67.14590515383995
65.79693899995986
64.65670667522804
63.84613000112526
63.32297534583067
63.27414847236179
63.566846760113684
61.88520142933516
60.678015176837164
91.46754634314031
91.48494173952912
90.85064575925841
88.23815372944873
87.33674389151184
85.75535729950127
84.30982482577296
83.31359132847909
82.64568481134867
82.19433169456829
81.8312792661764
81.50787112758357
81.2070880756039
80.9143450801209
80.61526469913849
80.29810373439926
79.91236218557344
79.49884464374793
79.06214966029458
78.56718363811257
78.04587931822483
77.50705285225186
76.95631938190829
76.34928374454265
75.73028623952686
75.07228314630433
74.36872515541258
73.58521970489167
72.70892828645508
71.68382615254461
70.4611616186946
69.10450228839609
67.6983824070083
66.38379666195186
65.28537086541414
64.52978329445496
64.14099526507303
64.2067907291029
62.962736274580465
61.47300035506118
)
;

boundaryField
{
    ".*"
    {
        type            zeroGradient;
    }
}


// ************************************************************************* //
