/*--------------------------------*- C++ -*----------------------------------*=========                 |
  \      /  F ield         | OpenFOAM: The Open Source CFD Toolbox
   \    /   O peration     | Website:  https://openfoam.org
    \  /    A nd           | Version:  6
     \/     M anipulation  |
\*---------------------------------------------------------------------------*/
FoamFile
{
    version     2.0;
    format      ascii;
    class       volScalarField;
    location    "1500";
    object      PMV;
}
// * * * * * * * * * * * * * * * * * * * * * * * * * * * * * * * * * * * * * //

dimensions      [0 0 0 0 0 0 0];

internalField   nonuniform List<scalar> 
458
(
1.4175495862607517
1.1810155762806587
1.1461783945166828
1.1181826261922212
1.1014570698604222
1.0944348100251724
1.0998887574967975
1.1193603138144348
1.1580796165120586
1.2190272898673544
1.2929843984600846
1.3786010840064131
1.3715951007015783
1.3697497693684677
1.3809311559860138
1.5773605688712746
1.563024374058921
1.557289467001144
1.5644580628726033
1.5711484078851514
1.5764048709068932
1.5676914451814217
1.5650356832371284
1.5668895303542818
1.5701027177756017
1.5739155051417955
1.5784181918263465
1.5839820645098486
1.5914998266423874
1.6034629879687012
1.6226875583778502
1.6332562441316023
1.6490169518317768
1.3515192019759688
1.1834604853146484
1.1652146128172256
1.13545127795663
1.1177553248155716
1.1097853123065429
1.1127776806341598
1.1241739006720297
1.1456305177044226
1.1804221231656502
1.2348078830902767
1.3305534011005078
1.409542599933592
1.4003855521736692
1.348001381450038
1.3316188883243918
1.3563284504716766
1.3994203325701582
1.5515475161939631
1.5458203539387516
1.543908507929663
1.5520920568689547
1.551868131487299
1.5543595355572917
1.5573652121799533
1.560644203532872
1.563589634921319
1.5666463618678739
1.5694089820353765
1.5729237694835831
1.5767685721178952
1.5820474051500713
1.5921767058138754
1.6112832103629404
1.6208372030198523
1.6197078827344937
1.3759041862119779
1.168436037943598
1.1855314196669426
1.1674711105824997
1.1564644959083081
1.1500834554957742
1.1488408838455044
1.144370859739952
1.1321431980398506
1.1319893154309921
1.1719957701728643
1.270448990087059
1.4033972730087656
1.4439810430991395
1.4145430343201733
1.3974094596414548
1.4000629364621546
1.4016584971584227
1.4615560167157053
1.497930015623591
1.4989244628414777
1.5092367816873862
1.524941627532023
1.5315685161321408
1.5554475293415158
1.5749536630729943
1.5821389536134733
1.5854837180366887
1.5888283953513567
1.5926507762314026
1.5959952647391902
1.5998174281584496
1.6034650601180145
1.6112832103629404
1.6080726919999953
1.5569567303874383
1.4431919525233572
1.1566444812552248
1.1998590117477543
1.2054628972474428
1.2163165865610475
1.2214251534104539
1.217312992076373
1.1869220881141127
1.1286767263157753
1.0925278364339057
1.1237943002871582
1.2320484145537474
1.3777585098876004
1.4717183281980064
1.47076194500024
1.44220373263945
1.4001380886058277
1.371294183402835
1.3413203698177456
1.4054352823580012
1.4442855849570868
1.4764954755930138
1.5152454959489838
1.5575693636665706
1.590337598159399
1.5922213720903864
1.5939733167245915
1.5998194196755995
1.6066062702101513
1.615381247348603
1.62737152862157
1.6439994472887085
1.6686404486883617
1.663398723603873
1.6450530004696675
1.5960917838166022
1.52114923285046
1.5320472271541925
1.159736800827028
1.209787963731824
1.2420570393337265
1.2902749149580153
1.3270487068948038
1.322434268193744
1.2458907405972137
1.1317983012728987
1.0639757341637666
1.0884573952917316
1.208910515778231
1.3650279387942783
1.4921315808439017
1.5080567135516734
1.4956260947756947
1.4465663775848991
1.4144211419623163
1.4184670149614849
1.437999320043972
1.473679102491552
1.5214065157643082
1.5725273517438085
1.6220219407252006
1.6617973129317902
1.6786900196278103
1.687908460215437
1.6952462055366047
1.7002971129998097
1.7025630917359733
1.7045078688961408
1.7058449709025298
1.705770470386562
1.6875982650805492
1.6559231485337125
1.588599383564891
1.5804919193704443
1.6009547020447714
1.6863618631460915
1.5735557498606572
1.6260167710463185
1.182745254050739
1.2301713862150692
1.2657401246066218
1.3464833893873454
1.4377634646412407
1.4397283836509855
1.2860536623255183
1.1297414823349
1.0440895397684895
1.0684242946596838
1.196528131938408
1.369074315626281
1.5197822355442283
1.5496439676889038
1.5367388552813872
1.52144240409949
1.502202297498598
1.5066051663417017
1.532230943572155
1.5742302847393275
1.6240670992923343
1.6709827093501872
1.7010588933866855
1.7239680782617346
1.7397149896772859
1.7511656207039463
1.7583215354165584
1.7621377903593949
1.7616607674130464
1.7583215354165584
1.7521197753604016
1.7422962883129443
1.711280334993109
1.671837842323529
1.6051206554092978
1.5915933270487819
1.5935698006316337
1.6179200532574383
1.6296410398672356
1.7159602878799198
1.260025185099588
1.3246195368913027
1.3040692868170374
1.3604400738528677
1.456415548424389
1.4119935406221424
1.267470278107006
1.1132337340555418
1.0274653721836213
1.0592458452818552
1.2035776961463924
1.401099438230844
1.5778384152347258
1.5993396641294613
1.5883505896636563
1.5759270193096206
1.576882720761371
1.59838413057776
1.6323009800916843
1.6690728194555728
1.7039228317301098
1.7339891438881652
1.7568903978855748
1.773108607763756
1.7836011407103052
1.7898006690672719
1.792661836398201
1.7931386881394487
1.7902775370484318
1.783124235185031
1.774062527018843
1.7626148107496062
1.746871801190777
1.7045329599109758
1.6450460553041946
1.6136941000009715
1.5958727666557153
1.5744396062771568
1.663202565627843
1.8527156376160387
1.6239934147393702
1.5383029735804337
1.4246994470127892
1.4131972837557778
1.4207237889331241
1.355180812840628
1.2071289578758524
1.0532561093245547
0.9934548637378995
1.062765348652553
1.2459323818909351
1.47798892380821
1.6346891254190694
1.6542700321663566
1.6499720757409138
1.6461515313295765
1.6552251110161156
1.6805316450715382
1.7120368769811327
1.7421006550432905
1.7678618656495206
1.7874162887429386
1.8007679449894785
1.809350015128598
1.8131639780169715
1.814594167599176
1.8136407107036963
1.810780272296811
1.8060126504569367
1.7993375127560058
1.7902775370484318
1.779785822079046
1.7659538817072475
1.7502114560410067
1.7330348022965234
1.7189516624583454
1.6921309156993318
1.6280670431543771
1.5560035452767818
2.0556672664558597
1.9020022072216938
1.7431344991994693
1.5961859325718222
1.5071900564613618
1.455683574411706
1.2803179651568148
1.0577635734790052
0.9263477687143052
0.9489172012354473
1.1028371418340772
1.355966511183493
1.623225581912162
1.699149555851512
1.7149004985218799
1.7177640362636672
1.7225364116369886
1.7363749555108534
1.7573674462623567
1.779785822079046
1.7988606965116847
1.812008178255301
1.8131302186841263
1.811387084617381
1.807732732526158
1.803341339173071
1.7973230151336914
1.789967842396851
1.7808006496110111
1.7697486790842452
1.7570246094704913
1.7429878562898702
1.7289984310151434
1.712763350958608
1.69416395387397
1.6775020701771972
1.6665271357133797
1.6618149533527327
1.6515856594488767
1.623739339919647
-1.1047139502204408
-0.302597586868897
0.15856343952753546
0.32487949780531095
0.4060977213351467
0.5272283980551948
0.7157763742241364
0.9821456684915513
1.2784048680024618
1.5974285897135392
1.715403547282425
1.7301956178542917
1.7341445363302146
1.7396620558110645
1.7496896309474992
1.7634223033055658
1.7776752314982356
1.7884060391516041
1.794281378112193
1.7953669615976784
1.793284341855743
1.789051562578133
1.783595104441317
1.7771459760227504
1.769971963797822
1.7625008647073497
1.7548230785899905
1.7481464442253465
1.741852144422061
1.736501604876744
1.7326821685828981
1.7288414344890828
1.7264677295684745
1.7267389060079057
1.7360219216792603
1.7698142597230462
1.8351634751053787
1.7066146524741812
-1.080645547105329
-0.14119294730169551
0.26063958513385377
0.4921246022215856
0.6513765806992466
0.8870224000276854
1.1680363300100134
1.4894104159814308
1.667068613892632
1.7109832040630046
1.7342202464934189
1.7452543091552615
1.752603914843318
1.7598651476615674
1.7678718771214277
1.7764118198014376
1.783640749234657
1.7883521754463485
1.790589462313508
1.7900241984469292
1.788271566258215
1.7851793153870348
1.781195796150558
1.7773647360506981
1.772832464837467
1.76827384943503
1.7644360496030032
1.7612312242866635
1.759642570068466
1.7604451196967632
1.7649205408527906
1.7728097677826886
1.7830955566870101
1.7922568947941082
1.802970843867789
1.8378982654898717
1.7790826999218168
1.7404203686880688
-0.6950765864505521
-0.6624754554803823
-0.5615968234270392
0.018503019787410865
0.4971248038019079
0.9300082338385013
1.342616940995457
1.561423863989368
1.6625103211737005
1.713027335277357
1.7394611798741473
1.754516642200362
1.7655527547131822
1.7740105150456602
1.7802344803330477
1.7852813535316865
1.790390784693147
1.7944737612206052
1.7977141303892035
1.7988567119259962
1.7988283934944733
1.7972420241645977
1.795219552909328
1.7923512245933666
1.7891563501584573
1.785821404266831
1.7825783228218228
1.779733162099553
1.7781953732830111
1.7775509051645948
1.7797104267710657
1.7867172906800681
1.802291871420128
1.8320151218687546
1.8517699474269569
1.8555818242543858
1.8245284542644702
1.7912731914897977
1.752003399635545
1.7523680991088935
)
;

boundaryField
{
    ".*"
    {
        type            zeroGradient;
    }
}


// ************************************************************************* //
