// -*- C++ -*-
// File generated by PyFoam - sorry for the ugliness

FoamFile
{
 version 2.0;
 format ascii;
 class volVectorField;
 location "1500";
 object U;
}

dimensions [ 0 1 -1 0 0 0 0 ];

internalField nonuniform List<vector> 458
(
  (0.0242873 0.0934952 0)
  (-0.183389 0.0300427 0)
  (-0.218723 0.0193922 0)
  (-0.255575 0.0103688 0)
  (-0.279614 0.000525944 0)
  (-0.288133 -0.0103749 0)
  (-0.277001 -0.02281 0)
  (-0.244473 -0.0375608 0)
  (-0.190886 -0.0529938 0)
  (-0.1229 -0.066392 0)
  (-0.0539246 -0.0743146 0)
  (0.0352024 -0.0530952 0)
  (0.0708336 -0.0253903 0)
  (0.0803821 0.00104149 0)
  (0.0644096 0.045841 0)
  (-0.0144498 0.0117334 0)
  (-0.040222 -0.0185915 0)
  (-0.0154736 -0.0327282 0)
  (0.0171409 -0.0289665 0)
  (0.0394961 -0.0206704 0)
  (0.0564005 -0.0112525 0)
  (0.0665576 -0.00631756 0)
  (0.0710882 -0.00453378 0)
  (0.0728822 -0.00385232 0)
  (0.0738343 -0.00342022 0)
  (0.0744107 -0.00306885 0)
  (0.0745479 -0.0027099 0)
  (0.0740077 -0.00213315 0)
  (0.0722301 -0.000961448 0)
  (0.0679973 0.00132057 0)
  (0.0599315 0.00408686 0)
  (0.0505025 0.00746627 0)
  (-0.00483479 0.024863 0)
  (0.201093 0.193142 0)
  (-0.170125 0.083166 0)
  (-0.181245 0.0657238 0)
  (-0.220893 0.0484005 0)
  (-0.246543 0.0281126 0)
  (-0.257342 0.00389167 0)
  (-0.249494 -0.0253487 0)
  (-0.221966 -0.0580002 0)
  (-0.176009 -0.0888798 0)
  (-0.118243 -0.110286 0)
  (-0.0589816 -0.114928 0)
  (-0.00227886 -0.0887457 0)
  (0.0409611 -0.0378479 0)
  (0.0706294 0.00647637 0)
  (0.0919162 0.0505728 0)
  (0.108017 0.0547472 0)
  (0.0865212 0.0610329 0)
  (0.00733879 0.0838446 0)
  (0.0601294 0.0472405 0)
  (0.00797036 -0.0254092 0)
  (0.0272567 -0.0439428 0)
  (0.0435564 -0.0414045 0)
  (0.0580571 -0.0315278 0)
  (0.0658462 -0.013947 0)
  (0.0679147 -0.00335577 0)
  (0.0679839 0.000536896 0)
  (0.0681448 0.00190352 0)
  (0.0685182 0.00263376 0)
  (0.0687952 0.00314837 0)
  (0.0688978 0.00368672 0)
  (0.0687734 0.00461114 0)
  (0.0679375 0.00680398 0)
  (0.064086 0.0126185 0)
  (0.0544698 0.0181645 0)
  (0.0490526 0.0236224 0)
  (-0.0487976 0.052767 0)
  (0.364679 0.290486 0)
  (-0.183448 0.13235 0)
  (-0.140365 0.107 0)
  (-0.181154 0.0765338 0)
  (-0.206832 0.0424529 0)
  (-0.219838 0.00268736 0)
  (-0.215102 -0.0435534 0)
  (-0.191387 -0.0944471 0)
  (-0.151648 -0.140086 0)
  (-0.103338 -0.167096 0)
  (-0.0554418 -0.166916 0)
  (-0.0134111 -0.132823 0)
  (0.0239015 -0.0713611 0)
  (0.0502971 -0.0208115 0)
  (0.0730682 0.0203698 0)
  (0.0806413 0.0291287 0)
  (0.0714566 0.0431322 0)
  (-0.00465471 0.0847153 0)
  (0.126476 -0.0020989 0)
  (0.0728716 -0.0353198 0)
  (0.0657507 -0.0493077 0)
  (0.0704142 -0.0495378 0)
  (0.0764893 -0.0443528 0)
  (0.0786502 -0.0324734 0)
  (0.0679861 -0.0207882 0)
  (0.0597006 -0.0145402 0)
  (0.0564917 -0.0110752 0)
  (0.055497 -0.00884064 0)
  (0.0550054 -0.00731448 0)
  (0.0548284 -0.0061354 0)
  (0.0555738 -0.00470108 0)
  (0.0584162 -0.000821379 0)
  (0.0573143 0.0168279 0)
  (0.0455615 0.0291672 0)
  (0.0520156 0.0389495 0)
  (-0.0913734 0.0795955 0)
  (0.516938 0.369876 0)
  (-0.215516 0.175805 0)
  (-0.0939097 0.14536 0)
  (-0.135468 0.104999 0)
  (-0.158045 0.0612714 0)
  (-0.171857 0.00865077 0)
  (-0.168999 -0.0545745 0)
  (-0.147374 -0.123669 0)
  (-0.113833 -0.182469 0)
  (-0.0759983 -0.21312 0)
  (-0.0403073 -0.209001 0)
  (-0.0102813 -0.167978 0)
  (0.0167518 -0.100757 0)
  (0.0379377 -0.0426638 0)
  (0.0556771 0.00305799 0)
  (0.0663644 0.0300352 0)
  (0.0778152 0.0534028 0)
  (0.0694224 0.0871896 0)
  (0.110222 0.0914182 0)
  (0.101196 0.00887789 0)
  (0.0881118 -0.0314608 0)
  (0.0831304 -0.0455867 0)
  (0.0786578 -0.0470099 0)
  (0.0716472 -0.0409291 0)
  (0.0716055 -0.0245788 0)
  (0.0833721 -0.0156699 0)
  (0.0922049 -0.0108312 0)
  (0.096271 -0.0078276 0)
  (0.0975732 -0.00541674 0)
  (0.0963933 -0.00295796 0)
  (0.0921752 -0.000121587 0)
  (0.0837046 0.0035683 0)
  (0.0687139 0.00889852 0)
  (0.0524284 0.0275637 0)
  (0.0380121 0.0436723 0)
  (0.0583681 0.0572156 0)
  (-0.130042 0.100851 0)
  (0.657264 0.431101 0)
  (-0.259809 0.209993 0)
  (-0.0424867 0.171818 0)
  (-0.0840011 0.125795 0)
  (-0.0996306 0.0768253 0)
  (-0.111661 0.0152686 0)
  (-0.107023 -0.0623595 0)
  (-0.0852929 -0.147831 0)
  (-0.0597143 -0.215379 0)
  (-0.035101 -0.24589 0)
  (-0.0139942 -0.237275 0)
  (0.0027901 -0.190451 0)
  (0.0175121 -0.121733 0)
  (0.0308397 -0.0580569 0)
  (0.0422289 -0.00922176 0)
  (0.0528807 0.0240923 0)
  (0.0663331 0.0468962 0)
  (0.0791989 0.0556256 0)
  (0.0966853 0.0180623 0)
  (0.0973059 -0.0191167 0)
  (0.0909062 -0.0355454 0)
  (0.0816155 -0.0409637 0)
  (0.0717744 -0.0396381 0)
  (0.062933 -0.0322007 0)
  (0.0598269 -0.017377 0)
  (0.0624521 -0.00833955 0)
  (0.0654912 -0.0042402 0)
  (0.0674634 -0.00180069 0)
  (0.0687576 0.00094128 0)
  (0.0692792 0.00459814 0)
  (0.0681133 0.00942334 0)
  (0.0647656 0.0158139 0)
  (0.0588323 0.0245919 0)
  (0.0514631 0.0391467 0)
  (0.0405793 0.0555001 0)
  (0.069381 0.0746167 0)
  (-0.0141508 0.106685 0)
  (0.0491684 0.15012 0)
  (-0.0881944 0.0695578 0)
  (-0.276368 -0.00360824 0)
  (0.771019 0.480629 0)
  (-0.310384 0.231263 0)
  (0.006338 0.17722 0)
  (-0.0285248 0.137367 0)
  (-0.0353294 0.0890487 0)
  (-0.0445753 0.0239526 0)
  (-0.0281826 -0.0699062 0)
  (-0.00593739 -0.16849 0)
  (0.00873338 -0.237784 0)
  (0.0173309 -0.26339 0)
  (0.0215248 -0.249224 0)
  (0.0222184 -0.200316 0)
  (0.0224445 -0.130517 0)
  (0.0239763 -0.0641291 0)
  (0.0266914 -0.0158192 0)
  (0.0327491 0.01477 0)
  (0.0435102 0.0320075 0)
  (0.0582924 0.0326985 0)
  (0.0708122 0.0100588 0)
  (0.0728243 -0.0103671 0)
  (0.0667753 -0.0233917 0)
  (0.0569655 -0.0292587 0)
  (0.0467584 -0.0292184 0)
  (0.0381048 -0.0243464 0)
  (0.0333923 -0.0159568 0)
  (0.0329835 -0.0102036 0)
  (0.0346281 -0.00739714 0)
  (0.0370697 -0.0054359 0)
  (0.0399845 -0.00265253 0)
  (0.043501 0.00196932 0)
  (0.0461431 0.00849084 0)
  (0.047789 0.016888 0)
  (0.0487655 0.0275355 0)
  (0.0502092 0.041246 0)
  (0.0493925 0.0568702 0)
  (0.0742821 0.0774134 0)
  (0.0591215 0.0915336 0)
  (0.0963631 0.0969958 0)
  (0.117866 0.0552977 0)
  (-0.140358 -0.0337618 0)
  (0.837998 0.524154 0)
  (-0.344644 0.212055 0)
  (0.0480215 0.131769 0)
  (0.0380612 0.132415 0)
  (0.0349172 0.0941564 0)
  (0.0312905 0.018234 0)
  (0.0674177 -0.0937238 0)
  (0.084821 -0.18514 0)
  (0.0861783 -0.24284 0)
  (0.0774623 -0.261747 0)
  (0.0625266 -0.243429 0)
  (0.043923 -0.19303 0)
  (0.025859 -0.123449 0)
  (0.0127153 -0.0577168 0)
  (0.00576311 -0.0141293 0)
  (0.00685071 0.00918822 0)
  (0.0152731 0.0200779 0)
  (0.0271975 0.0192284 0)
  (0.0351982 0.00658517 0)
  (0.0357858 -0.00665884 0)
  (0.0304707 -0.0159875 0)
  (0.0219258 -0.0203247 0)
  (0.0129069 -0.020504 0)
  (0.00534059 -0.0177579 0)
  (0.000989192 -0.013547 0)
  (0.000207467 -0.0107434 0)
  (0.00168263 -0.00957275 0)
  (0.00443689 -0.00870505 0)
  (0.00819554 -0.00685576 0)
  (0.0130243 -0.00283417 0)
  (0.0201591 0.00425998 0)
  (0.0265604 0.0130309 0)
  (0.0333496 0.0232599 0)
  (0.0419174 0.0351614 0)
  (0.0503075 0.047758 0)
  (0.0718555 0.0638946 0)
  (0.0853919 0.0694701 0)
  (0.119126 0.0606746 0)
  (0.163943 0.0475267 0)
  (-0.0157688 0.0924979 0)
  (0.949159 0.523133 0)
  (-0.0667645 0.18969 0)
  (0.123282 0.0774944 0)
  (0.160231 0.0736188 0)
  (0.143847 0.0383814 0)
  (0.151249 -0.0457023 0)
  (0.184157 -0.124615 0)
  (0.187587 -0.190192 0)
  (0.169663 -0.231039 0)
  (0.138633 -0.239452 0)
  (0.100202 -0.215979 0)
  (0.0581509 -0.165046 0)
  (0.0190986 -0.0979588 0)
  (-0.00860791 -0.0369099 0)
  (-0.0204249 -0.00716845 0)
  (-0.0217278 0.0058364 0)
  (-0.0163796 0.0115574 0)
  (-0.00883829 0.0109261 0)
  (-0.00450543 0.00413744 0)
  (-0.00517275 -0.00367756 0)
  (-0.00999655 -0.00941836 0)
  (-0.0170465 -0.0122728 0)
  (-0.0241518 -0.0129075 0)
  (-0.0298434 -0.0123144 0)
  (-0.0331923 -0.0114527 0)
  (-0.0342925 -0.0112525 0)
  (-0.0339687 -0.0116437 0)
  (-0.0327963 -0.0120382 0)
  (-0.0308581 -0.0118216 0)
  (-0.0278304 -0.0103563 0)
  (-0.0226174 -0.0068768 0)
  (-0.0122439 -0.000802517 0)
  (-0.00277037 0.00647622 0)
  (0.00945448 0.0136812 0)
  (0.0212197 0.0194168 0)
  (0.0388961 0.0261068 0)
  (0.0546391 0.0211647 0)
  (0.078616 0.0033738 0)
  (0.143859 0.0461698 0)
  (-0.434255 0.212077 0)
  (1.09571 0.461363 0)
  (0.549554 0.313743 0)
  (0.55071 0.2902 0)
  (0.506321 0.212921 0)
  (0.439669 0.125062 0)
  (0.400644 0.030589 0)
  (0.35313 -0.0651999 0)
  (0.300341 -0.139953 0)
  (0.242777 -0.181901 0)
  (0.179944 -0.188253 0)
  (0.114457 -0.164137 0)
  (0.0474577 -0.115517 0)
  (-0.010646 -0.0529778 0)
  (-0.0404271 -0.0145279 0)
  (-0.0505431 -0.000961297 0)
  (-0.0522763 0.00464743 0)
  (-0.0497492 0.00695586 0)
  (-0.046233 0.00648654 0)
  (-0.0447171 0.00342541 0)
  (-0.0460921 -0.000381834 0)
  (-0.0498115 -0.00363664 0)
  (-0.0550129 -0.00587103 0)
  (-0.060284 -0.00732641 0)
  (-0.0648063 -0.0083762 0)
  (-0.0682897 -0.00930435 0)
  (-0.0710528 -0.0102771 0)
  (-0.0737166 -0.0111187 0)
  (-0.0768327 -0.0114426 0)
  (-0.0808768 -0.0107453 0)
  (-0.0863919 -0.0083809 0)
  (-0.0940621 -0.00354762 0)
  (-0.103965 0.00436478 0)
  (-0.1147 0.0151397 0)
  (-0.131116 0.0292003 0)
  (-0.15726 0.0466826 0)
  (-0.195494 0.0661605 0)
  (-0.247545 0.0831643 0)
  (-0.304046 0.094013 0)
  (-0.376311 0.097834 0)
  (-0.648078 0.0948446 0)
  (0.504716 0.215938 0)
  (0.453888 0.230414 0)
  (0.409207 0.155976 0)
  (0.370678 0.0618082 0)
  (0.334214 -0.0231596 0)
  (0.280487 -0.0841491 0)
  (0.215938 -0.116932 0)
  (0.142119 -0.118287 0)
  (0.0662657 -0.0936078 0)
  (-0.0166029 -0.0451575 0)
  (-0.0626504 -0.010669 0)
  (-0.0785184 -0.000466101 0)
  (-0.0831434 0.00199227 0)
  (-0.0836442 0.00301495 0)
  (-0.0824505 0.00353593 0)
  (-0.0809866 0.00316367 0)
  (-0.0806455 0.00158717 0)
  (-0.0819725 -0.00066898 0)
  (-0.0845635 -0.00297819 0)
  (-0.0880664 -0.00497093 0)
  (-0.0919757 -0.00651621 0)
  (-0.0958072 -0.00768887 0)
  (-0.0995698 -0.0084592 0)
  (-0.103499 -0.00879241 0)
  (-0.107825 -0.00852547 0)
  (-0.11264 -0.00735609 0)
  (-0.117859 -0.00487843 0)
  (-0.123174 -0.00063171 0)
  (-0.127981 0.00578274 0)
  (-0.131821 0.0148208 0)
  (-0.135107 0.0274841 0)
  (-0.138281 0.044308 0)
  (-0.142403 0.0645334 0)
  (-0.147971 0.0844431 0)
  (-0.151003 0.0940612 0)
  (-0.134128 0.0716552 0)
  (-0.0906272 -0.0265593 0)
  (-0.285577 -0.215349 0)
  (0.293961 0.494643 0)
  (0.0158564 0.294665 0)
  (0.0771904 0.174091 0)
  (0.107247 0.070448 0)
  (0.113659 -3.30017e-05 0)
  (0.0992509 -0.0442589 0)
  (0.0598608 -0.0601521 0)
  (-0.00716393 -0.0394983 0)
  (-0.0696462 -0.00274774 0)
  (-0.102235 0.0136475 0)
  (-0.112131 0.0163294 0)
  (-0.113079 0.0148136 0)
  (-0.112661 0.0139242 0)
  (-0.11167 0.0141827 0)
  (-0.110307 0.0151588 0)
  (-0.108864 0.0162545 0)
  (-0.107804 0.0170553 0)
  (-0.107397 0.0174646 0)
  (-0.107611 0.0174562 0)
  (-0.108296 0.016928 0)
  (-0.109302 0.0157437 0)
  (-0.110727 0.0142327 0)
  (-0.112552 0.0128566 0)
  (-0.114712 0.0117164 0)
  (-0.117083 0.0108787 0)
  (-0.119466 0.0104403 0)
  (-0.121567 0.0105485 0)
  (-0.122899 0.0113867 0)
  (-0.122768 0.0138844 0)
  (-0.120026 0.0190473 0)
  (-0.113191 0.0279098 0)
  (-0.101071 0.0414818 0)
  (-0.0836948 0.0596635 0)
  (-0.0619524 0.0784653 0)
  (-0.0382174 0.0907782 0)
  (0.00127649 0.0783636 0)
  (0.145547 0.00355518 0)
  (-0.208852 -0.128555 0)
  (-0.746654 -0.716056 0)
  (-0.879379 -0.165544 0)
  (-0.567756 0.32694 0)
  (-0.460451 0.146216 0)
  (-0.212665 0.0421462 0)
  (-0.110279 -0.052623 0)
  (-0.0829427 -0.0951984 0)
  (-0.0877895 -0.073118 0)
  (-0.121213 -0.0501056 0)
  (-0.143192 -0.0354929 0)
  (-0.148758 -0.0295755 0)
  (-0.14438 -0.0274443 0)
  (-0.13895 -0.0276813 0)
  (-0.134169 -0.0288506 0)
  (-0.130414 -0.0298791 0)
  (-0.126926 -0.0308777 0)
  (-0.123285 -0.032267 0)
  (-0.119481 -0.0344243 0)
  (-0.115813 -0.0374041 0)
  (-0.112655 -0.0408066 0)
  (-0.110288 -0.0439641 0)
  (-0.108877 -0.0462613 0)
  (-0.10848 -0.0473464 0)
  (-0.109017 -0.0472777 0)
  (-0.110254 -0.0465087 0)
  (-0.111906 -0.0451151 0)
  (-0.113655 -0.0430953 0)
  (-0.115121 -0.0403555 0)
  (-0.115824 -0.0366879 0)
  (-0.115145 -0.0317499 0)
  (-0.111971 -0.0257295 0)
  (-0.104369 -0.018375 0)
  (-0.0896788 -0.00910164 0)
  (-0.0658739 0.00299845 0)
  (-0.033838 0.0186159 0)
  (0.0193002 0.0393541 0)
  (0.0671601 0.0420303 0)
  (0.113116 0.024046 0)
  (0.171621 -0.0128058 0)
  (-0.195939 -0.0763476 0)
)
;

boundaryField
{
  floor
  {
    type noSlip;
  }
  ceiling
  {
    type noSlip;
  }
  sWall
  {
    type noSlip;
  }
  nWall
  {
    type noSlip;
  }
  sideWalls
  {
    type empty;
  }
  glass1
  {
    type noSlip;
  }
  glass2
  {
    type noSlip;
  }
  sun
  {
    type noSlip;
  }
  Table_master
  {
    type noSlip;
  }
  Table_slave
  {
    type noSlip;
  }
  inlet
  {
    type fixedValue;
    value uniform (0.0707107 -0.0707107 0);
  }
  outlet
  {
    type zeroGradient;
  }
} 	// ************************************************************************* //

