/*--------------------------------*- C++ -*----------------------------------*\
  =========                 |
  \\      /  F ield         | OpenFOAM: The Open Source CFD Toolbox
   \\    /   O peration     | Website:  https://openfoam.org
    \\  /    A nd           | Version:  6
     \\/     M anipulation  |
\*---------------------------------------------------------------------------*/
FoamFile
{
    version     2.0;
    format      ascii;
    class       volScalarField;
    location    "1300";
    object      nut;
}
// * * * * * * * * * * * * * * * * * * * * * * * * * * * * * * * * * * * * * //

dimensions      [0 2 -1 0 0 0 0];

internalField   nonuniform List<scalar> 
458
(
0.000703472
0.000729186
0.000684838
0.000710806
0.000737484
0.000762304
0.000785505
0.000807738
0.000829886
0.00085323
0.000873759
0.000890606
0.000904112
0.000916016
0.000925635
0.00029292
0.00033709
0.000345116
0.000272661
0.000215999
0.000201434
0.000211372
0.000228002
0.000245338
0.000260314
0.000269579
0.000272391
0.000277214
0.000291415
0.000317203
0.000332837
0.000330037
0.000301478
0.00116209
0.00208622
0.00164808
0.00210411
0.0022966
0.00248841
0.00268055
0.00285828
0.0030008
0.00308019
0.00311072
0.00305217
0.00285106
0.00242452
0.00170713
0.00100178
0.000955067
0.000640221
0.000435487
0.000788335
0.000857856
0.000713619
0.000490522
0.000424506
0.000523764
0.000652837
0.000774739
0.000875741
0.000940164
0.000989529
0.00105263
0.00118058
0.00148502
0.00132453
0.000975571
0.000351444
0.00157074
0.0033576
0.00177411
0.00305612
0.00350502
0.00375963
0.00397834
0.00416674
0.00431996
0.00442873
0.0045044
0.00452676
0.00445366
0.00421766
0.00374069
0.00300942
0.00203628
0.00102217
0.000676463
0.00166213
0.00131
0.000930167
0.000599655
0.000295671
0.000312787
0.000339754
0.000368669
0.000400828
0.000438993
0.000487445
0.000554705
0.000658624
0.0021012
0.00212284
0.00163688
0.000540885
0.00196587
0.00500629
0.00193351
0.0032483
0.00412668
0.00440711
0.00459044
0.00473848
0.0048636
0.00497085
0.00507918
0.00520357
0.00532045
0.00536794
0.00522456
0.00471886
0.0036885
0.00218969
0.0010235
0.00247029
0.00254656
0.00206509
0.00153884
0.00106009
0.000694181
0.000684922
0.000681704
0.000683848
0.00069273
0.000710328
0.000739368
0.00078469
0.000860086
0.00271699
0.00291312
0.00249352
0.000816791
0.00234062
0.00685721
0.00254914
0.00293133
0.00424581
0.00459959
0.00474264
0.00482904
0.00489097
0.00495388
0.00505994
0.00526095
0.0055573
0.00592501
0.00629444
0.00656637
0.00665579
0.00649112
0.00607223
0.00583889
0.00541284
0.00498748
0.00463003
0.00431911
0.00404218
0.00385717
0.00368303
0.0035173
0.00337106
0.00326298
0.00321207
0.00322807
0.00330954
0.00347827
0.0034612
0.00334711
0.0028101
0.00119194
0.00104724
0.00091366
0.00269791
0.00857589
0.00392898
0.00268032
0.00376704
0.00432762
0.00455716
0.00465484
0.00466496
0.00463006
0.00468395
0.00486875
0.00518818
0.00565644
0.00624158
0.00685208
0.00736642
0.0076397
0.00758514
0.00730522
0.006944
0.00661642
0.00634917
0.00611915
0.0058968
0.00566825
0.00542122
0.00514727
0.00484582
0.00453567
0.0042559
0.00404178
0.00389253
0.0037727
0.00364327
0.00348366
0.00321309
0.00263657
0.00196036
0.000950316
0.00303204
0.00985121
0.00630961
0.00355728
0.00299159
0.00340476
0.00393034
0.0042967
0.00445481
0.00432435
0.00432693
0.00442777
0.00462921
0.00498565
0.0055284
0.00620788
0.00690133
0.00743171
0.00767501
0.00765613
0.00749698
0.00730696
0.00713053
0.00696728
0.00680528
0.00663762
0.00645879
0.00625166
0.00598605
0.00563646
0.0052183
0.00479825
0.00443041
0.00411067
0.00380067
0.0034546
0.00301533
0.00246327
0.00187392
0.000945234
0.00310941
0.00989799
0.00781255
0.00608827
0.00453524
0.00377138
0.00375612
0.00402732
0.00418152
0.00414792
0.00411499
0.00413109
0.00421445
0.00439156
0.00470286
0.00518075
0.00579832
0.00642614
0.00690309
0.00716275
0.00725012
0.00724351
0.00719449
0.00712408
0.00704306
0.00696227
0.00689426
0.00684147
0.00678208
0.00666043
0.00641005
0.00602813
0.00556905
0.00508312
0.0045704
0.00402445
0.00346251
0.00293403
0.00252767
0.00137929
0.00301747
0.00360111
0.00446921
0.00467891
0.00448086
0.00413937
0.00388341
0.00375393
0.00370013
0.00369502
0.00372505
0.00377927
0.00385733
0.003969
0.00413533
0.00438801
0.00475381
0.00521407
0.00568645
0.00608074
0.00635966
0.00653406
0.0066308
0.00667392
0.00668285
0.00667835
0.00668449
0.00672497
0.00681522
0.00694601
0.00706266
0.00710933
0.00706877
0.00699116
0.00696253
0.00687291
0.00637924
0.00534065
0.00504048
0.00159522
0.00499429
0.00687006
0.00551357
0.00488412
0.00448224
0.00420836
0.00402035
0.00388727
0.00380135
0.00375872
0.00375592
0.00379183
0.00386969
0.0039984
0.00419071
0.00445343
0.00477083
0.00510059
0.0053976
0.00563651
0.00581255
0.00593399
0.00601498
0.0060721
0.00612343
0.00618806
0.00628469
0.00642097
0.00659516
0.00680456
0.007014
0.00717762
0.00725818
0.00714155
0.00668242
0.00586749
0.00483874
0.00160044
0.00318522
0.00702597
0.0057467
0.00506331
0.00462168
0.00431473
0.00410983
0.00399122
0.00390737
0.00387075
0.00389017
0.00396985
0.00410899
0.00430027
0.00452959
0.00477816
0.0050242
0.00523516
0.00539034
0.00550289
0.00558849
0.00565839
0.0057181
0.00576903
0.00581064
0.00584213
0.00586397
0.00587959
0.00589609
0.00592333
0.00597194
0.00604157
0.00609131
0.00593513
0.00555666
0.00489359
0.00437453
0.00158056
0.00193333
0.00225491
0.0026524
0.00268284
0.00234248
0.00212384
0.00194399
0.00178864
0.00165277
0.00153314
0.00143764
0.00136043
0.00129882
0.00125217
0.00122074
0.00120455
0.00120238
0.00121125
0.00122693
0.00124634
0.0012656
0.00127979
0.00128825
0.00129221
0.00129332
0.00129292
0.00129192
0.00129077
0.00128969
0.00128892
0.00128844
0.00128731
0.00128385
0.0012751
0.00125729
0.00124141
0.00121939
0.00118393
0.00119412
0.00112932
)
;

boundaryField
{
    floor
    {
        type            nutkWallFunction;
        Cmu             0.09;
        kappa           0.41;
        E               9.8;
        value           nonuniform List<scalar> 
36
(
0.000111945
3.23966e-05
3.83861e-05
3.94586e-05
2.9597e-05
2.1649e-05
1.95691e-05
2.0998e-05
2.33649e-05
2.58065e-05
2.7896e-05
2.91803e-05
2.95687e-05
3.02348e-05
3.21888e-05
3.57049e-05
3.78199e-05
3.74445e-05
3.35725e-05
3.35724e-05
4.03202e-05
6.49181e-05
9.89305e-05
0.000143121
0.000126297
0.000110529
0.000111945
0.000120948
0.000115433
7.73455e-05
3.23966e-05
7.73455e-05
5.13707e-05
0.000123341
8.18161e-05
0.000123493
)
;
    }
    ceiling
    {
        type            nutkWallFunction;
        Cmu             0.09;
        kappa           0.41;
        E               9.8;
        value           nonuniform List<scalar> 
43
(
0.000226218
0.000261105
0.000303517
0.000306783
0.000270557
0.000246995
0.000227418
0.00021035
0.000195292
0.000181921
0.000171165
0.000162411
0.000155386
0.000150042
0.000146428
0.000144562
0.00014431
0.000145333
0.000147137
0.000149369
0.000151579
0.000153205
0.000154173
0.000154626
0.000154753
0.000154707
0.000154591
0.00015446
0.000154336
0.000154247
0.000154192
0.000154062
0.000153666
0.000152664
0.000150623
0.0001488
0.000146268
0.000142183
0.000143365
0.00013585
0.000342055
0.000402457
0.00035935
)
;
    }
    sWall
    {
        type            nutkWallFunction;
        Cmu             0.09;
        kappa           0.41;
        E               9.8;
        value           uniform 0.000226273;
    }
    nWall
    {
        type            nutkWallFunction;
        Cmu             0.09;
        kappa           0.41;
        E               9.8;
        value           nonuniform List<scalar> 6(0.000110532 0.000114881 0.00011428 0.00018947 0.000187237 0.000135858);
    }
    sideWalls
    {
        type            empty;
    }
    glass1
    {
        type            nutkWallFunction;
        Cmu             0.09;
        kappa           0.41;
        E               9.8;
        value           nonuniform List<scalar> 9(8.5113e-05 0.000139771 0.000186341 0.000230094 0.00027071 0.000308794 0.000343932 0.000352018 0.000342431);
    }
    glass2
    {
        type            nutkWallFunction;
        Cmu             0.09;
        kappa           0.41;
        E               9.8;
        value           nonuniform List<scalar> 2(0.000164605 0.000188931);
    }
    sun
    {
        type            nutkWallFunction;
        Cmu             0.09;
        kappa           0.41;
        E               9.8;
        value           nonuniform List<scalar> 
14
(
8.51457e-05
8.82944e-05
8.28576e-05
8.60464e-05
8.93079e-05
9.23298e-05
9.51441e-05
9.78316e-05
0.0001005
0.000103304
0.000105763
0.000107775
0.000109385
0.000110802
)
;
    }
    Table_master
    {
        type            nutkWallFunction;
        Cmu             0.09;
        kappa           0.41;
        E               9.8;
        value           nonuniform List<scalar> 9(3.27769e-05 3.51086e-05 3.87472e-05 4.26078e-05 4.68568e-05 5.18443e-05 5.80993e-05 6.6657e-05 7.96368e-05);
    }
    Table_slave
    {
        type            nutkWallFunction;
        Cmu             0.09;
        kappa           0.41;
        E               9.8;
        value           nonuniform List<scalar> 9(8.4006e-05 8.2869e-05 8.2474e-05 8.27389e-05 8.38324e-05 8.59931e-05 8.95444e-05 9.50537e-05 0.000104136);
    }
    inlet
    {
        type            calculated;
        value           uniform 3.3541e-05;
    }
    outlet
    {
        type            calculated;
        value           nonuniform List<scalar> 2(0.00193333 0.00225491);
    }
}


// ************************************************************************* //
