/*--------------------------------*- C++ -*----------------------------------*\
  =========                 |
  \\      /  F ield         | OpenFOAM: The Open Source CFD Toolbox
   \\    /   O peration     | Website:  https://openfoam.org
    \\  /    A nd           | Version:  6
     \\/     M anipulation  |
\*---------------------------------------------------------------------------*/
FoamFile
{
    version     2.0;
    format      ascii;
    class       volScalarField;
    location    "1300";
    object      k;
}
// * * * * * * * * * * * * * * * * * * * * * * * * * * * * * * * * * * * * * //

dimensions      [0 2 -2 0 0 0 0];

internalField   nonuniform List<scalar> 
458
(
0.000960556
0.00103652
0.000981079
0.00104937
0.00111194
0.00116715
0.00121626
0.00126109
0.0013038
0.00134729
0.00138234
0.00140448
0.0014142
0.00141785
0.00141732
0.00034312
0.000458788
0.00051747
0.00055788
0.000566199
0.000533117
0.000491928
0.000453469
0.000419309
0.000388647
0.000360778
0.000335122
0.00031111
0.000288041
0.000265081
0.000240761
0.000218202
0.000179126
0.00238813
0.0045141
0.00144338
0.00144054
0.00148679
0.00154489
0.00160842
0.00168007
0.00176158
0.00185114
0.00193432
0.00198357
0.00197102
0.00186805
0.00167139
0.001507
0.0013336
0.00116872
0.000779799
0.000846717
0.000909688
0.000941856
0.000899107
0.000782467
0.0006824
0.000614394
0.000557851
0.000505268
0.000456095
0.000409804
0.000365054
0.000321739
0.000290683
0.000273825
0.000404358
0.000256663
0.00424283
0.0101712
0.00204711
0.0017956
0.0018383
0.00192372
0.00201862
0.0021255
0.00224544
0.00237262
0.00249171
0.0025665
0.00256764
0.00248904
0.00235428
0.00216968
0.00187934
0.00166581
0.00109897
0.00120701
0.0011805
0.00104541
0.000899475
0.000711324
0.000547307
0.000429647
0.000350876
0.000298687
0.000262937
0.000237565
0.000220008
0.000211311
0.000221281
0.000243609
0.000564181
0.000329555
0.00668805
0.0192778
0.00314376
0.00207477
0.00209278
0.0022142
0.00234391
0.00248262
0.00263572
0.00280353
0.00297049
0.00308291
0.00310175
0.00301759
0.00283455
0.00255748
0.00223621
0.00195236
0.00164564
0.00174477
0.00129188
0.00105809
0.000859144
0.000736746
0.000565541
0.000570807
0.000599502
0.000632131
0.00065765
0.00066567
0.000646511
0.000610015
0.000566239
0.000463091
0.000386245
0.000742931
0.000434224
0.00973617
0.0316755
0.00574397
0.00239836
0.00227
0.0024019
0.0025634
0.00274512
0.00295733
0.00320954
0.00346617
0.00363589
0.00367488
0.00358317
0.00336989
0.00305926
0.00272966
0.00245074
0.00209695
0.00155822
0.00120103
0.00095969
0.00081865
0.000781655
0.00084374
0.000937211
0.0010359
0.00112615
0.0011911
0.00120997
0.00116533
0.00105032
0.000915702
0.00075632
0.000601139
0.00067969
0.000668042
0.000640881
0.000703001
0.000736429
0.013429
0.0445005
0.0125145
0.00365441
0.00268859
0.00265614
0.0027938
0.00300062
0.00327082
0.00365693
0.00402734
0.00422861
0.00424666
0.00410992
0.00384051
0.00346719
0.00304193
0.00257736
0.00205894
0.00156378
0.00121536
0.000986291
0.000872946
0.000858292
0.000929633
0.00106663
0.00121535
0.00136128
0.00148646
0.00156205
0.00155999
0.00143916
0.00124021
0.00102465
0.000829426
0.000736026
0.000693825
0.000846585
0.00218515
0.00127222
0.0175858
0.0531965
0.0263475
0.0102973
0.00563793
0.00403791
0.00368262
0.00375675
0.00400471
0.00450497
0.00484728
0.00494045
0.00484049
0.0045995
0.00424576
0.00380308
0.00330256
0.00274485
0.00217
0.00167698
0.00132377
0.00108276
0.000967908
0.000960154
0.00103416
0.00117086
0.00133948
0.00152264
0.00170961
0.00186339
0.00196526
0.00197719
0.00177628
0.00151098
0.00128925
0.00116303
0.00112968
0.00132839
0.00302974
0.00190992
0.0186458
0.0577049
0.0387583
0.0288807
0.019115
0.0123208
0.00879159
0.0071877
0.00658996
0.00638829
0.0061477
0.00583622
0.00546328
0.00503497
0.00455246
0.00402035
0.0034521
0.002865
0.0022988
0.00182714
0.00147767
0.00121638
0.0010922
0.00108457
0.00115945
0.0012926
0.00146275
0.00165748
0.00187058
0.002096
0.00233281
0.00257705
0.00277858
0.00275496
0.00280157
0.00318261
0.00404201
0.00511693
0.010802
0.00363732
0.017805
0.0256507
0.0264982
0.0239252
0.0206518
0.0168857
0.0136082
0.0111763
0.00954215
0.00831463
0.00737792
0.00661444
0.00594297
0.00531149
0.00469008
0.00406641
0.00344427
0.00284527
0.00231575
0.00191124
0.00162175
0.00136797
0.00123652
0.00121497
0.00127006
0.00137868
0.00152438
0.00169904
0.00190054
0.0021302
0.00239066
0.00268311
0.00300376
0.00334622
0.00377486
0.00435859
0.0049786
0.00545838
0.00577974
0.00349403
0.0150037
0.0293776
0.0221333
0.0179774
0.0148566
0.0124402
0.0105935
0.00914344
0.00793951
0.00692181
0.00603989
0.00525244
0.00452928
0.00385218
0.00321772
0.00264753
0.00220394
0.0019373
0.00176652
0.00157379
0.00144013
0.00137829
0.00137859
0.00142803
0.00151285
0.0016246
0.0017607
0.00192334
0.00211847
0.00235565
0.00264825
0.0030031
0.00339621
0.00379439
0.00407249
0.00406695
0.00376208
0.00236808
0.0126416
0.0269733
0.0207715
0.0170717
0.014327
0.0121477
0.0103173
0.0087983
0.00752442
0.00641446
0.00546081
0.00463888
0.00392274
0.00329142
0.00273645
0.002286
0.00206647
0.00212401
0.00220616
0.00216827
0.00204696
0.00190347
0.00179211
0.00173837
0.00173879
0.00178275
0.00186385
0.00198225
0.00214347
0.0023548
0.00261712
0.00295467
0.00334634
0.00373023
0.00405282
0.00425489
0.00384175
0.00243203
0.00787781
0.0093337
0.0106637
0.0122152
0.0108316
0.00968353
0.00806445
0.006844
0.00578981
0.00487115
0.00409802
0.00349079
0.00297516
0.00251541
0.00209266
0.00169676
0.00132445
0.000987246
0.000730834
0.00067319
0.000701829
0.00070854
0.000700428
0.000701271
0.000725204
0.000774606
0.000845678
0.000934297
0.00103819
0.00115746
0.00129521
0.00145927
0.00166669
0.00189547
0.0021477
0.0024159
0.00271899
0.00263383
0.00223699
0.00191097
)
;

boundaryField
{
    floor
    {
        type            kqRWallFunction;
        value           nonuniform List<scalar> 
36
(
0.00141732
0.00034312
0.000458788
0.00051747
0.00055788
0.000566199
0.000533117
0.000491928
0.000453469
0.000419309
0.000388647
0.000360778
0.000335122
0.00031111
0.000288041
0.000265081
0.000240761
0.000218202
0.000179126
0.000179126
0.000256663
0.000329555
0.000434224
0.000640881
0.000703001
0.000736429
0.00141732
0.001507
0.0013336
0.00116872
0.00034312
0.00116872
0.000779799
0.00166581
0.00109897
0.00164564
)
;
    }
    ceiling
    {
        type            kqRWallFunction;
        value           nonuniform List<scalar> 
43
(
0.00787781
0.0093337
0.0106637
0.0122152
0.0108316
0.00968353
0.00806445
0.006844
0.00578981
0.00487115
0.00409802
0.00349079
0.00297516
0.00251541
0.00209266
0.00169676
0.00132445
0.000987246
0.000730834
0.00067319
0.000701829
0.00070854
0.000700428
0.000701271
0.000725204
0.000774606
0.000845678
0.000934297
0.00103819
0.00115746
0.00129521
0.00145927
0.00166669
0.00189547
0.0021477
0.0024159
0.00271899
0.00263383
0.00223699
0.00191097
0.017805
0.0256507
0.0126416
)
;
    }
    sWall
    {
        type            kqRWallFunction;
        value           uniform 0.00787781;
    }
    nWall
    {
        type            kqRWallFunction;
        value           nonuniform List<scalar> 6(0.000736429 0.00127222 0.00190992 0.00236808 0.00243203 0.00191097);
    }
    sideWalls
    {
        type            empty;
    }
    glass1
    {
        type            kqRWallFunction;
        value           nonuniform List<scalar> 9(0.000960556 0.00238813 0.00424283 0.00668805 0.00973617 0.013429 0.0175858 0.0186458 0.017805);
    }
    glass2
    {
        type            kqRWallFunction;
        value           nonuniform List<scalar> 2(0.00363732 0.00349403);
    }
    sun
    {
        type            kqRWallFunction;
        value           nonuniform List<scalar> 
14
(
0.000960556
0.00103652
0.000981079
0.00104937
0.00111194
0.00116715
0.00121626
0.00126109
0.0013038
0.00134729
0.00138234
0.00140448
0.0014142
0.00141785
)
;
    }
    Table_master
    {
        type            kqRWallFunction;
        value           nonuniform List<scalar> 9(0.000711324 0.000547307 0.000429647 0.000350876 0.000298687 0.000262937 0.000237565 0.000220008 0.000211311);
    }
    Table_slave
    {
        type            kqRWallFunction;
        value           nonuniform List<scalar> 9(0.000565541 0.000570807 0.000599502 0.000632131 0.00065765 0.00066567 0.000646511 0.000610015 0.000566239);
    }
    inlet
    {
        type            turbulentIntensityKineticEnergyInlet;
        intensity       0.05;
        value           uniform 0.0003375;
    }
    outlet
    {
        type            zeroGradient;
    }
}


// ************************************************************************* //
