/*--------------------------------*- C++ -*----------------------------------*\
  =========                 |
  \\      /  F ield         | OpenFOAM: The Open Source CFD Toolbox
   \\    /   O peration     | Website:  https://openfoam.org
    \\  /    A nd           | Version:  6
     \\/     M anipulation  |
\*---------------------------------------------------------------------------*/
FoamFile
{
    version     2.0;
    format      ascii;
    class       volScalarField;
    location    "1300";
    object      nut;
}
// * * * * * * * * * * * * * * * * * * * * * * * * * * * * * * * * * * * * * //

dimensions      [0 2 -1 0 0 0 0];

internalField   nonuniform List<scalar> 
458
(
0.000695998
0.000722996
0.000703398
0.000727467
0.000748839
0.000767205
0.00078318
0.000797482
0.000810875
0.000824286
0.000834938
0.000841599
0.000844505
0.000845592
0.000845433
0.00041623
0.000480956
0.000510785
0.000530373
0.000534329
0.000518494
0.000498067
0.000478206
0.000459845
0.000442716
0.000426549
0.000411105
0.000396104
0.000381137
0.000365632
0.000348456
0.00033173
0.000300562
0.00109742
0.0017676
0.00147297
0.0017592
0.00188524
0.00201509
0.00214251
0.00225745
0.00234564
0.00238811
0.00239255
0.00232969
0.00216333
0.00184373
0.00134292
0.000871767
0.000820079
0.000767724
0.000627127
0.0011559
0.00164397
0.00190774
0.00185902
0.0014168
0.00125643
0.00116704
0.00109132
0.00101829
0.000947486
0.000877773
0.000805066
0.000725131
0.000651888
0.000592473
0.000662779
0.00035978
0.00146275
0.00274238
0.00161475
0.00254982
0.00278558
0.00294373
0.00307063
0.0031707
0.0032461
0.00329281
0.00331366
0.00329253
0.00320586
0.00302848
0.0027359
0.00230023
0.00165993
0.000916538
0.000744458
0.00216082
0.00250449
0.00239725
0.00199532
0.000598958
0.000525396
0.000465518
0.000420692
0.00038815
0.000364182
0.000346163
0.000333124
0.000326469
0.000403451
0.000491656
0.000757625
0.000407674
0.0018365
0.00420097
0.00164381
0.00286099
0.00330422
0.00346045
0.0035519
0.00360842
0.00364505
0.00366906
0.00368464
0.00368657
0.00365864
0.00357968
0.00341284
0.0030902
0.00252471
0.00168739
0.000910956
0.00247356
0.00257895
0.00246236
0.00221065
0.00182909
0.000534046
0.000536523
0.000549841
0.000564603
0.000575883
0.000579379
0.000570976
0.000554625
0.000534353
0.000518285
0.000522373
0.000835682
0.000467942
0.00221582
0.00610135
0.0021763
0.00267975
0.00351137
0.00372277
0.00379994
0.00382372
0.00382263
0.00381979
0.00382308
0.00384212
0.00385512
0.00383757
0.00376419
0.00362018
0.00342947
0.00322053
0.0029312
0.00272197
0.00247414
0.00224266
0.00205469
0.0019574
0.00189447
0.00199219
0.00209547
0.00218211
0.00223659
0.00224464
0.0021901
0.00200092
0.00168809
0.00133028
0.00102992
0.000934244
0.000739881
0.000568476
0.000595395
0.000609391
0.00260233
0.00813385
0.00393186
0.0025011
0.00316458
0.00362078
0.00383504
0.00392158
0.00391777
0.00386392
0.00383948
0.0038723
0.00390651
0.00390982
0.00385661
0.00373341
0.00355092
0.00330882
0.002986
0.00263936
0.0023612
0.00215014
0.00201169
0.00197678
0.0020484
0.00219543
0.00234156
0.0024688
0.00256366
0.00261612
0.00261803
0.00254467
0.0023246
0.00197972
0.0015949
0.00125296
0.000987523
0.000982478
0.00141315
0.000800966
0.00297799
0.00980609
0.00708013
0.00409002
0.00300406
0.00289523
0.00324012
0.00361877
0.00387624
0.0038286
0.00382152
0.00386038
0.00389165
0.00389187
0.00383961
0.00371906
0.00352753
0.00325576
0.00292095
0.00259815
0.00235032
0.00215401
0.00202187
0.00199106
0.00205179
0.00217501
0.00231494
0.00244895
0.00256624
0.0026532
0.00271458
0.00275191
0.00268191
0.00243012
0.00208765
0.00173598
0.00143446
0.00133087
0.00163866
0.000981383
0.00306643
0.00963063
0.00823807
0.00703669
0.00545293
0.00425379
0.00370751
0.00362724
0.00378055
0.00384211
0.00384259
0.00384174
0.00383812
0.00381197
0.00374028
0.00360542
0.00340132
0.00313378
0.00283571
0.00257255
0.0023745
0.00218585
0.00204675
0.00200806
0.00204896
0.00213772
0.00224372
0.00235008
0.00245147
0.00254818
0.00265138
0.00277638
0.00291524
0.00289734
0.0026675
0.0025082
0.00249971
0.00255824
0.00317449
0.00135433
0.00299649
0.0035966
0.00424125
0.00454409
0.0046103
0.00439386
0.00411244
0.00390198
0.00379632
0.00374043
0.00373049
0.00373484
0.00372464
0.0036765
0.00357377
0.00340802
0.00318222
0.00291727
0.00266284
0.00247828
0.00236003
0.00219471
0.00205124
0.0019955
0.00200537
0.00205238
0.00211311
0.00217316
0.00222525
0.002266
0.0022932
0.00230265
0.00228698
0.00224453
0.00219489
0.00217241
0.00214386
0.00206868
0.00196741
0.00132739
0.00268917
0.00536785
0.00500076
0.00476125
0.00453247
0.00433492
0.00418285
0.00406086
0.00394362
0.00382243
0.00368521
0.00352123
0.00332349
0.00309034
0.00282922
0.00256847
0.0023753
0.00230259
0.00229012
0.00217687
0.00203922
0.00195193
0.00191479
0.00191372
0.00193187
0.00195602
0.00197798
0.00199429
0.00200567
0.00201628
0.00203253
0.00205318
0.00205643
0.00203455
0.00195733
0.00179935
0.00158689
0.0010928
0.0025249
0.00580998
0.00539407
0.00505964
0.0047838
0.00454301
0.00430851
0.00408523
0.00385185
0.00357716
0.00329042
0.0030058
0.00272968
0.00246506
0.00221838
0.00202068
0.00197873
0.00213184
0.00230485
0.00232246
0.00222198
0.00208276
0.00196045
0.00188147
0.00184538
0.0018421
0.00186232
0.00189955
0.00194838
0.00200104
0.00204211
0.00209517
0.00214396
0.00216331
0.00214611
0.00209588
0.00201151
0.00110745
0.00199317
0.00216955
0.00231898
0.00248195
0.00233716
0.00220984
0.00201665
0.0018578
0.00170874
0.00156732
0.00143757
0.00132679
0.00122488
0.00112627
0.00102727
0.000924998
0.000817223
0.000705548
0.000607059
0.000582731
0.000595008
0.000597823
0.000594376
0.000594725
0.000604782
0.000625036
0.000653074
0.000686433
0.000723585
0.000764015
0.000808194
0.00085785
0.000916787
0.000977682
0.0010407
0.00110376
0.00117095
0.00115247
0.00106211
0.00098167
)
;

boundaryField
{
    floor
    {
        type            nutkWallFunction;
        Cmu             0.09;
        kappa           0.41;
        E               9.8;
        value           nonuniform List<scalar> 
36
(
0.000102365
4.88448e-05
5.72726e-05
6.10907e-05
6.35801e-05
6.40799e-05
6.20672e-05
5.94606e-05
5.69136e-05
5.45473e-05
5.23291e-05
5.02258e-05
4.8207e-05
4.6237e-05
4.4262e-05
4.22056e-05
3.99145e-05
3.76693e-05
3.34454e-05
3.34453e-05
4.14266e-05
4.77577e-05
5.55935e-05
6.83932e-05
7.17701e-05
7.3518e-05
0.000102365
0.00010552
9.93175e-05
9.29868e-05
4.88447e-05
9.29868e-05
7.57208e-05
0.000110858
9.01586e-05
0.000110197
)
;
    }
    ceiling
    {
        type            nutkWallFunction;
        Cmu             0.09;
        kappa           0.41;
        E               9.8;
        value           nonuniform List<scalar> 
43
(
0.00023256
0.000251677
0.000267748
0.000285274
0.000269842
0.000256175
0.000235257
0.000217889
0.000201443
0.000185696
0.00017111
0.000158542
0.000146876
0.000135483
0.000123932
0.000111864
9.89773e-05
8.54116e-05
7.32308e-05
7.01738e-05
7.17102e-05
7.20649e-05
7.16355e-05
7.16801e-05
7.29378e-05
7.54624e-05
7.89409e-05
8.30562e-05
8.76114e-05
9.25368e-05
9.78839e-05
0.000103853
0.000110886
0.000118098
0.000125507
0.00013287
0.000140663
0.000138524
0.000128012
0.000118569
0.000339794
0.000401903
0.000289569
)
;
    }
    sWall
    {
        type            nutkWallFunction;
        Cmu             0.09;
        kappa           0.41;
        E               9.8;
        value           uniform 0.000232622;
    }
    nWall
    {
        type            nutkWallFunction;
        Cmu             0.09;
        kappa           0.41;
        E               9.8;
        value           nonuniform List<scalar> 6(7.35133e-05 9.7015e-05 0.000118541 0.000131601 0.000133307 0.000118575);
    }
    sideWalls
    {
        type            empty;
    }
    glass1
    {
        type            nutkWallFunction;
        Cmu             0.09;
        kappa           0.41;
        E               9.8;
        value           nonuniform List<scalar> 9(8.41931e-05 0.00013224 0.000174175 0.000215871 0.000257247 0.000298632 0.000338239 0.000347494 0.000340198);
    }
    glass2
    {
        type            nutkWallFunction;
        Cmu             0.09;
        kappa           0.41;
        E               9.8;
        value           nonuniform List<scalar> 2(0.000161741 0.000158672);
    }
    sun
    {
        type            nutkWallFunction;
        Cmu             0.09;
        kappa           0.41;
        E               9.8;
        value           nonuniform List<scalar> 
14
(
8.4231e-05
8.75394e-05
8.51396e-05
8.80855e-05
9.06916e-05
9.29239e-05
9.48607e-05
9.65907e-05
9.82073e-05
9.9823e-05
0.000101104
0.000101904
0.000102253
0.000102384
)
;
    }
    Table_master
    {
        type            nutkWallFunction;
        Cmu             0.09;
        kappa           0.41;
        E               9.8;
        value           nonuniform List<scalar> 9(7.22118e-05 6.29426e-05 5.52796e-05 4.94629e-05 4.51916e-05 4.2017e-05 3.96132e-05 3.78638e-05 3.6968e-05);
    }
    Table_slave
    {
        type            nutkWallFunction;
        Cmu             0.09;
        kappa           0.41;
        E               9.8;
        value           nonuniform List<scalar> 9(6.40438e-05 6.43582e-05 6.60434e-05 6.79055e-05 6.93246e-05 6.97642e-05 6.87091e-05 6.66495e-05 6.40857e-05);
    }
    inlet
    {
        type            calculated;
        value           uniform 0.000100623;
    }
    outlet
    {
        type            calculated;
        value           nonuniform List<scalar> 2(0.00199317 0.00216955);
    }
}


// ************************************************************************* //
