// -*- C++ -*-
// File generated by PyFoam - sorry for the ugliness

FoamFile
{
 version 2.0;
 format ascii;
 class volVectorField;
 location "600";
 object U;
}

dimensions [ 0 1 -1 0 0 0 0 ];

internalField nonuniform List<vector> 458
(
  (0.0416532 0.0678667 0)
  (-0.132904 0.0136784 0)
  (-0.135731 0.00459359 0)
  (-0.140812 -0.000743078 0)
  (-0.136056 -0.0063269 0)
  (-0.123717 -0.0107881 0)
  (-0.107696 -0.0119955 0)
  (-0.0918754 -0.0112303 0)
  (-0.0779254 -0.00985863 0)
  (-0.0662805 -0.0085403 0)
  (-0.0567694 -0.00753833 0)
  (-0.0485371 -0.00707265 0)
  (-0.039588 -0.00765135 0)
  (-0.0276927 -0.0108401 0)
  (-0.0158944 -0.0197789 0)
  (0.0537563 0.00542353 0)
  (-0.0216034 0.000748908 0)
  (-0.0124714 -0.00139291 0)
  (-0.0136661 -0.00212719 0)
  (-0.0137898 -0.00424252 0)
  (-0.00971568 -0.00876545 0)
  (-0.000835266 -0.0136323 0)
  (0.00634703 -0.00935491 0)
  (0.013687 -0.00709344 0)
  (0.0181537 -0.00526776 0)
  (0.0211435 -0.00368213 0)
  (0.023556 -0.00279343 0)
  (0.0259418 -0.00303995 0)
  (0.0285105 -0.00302158 0)
  (0.0288124 -0.00105636 0)
  (0.0256726 -0.00159046 0)
  (0.0274545 0.0012904 0)
  (-0.0378461 0.00845323 0)
  (0.171756 0.13612 0)
  (-0.138995 0.0410101 0)
  (-0.121451 0.0157033 0)
  (-0.129184 0.00142812 0)
  (-0.126664 -0.0137408 0)
  (-0.115521 -0.0241105 0)
  (-0.100882 -0.0251234 0)
  (-0.087896 -0.0222782 0)
  (-0.0776221 -0.0184939 0)
  (-0.0699497 -0.0149468 0)
  (-0.0643992 -0.0121676 0)
  (-0.0602033 -0.0107039 0)
  (-0.0565491 -0.0116191 0)
  (-0.0536163 -0.017328 0)
  (-0.0520069 -0.0326813 0)
  (-0.0458401 -0.0587315 0)
  (-0.0404778 -0.06345 0)
  (0.112521 -0.0480179 0)
  (0.0567954 0.00108076 0)
  (0.0207518 0.00495885 0)
  (0.00945621 0.0062809 0)
  (0.00459039 0.00639993 0)
  (-0.00706479 0.00429151 0)
  (-0.0108915 -0.00939373 0)
  (-0.00457522 -0.0184952 0)
  (-0.0040116 -0.0118856 0)
  (0.00770136 -0.00800143 0)
  (0.01099 -0.00606162 0)
  (0.0119321 -0.00431435 0)
  (0.0117956 -0.00290919 0)
  (0.0100304 -0.00206364 0)
  (0.00569906 0.00117769 0)
  (0.000932617 0.0118113 0)
  (-0.00547563 0.0114796 0)
  (-0.0241358 0.0137024 0)
  (-0.0663311 0.00791832 0)
  (0.401781 0.216084 0)
  (-0.111111 0.0717813 0)
  (-0.0621509 0.00970818 0)
  (-0.08492 -0.0117109 0)
  (-0.0980573 -0.0296409 0)
  (-0.0948108 -0.0394621 0)
  (-0.084187 -0.0377182 0)
  (-0.0759485 -0.0317147 0)
  (-0.0703612 -0.0251898 0)
  (-0.0670545 -0.0194562 0)
  (-0.0654238 -0.0150079 0)
  (-0.0646685 -0.0122761 0)
  (-0.0641006 -0.0118816 0)
  (-0.0638052 -0.0144355 0)
  (-0.0639481 -0.0194753 0)
  (-0.0607602 -0.0245562 0)
  (-0.0474288 -0.0315113 0)
  (-0.0153232 -0.033266 0)
  (-0.0437041 0.00484408 0)
  (-0.0200482 0.003608 0)
  (-0.014738 0.00470187 0)
  (-0.00675552 0.00470373 0)
  (-0.00343555 0.00580546 0)
  (0.0206338 0.00370258 0)
  (-3.63912e-05 -0.0151294 0)
  (-0.025125 -0.0116981 0)
  (-0.0333371 -0.00824318 0)
  (-0.0403961 -0.00563723 0)
  (-0.0451531 -0.00318425 0)
  (-0.0479685 -0.0013671 0)
  (-0.0485646 -0.000243205 0)
  (-0.0445145 0.000710834 0)
  (-0.0355341 0.00436204 0)
  (-0.0242004 0.00838167 0)
  (-0.0249692 0.00880255 0)
  (0.102737 0.0136558 0)
  (0.513808 0.146125 0)
  (0.256534 0.140849 0)
  (0.181022 0.119601 0)
  (0.115062 0.0894194 0)
  (0.0385287 0.0426596 0)
  (-0.0497589 -0.0298446 0)
  (-0.0572528 -0.0397608 0)
  (-0.0589901 -0.0347023 0)
  (-0.0600558 -0.0265918 0)
  (-0.062076 -0.0192257 0)
  (-0.0652472 -0.0136597 0)
  (-0.0693058 -0.0105557 0)
  (-0.0740919 -0.0106211 0)
  (-0.079902 -0.0143117 0)
  (-0.0872412 -0.0210064 0)
  (-0.096447 -0.0287602 0)
  (-0.108939 -0.0365737 0)
  (-0.124231 -0.0428624 0)
  (-0.125244 -0.0395439 0)
  (-0.106926 0.00127479 0)
  (-0.0988334 0.0011266 0)
  (-0.0978212 0.00105497 0)
  (-0.0999921 0.000373613 0)
  (-0.104196 -0.00112435 0)
  (-0.107993 -0.00105234 0)
  (-0.107332 -0.00232044 0)
  (-0.105621 -0.0033846 0)
  (-0.102797 -0.004104 0)
  (-0.0992357 -0.00463597 0)
  (-0.0951363 -0.00506075 0)
  (-0.0904711 -0.00544035 0)
  (-0.0850339 -0.00586351 0)
  (-0.0788157 -0.00641319 0)
  (-0.072537 -0.00757481 0)
  (-0.064193 -0.00728049 0)
  (-0.038968 -0.00949336 0)
  (0.0410959 -0.0139309 0)
  (0.0755134 -0.143016 0)
  (0.150963 0.0808833 0)
  (0.149381 0.134959 0)
  (0.119985 0.13481 0)
  (0.0648325 0.0988092 0)
  (0.00373415 0.0344729 0)
  (-0.0328671 -0.0244832 0)
  (-0.0419744 -0.0292435 0)
  (-0.0491226 -0.0220978 0)
  (-0.0555712 -0.0142026 0)
  (-0.061887 -0.00794412 0)
  (-0.0681405 -0.00410269 0)
  (-0.0744779 -0.00314657 0)
  (-0.0812583 -0.00519176 0)
  (-0.0889027 -0.00967249 0)
  (-0.0979524 -0.0152668 0)
  (-0.109326 -0.0201275 0)
  (-0.121675 -0.0207936 0)
  (-0.127407 -0.0136371 0)
  (-0.125924 -0.00590096 0)
  (-0.12302 -0.0016022 0)
  (-0.120182 0.00101702 0)
  (-0.117687 0.00213103 0)
  (-0.115383 0.00183802 0)
  (-0.112936 0.000694765 0)
  (-0.110419 -0.0014396 0)
  (-0.108101 -0.00299791 0)
  (-0.105703 -0.00403615 0)
  (-0.103209 -0.00471869 0)
  (-0.100746 -0.00521752 0)
  (-0.0984966 -0.00578376 0)
  (-0.0967681 -0.00688748 0)
  (-0.0962127 -0.00930246 0)
  (-0.0976529 -0.0138221 0)
  (-0.101058 -0.0207836 0)
  (-0.105184 -0.035702 0)
  (-0.11275 -0.0664887 0)
  (-0.125442 -0.122975 0)
  (-0.0996908 -0.128985 0)
  (0.127167 -0.15873 0)
  (-0.0149679 -0.181929 0)
  (0.111372 0.036228 0)
  (0.136584 0.151819 0)
  (0.115174 0.183805 0)
  (0.0638378 0.148505 0)
  (0.0140161 0.0744471 0)
  (-0.0123393 0.00198307 0)
  (-0.0283312 -0.0167529 0)
  (-0.0403362 -0.0130473 0)
  (-0.0497688 -0.00640708 0)
  (-0.0572703 -0.000960191 0)
  (-0.0632573 0.0023209 0)
  (-0.0684873 0.00313239 0)
  (-0.0738141 0.00144169 0)
  (-0.0798867 -0.00242457 0)
  (-0.0869368 -0.0075449 0)
  (-0.0953243 -0.0123742 0)
  (-0.103911 -0.0141903 0)
  (-0.10962 -0.0111214 0)
  (-0.111323 -0.0072675 0)
  (-0.110456 -0.00436912 0)
  (-0.108334 -0.00247864 0)
  (-0.105584 -0.00168196 0)
  (-0.102614 -0.00192839 0)
  (-0.0997117 -0.0029532 0)
  (-0.0970796 -0.00449782 0)
  (-0.0946852 -0.00590481 0)
  (-0.0922824 -0.00697741 0)
  (-0.0896904 -0.00768274 0)
  (-0.0868008 -0.00801889 0)
  (-0.0835468 -0.00801552 0)
  (-0.0799372 -0.00778308 0)
  (-0.0761235 -0.00750322 0)
  (-0.0722592 -0.0072269 0)
  (-0.0682431 -0.00688433 0)
  (-0.0644882 -0.00800244 0)
  (-0.0644819 -0.0109442 0)
  (-0.0758388 -0.0122273 0)
  (-0.108017 -0.0179843 0)
  (0.203247 -0.08901 0)
  (-0.0550701 -0.250133 0)
  (0.0996475 -0.0888179 0)
  (0.152219 0.130663 0)
  (0.116521 0.232375 0)
  (0.0479896 0.196165 0)
  (0.00578664 0.104234 0)
  (-0.00608793 0.0264095 0)
  (-0.0215122 -3.79084e-05 0)
  (-0.0357542 -0.00110549 0)
  (-0.0453008 0.00230346 0)
  (-0.0511382 0.00499227 0)
  (-0.0543398 0.00642015 0)
  (-0.0560895 0.00656045 0)
  (-0.0575642 0.00525219 0)
  (-0.0597382 0.0024154 0)
  (-0.0633627 -0.00164413 0)
  (-0.067956 -0.00571152 0)
  (-0.0729915 -0.0081502 0)
  (-0.0768782 -0.00808546 0)
  (-0.0787045 -0.00689624 0)
  (-0.0787416 -0.00565607 0)
  (-0.0775932 -0.00477324 0)
  (-0.0757318 -0.00447692 0)
  (-0.0735688 -0.00483805 0)
  (-0.0714279 -0.00577335 0)
  (-0.0694976 -0.00707831 0)
  (-0.067763 -0.00843492 0)
  (-0.066055 -0.00968898 0)
  (-0.0641857 -0.0107903 0)
  (-0.0619761 -0.0117406 0)
  (-0.0592549 -0.0125966 0)
  (-0.0558749 -0.0134971 0)
  (-0.0517301 -0.014657 0)
  (-0.0467104 -0.0163259 0)
  (-0.0406224 -0.0189758 0)
  (-0.0328306 -0.0237368 0)
  (-0.0225659 -0.0311961 0)
  (-0.0209161 -0.0393212 0)
  (-0.118028 -0.0490024 0)
  (0.319771 -0.111451 0)
  (-0.106197 -0.233963 0)
  (-0.021806 -0.146079 0)
  (0.12325 0.0701494 0)
  (0.0958851 0.299497 0)
  (-0.0148777 0.232766 0)
  (-0.026932 0.114049 0)
  (-0.0213794 0.0399156 0)
  (-0.0282415 0.0151811 0)
  (-0.0358255 0.00955391 0)
  (-0.0390679 0.00824048 0)
  (-0.0389061 0.00740433 0)
  (-0.0365867 0.0065781 0)
  (-0.0332314 0.00566701 0)
  (-0.0297505 0.00445565 0)
  (-0.027014 0.00261038 0)
  (-0.0256655 2.74888e-06 0)
  (-0.0262021 -0.00283432 0)
  (-0.0279784 -0.00496941 0)
  (-0.0299357 -0.00592438 0)
  (-0.0312354 -0.0060756 0)
  (-0.0316697 -0.00594212 0)
  (-0.031365 -0.00582804 0)
  (-0.0305601 -0.00592964 0)
  (-0.0295323 -0.0063617 0)
  (-0.0285232 -0.0071404 0)
  (-0.0276827 -0.00818743 0)
  (-0.0270283 -0.00936526 0)
  (-0.0264643 -0.0105883 0)
  (-0.0258497 -0.0118215 0)
  (-0.0250205 -0.0130693 0)
  (-0.0237929 -0.0143839 0)
  (-0.0219665 -0.0158874 0)
  (-0.0193217 -0.0177872 0)
  (-0.015603 -0.0204054 0)
  (-0.0104258 -0.0243036 0)
  (-0.00242099 -0.0304727 0)
  (0.0118339 -0.0402806 0)
  (0.0275549 -0.0539316 0)
  (-0.0694263 -0.0695579 0)
  (0.52643 -0.0835273 0)
  (-0.219773 -0.106372 0)
  (-0.329625 -0.0854363 0)
  (-0.536901 0.0246669 0)
  (0.0279149 0.354857 0)
  (-0.123251 0.227923 0)
  (-0.079715 0.105653 0)
  (-0.0474661 0.043439 0)
  (-0.0331603 0.022835 0)
  (-0.023597 0.0158189 0)
  (-0.0130911 0.012015 0)
  (-0.0032292 0.00960236 0)
  (0.0059128 0.0078494 0)
  (0.0137699 0.00653573 0)
  (0.0206488 0.00548238 0)
  (0.026275 0.00445783 0)
  (0.0302642 0.00326069 0)
  (0.0320947 0.00188785 0)
  (0.0322087 0.000609501 0)
  (0.0313184 -0.000347768 0)
  (0.0301598 -0.000982207 0)
  (0.0291591 -0.00141652 0)
  (0.0284664 -0.00177151 0)
  (0.028015 -0.00213338 0)
  (0.0276611 -0.00260585 0)
  (0.0272678 -0.00324406 0)
  (0.0267372 -0.00404889 0)
  (0.0260361 -0.00498876 0)
  (0.0251962 -0.00604363 0)
  (0.0242889 -0.00721784 0)
  (0.023413 -0.00854765 0)
  (0.0226909 -0.0101169 0)
  (0.0222658 -0.0120837 0)
  (0.0222978 -0.0147216 0)
  (0.022946 -0.0184916 0)
  (0.0243862 -0.0241632 0)
  (0.0273884 -0.032965 0)
  (0.0336293 -0.0468359 0)
  (0.0399457 -0.0677425 0)
  (-0.0533604 -0.0858911 0)
  (0.561484 -0.0399221 0)
  (-2.53177 0.058335 0)
  (-0.0157987 0.215586 0)
  (-0.190408 0.137512 0)
  (-0.0835189 0.0405017 0)
  (-0.000509639 -0.00739157 0)
  (0.0348774 -0.0110866 0)
  (0.055032 -0.00807002 0)
  (0.0686922 -0.00354176 0)
  (0.0790891 0.00153219 0)
  (0.087176 0.00657486 0)
  (0.0935219 0.0110547 0)
  (0.0984631 0.0146313 0)
  (0.102084 0.017156 0)
  (0.104407 0.0185701 0)
  (0.105305 0.0190383 0)
  (0.104912 0.0185176 0)
  (0.103588 0.0172256 0)
  (0.101757 0.0155044 0)
  (0.0997456 0.0136273 0)
  (0.0977479 0.0117642 0)
  (0.0957847 0.0100564 0)
  (0.0938182 0.00843153 0)
  (0.0918043 0.00681587 0)
  (0.0896886 0.00515181 0)
  (0.0874255 0.00338746 0)
  (0.0849935 0.00146105 0)
  (0.0823919 -0.000710778 0)
  (0.0796362 -0.00324576 0)
  (0.0767502 -0.00631351 0)
  (0.0737537 -0.0101586 0)
  (0.0706359 -0.0151292 0)
  (0.0672989 -0.0217101 0)
  (0.0634655 -0.0305496 0)
  (0.0587642 -0.0424687 0)
  (0.0521017 -0.0586152 0)
  (0.036606 -0.0801194 0)
  (-0.0537976 -0.0957009 0)
  (0.235057 -0.0318488 0)
  (-1.17299 0.116154 0)
  (0.499267 -0.0374848 0)
  (0.216697 -0.0491732 0)
  (0.18381 -0.0884466 0)
  (0.194418 -0.107521 0)
  (0.201733 -0.11469 0)
  (0.203889 -0.120599 0)
  (0.204439 -0.128315 0)
  (0.204138 -0.137229 0)
  (0.202631 -0.145889 0)
  (0.199723 -0.152861 0)
  (0.195629 -0.157054 0)
  (0.190835 -0.158 0)
  (0.185895 -0.155949 0)
  (0.181408 -0.151028 0)
  (0.177538 -0.144923 0)
  (0.174212 -0.138968 0)
  (0.171229 -0.133802 0)
  (0.168367 -0.129642 0)
  (0.165464 -0.126447 0)
  (0.162519 -0.123672 0)
  (0.159467 -0.121414 0)
  (0.156269 -0.119662 0)
  (0.15286 -0.118364 0)
  (0.149173 -0.117454 0)
  (0.145151 -0.116871 0)
  (0.140738 -0.116567 0)
  (0.135877 -0.116506 0)
  (0.130484 -0.116663 0)
  (0.124432 -0.117017 0)
  (0.117514 -0.117538 0)
  (0.109386 -0.118169 0)
  (0.0995084 -0.118808 0)
  (0.0872751 -0.119278 0)
  (0.0719946 -0.119406 0)
  (0.0518897 -0.120563 0)
  (-0.031086 -0.12949 0)
  (0.265034 -0.207592 0)
  (0.235818 0.236242 0)
  (0.475516 0.141309 0)
  (0.23417 0.211195 0)
  (0.527805 0.164916 0)
  (0.521654 0.1829 0)
  (0.467099 0.205524 0)
  (0.432408 0.224782 0)
  (0.407774 0.248696 0)
  (0.384486 0.277486 0)
  (0.362653 0.308611 0)
  (0.343715 0.339689 0)
  (0.327976 0.368367 0)
  (0.315181 0.392119 0)
  (0.305014 0.408787 0)
  (0.297102 0.417388 0)
  (0.290992 0.418494 0)
  (0.286063 0.412892 0)
  (0.281952 0.403619 0)
  (0.278221 0.393416 0)
  (0.274466 0.383894 0)
  (0.270446 0.375796 0)
  (0.266065 0.369317 0)
  (0.261237 0.363771 0)
  (0.256048 0.359224 0)
  (0.250502 0.355642 0)
  (0.244564 0.352921 0)
  (0.238188 0.350931 0)
  (0.231307 0.34954 0)
  (0.223828 0.348632 0)
  (0.215612 0.348109 0)
  (0.20647 0.347887 0)
  (0.196141 0.347888 0)
  (0.184282 0.348017 0)
  (0.170443 0.348132 0)
  (0.154039 0.348018 0)
  (0.134416 0.34734 0)
  (0.110984 0.345367 0)
  (0.0828892 0.341736 0)
  (-0.0441023 0.378563 0)
  (0.355144 0.57298 0)
)
;

boundaryField
{
  floor
  {
    type noSlip;
  }
  ceiling
  {
    type noSlip;
  }
  sWall
  {
    type noSlip;
  }
  nWall
  {
    type noSlip;
  }
  sideWalls
  {
    type empty;
  }
  glass1
  {
    type noSlip;
  }
  glass2
  {
    type noSlip;
  }
  sun
  {
    type noSlip;
  }
  Table_master
  {
    type noSlip;
  }
  Table_slave
  {
    type noSlip;
  }
  inlet
  {
    type fixedValue;
    value uniform (0.267878 -0.646716 0);
  }
  outlet
  {
    type zeroGradient;
  }
} 	// ************************************************************************* //

