/*--------------------------------*- C++ -*----------------------------------*\
  =========                 |
  \\      /  F ield         | OpenFOAM: The Open Source CFD Toolbox
   \\    /   O peration     | Website:  https://openfoam.org
    \\  /    A nd           | Version:  6
     \\/     M anipulation  |
\*---------------------------------------------------------------------------*/
FoamFile
{
    version     2.0;
    format      ascii;
    class       volScalarField;
    location    "500";
    object      T;
}
// * * * * * * * * * * * * * * * * * * * * * * * * * * * * * * * * * * * * * //

dimensions      [0 0 0 1 0 0 0];

internalField   nonuniform List<scalar> 
458
(
302.564
302.212
302.211
302.222
302.231
302.239
302.245
302.251
302.255
302.259
302.261
302.261
302.257
302.251
302.244
301.02
301.004
301.001
300.952
300.919
300.923
300.932
300.935
300.912
300.895
300.887
300.887
300.896
300.925
300.987
301.034
301.02
301.015
302.815
302.271
302.245
302.261
302.278
302.293
302.305
302.315
302.323
302.329
302.33
302.324
302.309
302.284
302.249
302.216
302.18
302.151
301.132
301.172
301.21
301.235
301.196
301.03
301.015
300.994
300.996
300.99
300.993
301.011
301.071
301.176
301.293
301.255
301.145
301.05
303.049
302.346
302.29
302.312
302.338
302.363
302.385
302.404
302.419
302.429
302.432
302.424
302.403
302.366
302.314
302.254
302.191
302.141
301.589
301.538
301.555
301.603
301.623
301.337
301.176
301.063
301.124
301.185
301.244
301.308
301.38
301.477
301.58
301.397
301.307
301.247
303.262
302.431
302.335
302.359
302.396
302.432
302.467
302.498
302.523
302.541
302.551
302.546
302.525
302.485
302.426
302.349
302.254
302.142
302.042
301.956
301.989
302.058
302.124
302.166
302.2
302.205
302.209
302.214
302.221
302.229
302.237
302.243
302.228
302.128
302.019
301.91
301.893
303.458
302.523
302.381
302.399
302.444
302.49
302.536
302.579
302.618
302.648
302.666
302.67
302.657
302.625
302.575
302.511
302.437
302.363
302.301
302.259
302.248
302.252
302.259
302.262
302.264
302.264
302.267
302.273
302.281
302.291
302.302
302.312
302.315
302.302
302.281
302.252
302.203
302.239
302.235
302.241
303.626
302.626
302.439
302.432
302.478
302.529
302.582
302.635
302.684
302.727
302.758
302.773
302.771
302.751
302.712
302.656
302.589
302.52
302.458
302.411
302.379
302.358
302.343
302.33
302.321
302.315
302.313
302.317
302.326
302.339
302.355
302.371
302.386
302.398
302.408
302.417
302.422
302.416
302.346
302.283
303.757
302.783
302.572
302.496
302.513
302.557
302.609
302.662
302.717
302.774
302.818
302.845
302.855
302.85
302.827
302.786
302.73
302.665
302.602
302.546
302.501
302.464
302.433
302.408
302.387
302.37
302.359
302.356
302.363
302.377
302.398
302.42
302.442
302.461
302.477
302.49
302.496
302.487
302.436
302.299
303.985
303.216
302.989
302.792
302.682
302.655
302.677
302.716
302.769
302.829
302.871
302.897
302.912
302.915
302.907
302.886
302.85
302.797
302.739
302.682
302.629
302.582
302.54
302.502
302.469
302.44
302.416
302.4
302.394
302.402
302.421
302.445
302.47
302.493
302.512
302.529
302.544
302.556
302.566
302.574
304.298
303.973
303.768
303.525
303.308
303.154
303.057
303.004
302.981
302.969
302.967
302.968
302.969
302.967
302.961
302.948
302.927
302.895
302.855
302.808
302.758
302.708
302.66
302.614
302.572
302.533
302.496
302.465
302.441
302.428
302.426
302.433
302.445
302.46
302.476
302.498
302.523
302.547
302.577
302.666
302.594
303.094
303.187
303.165
303.128
303.098
303.079
303.064
303.052
303.04
303.029
303.017
303.005
302.991
302.974
302.953
302.928
302.896
302.86
302.819
302.775
302.73
302.686
302.642
302.6
302.561
302.524
302.493
302.469
302.455
302.449
302.449
302.453
302.458
302.461
302.465
302.473
302.506
302.656
303.058
303.127
303.134
303.123
303.109
303.097
303.086
303.075
303.064
303.052
303.04
303.028
303.014
302.999
302.983
302.965
302.944
302.921
302.894
302.863
302.829
302.792
302.753
302.714
302.674
302.633
302.592
302.554
302.523
302.499
302.482
302.472
302.465
302.461
302.461
302.466
302.506
302.86
302.806
302.809
303.036
303.101
303.105
303.1
303.093
303.085
303.076
303.068
303.059
303.05
303.04
303.03
303.019
303.007
302.994
302.98
302.966
302.951
302.935
302.917
302.898
302.878
302.855
302.829
302.801
302.77
302.735
302.696
302.656
302.617
302.584
302.556
302.536
302.52
302.506
302.495
302.521
)
;

boundaryField
{
    floor
    {
        type            wallHeatTransfer;
        Tinf            uniform 305.2;
        alphaWall       uniform 0.24;
        value           nonuniform List<scalar> 
36
(
302.599
301.95
301.89
301.881
301.949
302.037
302.089
302.156
302.208
302.225
302.189
302.118
302.026
301.946
301.884
301.838
301.807
301.805
301.867
301.867
301.763
301.822
302.231
302.475
302.49
302.52
302.599
302.553
302.531
302.585
301.95
302.585
301.874
302.472
302.029
302.36
)
;
    }
    ceiling
    {
        type            wallHeatTransfer;
        Tinf            uniform 303.2;
        alphaWall       uniform 0.24;
        value           nonuniform List<scalar> 
43
(
302.883
302.831
302.832
303.046
303.107
303.111
303.107
303.101
303.094
303.086
303.079
303.072
303.064
303.056
303.047
303.038
303.028
303.018
303.007
302.995
302.983
302.97
302.955
302.94
302.922
302.902
302.879
302.853
302.824
302.791
302.753
302.714
302.676
302.643
302.616
302.597
302.583
302.572
302.562
302.589
304.25
303.944
302.685
)
;
    }
    sWall
    {
        type            wallHeatTransfer;
        Tinf            uniform 315.2;
        alphaWall       uniform 0.36;
        value           uniform 304.07;
    }
    nWall
    {
        type            wallHeatTransfer;
        Tinf            uniform 307.2;
        alphaWall       uniform 0.36;
        value           nonuniform List<scalar> 6(302.91 302.924 302.957 303.019 303.068 303.193);
    }
    sideWalls
    {
        type            empty;
    }
    glass1
    {
        type            wallHeatTransfer;
        Tinf            uniform 315.2;
        alphaWall       uniform 4.3;
        value           nonuniform List<scalar> 9(312.071 310.948 310.262 309.776 309.428 309.164 308.949 309.01 309.251);
    }
    glass2
    {
        type            wallHeatTransfer;
        Tinf            uniform 307.2;
        alphaWall       uniform 4.3;
        value           nonuniform List<scalar> 2(305.474 305.368);
    }
    sun
    {
        type            wallHeatTransfer;
        Tinf            uniform 305.2;
        alphaWall       uniform 0.24;
        value           nonuniform List<scalar> 
14
(
302.938
302.629
302.657
302.655
302.651
302.648
302.645
302.641
302.638
302.634
302.629
302.623
302.617
302.608
)
;
    }
    Table_master
    {
        type            zeroGradient;
    }
    Table_slave
    {
        type            zeroGradient;
    }
    inlet
    {
        type            fixedValue;
        value           uniform 299.15;
    }
    outlet
    {
        type            zeroGradient;
    }
}


// ************************************************************************* //
