/*--------------------------------*- C++ -*----------------------------------*\
  =========                 |
  \\      /  F ield         | OpenFOAM: The Open Source CFD Toolbox
   \\    /   O peration     | Website:  https://openfoam.org
    \\  /    A nd           | Version:  6
     \\/     M anipulation  |
\*---------------------------------------------------------------------------*/
FoamFile
{
    version     2.0;
    format      ascii;
    class       volScalarField;
    location    "700";
    object      nut;
}
// * * * * * * * * * * * * * * * * * * * * * * * * * * * * * * * * * * * * * //

dimensions      [0 2 -1 0 0 0 0];

internalField   nonuniform List<scalar> 
458
(
0.00123036
0.001355
0.00139167
0.00146363
0.00153108
0.00159558
0.00166073
0.0017221
0.00176808
0.00179388
0.001795
0.00176699
0.00170476
0.00160169
0.00144043
0.000609779
0.000736443
0.000842998
0.000855314
0.000828208
0.000769877
0.000708586
0.000653954
0.000606573
0.000565414
0.000529477
0.000498112
0.000470335
0.000445064
0.000421088
0.000396753
0.000378025
0.000342362
0.00164311
0.00422827
0.00415737
0.00486737
0.00557901
0.00626611
0.00683737
0.00728212
0.0076793
0.00801404
0.00826448
0.00840007
0.00836802
0.00804386
0.00680316
0.00163037
0.00133165
0.00105178
0.00062395
0.00147376
0.00214293
0.00260409
0.00270847
0.00200394
0.00168143
0.00146218
0.00130096
0.00117774
0.00108032
0.000995605
0.000916276
0.000838516
0.000770103
0.000712738
0.000838198
0.000441554
0.00198503
0.00582119
0.00531906
0.00660252
0.00733365
0.0078673
0.00824369
0.00852636
0.00881649
0.00912557
0.00944462
0.00974127
0.00994841
0.00994059
0.0094636
0.00786219
0.00622555
0.00138536
0.00113156
0.00188327
0.00262988
0.00325055
0.00334194
0.00108604
0.000941209
0.000823292
0.000728917
0.000653454
0.000592834
0.000543969
0.000504659
0.000473763
0.000509042
0.000581248
0.00095313
0.000510239
0.00231317
0.00738313
0.00550201
0.00710913
0.00779432
0.00806569
0.00817469
0.00827397
0.00845553
0.00873083
0.0091015
0.00952853
0.00991563
0.0101343
0.0101346
0.0097522
0.00863679
0.00500887
0.001701
0.00222548
0.00308218
0.00396111
0.00458964
0.00447023
0.00122315
0.00109815
0.00100597
0.000933038
0.000871304
0.000817317
0.000766483
0.000715142
0.000658444
0.000601959
0.000602798
0.00109142
0.000569271
0.00265144
0.00937715
0.00625847
0.00703469
0.0078222
0.00800974
0.00788517
0.00789316
0.00801364
0.00827963
0.00869957
0.00920202
0.00965505
0.00994701
0.010045
0.0099468
0.0095348
0.00831636
0.00732861
0.00707371
0.00709612
0.00712746
0.00702035
0.00662777
0.00544157
0.00478796
0.00438455
0.00408
0.00377037
0.00339318
0.00294954
0.00245012
0.00191712
0.00140098
0.00103105
0.00106039
0.000886218
0.000736177
0.000786212
0.000847261
0.00301025
0.0115541
0.00868783
0.00759562
0.0079021
0.00794937
0.00784898
0.00777162
0.00781736
0.00807966
0.00856209
0.00915081
0.00966152
0.00994469
0.00997131
0.00983425
0.0096646
0.009506
0.00943597
0.00940251
0.00924293
0.00890136
0.00840739
0.00779894
0.00708101
0.00649458
0.00602786
0.00561978
0.00522344
0.00477096
0.00424749
0.00364153
0.00295934
0.00224896
0.00165816
0.00124067
0.00104177
0.000942507
0.00120729
0.000875982
0.00330851
0.0128515
0.011495
0.00976921
0.00911192
0.00853615
0.00803712
0.0077494
0.00776791
0.00813133
0.00876868
0.00948755
0.0100465
0.0102772
0.0101845
0.00995825
0.0098794
0.0100748
0.0103199
0.0103196
0.0099889
0.00939912
0.00867019
0.00789944
0.00715659
0.0065294
0.00601733
0.00558309
0.00520211
0.00486002
0.004501
0.00403795
0.00346598
0.00281798
0.00222907
0.00172945
0.00143446
0.00134405
0.0012939
0.00102649
0.00333928
0.0104692
0.00929543
0.00848584
0.00795926
0.00750559
0.00723562
0.00728684
0.00772843
0.00851742
0.00947485
0.0103277
0.0108271
0.0108675
0.0105728
0.0102672
0.0102719
0.0105037
0.0105304
0.0102072
0.00956672
0.00871738
0.00778611
0.00688505
0.00611043
0.00550915
0.00505025
0.00469017
0.00440962
0.00420644
0.00407046
0.00390227
0.00356268
0.00311273
0.00273611
0.00254199
0.00262322
0.00290405
0.00372686
0.00162269
0.00323653
0.00371488
0.00371571
0.00373397
0.00398608
0.00462204
0.00566892
0.00705038
0.00859638
0.0100675
0.0111933
0.0117629
0.0117387
0.011269
0.0107801
0.0104515
0.0102501
0.00999963
0.00954997
0.00885707
0.00796148
0.00696016
0.00600433
0.00520666
0.00460179
0.00415161
0.00379798
0.00350313
0.00324881
0.00302386
0.00281707
0.00263618
0.00248422
0.00237542
0.0023311
0.00233861
0.00232898
0.00224262
0.00210165
0.00150044
0.000720021
0.0024764
0.00562393
0.00910546
0.0117637
0.0132474
0.0137502
0.0136802
0.0132985
0.0125626
0.0116401
0.0107415
0.0100495
0.00949566
0.00890663
0.00822787
0.00745512
0.00661031
0.00576502
0.00500745
0.00438924
0.00392571
0.00357182
0.00328175
0.00302966
0.00280918
0.00262535
0.00248767
0.00240227
0.00235531
0.00233394
0.00233255
0.00233807
0.00231655
0.0022174
0.0020169
0.00175009
0.00121011
0.00396426
0.0110906
0.0118673
0.0121423
0.0122806
0.0121332
0.0116615
0.0109963
0.010255
0.0094632
0.00871133
0.00804998
0.00744306
0.00682958
0.00622126
0.00564518
0.00510622
0.00461391
0.00418534
0.00382613
0.00353818
0.00330947
0.0031195
0.00295591
0.00281481
0.00269603
0.00259851
0.00252757
0.00249255
0.00249054
0.00251668
0.00256243
0.00261112
0.00264096
0.00262088
0.00260193
0.00225378
0.00122542
0.00270877
0.002904
0.0030734
0.00294431
0.00282782
0.00275578
0.0026595
0.00250928
0.0023068
0.00207625
0.00184571
0.00163783
0.00146437
0.00132806
0.0012246
0.00114626
0.00108494
0.00103427
0.000991091
0.000955198
0.000927558
0.000908947
0.000897488
0.000891327
0.000890173
0.000894125
0.000903563
0.00091908
0.000941586
0.000971144
0.00100721
0.00104996
0.00109967
0.0011568
0.00122138
0.00129861
0.00134265
0.00132052
0.00123012
0.00113869
)
;

boundaryField
{
    floor
    {
        type            nutkWallFunction;
        Cmu             0.09;
        kappa           0.41;
        E               9.8;
        value           nonuniform List<scalar> 
36
(
0.00017141
7.35704e-05
8.91804e-05
0.00010206
0.000103531
0.000100277
9.32358e-05
8.57693e-05
7.90488e-05
7.31653e-05
6.80092e-05
6.34694e-05
5.94762e-05
5.59136e-05
5.26494e-05
4.9531e-05
4.63426e-05
4.38722e-05
3.91226e-05
3.91225e-05
5.21983e-05
6.10303e-05
6.85025e-05
8.91532e-05
9.52284e-05
0.00010258
0.00017141
0.000192659
0.000159039
0.000126769
7.35704e-05
0.000126769
7.53392e-05
0.000165149
0.000136086
0.000200521
)
;
    }
    ceiling
    {
        type            nutkWallFunction;
        Cmu             0.09;
        kappa           0.41;
        E               9.8;
        value           nonuniform List<scalar> 
43
(
0.000309104
0.000329607
0.000347285
0.000333893
0.000321722
0.000314176
0.000304046
0.000288145
0.000266538
0.00024168
0.000216519
0.000193533
0.000174108
0.000158662
0.00014682
0.00013778
0.000130655
0.000124733
0.000119662
0.000115428
0.000112155
0.000109945
0.000108581
0.000107847
0.00010771
0.000108181
0.000109305
0.000111149
0.000113819
0.000117314
0.000121561
0.000126575
0.000132373
0.000139003
0.000146451
0.000155301
0.000160321
0.000157801
0.000147456
0.000136907
0.000364602
0.000413798
0.000438519
)
;
    }
    sWall
    {
        type            nutkWallFunction;
        Cmu             0.09;
        kappa           0.41;
        E               9.8;
        value           uniform 0.00030918;
    }
    nWall
    {
        type            nutkWallFunction;
        Cmu             0.09;
        kappa           0.41;
        E               9.8;
        value           nonuniform List<scalar> 6(0.000102582 0.00010602 0.000123831 0.000145167 0.000146929 0.000136917);
    }
    sideWalls
    {
        type            empty;
    }
    glass1
    {
        type            nutkWallFunction;
        Cmu             0.09;
        kappa           0.41;
        E               9.8;
        value           nonuniform List<scalar> 9(0.000147636 0.000194382 0.00023211 0.000267658 0.000303746 0.000341502 0.000372534 0.000375733 0.000365109);
    }
    glass2
    {
        type            nutkWallFunction;
        Cmu             0.09;
        kappa           0.41;
        E               9.8;
        value           nonuniform List<scalar> 2(0.000191945 0.000178255);
    }
    sun
    {
        type            nutkWallFunction;
        Cmu             0.09;
        kappa           0.41;
        E               9.8;
        value           nonuniform List<scalar> 
14
(
0.000147467
0.000161697
0.000165857
0.000173985
0.000181564
0.000188776
0.000196029
0.000202834
0.000207915
0.000210762
0.000210887
0.000207801
0.000200925
0.000189477
)
;
    }
    Table_master
    {
        type            nutkWallFunction;
        Cmu             0.09;
        kappa           0.41;
        E               9.8;
        value           nonuniform List<scalar> 9(0.00013076 0.000113756 9.96891e-05 8.82603e-05 7.89953e-05 7.14595e-05 6.53169e-05 6.0326e-05 5.63695e-05);
    }
    Table_slave
    {
        type            nutkWallFunction;
        Cmu             0.09;
        kappa           0.41;
        E               9.8;
        value           nonuniform List<scalar> 9(0.000146621 0.00013217 0.000121394 0.000112788 0.000105443 9.89697e-05 9.28286e-05 8.6577e-05 7.96106e-05);
    }
    inlet
    {
        type            calculated;
        value           uniform 0.000268328;
    }
    outlet
    {
        type            calculated;
        value           nonuniform List<scalar> 2(0.00270877 0.002904);
    }
}


// ************************************************************************* //
