/*--------------------------------*- C++ -*----------------------------------*\
  =========                 |
  \\      /  F ield         | OpenFOAM: The Open Source CFD Toolbox
   \\    /   O peration     | Website:  https://openfoam.org
    \\  /    A nd           | Version:  6
     \\/     M anipulation  |
\*---------------------------------------------------------------------------*/
FoamFile
{
    version     2.0;
    format      ascii;
    class       volScalarField;
    location    "1500";
    object      nut;
}
// * * * * * * * * * * * * * * * * * * * * * * * * * * * * * * * * * * * * * //

dimensions      [0 2 -1 0 0 0 0];

internalField   nonuniform List<scalar> 
458
(
0.000795539
0.000843117
0.000838266
0.000869978
0.00089798
0.000922517
0.000944567
0.000965162
0.00098547
0.00100387
0.00101638
0.00102135
0.00101882
0.00101248
0.00100594
0.000484103
0.000511818
0.000510306
0.000503359
0.000493419
0.000477893
0.00046092
0.000444734
0.000429713
0.000415963
0.000403243
0.000391304
0.000379847
0.000368438
0.000356448
0.00034265
0.000327736
0.000298044
0.00117335
0.00218821
0.00193973
0.00225848
0.0024764
0.00270183
0.00292336
0.00312304
0.00327259
0.00337161
0.00342144
0.00338082
0.00318674
0.00274549
0.00194737
0.0010396
0.0009306
0.000841603
0.000665746
0.000928515
0.00114975
0.0013053
0.00135989
0.00115027
0.00104771
0.000977454
0.000923007
0.000873428
0.00082583
0.000778233
0.000727015
0.000669466
0.000617727
0.000577834
0.00063554
0.000354253
0.00150834
0.00313335
0.00220974
0.00313852
0.00343716
0.00364664
0.00380638
0.00392981
0.00402694
0.00410932
0.00418927
0.0042471
0.00426294
0.00423155
0.00414104
0.00384577
0.00296761
0.0010448
0.000788183
0.00125633
0.00156127
0.00176186
0.00175335
0.00060087
0.000546546
0.000500766
0.000462993
0.000432072
0.000406787
0.000386136
0.000369638
0.000357637
0.000402304
0.000478214
0.000702242
0.000393453
0.00184949
0.00448152
0.00215748
0.00341411
0.00383189
0.00396417
0.00400921
0.00402038
0.00403703
0.00407783
0.00414661
0.0042208
0.0042832
0.0043395
0.00439678
0.00438901
0.00416594
0.00354216
0.000947686
0.00145517
0.00188927
0.00212604
0.00223311
0.00209792
0.000621934
0.000592447
0.000579414
0.000572716
0.000565899
0.000554534
0.00053909
0.000521691
0.000499199
0.000475148
0.000484636
0.000747033
0.00043261
0.00220279
0.00629786
0.00260263
0.00317961
0.00391444
0.00404778
0.00402066
0.0039459
0.00390217
0.0039233
0.00400379
0.00409025
0.00415211
0.00419068
0.00422341
0.00423609
0.00416697
0.00396592
0.00337279
0.00305259
0.00284371
0.00267922
0.00257028
0.0024833
0.00227962
0.00227203
0.00231176
0.00234325
0.00234211
0.00229141
0.00214114
0.00188307
0.00154699
0.0011734
0.000882403
0.000818738
0.000628656
0.000500866
0.000531586
0.000555537
0.00257315
0.0082983
0.00436292
0.00296256
0.00349934
0.00384277
0.00394244
0.00389754
0.00379996
0.0038191
0.0039343
0.00403419
0.00408648
0.00409539
0.00409099
0.00408822
0.0040553
0.00393199
0.00363877
0.00331161
0.00300477
0.00273977
0.0025872
0.00254454
0.00258405
0.00268211
0.00278003
0.00285002
0.00288181
0.00286845
0.0027906
0.00258894
0.00226517
0.00183294
0.00140643
0.00108331
0.000834361
0.000823757
0.00119449
0.000742044
0.00293377
0.00990836
0.00740388
0.00456361
0.00353857
0.00330822
0.00346493
0.00371271
0.00377094
0.00386732
0.00397685
0.00405326
0.00407591
0.00405414
0.00402759
0.00402786
0.00402689
0.00393148
0.00366804
0.00330548
0.00293214
0.00264046
0.00252553
0.00252671
0.00259706
0.00270247
0.00280546
0.00288421
0.0029366
0.0029632
0.00296358
0.00288348
0.00264527
0.00227286
0.00186745
0.00150194
0.001202
0.00109188
0.00134775
0.00089357
0.00301728
0.00949677
0.00827004
0.00724969
0.00589011
0.00482027
0.00429425
0.00419232
0.00415771
0.00412332
0.00412361
0.00412837
0.00409349
0.00402714
0.00398477
0.00400511
0.00404388
0.00396742
0.00367783
0.00321394
0.00279071
0.00255761
0.00247983
0.00248179
0.00252456
0.00258543
0.00264687
0.00270059
0.00274937
0.00280106
0.00286509
0.00293381
0.002888
0.00259921
0.0023117
0.00210602
0.0020397
0.00206704
0.00265529
0.00125092
0.00295084
0.00353824
0.00418593
0.00449205
0.00462722
0.00452348
0.00435169
0.00423371
0.00416374
0.00416516
0.00418818
0.0041719
0.00407107
0.00394876
0.00390429
0.00397078
0.00405779
0.00396535
0.00356961
0.00304358
0.0026793
0.00250004
0.00241955
0.00238503
0.00237356
0.00237058
0.00236499
0.00235093
0.00232665
0.00229039
0.00223741
0.00215994
0.00205666
0.00195267
0.00188251
0.00186241
0.00185885
0.00182549
0.00176064
0.00123961
0.00253943
0.00528488
0.00504764
0.00492108
0.00481428
0.0047424
0.0046913
0.00460429
0.00446702
0.00425062
0.00394092
0.00373577
0.00373684
0.00390161
0.00403813
0.00382029
0.00334063
0.00293017
0.0026825
0.00252949
0.00241403
0.00231572
0.00222905
0.00215059
0.00207629
0.00200329
0.00193221
0.00186781
0.00181728
0.00178782
0.00177955
0.00177549
0.0017782
0.00177802
0.00174393
0.00164529
0.00149703
0.00106666
0.00241617
0.0057265
0.00550042
0.00526084
0.0050778
0.00492005
0.00474175
0.00450408
0.00413226
0.00367977
0.0031743
0.00313695
0.0034522
0.00390246
0.00418495
0.0039974
0.00366142
0.00338175
0.00318753
0.00303345
0.0028848
0.00272963
0.00256929
0.0024105
0.00226112
0.00212816
0.00201687
0.00193003
0.00186714
0.0018229
0.00181402
0.00183311
0.00186676
0.00189266
0.00189606
0.00188555
0.00196796
0.00108834
0.00191079
0.00208276
0.00222385
0.00238411
0.00226983
0.00216327
0.00198553
0.00179354
0.00160316
0.00141712
0.00127193
0.00113308
0.000977964
0.000870545
0.000916932
0.000946126
0.000932151
0.000888464
0.000849917
0.000823005
0.000802863
0.00078499
0.000768292
0.000753931
0.000743771
0.000739347
0.000741439
0.000750137
0.000765172
0.00078633
0.000813868
0.000849026
0.000888107
0.000931583
0.000980035
0.00103176
0.00108737
0.00107734
0.00100155
0.000936572
)
;

boundaryField
{
    floor
    {
        type            nutkWallFunction;
        Cmu             0.09;
        kappa           0.41;
        E               9.8;
        value           nonuniform List<scalar> 
36
(
0.000121425
5.76742e-05
6.12112e-05
6.10179e-05
6.01315e-05
5.88606e-05
5.68687e-05
5.46819e-05
5.25871e-05
5.06344e-05
4.88393e-05
4.71721e-05
4.56011e-05
4.40877e-05
4.2575e-05
4.09785e-05
3.91328e-05
3.71268e-05
3.30969e-05
3.30968e-05
4.06852e-05
4.5884e-05
5.10116e-05
5.9814e-05
6.37259e-05
6.67561e-05
0.000121425
0.000125377
0.000112528
0.000101909
5.76742e-05
0.000101909
8.05066e-05
0.000125991
9.54643e-05
0.000114548
)
;
    }
    ceiling
    {
        type            nutkWallFunction;
        Cmu             0.09;
        kappa           0.41;
        E               9.8;
        value           nonuniform List<scalar> 
43
(
0.000223568
0.00024229
0.000257531
0.000274838
0.000262616
0.00025115
0.000231866
0.000210819
0.000189705
0.000168802
0.00015228
0.00013628
0.000118142
0.000105364
0.000110892
0.000114361
0.000112709
0.000107513
0.000102902
9.96674e-05
9.72389e-05
9.50781e-05
9.30541e-05
9.13095e-05
9.0073e-05
8.95341e-05
8.97895e-05
9.08492e-05
9.26772e-05
9.52423e-05
9.85685e-05
0.000102796
0.000107471
0.000112645
0.000118377
0.000124461
0.000130963
0.000129794
0.000120912
0.000113237
0.00033503
0.000395927
0.000277987
)
;
    }
    sWall
    {
        type            nutkWallFunction;
        Cmu             0.09;
        kappa           0.41;
        E               9.8;
        value           uniform 0.000223629;
    }
    nWall
    {
        type            nutkWallFunction;
        Cmu             0.09;
        kappa           0.41;
        E               9.8;
        value           nonuniform List<scalar> 6(6.67498e-05 8.98639e-05 0.000108126 0.000128553 0.000131084 0.000113241);
    }
    sideWalls
    {
        type            empty;
    }
    glass1
    {
        type            nutkWallFunction;
        Cmu             0.09;
        kappa           0.41;
        E               9.8;
        value           nonuniform List<scalar> 9(9.63553e-05 0.00014107 0.000179317 0.000217301 0.000255841 0.000295535 0.000333611 0.000342365 0.000335423);
    }
    glass2
    {
        type            nutkWallFunction;
        Cmu             0.09;
        kappa           0.41;
        E               9.8;
        value           nonuniform List<scalar> 2(0.00014992 0.000148621);
    }
    sun
    {
        type            nutkWallFunction;
        Cmu             0.09;
        kappa           0.41;
        E               9.8;
        value           nonuniform List<scalar> 
14
(
9.63541e-05
0.000102085
0.000101502
0.000105303
0.000108646
0.000111565
0.000114181
0.000116617
0.000119014
0.000121181
0.000122652
0.000123235
0.000122938
0.000122194
)
;
    }
    Table_master
    {
        type            nutkWallFunction;
        Cmu             0.09;
        kappa           0.41;
        E               9.8;
        value           nonuniform List<scalar> 9(7.24497e-05 6.56218e-05 5.98032e-05 5.49526e-05 5.09453e-05 4.76415e-05 4.4924e-05 4.27397e-05 4.11431e-05);
    }
    Table_slave
    {
        type            nutkWallFunction;
        Cmu             0.09;
        kappa           0.41;
        E               9.8;
        value           nonuniform List<scalar> 9(7.50755e-05 7.13954e-05 6.9762e-05 6.8921e-05 6.80636e-05 6.66312e-05 6.46788e-05 6.2471e-05 5.96034e-05);
    }
    inlet
    {
        type            calculated;
        value           uniform 0.000100623;
    }
    outlet
    {
        type            calculated;
        value           nonuniform List<scalar> 2(0.00191079 0.00208276);
    }
}


// ************************************************************************* //
