/*--------------------------------*- C++ -*----------------------------------*\
  =========                 |
  \\      /  F ield         | OpenFOAM: The Open Source CFD Toolbox
   \\    /   O peration     | Website:  https://openfoam.org
    \\  /    A nd           | Version:  6
     \\/     M anipulation  |
\*---------------------------------------------------------------------------*/
FoamFile
{
    version     2.0;
    format      ascii;
    class       volScalarField;
    location    "1700";
    object      nut;
}
// * * * * * * * * * * * * * * * * * * * * * * * * * * * * * * * * * * * * * //

dimensions      [0 2 -1 0 0 0 0];

internalField   nonuniform List<scalar> 
458
(
0.000757561
0.000797866
0.000788977
0.000817305
0.000842086
0.000863499
0.000882405
0.000899709
0.000916381
0.000932523
0.000944093
0.000949985
0.000950541
0.000948776
0.000946609
0.000542853
0.000515835
0.000496519
0.000481851
0.000467999
0.000451408
0.000434526
0.000418739
0.000404237
0.000390789
0.000378208
0.000366298
0.000354809
0.000343358
0.000331383
0.000317799
0.000304626
0.0002778
0.00113797
0.00201185
0.00175789
0.00205343
0.00223123
0.00241447
0.00259394
0.00275557
0.002878
0.0029486
0.00297184
0.00291362
0.00272369
0.00233202
0.001672
0.000974661
0.00089136
0.000825581
0.000664
0.000954255
0.00117402
0.00131338
0.00134352
0.00113833
0.00103887
0.000969584
0.000908365
0.000852157
0.000799276
0.000747504
0.000693108
0.000632948
0.000578334
0.000534713
0.000607869
0.00033598
0.00147844
0.0029404
0.0019815
0.00289523
0.0031658
0.00335538
0.00350227
0.00361636
0.0037049
0.00376691
0.00381925
0.00384363
0.00381949
0.00373641
0.00357727
0.00322446
0.00239156
0.00099416
0.00076484
0.00138987
0.00171057
0.0018623
0.00175975
0.000551812
0.000495785
0.000450669
0.00041497
0.000386687
0.00036407
0.000345906
0.000331661
0.000321802
0.000367578
0.000439642
0.000686613
0.000379164
0.00182726
0.00430469
0.00194645
0.00318712
0.00360156
0.00374197
0.00380233
0.00382557
0.00384239
0.00386627
0.00390736
0.00394885
0.00397155
0.00397067
0.00394043
0.00382555
0.00349805
0.00272388
0.000907782
0.00170269
0.00212081
0.00223712
0.00223636
0.00200593
0.00056378
0.000535756
0.000524514
0.000518943
0.000512504
0.000500942
0.000485333
0.000467938
0.000445759
0.000425751
0.0004421
0.000759638
0.000420249
0.00218787
0.00613924
0.00240395
0.00297598
0.00372769
0.00388566
0.00389251
0.00384455
0.00380089
0.00379851
0.00384276
0.00390189
0.00393846
0.00393768
0.0038989
0.00382627
0.00372903
0.00360734
0.0032246
0.00292772
0.00270732
0.00251175
0.00237886
0.00227683
0.00206637
0.00205213
0.00207595
0.00208858
0.00207019
0.00200787
0.0018571
0.00161698
0.00132047
0.00100046
0.00075685
0.000767647
0.000625224
0.000568241
0.00064687
0.000703046
0.00256383
0.00815423
0.00415135
0.00275437
0.00333815
0.00371669
0.00385169
0.00384905
0.00378045
0.00371844
0.00378796
0.00387148
0.00391676
0.00390401
0.00383531
0.0037445
0.00367651
0.00361836
0.00343053
0.00312913
0.00280845
0.00252242
0.00235315
0.00230121
0.00232186
0.00238824
0.00244955
0.00248411
0.00248584
0.00245194
0.00236782
0.00217891
0.00189086
0.0015175
0.00116395
0.000910188
0.000754508
0.000674814
0.000922032
0.000717578
0.00293184
0.00979852
0.0072398
0.00432231
0.00328735
0.0030941
0.00330146
0.0035749
0.00370017
0.00371783
0.00380865
0.0038853
0.00391663
0.00388288
0.00378725
0.00368161
0.00362011
0.00358262
0.00344776
0.00316633
0.00279479
0.00247255
0.00231949
0.00229213
0.00232964
0.0023917
0.00244799
0.00248416
0.00250063
0.00250217
0.00249177
0.00240889
0.0021878
0.0018558
0.001517
0.00122534
0.00102728
0.000951768
0.000936201
0.000783622
0.00301873
0.00948606
0.00821419
0.00711762
0.0056701
0.00454688
0.00399965
0.00388366
0.00392884
0.00392561
0.00393201
0.00394517
0.003932
0.00385818
0.00372517
0.00360671
0.00356499
0.00356854
0.003472
0.00316757
0.00274604
0.00244709
0.00231757
0.00228215
0.00228722
0.00230553
0.00232255
0.0023355
0.00235135
0.00238214
0.00243846
0.00250647
0.00244901
0.00217891
0.00194123
0.00181532
0.00185203
0.00201503
0.00258192
0.00129207
0.00295351
0.00354728
0.00420128
0.00450641
0.00461184
0.00445996
0.00424037
0.00408187
0.00399215
0.00396231
0.00396928
0.00396909
0.00391792
0.00378349
0.00359105
0.00346815
0.00347534
0.00354274
0.00346047
0.00309851
0.00269305
0.00244724
0.00232547
0.00225962
0.00221594
0.00217831
0.00213727
0.00209007
0.00203972
0.00198991
0.00194008
0.00188521
0.00182606
0.0017742
0.00176102
0.00178764
0.00180989
0.0017802
0.00169979
0.00125294
0.00261408
0.00533866
0.00502917
0.00484769
0.00468373
0.00455378
0.00445666
0.00435569
0.00423462
0.00407953
0.00386831
0.00358372
0.00329577
0.00322051
0.00334264
0.00350369
0.00336838
0.00300668
0.00271424
0.0025348
0.0024108
0.00230449
0.00220395
0.00210708
0.00201358
0.00192387
0.00184121
0.00177315
0.00172936
0.00171725
0.00172644
0.00174612
0.00177567
0.00179917
0.00178308
0.00170696
0.00158913
0.00109574
0.00246287
0.00578717
0.00545921
0.00517539
0.00493921
0.00474598
0.0045435
0.0043325
0.0040291
0.00367984
0.00330251
0.00289717
0.00261109
0.00286295
0.00330043
0.00367456
0.00361086
0.00339186
0.00319877
0.00305662
0.00293477
0.00280838
0.00266843
0.00251708
0.00236272
0.00221597
0.00208652
0.00198098
0.00190101
0.00184526
0.00183563
0.00186111
0.00190407
0.00194059
0.00194265
0.00199353
0.00214925
0.00112334
0.00194189
0.00211741
0.00226358
0.00242751
0.00230376
0.00219551
0.001998
0.0018254
0.00165555
0.00148578
0.00134852
0.00122577
0.00110389
0.000970774
0.000820655
0.000811326
0.000854931
0.000861638
0.000833291
0.00080579
0.000786269
0.000770912
0.000756367
0.000741922
0.000728849
0.00071932
0.000715447
0.000718674
0.000729682
0.000748786
0.000776635
0.000813862
0.000855799
0.000903109
0.000955955
0.00101553
0.00105038
0.00103365
0.000976651
0.000925044
)
;

boundaryField
{
    floor
    {
        type            nutkWallFunction;
        Cmu             0.09;
        kappa           0.41;
        E               9.8;
        value           nonuniform List<scalar> 
36
(
0.000114423
6.51563e-05
6.17254e-05
5.92592e-05
5.73787e-05
5.55966e-05
5.34534e-05
5.12623e-05
4.92037e-05
4.73039e-05
4.55344e-05
4.3872e-05
4.22918e-05
4.0761e-05
3.9229e-05
3.76197e-05
3.5785e-05
3.3996e-05
3.03205e-05
3.03204e-05
3.82382e-05
4.39984e-05
4.94009e-05
6.83582e-05
7.81735e-05
8.50975e-05
0.000114423
0.000117739
0.000107857
9.99778e-05
6.51562e-05
9.99778e-05
8.02925e-05
0.000120038
9.26375e-05
0.000109816
)
;
    }
    ceiling
    {
        type            nutkWallFunction;
        Cmu             0.09;
        kappa           0.41;
        E               9.8;
        value           nonuniform List<scalar> 
43
(
0.000226968
0.000246043
0.000261804
0.000279474
0.000266261
0.00025463
0.000233227
0.000214329
0.000195541
0.000176549
0.000161019
0.000146982
0.000132887
0.000117288
9.93915e-05
9.82532e-05
0.000103496
0.000104303
0.000100904
9.75921e-05
9.52327e-05
9.33718e-05
9.16053e-05
8.98472e-05
8.82527e-05
8.70885e-05
8.66151e-05
8.70103e-05
8.8356e-05
9.06853e-05
9.40682e-05
9.85679e-05
0.000103608
0.00010926
0.000115532
0.000122556
0.000126642
0.000124683
0.000117978
0.000111869
0.000335307
0.000396853
0.000282969
)
;
    }
    sWall
    {
        type            nutkWallFunction;
        Cmu             0.09;
        kappa           0.41;
        E               9.8;
        value           uniform 0.000227029;
    }
    nWall
    {
        type            nutkWallFunction;
        Cmu             0.09;
        kappa           0.41;
        E               9.8;
        value           nonuniform List<scalar> 6(8.50957e-05 8.68763e-05 9.49158e-05 0.000131946 0.000135156 0.000111873);
    }
    sideWalls
    {
        type            empty;
    }
    glass1
    {
        type            nutkWallFunction;
        Cmu             0.09;
        kappa           0.41;
        E               9.8;
        value           nonuniform List<scalar> 9(9.17376e-05 0.000136964 0.000175946 0.000214852 0.000254227 0.000294544 0.000333407 0.000342516 0.000335702);
    }
    glass2
    {
        type            nutkWallFunction;
        Cmu             0.09;
        kappa           0.41;
        E               9.8;
        value           nonuniform List<scalar> 2(0.000154637 0.000150154);
    }
    sun
    {
        type            nutkWallFunction;
        Cmu             0.09;
        kappa           0.41;
        E               9.8;
        value           nonuniform List<scalar> 
14
(
9.17508e-05
9.66354e-05
9.55604e-05
9.89804e-05
0.000101961
0.000104528
0.000106788
0.000108852
0.000110836
0.000112753
0.000114124
0.000114822
0.000114888
0.000114679
)
;
    }
    Table_master
    {
        type            nutkWallFunction;
        Cmu             0.09;
        kappa           0.41;
        E               9.8;
        value           nonuniform List<scalar> 9(6.62888e-05 5.91678e-05 5.33613e-05 4.87152e-05 4.49985e-05 4.20015e-05 3.95775e-05 3.76649e-05 3.6335e-05);
    }
    Table_slave
    {
        type            nutkWallFunction;
        Cmu             0.09;
        kappa           0.41;
        E               9.8;
        value           nonuniform List<scalar> 9(6.77969e-05 6.42568e-05 6.28305e-05 6.21226e-05 6.13028e-05 5.98277e-05 5.78291e-05 5.55925e-05 5.27256e-05);
    }
    inlet
    {
        type            calculated;
        value           uniform 0.000100623;
    }
    outlet
    {
        type            calculated;
        value           nonuniform List<scalar> 2(0.00194189 0.00211741);
    }
}


// ************************************************************************* //
