/*--------------------------------*- C++ -*----------------------------------*=========                 |
  \      /  F ield         | OpenFOAM: The Open Source CFD Toolbox
   \    /   O peration     | Website:  https://openfoam.org
    \  /    A nd           | Version:  6
     \/     M anipulation  |
\*---------------------------------------------------------------------------*/
FoamFile
{
    version     2.0;
    format      ascii;
    class       volScalarField;
    location    "1900";
    object      PPD;
}
// * * * * * * * * * * * * * * * * * * * * * * * * * * * * * * * * * * * * * //

dimensions      [0 0 0 0 0 0 0];

internalField   nonuniform List<scalar> 
458
(
70.01424226619025
61.00903633289041
61.873442669678795
61.27660421637539
60.7249991116676
60.25604543588193
59.86944932488447
59.57996925678894
59.458181865531756
59.47666091308995
59.67185120012018
60.16609990054091
61.043380487033346
61.85958763274727
60.86088623686568
57.01822850036833
56.62702377810479
56.33998080549582
55.24303346599173
53.12559413015701
51.401790094608195
50.38508415424387
49.76047720356981
49.370585245181296
49.136847575932414
49.05896957297003
49.21474303694584
49.682467170009495
50.48927042710444
51.48007210826814
51.453977073383385
50.541372067299264
50.25488405043862
70.81852784634927
61.498923685070004
63.24950531655309
62.45681313160729
62.038976511456575
61.682883360567686
61.385336580617086
61.20025452135316
61.053553391282186
61.01439933106433
60.99254587598626
60.97173830812356
60.90943774459291
60.57302179324315
59.88740860249648
60.9042028375665
62.218037840033226
62.294803276391434
53.09818762790793
56.47047046319492
56.05281923429194
55.42594371269119
54.04058812981059
52.36776231147985
51.32351751044548
50.567424977310836
49.91654281352767
49.370585245181296
49.05896957297003
49.110886288411606
49.78648395555531
51.48007210826814
53.70071202220883
52.6812954170044
51.19308492240421
46.311521319937526
74.55769340409248
61.97563968879936
65.3235289000775
64.32651213406979
64.1523655437621
64.07247852061197
64.04066520341999
64.04540104444098
64.00392657732453
63.92104947939103
63.7656161947024
63.35314702815926
62.59942882527199
61.3432179533939
59.78063790914136
58.486419430166194
57.125759537172634
55.36784108529906
57.04429910066423
56.78353746432504
56.6009342469121
56.418277628224914
55.922255984209514
53.360855530556286
52.60290424068126
52.13267377893188
51.66268764677955
51.19308492240421
50.64559194335558
50.04664256733195
49.70846880062908
52.002094943330036
57.148568625621664
55.007826124424625
53.413138924530436
48.69724137426796
78.72325223270025
63.21341208913643
67.45734858150055
66.33971050254476
66.54987146552848
66.88799263471371
67.27465985799346
67.64401779006826
67.90849550491053
68.01165417504387
67.9263103536259
67.41362401008169
66.34073929839444
64.64347251328266
62.348748588248526
59.722815389543115
56.74382571507536
53.76770527904733
52.288374960466186
53.68630019249133
54.24042118542958
55.18928542857856
55.52191211889287
55.691453027574155
56.06686832681267
56.6990036598248
57.50810682030487
58.58152951334341
60.00867958534208
60.88270957783698
60.5991749094683
60.23782618142254
58.57426844172006
57.203854296492366
56.57022575515289
55.986618014924645
57.38309672631852
82.56332999709
65.18216507554612
69.30232067517184
68.26176862303925
68.82688502739117
69.65287581362435
70.52254969016472
71.39085292405989
72.14033652422596
72.68644323608515
72.91257420527822
72.63892224744149
71.76323625454613
70.19655277759807
68.0232768712527
65.3618055797208
62.3868150281011
59.628990803185715
57.801434446791276
57.1579569361843
57.75906343935711
58.63339776166882
59.13113738955642
59.313297532776865
59.50635456787922
59.731218108332165
60.01686711476027
60.3118274690016
60.6366148763188
60.98496479949669
61.272138454805734
60.88270957783698
60.39275495020227
59.927686373343285
59.358174421998115
57.03136005156505
55.047247146659565
52.022602894899634
49.90391342109407
46.00473576238804
85.73482439005627
67.94347861426945
71.68489344729045
70.34076934120448
70.9375567203096
72.15311309032387
73.49424399549007
74.84579923400634
76.11881543855013
77.2011216672199
77.80980680221951
77.89013315504657
77.37031359062635
76.28607399249717
74.62306658016207
72.49606708839598
70.03216046508186
67.64970438632449
65.82900185721469
64.77400206440706
64.41249245099817
64.36113265570617
64.25851934159593
64.06944584938583
63.806233708813124
63.45159838001046
62.92546142818359
62.18983723039383
61.25418500643314
60.337940969049455
59.60365713295287
59.17180269333359
59.071922558514785
59.370394427397414
59.927686373343285
59.40999519552454
58.8394842177162
56.381042172426
51.62397047298114
55.85198791663952
88.21577436218533
72.85423063606599
77.596569529209
74.31218275696256
73.69664745396668
75.13626871456488
76.4813855228994
77.5753665263884
78.72702048880934
79.92873261033152
80.86024478867272
81.442577739257
81.63453752441636
81.40405615378484
80.48963280235498
79.13682938021658
77.47397408187021
75.73232451989394
74.17041029996929
73.00784308806399
72.23693114448176
71.49952792951387
70.90898344558286
70.40946524901369
69.72171373130527
68.67156029790956
67.20516899711684
65.25271796078152
63.025900416123974
60.912379337688044
59.178257412387644
57.85288606750028
56.89152681622196
56.208729551311
55.92029814392027
56.1763275970174
56.84932216346156
57.85578036597674
54.99225384178514
50.55695989875608
91.63558557790675
85.04565663354856
84.64591711917191
80.7635024604504
78.92792578945003
79.07804317654673
79.55860704107728
79.94879277180246
80.62462332304513
81.20653968041526
81.7861356456526
82.272711205946
82.6431953085095
82.90473540242328
82.96379810179282
82.72638692398203
81.86345827080763
80.70333343638953
79.38320508328623
78.06058177930265
76.91332590020853
75.98007391547402
75.18579149867743
74.4701696002792
73.79132477593329
72.94383757594773
71.757912954016
70.05078484360236
67.21788225471892
63.724139933159115
60.76177820829291
58.43252312917124
56.70546973504209
55.58329415253367
55.10158730711292
55.18437402200565
55.64479050944937
56.23568164871715
56.073628526410126
53.16143743064618
95.23997705409789
92.99567288129505
91.07385672999504
88.33483459922263
85.46395903113138
83.56586563374192
82.34426037333311
81.68067409753002
81.49898575039879
81.51949715177447
81.74949219200882
82.05119308749231
82.3681013362605
82.65865118927644
82.85955365890487
82.94526794990675
82.8645149027611
82.58210614534511
82.08593151407254
81.42964000383864
80.6965497047182
79.96520447842698
79.19970173851374
78.4367027284139
77.68128497032232
76.87030043424664
75.84850201907315
74.35755653782
71.99202193327824
69.49784667401687
67.6466773102833
64.9348302697745
63.08424988075585
62.19876653677218
61.97367368857454
62.20601237013866
63.07564277646096
64.33522843237276
64.11023723310261
60.802030371546365
69.04942855292511
86.27607815020326
86.46957733087895
85.61502990045196
84.63843436005948
83.91903585479453
83.50291084960219
83.29740991576521
83.16064862459561
83.12765128512997
83.11753760751972
83.14644991516853
83.1897077861233
83.1844534787821
83.10602631237234
82.92598997149862
82.61032205309833
82.16338270931296
81.62156227700814
81.01249548986208
80.38586319682253
79.74961525468811
79.14974222483553
78.51124834857978
77.82429356478715
76.9971380740777
75.92246750085505
74.68652019039716
73.44611614395652
72.01539125761471
70.38560150780953
69.11113514413167
68.28397112230137
67.91679093195006
68.13726103680665
68.77141381543102
65.17730778871095
63.25069731804932
75.09555095236007
84.99200497129965
87.13581086999261
86.50198054266988
85.65124033452787
85.00039893178143
84.55416012808438
84.25177826984465
84.03597134312247
83.88589823072452
83.75351534020584
83.66576686549594
83.59135207565704
83.48059869492685
83.36392113346628
83.17702923639965
82.95602498692158
82.64291471425933
82.30100545934802
81.870043649269
81.40939231751317
80.91882142343351
80.37860023621492
79.80868703618572
79.18587259802796
78.43994379883638
77.51622732878795
76.38182441168289
75.02379139595007
73.44709795689045
71.75447699749165
70.09343638030334
68.61388001994806
67.50128510670939
66.9782376787676
66.97421706067327
66.22183341530726
65.86456426979896
80.30408984765423
80.14972628086252
77.6380289604925
83.56020741426485
88.00460812667536
86.88750286936184
86.01357310206532
85.35811991142101
84.89366052250928
84.57383788632887
84.3505694852193
84.15788463163668
83.9913971183357
83.83265062176662
83.64750877086018
83.44492981595764
83.2001922377248
82.91430770612193
82.59360696824652
82.26904630058525
81.93555128698458
81.57063104244719
81.21288890726473
80.81673029813751
80.42154512479608
80.00260130921113
79.53374678056754
79.03127815618556
78.44250626737134
77.73442802741974
76.89628685155353
75.8958351426594
74.7545079546494
73.53334233021174
72.3157006275759
71.31505560839958
70.49794087049752
70.01959017345214
69.37314299693692
70.04033673984786
)
;

boundaryField
{
    ".*"
    {
        type            zeroGradient;
    }
}


// ************************************************************************* //
