/*--------------------------------*- C++ -*----------------------------------*\
  =========                 |
  \\      /  F ield         | OpenFOAM: The Open Source CFD Toolbox
   \\    /   O peration     | Website:  https://openfoam.org
    \\  /    A nd           | Version:  6
     \\/     M anipulation  |
\*---------------------------------------------------------------------------*/
FoamFile
{
    version     2.0;
    format      ascii;
    class       volScalarField;
    location    "2700";
    object      alphat;
}
// * * * * * * * * * * * * * * * * * * * * * * * * * * * * * * * * * * * * * //

dimensions      [1 -1 -1 0 0 0 0];

internalField   nonuniform List<scalar> 
458
(
0.00107553
0.00115955
0.00116453
0.00121524
0.00126164
0.00130387
0.00134351
0.00138245
0.00142073
0.00144876
0.00146208
0.00145642
0.00143041
0.00138906
0.00134115
0.000474027
0.000592934
0.000625994
0.000610354
0.000586364
0.000554533
0.000522181
0.000492544
0.000465994
0.000442251
0.000421158
0.000402167
0.00038477
0.000368385
0.0003522
0.000334896
0.00032175
0.000292981
0.00152718
0.00336233
0.00310411
0.00361368
0.00405146
0.00450086
0.00493503
0.00531089
0.00559245
0.00583897
0.0060104
0.00603966
0.00581881
0.0051317
0.00354889
0.00137802
0.00113964
0.000931132
0.000669195
0.00106714
0.00136297
0.00156283
0.00161948
0.00134687
0.00119559
0.0010843
0.000996653
0.000925411
0.000861575
0.000802937
0.000746785
0.000691428
0.000643952
0.000604296
0.000714333
0.000381821
0.00191405
0.00466884
0.00370833
0.0049753
0.0055057
0.00588283
0.0061673
0.00638755
0.0065679
0.00676996
0.00697758
0.00715647
0.00726715
0.00726655
0.00707189
0.00647172
0.00531785
0.00126566
0.00104617
0.00146935
0.00180407
0.00205802
0.00208331
0.000764473
0.000680564
0.000612096
0.000556601
0.000511423
0.000474382
0.000443814
0.000418625
0.000398384
0.000431928
0.000497286
0.000799204
0.000440983
0.00229552
0.00627942
0.00367618
0.00533935
0.00598739
0.00619999
0.00626621
0.00629572
0.00636009
0.00650746
0.00671968
0.00696636
0.00722176
0.00746011
0.00761916
0.00754406
0.00696692
0.00536911
0.00137286
0.00178349
0.00229477
0.00269133
0.00293449
0.00282043
0.000832431
0.000766819
0.000725391
0.000697099
0.000673894
0.000649551
0.000624573
0.000597817
0.000565469
0.000533371
0.000531693
0.000890009
0.00049364
0.00268662
0.00838798
0.0042597
0.00501634
0.00601202
0.00621915
0.00615967
0.00603555
0.00600389
0.00613754
0.0063567
0.0066287
0.00692898
0.00721579
0.0073972
0.00737068
0.00705417
0.0063979
0.00515022
0.00467885
0.00444381
0.00428426
0.00415587
0.00397746
0.00343737
0.00322852
0.00314045
0.00307905
0.00299839
0.00286961
0.00261744
0.00226156
0.00183578
0.00138758
0.00102952
0.00095687
0.000775545
0.000656842
0.000744045
0.00081451
0.00309746
0.0106767
0.00644792
0.00489881
0.0054634
0.00589509
0.00605864
0.00590688
0.00582582
0.00597165
0.00618428
0.00645599
0.00676155
0.00703664
0.00718746
0.0071294
0.00684699
0.00641686
0.00591282
0.00553554
0.00521457
0.00490874
0.00463745
0.00440831
0.00420527
0.00409293
0.00401908
0.00394066
0.00383799
0.00370222
0.00350588
0.00318738
0.00274778
0.00220751
0.00168694
0.00125996
0.000998783
0.000845519
0.00111596
0.000834465
0.00347913
0.012378
0.00977213
0.00692405
0.0059395
0.00573306
0.00592127
0.00597541
0.0059786
0.0060425
0.0061998
0.00645187
0.00675761
0.00703407
0.00717135
0.00708246
0.00677281
0.00635469
0.00596284
0.0056306
0.00526457
0.00486015
0.00450012
0.00424594
0.00410287
0.00403426
0.00398025
0.00391074
0.00382175
0.00372107
0.00361701
0.00345487
0.0031393
0.00268883
0.0022097
0.00176374
0.00144569
0.00129113
0.00123565
0.000946964
0.00355349
0.0113433
0.0101006
0.00930223
0.00826461
0.0074089
0.00699947
0.00659771
0.00630114
0.00621628
0.00633497
0.00659617
0.00691778
0.0071941
0.00730149
0.0071529
0.00677729
0.00630946
0.00586949
0.00538788
0.00483937
0.00436561
0.00404225
0.00385625
0.00375743
0.00369387
0.00362923
0.00355433
0.00348042
0.00342752
0.00341411
0.00343662
0.00335824
0.00305358
0.0027532
0.00256284
0.00256476
0.00267083
0.00322632
0.00151401
0.00345767
0.00410918
0.00476436
0.00508287
0.00535169
0.00545378
0.00547149
0.00554398
0.0057669
0.00610379
0.00649718
0.00689717
0.00725551
0.00748998
0.00748615
0.00718087
0.00666981
0.00610068
0.00542372
0.00472756
0.00417757
0.00382189
0.00361048
0.00347859
0.003379
0.00328126
0.0031689
0.00304033
0.00290547
0.00277619
0.00265613
0.00253938
0.0024326
0.00234
0.00228395
0.00226805
0.00224521
0.00217031
0.00205514
0.00146647
0.00244196
0.00560176
0.00592997
0.00620205
0.00652342
0.00690181
0.0071905
0.00739444
0.00754595
0.00768183
0.00779499
0.0077779
0.00747729
0.00687015
0.00607431
0.00524244
0.00452388
0.00403399
0.0037367
0.00354654
0.00340312
0.00327205
0.00313641
0.00298947
0.00283082
0.00266531
0.00250414
0.00236511
0.00226762
0.00222083
0.00220757
0.00221122
0.00222433
0.00222626
0.00217866
0.00206067
0.00189651
0.00128175
0.00254743
0.00633482
0.00701512
0.00710477
0.00734268
0.00761043
0.00777172
0.00763356
0.00748691
0.00743823
0.00745403
0.00729852
0.00671838
0.00593487
0.00516964
0.00461288
0.00430205
0.0041376
0.00402279
0.00392693
0.0038316
0.00371792
0.00357476
0.00339976
0.00319938
0.00298738
0.00278099
0.00259606
0.00244343
0.00234936
0.00231169
0.00231776
0.00234635
0.00236684
0.00234621
0.00236625
0.00256296
0.00131911
0.0020586
0.00223163
0.00235996
0.00250927
0.0024318
0.00233959
0.00218524
0.00196227
0.00174402
0.00164589
0.00157542
0.00150839
0.00143233
0.0013414
0.00125006
0.0011542
0.00107832
0.00102987
0.00100119
0.000983404
0.00097229
0.000962187
0.000949991
0.000935367
0.000919277
0.000903867
0.000892067
0.000886937
0.000891042
0.000906307
0.000934168
0.000970318
0.00101394
0.00106516
0.00112337
0.00118814
0.00122626
0.00120408
0.00113772
0.00107816
)
;

boundaryField
{
    floor
    {
        type            compressible::alphatWallFunction;
        Prt             0.85;
        value           nonuniform List<scalar> 
36
(
0.000189539
6.52841e-05
8.33528e-05
8.8292e-05
8.59591e-05
8.23661e-05
7.75708e-05
7.26616e-05
6.8131e-05
6.40432e-05
6.03624e-05
5.70714e-05
5.40901e-05
5.13432e-05
4.87413e-05
4.61564e-05
4.33754e-05
4.12501e-05
3.65585e-05
3.65579e-05
5.08755e-05
6.01644e-05
6.82987e-05
9.28766e-05
0.000105692
0.000115913
0.000189537
0.00019455
0.00016185
0.000132599
6.52833e-05
0.000132598
9.47023e-05
0.000179224
0.000148818
0.000193848
)
;
    }
    ceiling
    {
        type            compressible::alphatWallFunction;
        Prt             0.85;
        value           nonuniform List<scalar> 
43
(
0.000284676
0.000307043
0.000323516
0.000342682
0.000332849
0.00032108
0.00030125
0.000272322
0.000243656
0.000230646
0.000221249
0.000212268
0.000202022
0.000189688
0.000177203
0.000163987
0.000153435
0.000146651
0.00014262
0.000140112
0.000138543
0.000137115
0.000135388
0.000133315
0.000131029
0.000128835
0.000127152
0.00012642
0.000127007
0.000129185
0.000133148
0.00013827
0.00014442
0.000151603
0.000159717
0.000168689
0.000173944
0.000170889
0.000161711
0.000153423
0.000461408
0.00054079
0.00034722
)
;
    }
    sWall
    {
        type            compressible::alphatWallFunction;
        Prt             0.85;
        value           uniform 0.000283483;
    }
    nWall
    {
        type            compressible::alphatWallFunction;
        Prt             0.85;
        value           nonuniform List<scalar> 6(0.000115726 0.000118597 0.000134651 0.000181242 0.000186345 0.000153112);
    }
    sideWalls
    {
        type            empty;
    }
    glass1
    {
        type            compressible::alphatWallFunction;
        Prt             0.85;
        value           nonuniform List<scalar> 9(0.000149209 0.000210124 0.00026083 0.000309833 0.000359246 0.000410395 0.000457329 0.000466533 0.000455035);
    }
    glass2
    {
        type            compressible::alphatWallFunction;
        Prt             0.85;
        value           nonuniform List<scalar> 2(0.000211601 0.000205276);
    }
    sun
    {
        type            compressible::alphatWallFunction;
        Prt             0.85;
        value           nonuniform List<scalar> 
14
(
0.000152948
0.000164614
0.000165303
0.000172303
0.000178679
0.000184458
0.000189863
0.000195155
0.000200343
0.00020413
0.000205927
0.000205162
0.00020165
0.000196049
)
;
    }
    Table_master
    {
        type            compressible::alphatWallFunction;
        Prt             0.85;
        value           nonuniform List<scalar> 9(0.000108736 9.64524e-05 8.62926e-05 7.79554e-05 7.10916e-05 6.54072e-05 6.06739e-05 5.67423e-05 5.35608e-05);
    }
    Table_slave
    {
        type            compressible::alphatWallFunction;
        Prt             0.85;
        value           nonuniform List<scalar> 9(0.000118568 0.000109079 0.000103039 9.88896e-05 9.54713e-05 9.18697e-05 8.81571e-05 8.41597e-05 7.92971e-05);
    }
    inlet
    {
        type            fixedValue;
        value           uniform 1.94e-05;
    }
    outlet
    {
        type            zeroGradient;
    }
}


// ************************************************************************* //
