/*--------------------------------*- C++ -*----------------------------------*=========                 |
  \      /  F ield         | OpenFOAM: The Open Source CFD Toolbox
   \    /   O peration     | Website:  https://openfoam.org
    \  /    A nd           | Version:  6
     \/     M anipulation  |
\*---------------------------------------------------------------------------*/
FoamFile
{
    version     2.0;
    format      ascii;
    class       volScalarField;
    location    "2500";
    object      PMV;
}
// * * * * * * * * * * * * * * * * * * * * * * * * * * * * * * * * * * * * * //

dimensions      [0 0 0 0 0 0 0];

internalField   nonuniform List<scalar> 
458
(
1.86119659105021
1.6876614124149445
1.6956965162565083
1.6802052581602818
1.666909827667258
1.655820875206971
1.6475745555819339
1.642226768440302
1.6394040578361018
1.6400314177014874
1.644744154912662
1.6553735459409578
1.6739672111494703
1.6906281477959757
1.67260539859543
1.6751691433611289
1.6746903958299797
1.6732541407468753
1.67181786697261
1.670381574562963
1.6610362251823856
1.6606796092274443
1.6655937993222891
1.660805819691323
1.6536234714678857
1.64356743203185
1.6311159072437131
1.6167471692106137
1.6009396441448134
1.5841719703859936
1.5678813600388435
1.5559017462568536
1.5559017462568536
1.8737675353407208
1.6840741660792857
1.7106230900776247
1.6918004340873403
1.6811531609832853
1.6726791124639304
1.667073522088313
1.6631610123259661
1.6614729527027563
1.6617231092954257
1.6637836501907635
1.6666308773400194
1.6690920508432674
1.6656845360600336
1.654420464215474
1.6727022966843068
1.7007211187922013
1.7348088082039244
1.6069907002568729
1.6737328945208247
1.67181786697261
1.670381574562963
1.6675089340599767
1.6641574268009687
1.660805819691323
1.6564964649546412
1.651229255397513
1.6440463107112273
1.6349472840502968
1.6253686143217942
1.6143522169349753
1.6023767729928484
1.5899211277964724
1.5760269086269332
1.561172901897332
1.4838677609891173
1.951323827087431
1.6777629485610077
1.7352461593301214
1.7167792422813208
1.7125190586734478
1.710777718201485
1.7099264226821596
1.7102423239311177
1.7106187803209159
1.711140309871963
1.7115080552494606
1.7084085230836492
1.6994962201435426
1.682400911706817
1.6602715745701067
1.6435262512339561
1.6229215135516197
1.5952275280308215
1.6789990483729098
1.6756478888071524
1.6761266321660802
1.6705955444041347
1.6440559451260064
1.6622422349200412
1.6560176377082847
1.650750406225926
1.6450040622082132
1.6392574363477026
1.632552687851207
1.6253686143217942
1.6177051372378795
1.6095621751608706
1.6023767729928484
1.591837458160929
1.57579297154675
1.4444625114358072
2.044828804891959
1.6834774128616359
1.7575405727281013
1.744032640551846
1.7496945300160494
1.7563149980723345
1.7629145957129855
1.7698886146951256
1.7756224012605415
1.7785722282260499
1.779682014688894
1.7742722468082959
1.7597635131804232
1.7351830077780854
1.702819450033138
1.6652649737281258
1.6212086650147788
1.5767888878092302
1.5623754013695639
1.597082285175864
1.6177906584052806
1.6348418972507277
1.6229638250072824
1.6077233137364797
1.6307066343162109
1.6651150105230152
1.6631998349278667
1.6622422349200412
1.6541622219059544
1.6214332546173627
1.5971986324833554
1.5817460643170551
1.575365127707994
1.5765729177193062
1.58049366758568
1.5545498084823386
1.5178718830273266
2.141456554680727
1.702889779266263
1.7732582680919555
1.7676551760406238
1.783432193462704
1.8001249327847317
1.8169214867683736
1.832640442095579
1.8459539668006364
1.854649454646965
1.8582535289203315
1.8540328491539646
1.8406484221060344
1.8172227345281209
1.7854327958073837
1.7461884012476805
1.700555156086369
1.6588350739133049
1.637245812507921
1.6355140488839266
1.6449541029577555
1.6442998447079835
1.6311413073121035
1.6222272142784877
1.6358317224187455
1.659757341460265
1.6679877126193305
1.6670301534485825
1.6665513707870974
1.6510480698977301
1.6278810957388388
1.6090016627541537
1.5935367946201573
1.582575122928379
1.5720063717488448
1.537661580536913
1.5414746523456087
1.4865767992038
1.46135017253708
1.4455959643664846
2.2308475134826433
1.7368989614302923
1.7925492705455968
1.7863097915873158
1.8099090645736526
1.835808821948514
1.8625734692461793
1.8892036645810018
1.912338649326567
1.9298353255342722
1.9380141235604191
1.9339973173516396
1.9200886882290067
1.8998823406684815
1.8739529244535866
1.8424338498267656
1.8065375806944217
1.771683483500745
1.7438737299706157
1.7248236574855735
1.708043597533841
1.685159959093658
1.65809412773886
1.6372908257206227
1.631110596091604
1.635249941557274
1.647561020442701
1.6631328707783493
1.6702437399704888
1.667105557785689
1.6581745667548438
1.646522908565166
1.6293623819435648
1.6043246719227782
1.5812687606873534
1.5488641039916546
1.535116569427696
1.5411094182827814
1.5222578017135375
1.4618275540970394
2.2993311082926295
1.8115567869098703
1.8715864979058963
1.8147977543864697
1.8298710106340585
1.8632808868623094
1.9003746716432515
1.9406840755696932
1.9662516719468763
1.9843760614528552
1.9996344456498503
2.0009173370839783
1.9792368271011482
1.9592861943824318
1.9396421001551067
1.9194978392260287
1.8987380445401898
1.8791309218180066
1.8599433571502888
1.8359813550106543
1.8009461776518667
1.7555886679886838
1.7076409167526139
1.6661135813972496
1.6377076842753464
1.6244530623637503
1.6258749510911936
1.6385984084903613
1.651319889899451
1.6615687570367073
1.6711105351014117
1.674211646215856
1.6708603407666442
1.6626883071871454
1.6195489326475523
1.58192353122868
1.5586626796941325
1.5505091732875333
1.497734146043204
1.4651253013874221
2.4223542038026937
2.101558114708961
2.078582482459224
1.9527929525901766
1.9155493972782198
1.923885690349236
1.9462016123310015
1.9624353274046957
1.9767453993242565
1.974363232255571
1.9724630043351619
1.9699614056613894
1.9648277569604868
1.9578885528463297
1.9502077674134364
1.9436285752885045
1.9379673168129299
1.934328037515436
1.9314454630719406
1.9080277873418339
1.8750757907678228
1.834940497262809
1.7848579894482834
1.7169636102720969
1.6633211130354686
1.6296731679729615
1.6181604817072124
1.6261573192167396
1.6379067153229998
1.6457818517944662
1.6530748379621172
1.66238002101838
1.6789990483729098
1.6746903958299797
1.6631998349278667
1.6564964649546412
1.6502715550731704
1.6435055889353134
1.5181079902625192
1.4126634397671816
2.5959602157733377
2.4370889207862394
2.3131023150340053
2.1775267438787487
2.072720826282146
2.007145062581678
1.9698259956633826
1.9498390311648663
1.940496315509547
1.937241032978896
1.9332084433338417
1.9283318899513417
1.9233069119065709
1.919211082757971
1.9163773246841838
1.9144933587315245
1.9146141550529652
1.9159946441310558
1.9168588624383447
1.915693113805703
1.9101096211723092
1.8865390753592755
1.8487990973154882
1.7947849620129546
1.7159797152638923
1.6549505846582622
1.6248464743864555
1.6261331766067493
1.6348675558642691
1.6341959630387717
1.6271554878201795
1.6167201104015876
1.6022844483573466
1.584491640803817
1.5662286600798636
1.5501394693493833
1.531340777581756
1.5149241776168612
1.4968966454594541
1.455663297488125
1.0045578781947144
1.4885663137128413
1.7405492833921599
1.837892523221235
1.870605662442881
1.8796195233998125
1.881109005978934
1.8796800253456871
1.8776327005385163
1.875640107579369
1.8731590989373503
1.871760249932003
1.871870153954042
1.8733037092255183
1.8758016590693167
1.8789499039670414
1.8821963598362632
1.8841015138828405
1.883908462660067
1.8811652044932454
1.873891800765622
1.8478434105622994
1.792872315034744
1.7112692985962108
1.651811582968019
1.641790645419968
1.6499889686210558
1.6399917540649802
1.6247666028667147
1.6101864280109721
1.5981710850074162
1.58951643354034
1.5826990301295714
1.5768873610368075
1.5762425470219814
1.5894025390768234
1.6275838786803134
1.565412840383931
0.9652873150181265
1.508956403698544
1.6952687279319705
1.7756087158733713
1.804524836309262
1.8131117453361498
1.8147607871113693
1.8141669403605682
1.8139602345698858
1.81532942052954
1.8178741819612492
1.8212802598496642
1.826259032012293
1.8318959445693273
1.8377480260679127
1.8438046454231392
1.8489951280457546
1.8528765558567117
1.855342492217017
1.8550037055703401
1.852019052766618
1.8452629645329792
1.8351414812034774
1.7890468944040858
1.7029071802444418
1.6643035637354362
1.6799751847714912
1.6647773672028727
1.6470423900186397
1.634445919979059
1.6279258402653614
1.6276382866609769
1.6320205666143808
1.638480644737629
1.6465492549811886
1.6784792557057726
1.6166167077133247
1.6987491806959998
1.1845657593314325
1.1507234485231572
1.188714884077945
1.5572746203253698
1.7557834148471465
1.8097047730675382
1.7940116475277093
1.7793191979981935
1.771050731925108
1.7677669564867924
1.7681158180937635
1.771450660368446
1.777414550749289
1.7848990215736726
1.793415879526912
1.8029557906206712
1.8119134514940165
1.8201146936203738
1.826799391082836
1.8312296525667635
1.8323873012331195
1.8302275096515717
1.8249507624120236
1.8172737483986419
1.8083652572970108
1.7973952316979247
1.747750075227689
1.6301365461892634
1.6299477618733815
1.6335125056443889
1.632236887438067
1.6330190863148826
1.6406186543030632
1.6590273403841858
1.6955670901091362
1.7062831644339367
1.711069118046153
1.6575095888254714
1.615668446926419
1.506349824475163
)
;

boundaryField
{
    ".*"
    {
        type            zeroGradient;
    }
}


// ************************************************************************* //
