/*--------------------------------*- C++ -*----------------------------------*=========                 |
  \      /  F ield         | OpenFOAM: The Open Source CFD Toolbox
   \    /   O peration     | Website:  https://openfoam.org
    \  /    A nd           | Version:  6
     \/     M anipulation  |
\*---------------------------------------------------------------------------*/
FoamFile
{
    version     2.0;
    format      ascii;
    class       volScalarField;
    location    "2500";
    object      PPD;
}
// * * * * * * * * * * * * * * * * * * * * * * * * * * * * * * * * * * * * * //

dimensions      [0 0 0 0 0 0 0];

internalField   nonuniform List<scalar> 
458
(
70.12353226055383
61.08057291933338
61.51158798992006
60.679887580528536
59.96380388617079
59.365132549598066
58.91917440191126
58.62965340371151
58.47674269012431
58.51073318040329
58.76597036250337
59.34095698956243
60.34415585375391
61.239810185427864
60.27080436708218
60.40887845746933
60.38310042643979
60.305750221444974
60.22837607999463
60.15097829964047
59.6468512469185
59.62759625918222
59.89281879393044
59.63441096311753
59.24635772251933
58.702257023339676
58.027412255990996
57.247337842374876
56.387852985724564
55.47509733284389
54.587690646706655
53.93497696674725
53.93497696674725
70.75030127302541
60.88788289293288
62.30994465460398
61.302700737502086
60.730864097345496
60.27477535367305
59.97263211460777
59.7615499584158
59.67043003334828
59.683935058426634
59.79515213811685
59.94875912717045
60.08147043274969
59.897713609793655
59.2894422166631
60.27602428165142
61.78068044500996
63.596370754425166
56.71699759190068
60.33153629741071
60.22837607999463
60.15097829964047
59.99611301254494
59.81532201723951
59.63441096311753
59.401640708820004
59.11689442242196
58.72818715083501
58.23518746224134
57.71554839902509
57.117198388627216
56.46603884882212
55.78815096288433
55.03145672549826
54.22217950993365
50.017345912595474
74.50471933345952
60.54849586121989
63.61954468309233
62.63826621775704
62.411121951424015
62.31819830383806
62.27275395733945
62.28961883130418
62.30971460585729
62.337551115982535
62.35717700070031
62.19169805707234
61.71511278288534
60.797949578860624
59.60556345118943
58.70002709478316
57.58269726429785
56.07701236644558
60.61500444762695
60.43465378481313
60.46042639745858
60.162509959156
58.72870881192771
59.711958730574786
59.3757658312805
59.0909952606877
58.78004143303185
58.46879826662342
58.10534093621976
57.71554839902509
57.2993841767621
56.85682292055965
56.46603884882212
55.89247914190627
55.0187130595205
47.88791286254559
78.73484718673804
60.85581276530728
64.79630095904551
64.08440306722864
64.38321390244953
64.73185330388912
65.07855006927741
65.44396997804529
65.74365383858526
65.89755985334531
65.955414211604
65.673148352095
64.91312104901556
63.61619867502802
61.892953728303894
59.875079502022295
57.48968625470359
55.072964785207134
54.28769884240982
56.17795705949932
57.30403028758246
58.22947375347977
57.584994634038736
56.756836967507816
58.005211320996686
59.86698900358709
59.76364523017067
59.711958730574786
59.27548258016105
57.501882909994215
56.18428883166148
55.34297792966866
54.99540616268206
55.061200119333314
55.274765241502536
53.86131720395955
51.864135015277824
82.71011308723251
61.89671569619201
65.62017278362455
65.32705156850025
66.15071738815834
67.01622934077982
67.88049674870805
68.68289909316753
69.35738428172849
69.79526279774993
69.97612227452984
69.76428298012384
69.08917571461396
67.89593403602944
66.25477944440424
64.19824460164023
61.771797832003834
59.5279831938249
58.35978537969804
58.26591410329639
58.777336742361335
58.74191464526396
58.02879003992497
57.544997593057815
58.28313545347305
59.57779387553018
60.021930276392744
59.970293221353444
59.94447091383606
59.10709501596062
57.85190943064252
56.82634739524449
55.98498450449795
55.38813144641104
54.81242865004204
52.9413368840693
53.14901399289899
50.164216688514834
48.798779372237334
47.948956233983935
85.99027186513544
63.70709182307131
66.62422130130099
66.30036878256163
67.52050930968943
68.84385020842032
70.19240963997336
71.51335321777165
72.6427590438812
73.4850210098744
73.87508176216721
73.68380919076043
73.01712935639577
72.03683539617232
70.75950908802095
69.17952015975989
67.34700126180718
65.53785503399823
64.07600796071449
63.06640732391062
62.17220598360621
60.94622336531112
59.48795951814643
58.36222504884169
58.02712416092495
58.25159605717624
58.91844193266256
59.76003113801793
60.143549599533834
59.974359803717064
59.49230484682894
58.862258692423694
57.93228452725222
56.571999267554986
55.31698161308494
53.551548584498185
52.80274164324417
53.12912045039059
52.102759058814286
48.8245682787359
88.23088212333901
67.60520568031895
70.64189649630215
67.77160256424081
68.54199535865337
70.22777611219755
72.06088130478174
74.00190134382962
75.20315301978302
76.03977544489727
76.73413542872274
76.79209171129533
75.80383773494833
74.8782922451454
73.95243911442287
72.98866000803682
71.98091641194007
71.01626407843162
70.06079196830095
68.85260702125207
67.05864473918463
64.69364503531746
62.150695005335876
59.920857410590024
58.38481762107491
57.66584819166542
57.743032316706035
58.43308797204766
59.121796273970446
59.675602226999814
60.19026275438847
60.35731970274732
60.17678016793346
59.73603664764984
57.399542938545444
55.35264353698257
54.08540762508198
53.64117226798091
50.76963418340298
49.002774753937615
91.65350019891261
81.12073321700754
80.17185868534024
74.57382317763417
72.79810334621095
73.1997972351231
74.26316496123074
75.02538970044068
75.6890886949262
75.5791475212809
75.49129205807289
75.37542169233876
75.13689210882296
74.81288893175127
74.4521697659048
74.14146469815768
73.87285622224647
73.69957908519346
73.56199793198198
72.43364385510056
70.8152567583626
68.79976675981615
66.22488972973831
62.64809006811579
59.77019056119572
57.94914601618592
57.32412121624047
57.75835852338496
58.39560408556087
58.82214667578475
59.216695854330645
59.719396308708305
60.61500444762695
60.38310042643979
59.76364523017067
59.401640708820004
59.06509395743186
58.69890823194738
51.87697893730719
46.18144607404476
95.22177366709559
92.01217645971292
88.65243476675556
84.0812562183097
79.9259374970294
77.07249044578651
75.36914287770038
74.43479781280726
73.99299131317116
73.83831328505607
73.64617729765604
73.41306321969537
73.17198518478588
72.97483868713896
72.8381040799912
72.74704788221257
72.75288983770855
72.81961802625048
72.86135853867366
72.80504857699087
72.53470891122265
71.38216478982676
69.50089096406263
66.74004695130151
62.59565821202004
59.31809666026195
57.68720498241859
57.75704814537315
58.23086488246166
58.194451664193636
57.8125323940593
57.24586766559058
56.46101624956687
55.49250621115464
54.49764488351269
53.62103048192177
52.59715075139952
51.70380329782416
50.72416254290793
48.49173070757297
26.30970577079232
50.27211119622198
63.90027604816205
68.94955352729257
70.59309896140496
71.04044933383084
71.11413166774966
71.04344360350294
70.9420579506193
70.84325928084127
70.72007443552002
70.65053781223686
70.65600326650203
70.72725962305134
70.85127400055323
71.0073020221059
71.16787797679709
71.26195836194536
71.25243024891802
71.11691037602515
70.75647334201373
69.45271194926477
66.64096451932609
62.34443523303813
59.14838758686044
58.60603204682864
59.04980776191742
58.508584286893374
57.68286915052766
56.890762297071525
56.237209063830235
55.766117379838576
55.39487975424981
55.07832895113674
55.04320350276535
55.75991631129813
57.83578057719332
54.45319516488692
24.67915114996879
51.37932243269288
61.48866204844953
65.74293937700328
67.24328738337249
67.68507243878642
67.76970607164166
67.73923591778565
67.72862782623582
67.7988742906744
67.92930931103112
68.1036361940134
68.35792093036929
68.64504036127633
68.94222717011186
69.24882432407662
69.51077028895276
69.70615862758086
69.83006976919523
69.8130563397294
69.66302923365208
69.32249646287117
68.80997219221618
66.44254274392321
61.89764647793317
59.82320752793114
60.66751304216033
59.84877233588056
58.890374487064356
58.20800450907637
57.85433749763055
57.838733137414486
58.07648121609001
58.42670643632614
58.86368468944063
60.58703906901489
57.24024948655945
61.67511434575777
34.49278139304293
32.87193777809304
34.6938857032529
54.009778294925745
64.70389060542617
67.51000365844479
66.69999642025839
65.93650310982298
65.50476502735272
65.33290560264349
65.35117412861928
65.5256804201415
65.83718066996519
66.22702362711235
66.66913177920509
67.16236925235057
67.62353019114974
68.0440143887684
68.3854805227999
68.61114601438192
68.67002818203221
68.56014476838742
68.2911646498288
67.89854798959902
67.44109405590828
66.87513269131576
64.28066036988456
57.97428507634887
57.964043380823824
58.157391813307015
58.088213666958126
58.13063452253976
58.54254700074653
59.538367981605454
61.5046520686241
62.07814731026083
62.33375150830516
59.45638076798921
57.18872490709909
51.237650859037636
)
;

boundaryField
{
    ".*"
    {
        type            zeroGradient;
    }
}


// ************************************************************************* //
