/*--------------------------------*- C++ -*----------------------------------*\
  =========                 |
  \\      /  F ield         | OpenFOAM: The Open Source CFD Toolbox
   \\    /   O peration     | Website:  https://openfoam.org
    \\  /    A nd           | Version:  6
     \\/     M anipulation  |
\*---------------------------------------------------------------------------*/
FoamFile
{
    version     2.0;
    format      ascii;
    class       volScalarField;
    location    "1400";
    object      nut;
}
// * * * * * * * * * * * * * * * * * * * * * * * * * * * * * * * * * * * * * //

dimensions      [0 2 -1 0 0 0 0];

internalField   nonuniform List<scalar> 
458
(
0.000692506
0.000715553
0.000686864
0.000710993
0.000733438
0.000753249
0.000770899
0.000787045
0.00080244
0.000818043
0.00083111
0.000840289
0.000845646
0.000848755
0.000849784
0.000393367
0.00047744
0.00048904
0.000469452
0.000439392
0.000394627
0.000344853
0.000253583
0.00018383
0.00019007
0.000207561
0.00021884
0.000219301
0.000216273
0.000223673
0.00026426
0.000304857
0.000283962
0.00112287
0.00180373
0.00145205
0.00178296
0.0019137
0.00204812
0.00218178
0.00230433
0.00240099
0.00245183
0.00246361
0.00240726
0.00224354
0.00191568
0.00138903
0.000890215
0.00085141
0.000597701
0.000494869
0.00113728
0.0013293
0.00136231
0.00115158
0.000883436
0.000618497
0.000498383
0.00048229
0.000518961
0.000571001
0.000589597
0.000550933
0.000478109
0.000426091
0.000498123
0.000794893
0.0004222
0.00151525
0.00288992
0.00156313
0.00260088
0.00286265
0.00302316
0.00315374
0.00325831
0.00333741
0.00338676
0.00340892
0.00338303
0.00327953
0.00306111
0.00269583
0.00219098
0.00155146
0.000905024
0.000713058
0.0019794
0.00181583
0.00145863
0.000999121
0.000423266
0.000364311
0.000331179
0.000312028
0.000299578
0.000290032
0.000281285
0.000272332
0.000265035
0.000398214
0.000773
0.00124316
0.000475307
0.00190969
0.00445779
0.00164658
0.00289711
0.00342718
0.00359529
0.00369725
0.00376695
0.00381634
0.00385018
0.00387321
0.00388066
0.00385609
0.00377089
0.00357301
0.00318182
0.00252152
0.00163269
0.0008992
0.00191461
0.00205639
0.00176951
0.00130687
0.000848992
0.000515092
0.000525161
0.000553284
0.000581983
0.000614618
0.000645761
0.000667094
0.000669134
0.000649232
0.00070085
0.000844199
0.00128996
0.000696106
0.00230043
0.00640972
0.00224913
0.00269482
0.00365028
0.00389263
0.00399038
0.0040388
0.00406153
0.00407477
0.00408619
0.00411591
0.00415436
0.00418344
0.00417749
0.00410817
0.00396122
0.00371172
0.00329829
0.00285632
0.00242035
0.0020339
0.00177254
0.0016541
0.00167661
0.00182086
0.00204908
0.00225411
0.00243774
0.00258271
0.00266607
0.00266529
0.00250799
0.00215996
0.00180685
0.00155233
0.00136295
0.000811426
0.000757214
0.000818489
0.00268982
0.00842128
0.00400319
0.00254623
0.00328792
0.00379508
0.00403784
0.00415803
0.00419087
0.00416576
0.00412917
0.00415692
0.00421047
0.00426659
0.00430622
0.00430608
0.00423689
0.00403483
0.00363996
0.00310461
0.0025631
0.00213032
0.00184588
0.00168674
0.00167271
0.00185181
0.00216139
0.00247542
0.002735
0.00294402
0.00308981
0.0031701
0.00317758
0.00299848
0.00267151
0.00226875
0.00190145
0.00145072
0.0013343
0.000827821
0.00306175
0.0100476
0.00710998
0.00415808
0.00302524
0.00300826
0.00343635
0.0038637
0.00414878
0.00415321
0.00408831
0.00410811
0.00414513
0.0041822
0.00420734
0.00420141
0.00413868
0.00396528
0.00363526
0.00317346
0.00267038
0.00222435
0.00188043
0.00163387
0.00153332
0.00173584
0.0021004
0.00243757
0.00272926
0.00297731
0.00316471
0.00331262
0.00344558
0.00353132
0.00338144
0.00307113
0.00272362
0.00234862
0.00196258
0.00102182
0.00314558
0.00987875
0.00836891
0.007117
0.00546438
0.00424686
0.00373833
0.00372553
0.00393157
0.00403425
0.00402474
0.00400963
0.00400506
0.00400117
0.0039831
0.00393699
0.00384795
0.00368807
0.00342837
0.00307467
0.00267455
0.00228156
0.00192655
0.00161799
0.00142292
0.00164431
0.00206591
0.00240627
0.00268132
0.00290996
0.00310233
0.00328564
0.00350541
0.00382263
0.00420233
0.00414449
0.00408531
0.00375984
0.00367593
0.00142142
0.00306656
0.00366771
0.00430524
0.00461151
0.00466322
0.00442383
0.00412557
0.00390834
0.00380117
0.00375166
0.00374552
0.00375642
0.00376056
0.00374068
0.0036864
0.00359319
0.00345954
0.00328172
0.00305462
0.00278249
0.00248482
0.00218809
0.00190944
0.00159294
0.00128919
0.00151082
0.00198868
0.00232027
0.00255775
0.00273613
0.00286443
0.00294744
0.00298919
0.00298795
0.00293698
0.0028454
0.00264648
0.00238425
0.00216781
0.0013776
0.00275925
0.00538919
0.00502678
0.00477358
0.00452505
0.00430708
0.00413633
0.00400324
0.00388568
0.00377283
0.00365324
0.00351767
0.00336132
0.00318384
0.00298805
0.00277783
0.00255686
0.00232973
0.0021038
0.00188895
0.00168873
0.00145035
0.0010646
0.00125123
0.00177218
0.00209522
0.0023126
0.00247976
0.00260548
0.00268758
0.00272745
0.0027297
0.00269595
0.0025737
0.00234957
0.0020445
0.00173384
0.00113572
0.00258461
0.00583685
0.00540459
0.00505338
0.00476367
0.00450335
0.00425255
0.00401728
0.00379659
0.00353698
0.00326397
0.00299291
0.00273184
0.00248459
0.00225261
0.0020363
0.00183569
0.00165085
0.00148226
0.0013308
0.00119127
0.0010169
0.000724268
0.000830794
0.00127686
0.00156822
0.00178705
0.00199458
0.00220405
0.00240932
0.00258847
0.00271305
0.00278896
0.00277703
0.00265669
0.00248392
0.00223833
0.00115333
0.0020448
0.00221996
0.00237006
0.00252505
0.00236123
0.002219
0.00202728
0.00187054
0.00172646
0.00159273
0.00146736
0.00136087
0.0012648
0.00117429
0.00108664
0.00100039
0.000914936
0.000830357
0.000747381
0.000667341
0.000592065
0.000523693
0.000464258
0.000414311
0.000374267
0.00039757
0.000462457
0.000524638
0.000588687
0.000655022
0.000724078
0.000798012
0.000883074
0.0009838
0.00108419
0.00118497
0.00123887
0.00121436
0.0011184
0.00102918
)
;

boundaryField
{
    floor
    {
        type            nutkWallFunction;
        Cmu             0.09;
        kappa           0.41;
        E               9.8;
        value           nonuniform List<scalar> 
36
(
0.000102886
4.58835e-05
5.68198e-05
5.83084e-05
5.57903e-05
5.19007e-05
4.6046e-05
3.94337e-05
2.69594e-05
1.70441e-05
1.7957e-05
2.04802e-05
2.20889e-05
2.21527e-05
2.17207e-05
2.27748e-05
2.84707e-05
3.40458e-05
3.1188e-05
3.11879e-05
4.96704e-05
5.6548e-05
8.42519e-05
9.82771e-05
9.17149e-05
9.91275e-05
0.000102886
0.000107721
0.000103081
7.20582e-05
4.58834e-05
7.20582e-05
5.90561e-05
0.000109485
8.63269e-05
0.000108791
)
;
    }
    ceiling
    {
        type            nutkWallFunction;
        Cmu             0.09;
        kappa           0.41;
        E               9.8;
        value           nonuniform List<scalar> 
43
(
0.000238171
0.000257107
0.000273212
0.000289849
0.00027241
0.000257153
0.000236403
0.000219279
0.000203398
0.000188529
0.000174465
0.000162415
0.000151453
0.00014104
0.000130869
0.00012077
0.000110665
0.000100555
9.05181e-05
8.07111e-05
7.13584e-05
6.27378e-05
5.51314e-05
4.86455e-05
4.33738e-05
4.64405e-05
5.48921e-05
6.28515e-05
7.09298e-05
7.91848e-05
8.76726e-05
9.66541e-05
0.000106868
0.000118816
0.000130585
0.000142275
0.000148482
0.000145664
0.000134568
0.000124153
0.000347087
0.000409163
0.000295906
)
;
    }
    sWall
    {
        type            nutkWallFunction;
        Cmu             0.09;
        kappa           0.41;
        E               9.8;
        value           uniform 0.000238234;
    }
    nWall
    {
        type            nutkWallFunction;
        Cmu             0.09;
        kappa           0.41;
        E               9.8;
        value           nonuniform List<scalar> 6(9.91284e-05 0.000100251 0.000123296 0.000136586 0.000138627 0.00012416);
    }
    sideWalls
    {
        type            empty;
    }
    glass1
    {
        type            nutkWallFunction;
        Cmu             0.09;
        kappa           0.41;
        E               9.8;
        value           nonuniform List<scalar> 9(8.37637e-05 0.000135207 0.000180094 0.000223914 0.000266358 0.000307895 0.000346982 0.000355731 0.000347509);
    }
    glass2
    {
        type            nutkWallFunction;
        Cmu             0.09;
        kappa           0.41;
        E               9.8;
        value           nonuniform List<scalar> 2(0.000169348 0.000164382);
    }
    sun
    {
        type            nutkWallFunction;
        Cmu             0.09;
        kappa           0.41;
        E               9.8;
        value           nonuniform List<scalar> 
14
(
8.38037e-05
8.66306e-05
8.3111e-05
8.60721e-05
8.88158e-05
9.12293e-05
9.33731e-05
9.53293e-05
9.71899e-05
9.90715e-05
0.000100644
0.000101747
0.00010239
0.000102763
)
;
    }
    Table_master
    {
        type            nutkWallFunction;
        Cmu             0.09;
        kappa           0.41;
        E               9.8;
        value           nonuniform List<scalar> 9(4.98122e-05 4.20482e-05 3.76169e-05 3.50295e-05 3.33363e-05 3.20316e-05 3.08312e-05 2.95972e-05 2.85877e-05);
    }
    Table_slave
    {
        type            nutkWallFunction;
        Cmu             0.09;
        kappa           0.41;
        E               9.8;
        value           nonuniform List<scalar> 9(6.16417e-05 6.29222e-05 6.64831e-05 7.00939e-05 7.41739e-05 7.80432e-05 8.06811e-05 8.09334e-05 7.84744e-05);
    }
    inlet
    {
        type            calculated;
        value           uniform 0.000100623;
    }
    outlet
    {
        type            calculated;
        value           nonuniform List<scalar> 2(0.0020448 0.00221996);
    }
}


// ************************************************************************* //
