/*--------------------------------*- C++ -*----------------------------------*\
  =========                 |
  \\      /  F ield         | OpenFOAM: The Open Source CFD Toolbox
   \\    /   O peration     | Website:  https://openfoam.org
    \\  /    A nd           | Version:  6
     \\/     M anipulation  |
\*---------------------------------------------------------------------------*/
FoamFile
{
    version     2.0;
    format      ascii;
    class       volScalarField;
    location    "2800";
    object      alphat;
}
// * * * * * * * * * * * * * * * * * * * * * * * * * * * * * * * * * * * * * //

dimensions      [1 -1 -1 0 0 0 0];

internalField   nonuniform List<scalar> 
458
(
0.00112639
0.00122151
0.00123352
0.00129026
0.00134257
0.00139071
0.0014365
0.00148225
0.00152526
0.00155614
0.00156974
0.00156117
0.00152847
0.00147607
0.00141341
0.000486536
0.000611507
0.000674032
0.000658577
0.00063118
0.000593387
0.000555124
0.00052046
0.000489764
0.000462594
0.000438529
0.000417169
0.000397857
0.000379892
0.000362354
0.000343803
0.00032869
0.000297675
0.00157603
0.00362348
0.00338972
0.00394551
0.00445176
0.00496836
0.00546157
0.00587843
0.00620984
0.00650259
0.00671475
0.00677897
0.00658448
0.00589315
0.00414712
0.00145727
0.00116401
0.000901898
0.000561237
0.00110284
0.00146854
0.00170644
0.0017713
0.00145141
0.0012741
0.00114432
0.00104319
0.000962144
0.000894407
0.000832565
0.000773704
0.000715769
0.00066541
0.000623582
0.000726629
0.00038293
0.00195898
0.00500509
0.00412291
0.00542628
0.00602938
0.00646806
0.00679981
0.00705522
0.00727742
0.0075221
0.00777249
0.00799082
0.00812653
0.00811014
0.00783871
0.00705375
0.0057592
0.00129956
0.00112741
0.00154998
0.00191736
0.0022064
0.00224609
0.000834748
0.000738292
0.000659722
0.00059613
0.000544432
0.00050208
0.000467183
0.000438457
0.000415315
0.000447272
0.00051298
0.000811145
0.000439465
0.00233464
0.00662727
0.00411994
0.00582685
0.00653964
0.00679861
0.00689285
0.00694598
0.00703995
0.00722829
0.00749159
0.00779836
0.00811007
0.00835934
0.00850045
0.0083674
0.00771667
0.00593549
0.00151511
0.00191049
0.00244887
0.00290019
0.00318995
0.00308432
0.000919443
0.000838325
0.000783408
0.000743697
0.000711146
0.000679427
0.000649606
0.000618314
0.000581552
0.000546637
0.000544725
0.000896841
0.00048952
0.00272055
0.0087404
0.00473932
0.00551693
0.00655901
0.00681436
0.00677066
0.00664781
0.00665427
0.00682447
0.00709661
0.0074449
0.00782893
0.0081343
0.00829898
0.00824096
0.00789317
0.00717171
0.00577443
0.00527702
0.00504392
0.00488467
0.00473825
0.00451515
0.00385424
0.00355674
0.00340698
0.00330124
0.0031854
0.00302402
0.00272997
0.00234142
0.0018884
0.00141838
0.00104881
0.00097564
0.000767276
0.000646036
0.000736025
0.000807497
0.00312759
0.0110322
0.00699802
0.0055028
0.00604613
0.00650538
0.00669797
0.00648103
0.00650056
0.00665865
0.0069208
0.00727832
0.00766726
0.00797994
0.00811194
0.00800362
0.00768195
0.0072479
0.00676198
0.00641157
0.00610146
0.00578352
0.00547502
0.00518327
0.00488408
0.00467567
0.00451875
0.00436919
0.0042038
0.00401009
0.00374413
0.00336382
0.00286903
0.00228431
0.00173484
0.00129981
0.00101402
0.000845461
0.00111162
0.000827596
0.00349921
0.0126872
0.010263
0.00763859
0.00679887
0.00665474
0.00678832
0.00671776
0.00666712
0.00672898
0.00695366
0.00731935
0.00772946
0.00804609
0.00814482
0.00797562
0.00760772
0.00720709
0.00689559
0.00663779
0.00630239
0.00588208
0.00545526
0.00509041
0.00481918
0.00463676
0.00448937
0.00433997
0.00417991
0.00401665
0.00385766
0.00363825
0.00327668
0.00279001
0.00228402
0.00182071
0.0014833
0.0013121
0.00124658
0.000942828
0.00356771
0.0114464
0.0102806
0.00965386
0.00888496
0.00821868
0.00768919
0.00716879
0.00686769
0.00686831
0.0071411
0.0075785
0.00802665
0.00832273
0.00834452
0.00807233
0.00762079
0.00718626
0.00684789
0.00644468
0.00588985
0.00532337
0.0048578
0.00452942
0.00431459
0.00416153
0.00402247
0.00387985
0.00374339
0.00363542
0.00357648
0.0035621
0.0034388
0.00312056
0.00281039
0.00260923
0.00259462
0.00268106
0.00321764
0.00149987
0.00346744
0.00410882
0.00468542
0.00494443
0.0052023
0.00534891
0.00549296
0.00576083
0.00623008
0.00685509
0.00754076
0.00816673
0.00860713
0.00875369
0.00855002
0.00806205
0.00748954
0.00696125
0.00633867
0.00563759
0.0049891
0.00449434
0.0041575
0.0039309
0.00376115
0.00360594
0.0034394
0.00325592
0.00306702
0.00288921
0.00272943
0.00258301
0.00245946
0.00235606
0.00229182
0.00226867
0.00224034
0.00216301
0.00204715
0.00145578
0.00207351
0.00515094
0.0059632
0.00656473
0.00724258
0.00795313
0.00854099
0.00899223
0.00930032
0.00943144
0.00933366
0.00896975
0.00835035
0.00755289
0.00669246
0.00585922
0.00513928
0.00459446
0.00421856
0.00396102
0.00376613
0.00359488
0.00342308
0.00323862
0.00303882
0.00282898
0.00262309
0.00244431
0.00231798
0.00225036
0.00222147
0.00221633
0.00222509
0.0022257
0.00217949
0.00206508
0.00190374
0.00128335
0.00237046
0.00639844
0.00782872
0.00808399
0.00856934
0.00907495
0.00937303
0.00942607
0.00931129
0.009002
0.00846891
0.00776022
0.00693426
0.00608644
0.00534817
0.00483133
0.00454112
0.00439204
0.00429971
0.0042131
0.00411619
0.0039998
0.00385028
0.00366138
0.00343695
0.00319081
0.00294308
0.00271462
0.00253418
0.00241349
0.00235105
0.00233724
0.00235145
0.00236218
0.00233611
0.00235126
0.00257464
0.00132467
0.00197986
0.00214067
0.00225516
0.00242184
0.00239689
0.00234952
0.00226206
0.00212594
0.00198073
0.00186493
0.0017674
0.00166035
0.00153686
0.00140642
0.00128399
0.00118609
0.00111972
0.00107918
0.00105478
0.00103867
0.00102594
0.0010145
0.00100177
0.000985743
0.000967003
0.000947509
0.000930413
0.000919452
0.000918128
0.000929136
0.000950413
0.000980432
0.00101886
0.00106564
0.00111993
0.00118052
0.00121654
0.00119393
0.00113088
0.00107572
)
;

boundaryField
{
    floor
    {
        type            compressible::alphatWallFunction;
        Prt             0.85;
        value           nonuniform List<scalar> 
36
(
0.000199349
6.72122e-05
8.61345e-05
9.54161e-05
9.31316e-05
8.9066e-05
8.3422e-05
7.76624e-05
7.24019e-05
6.7707e-05
6.35203e-05
5.9786e-05
5.64495e-05
5.3414e-05
5.05731e-05
4.77829e-05
4.48123e-05
4.23768e-05
3.73313e-05
3.73308e-05
5.10547e-05
5.99319e-05
6.76701e-05
9.12791e-05
0.000104526
0.000114905
0.000199347
0.000205275
0.000165229
0.000128443
6.72114e-05
0.000128442
7.85973e-05
0.000183864
0.000160151
0.000213058
)
;
    }
    ceiling
    {
        type            compressible::alphatWallFunction;
        Prt             0.85;
        value           nonuniform List<scalar> 
43
(
0.00027443
0.000295308
0.000310072
0.000331544
0.000328392
0.00032235
0.000311142
0.000293593
0.000274736
0.000259594
0.000246761
0.000232586
0.000216102
0.000198526
0.000181861
0.000168403
0.000159208
0.000153561
0.00015015
0.000147892
0.000146107
0.0001445
0.000142708
0.00014045
0.000137803
0.000135044
0.000132618
0.000131061
0.000130872
0.000132438
0.000135457
0.000139703
0.000145117
0.000151675
0.000159243
0.000167642
0.00017261
0.000169494
0.000160766
0.000153087
0.000462609
0.000540749
0.000324647
)
;
    }
    sWall
    {
        type            compressible::alphatWallFunction;
        Prt             0.85;
        value           uniform 0.000273244;
    }
    nWall
    {
        type            compressible::alphatWallFunction;
        Prt             0.85;
        value           nonuniform List<scalar> 6(0.00011472 0.000117615 0.000134071 0.000181469 0.000187111 0.000152779);
    }
    sideWalls
    {
        type            empty;
    }
    glass1
    {
        type            compressible::alphatWallFunction;
        Prt             0.85;
        value           nonuniform List<scalar> 9(0.000156188 0.000216591 0.000266646 0.00031481 0.0003635 0.000414122 0.000459791 0.000468278 0.000456241);
    }
    glass2
    {
        type            compressible::alphatWallFunction;
        Prt             0.85;
        value           nonuniform List<scalar> 2(0.000209744 0.000203874);
    }
    sun
    {
        type            compressible::alphatWallFunction;
        Prt             0.85;
        value           nonuniform List<scalar> 
14
(
0.000160032
0.000173167
0.000174818
0.000182597
0.000189736
0.000196276
0.000202475
0.000208645
0.000214427
0.000218566
0.000220387
0.000219239
0.000214855
0.000207811
)
;
    }
    Table_master
    {
        type            compressible::alphatWallFunction;
        Prt             0.85;
        value           nonuniform List<scalar> 9(0.000118897 0.00010492 9.33724e-05 8.39029e-05 7.61127e-05 6.96621e-05 6.42955e-05 5.98397e-05 5.62228e-05);
    }
    Table_slave
    {
        type            compressible::alphatWallFunction;
        Prt             0.85;
        value           nonuniform List<scalar> 9(0.000131014 0.000119414 0.000111486 0.000105712 0.000100951 9.62866e-05 9.1877e-05 8.7223e-05 8.17181e-05);
    }
    inlet
    {
        type            fixedValue;
        value           uniform 1.94e-05;
    }
    outlet
    {
        type            zeroGradient;
    }
}


// ************************************************************************* //
