/*--------------------------------*- C++ -*----------------------------------*\
  =========                 |
  \\      /  F ield         | OpenFOAM: The Open Source CFD Toolbox
   \\    /   O peration     | Website:  https://openfoam.org
    \\  /    A nd           | Version:  6
     \\/     M anipulation  |
\*---------------------------------------------------------------------------*/
FoamFile
{
    version     2.0;
    format      ascii;
    class       surfaceScalarField;
    location    "1700";
    object      phi;
}
// * * * * * * * * * * * * * * * * * * * * * * * * * * * * * * * * * * * * * //

dimensions      [1 0 -1 0 0 0 0];

internalField   nonuniform List<scalar> 
850
(
-0.0023207
0.00237854
-0.00249205
0.000171471
-0.0027498
0.000257879
-0.00305548
0.000305804
-0.00334605
0.000290689
-0.0035923
0.000246369
-0.003775
0.000182813
-0.00387693
0.000102035
-0.00388078
3.95491e-06
-0.00376693
-0.000113739
-0.0035165
-0.000250328
-0.00311415
-0.000402253
-0.00252466
-0.000589394
-0.00160424
-0.000920322
-0.00160316
-0.000639638
0.000643599
-0.000674007
3.44303e-05
-0.000582797
-9.11311e-05
-0.000525766
-5.69216e-05
-0.000421411
-0.000104241
-0.000212671
-0.000208647
-3.73213e-05
-0.000175272
8.82666e-05
-0.000125508
0.000193821
-0.000105471
0.000284371
-9.04631e-05
0.000350155
-6.56959e-05
0.000363879
-1.36428e-05
0.000325592
3.83723e-05
0.000287113
3.85737e-05
0.000314211
-2.69849e-05
0.000470155
-0.000155791
0.000602986
-0.000132682
0.000606729
-0.00169439
0.00422271
-0.00221726
0.000694471
-0.00262495
0.000665695
-0.00296942
0.000650393
-0.00327544
0.000596826
-0.00353451
0.000505554
-0.00373426
0.00038268
-0.00386133
0.000229209
-0.00390223
4.49663e-05
-0.00384778
-0.000168082
-0.00369266
-0.000405348
-0.00342978
-0.00066503
-0.00305357
-0.000965516
-0.00264997
-0.00132383
-0.00268714
-0.00156591
-0.00127766
-0.00140754
0.000199006
-0.00147457
0.000206152
0.000643556
9.81015e-06
0.000381536
0.000296439
1.24359e-05
0.000277979
-0.000173903
0.000129441
-0.000338991
6.08906e-05
-0.000287201
-0.000260364
-0.000254664
-0.000207741
-0.000253541
-0.000126561
-0.000272457
-8.64747e-05
-0.00030961
-5.32193e-05
-0.000365225
-9.98336e-06
-0.000425787
4.70222e-05
-0.000482068
9.47588e-05
-0.000508639
6.52653e-05
-0.000378086
-0.000157397
-0.000186585
-0.00034715
-0.000137219
-0.000181926
0.000479471
-0.00126121
0.00570622
-0.00191861
0.001352
-0.00236734
0.00111456
-0.0027099
0.000993072
-0.00300547
0.000892515
-0.00325572
0.000755926
-0.00345334
0.000580415
-0.00358847
0.000364449
-0.00365078
0.000107391
-0.00363338
-0.000185374
-0.00353806
-0.000500559
-0.00337657
-0.000826416
-0.00318063
-0.00116135
-0.00302275
-0.00148161
-0.00289642
-0.00169215
-0.00252222
-0.00178166
-0.00211912
-0.0018776
-0.0019078
-0.000751724
0.000770592
-0.000782592
0.000327292
-0.000682808
0.000178186
-0.000565378
1.20107e-05
-0.000305295
-0.000199187
-0.000565439
-0.000772956
-0.000899298
-0.00098555
-0.00103853
-0.00104827
-0.00100098
-0.000905922
-0.000840331
-0.000569471
-0.000428057
-0.000776989
-0.000139398
-0.000902819
-5.58566e-05
-0.000412493
-0.00095033
0.00693796
-0.0016451
0.0020469
-0.00204536
0.00151495
-0.00235338
0.00130122
-0.00261447
0.00115373
-0.00283296
0.000974537
-0.00300676
0.000754335
-0.0031293
0.000487112
-0.00319093
0.00016914
-0.0031839
-0.00019229
-0.00311902
-0.000565326
-0.00302785
-0.000917473
-0.0029545
-0.00123459
-0.00294078
-0.00149523
-0.00296942
-0.00166342
-0.00300626
-0.00174473
-0.00314824
-0.00173555
-0.00368245
-0.00137354
-0.00303127
-0.000644738
-0.00221852
-4.21359e-05
-0.0019943
0.000103107
-0.00186302
4.69676e-05
-0.0017891
-6.18367e-05
-0.00182802
-0.000160184
-0.00166686
-0.000161231
-0.00149262
-0.000174309
-0.00130504
-0.000187646
-0.00110864
-0.000196472
-0.000904913
-0.000203794
-0.000689868
-0.000215118
-0.000450637
-0.000239305
-0.000167317
-0.000283396
0.0001833
-0.000350684
0.000246247
-0.0004909
0.000541432
-0.000434453
0.000718419
-0.000232692
0.000314412
-0.000713562
0.00798306
-0.00141
0.00274347
-0.00169144
0.00179651
-0.00193859
0.00154849
-0.00214292
0.00135819
-0.0023023
0.00113403
-0.00242081
0.000872976
-0.00249686
0.000563286
-0.00252138
0.000193786
-0.00248374
-0.000229804
-0.0024063
-0.000642647
-0.00233382
-0.000989826
-0.00230669
-0.00126159
-0.00234537
-0.00145644
-0.00243766
-0.00157101
-0.00257468
-0.00160761
-0.00278023
-0.0015299
-0.00293002
-0.00122366
-0.00281034
-0.000764342
-0.00247588
-0.000376525
-0.00217836
-0.000194344
-0.00196804
-0.000163268
-0.00183146
-0.00019834
-0.00174762
-0.000243944
-0.00164011
-0.000268649
-0.0015251
-0.000289241
-0.00140598
-0.000306691
-0.00128195
-0.000320422
-0.00115248
-0.000333189
-0.00101477
-0.000352743
-0.00086247
-0.000391529
-0.000682493
-0.00046329
-0.000455856
-0.000577233
-0.000213394
-0.000733265
0.000212859
-0.000860597
0.000881258
-0.000900967
0.0020188
-0.000822986
0.00263051
-0.000605694
0.00218882
0.000448273
0.002229
-0.000655971
0.00901443
-0.00130983
0.00339746
-0.0013186
0.00180541
-0.00145344
0.00168346
-0.00159425
0.00149913
-0.00167201
0.00121192
-0.00169974
0.000900838
-0.00168952
0.000553198
-0.00163411
0.000138507
-0.00152825
-0.000335535
-0.00141734
-0.00075343
-0.00134646
-0.00106058
-0.00134241
-0.00126551
-0.00141146
-0.00138726
-0.00154237
-0.00143998
-0.00172167
-0.00142819
-0.00192408
-0.00132738
-0.00204865
-0.001099
-0.00202446
-0.000788433
-0.00188215
-0.000518748
-0.00171894
-0.000357458
-0.0015894
-0.000292725
-0.00150283
-0.000284823
-0.00144771
-0.000298979
-0.00140184
-0.000314431
-0.00136152
-0.000329472
-0.00132707
-0.00034106
-0.00129957
-0.000347841
-0.00128021
-0.000352475
-0.00126892
-0.000363945
-0.0012625
-0.000397869
-0.00125221
-0.000473494
-0.00122262
-0.000606737
-0.00115326
-0.000802523
-0.000967517
-0.00104623
-0.000532851
-0.00133552
0.000268331
-0.00162405
0.00117723
-0.00151448
0.00142741
0.000198211
0.00369532
-0.000902347
0.0103318
-0.00111307
0.00360832
-0.000650717
0.00134318
-0.000666926
0.00169981
-0.000819457
0.00165179
-0.000833468
0.00122606
-0.000744096
0.000811597
-0.000609258
0.000418491
-0.000432694
-3.79256e-05
-0.000253745
-0.000514351
-0.000137538
-0.000869504
-9.86942e-05
-0.00109928
-0.000137678
-0.00122639
-0.00024763
-0.00127717
-0.000416074
-0.0012714
-0.00062488
-0.00121926
-0.000838017
-0.00111411
-0.000993519
-0.000943378
-0.00105215
-0.000729685
-0.00103533
-0.000535461
-0.000990034
-0.000402657
-0.000951581
-0.000331079
-0.00093371
-0.000302597
-0.000935608
-0.000296986
-0.00095112
-0.000298826
-0.000979896
-0.000300605
-0.00102551
-0.000295354
-0.0010949
-0.000278367
-0.00119698
-0.000250309
-0.00134033
-0.000220506
-0.00152897
-0.000209145
-0.00175734
-0.000245035
-0.00201071
-0.000353277
-0.00226541
-0.000547722
-0.00247921
-0.00083234
-0.00258689
-0.00122774
-0.00247379
-0.00173705
-0.00189141
-0.00209674
-0.000489865
-0.00120322
0.00325214
0.00157962
0.00921548
0.00200034
0.00318773
0.00177502
0.00156863
0.00133682
0.00213815
0.000964569
0.00202418
0.00085988
0.00133088
0.000942387
0.000729224
0.00113399
0.000227024
0.00134462
-0.00024843
0.00144984
-0.000619434
0.00145154
-0.000871072
0.00137328
-0.00102088
0.00123753
-0.0010905
0.0010584
-0.00109791
0.000844502
-0.00105736
0.000605748
-0.000980368
0.000365364
-0.000873596
0.000162063
-0.000739946
2.46479e-05
-0.000592145
-5.33459e-05
-0.000457347
-9.90676e-05
-0.000356819
-0.000137112
-0.000292923
-0.000180696
-0.000258904
-0.00023365
-0.000243926
-0.000295476
-0.000236897
-0.000367426
-0.000228552
-0.000453657
-0.000209023
-0.000563265
-0.00016866
-0.000711783
-0.000101696
-0.000921437
-1.07603e-05
-0.00122564
9.51509e-05
-0.00166116
0.000190575
-0.00223598
0.000221632
-0.00291564
0.000132037
-0.00364758
-0.000100301
-0.00445605
-0.000419168
-0.00546902
-0.000723972
-0.0065106
-0.00105505
-0.00590995
-0.00180375
-0.00245179
0.00971926
0.0128952
0.0101719
0.00429207
0.00771353
0.00459665
0.00627012
0.00346772
0.00538275
0.00221839
0.00481417
0.00129794
0.00440286
0.000638464
0.00401963
0.000134933
0.00364808
-0.000247748
0.00329917
-0.000522036
0.00297284
-0.00069441
0.00266473
-0.00078226
0.00237011
-0.00080315
0.00208529
-0.000772399
0.00180922
-0.000704163
0.00154757
-0.000611811
0.00131525
-0.000507483
0.00112703
-0.000403791
0.000983758
-0.000313943
0.000871234
-0.000244167
0.000775072
-0.000196636
0.000685163
-0.000168874
0.000596337
-0.000154981
0.000507177
-0.000147621
0.000418
-0.00013926
0.00033073
-0.00012164
0.000248481
-8.62986e-05
0.000175378
-2.84844e-05
0.000108584
5.614e-05
3.92687e-05
0.000164569
-4.2422e-05
0.000272366
-0.000158183
0.000337491
-0.000354369
0.000328318
-0.000676836
0.000222258
-0.00110201
6.09378e-06
-0.00160278
-0.000223113
-0.00214611
-0.000511625
-0.0021439
-0.00180588
-0.0043791
0.00153518
0.00364301
0.00304803
0.00308393
0.00429806
0.00221782
0.00477379
0.00174279
0.00489017
0.00118169
0.00486868
0.000660083
0.00475073
0.000253017
0.00455422
-5.11048e-05
0.00429545
-0.000263127
0.00399857
-0.000397391
0.00368417
-0.00046773
0.00336705
-0.000485883
0.00305856
-0.000463776
0.0027679
-0.00041336
0.00250276
-0.000346529
0.00226995
-0.000274532
0.00207359
-0.000207291
0.00191223
-0.000152435
0.00177571
-0.00010751
0.00165612
-7.69122e-05
0.00154738
-5.99971e-05
0.0014454
-5.28797e-05
0.00134842
-5.05057e-05
0.00125689
-4.76078e-05
0.00117422
-3.8847e-05
0.00110685
-1.8806e-05
0.00106052
1.79709e-05
0.00104241
7.43683e-05
0.00105761
0.000149484
0.0011037
0.000226391
0.00116731
0.000273988
0.00123687
0.000258864
0.0013112
0.000148031
0.00137381
-5.64072e-05
0.00149714
-0.000346348
0.00175901
-0.000773391
0.0016518
-0.00169856
-0.00267925
-0.000185628
0.00381948
0.00194365
0.000954765
0.00312986
0.00103174
0.00391706
0.000955722
0.00442344
0.000675434
0.00469581
0.000387849
0.00479077
0.000158187
0.00474735
-7.54938e-06
0.00459003
-0.000105678
0.00435952
-0.000166743
0.0040868
-0.000194868
0.00379704
-0.000195985
0.00350983
-0.000176421
0.00323949
-0.000142885
0.00299563
-0.000102524
0.00278352
-6.22808e-05
0.00260417
-2.77938e-05
0.00245394
-2.0648e-06
0.00233157
1.50033e-05
0.00223204
2.2761e-05
0.00214811
2.40748e-05
0.00207356
2.18019e-05
0.00200475
1.84435e-05
0.00194112
1.61598e-05
0.00188549
1.69081e-05
0.00184415
2.2673e-05
0.00182494
3.73049e-05
0.00183576
6.36822e-05
0.00188736
9.80074e-05
0.00198224
0.000131637
0.0021085
0.000147852
0.00224201
0.000125468
0.00234662
4.3537e-05
0.00238394
-9.36127e-05
0.00231161
-0.000273905
0.00205204
-0.000513716
0.00126687
-0.000913281
-0.00135647
-0.00248985
-0.00366042
0.000147291
0.00108823
0.00210393
0.00304197
0.00369826
0.00406559
0.00420191
0.00417118
0.00404112
0.0038489
0.00362754
0.00340419
0.0031997
0.00302825
0.00289694
0.00280592
0.00274968
0.00271965
0.00270732
0.00270338
0.00270137
0.00269763
0.00269103
0.00268264
0.00267548
0.00267458
0.00268886
0.00273011
0.00280633
0.00291682
0.00304411
0.00314946
0.00317306
0.00305958
0.00276575
0.00223191
0.00129915
)
;

boundaryField
{
    floor
    {
        type            calculated;
        value           nonuniform List<scalar> 
36
(
0
0
0
0
0
0
0
0
0
0
0
0
0
0
0
0
0
0
0
-3.62468e-06
-9.86331e-06
-1.05966e-05
-8.33125e-06
-5.87848e-06
-6.44553e-06
-7.06835e-06
-9.8874e-07
-1.86613e-06
-2.01507e-06
-2.78676e-06
-3.90186e-06
-4.2564e-06
-9.77465e-06
-5.10955e-06
-9.07317e-06
-6.40533e-06
)
;
    }
    ceiling
    {
        type            calculated;
        value           nonuniform List<scalar> 
43
(
1.67446e-05
1.37843e-05
1.18714e-05
1.39327e-05
1.61593e-05
1.7815e-05
1.92705e-05
2.06495e-05
2.19944e-05
2.33145e-05
2.45149e-05
2.56202e-05
2.66248e-05
2.75026e-05
2.82114e-05
2.8701e-05
2.89294e-05
2.88827e-05
2.85879e-05
2.81089e-05
2.74834e-05
2.6837e-05
2.62331e-05
2.56839e-05
2.51768e-05
2.46913e-05
2.42069e-05
2.37045e-05
2.31618e-05
2.25633e-05
2.19211e-05
2.12749e-05
2.06908e-05
2.02522e-05
2.00526e-05
1.99969e-05
2.00397e-05
2.02395e-05
1.95942e-05
2.08195e-05
1.54885e-05
1.18861e-05
9.26693e-06
)
;
    }
    sWall
    {
        type            calculated;
        value           uniform -0.000170737;
    }
    nWall
    {
        type            calculated;
        value           nonuniform List<scalar> 6(-3.29784e-05 -3.87754e-05 -4.65704e-05 -4.79447e-05 -5.58069e-05 -7.80291e-05);
    }
    sideWalls
    {
        type            empty;
        value           nonuniform 0();
    }
    glass1
    {
        type            calculated;
        value           nonuniform List<scalar> 9(-5.77041e-05 -0.000149659 -0.000222175 -0.000281285 -0.000331417 -0.00037528 -0.00041492 -0.00046317 -0.000519153);
    }
    glass2
    {
        type            calculated;
        value           nonuniform List<scalar> 2(-0.000205885 -0.000216493);
    }
    sun
    {
        type            calculated;
        value           uniform 0;
    }
    Table_master
    {
        type            calculated;
        value           nonuniform List<scalar> 9(-1.53493e-07 -1.53431e-07 -1.53353e-07 -1.53289e-07 -1.53232e-07 -1.53184e-07 -1.53131e-07 -1.53073e-07 -1.52976e-07);
    }
    Table_slave
    {
        type            calculated;
        value           nonuniform List<scalar> 9(1.52156e-07 1.52214e-07 1.5227e-07 1.52329e-07 1.52389e-07 1.52449e-07 1.5251e-07 1.52579e-07 1.52583e-07);
    }
    inlet
    {
        type            calculated;
        value           uniform -0.000886013;
    }
    outlet
    {
        type            calculated;
        value           nonuniform List<scalar> 2(0.00264396 0.0011569);
    }
}


// ************************************************************************* //
