/*--------------------------------*- C++ -*----------------------------------*\
  =========                 |
  \\      /  F ield         | OpenFOAM: The Open Source CFD Toolbox
   \\    /   O peration     | Website:  https://openfoam.org
    \\  /    A nd           | Version:  6
     \\/     M anipulation  |
\*---------------------------------------------------------------------------*/
FoamFile
{
    version     2.0;
    format      ascii;
    class       volScalarField;
    location    "2300";
    object      alphat;
}
// * * * * * * * * * * * * * * * * * * * * * * * * * * * * * * * * * * * * * //

dimensions      [1 -1 -1 0 0 0 0];

internalField   nonuniform List<scalar> 
458
(
0.000767685
0.000780953
0.000615345
0.000598458
0.00060813
0.0006211
0.000635653
0.000652051
0.000669853
0.000688403
0.000707202
0.000725726
0.000743912
0.000762466
0.000779499
0.000308456
0.000303022
0.000282385
0.000274071
0.000266258
0.00026023
0.000266035
0.000277787
0.000290453
0.000300877
0.000306352
0.000302386
0.000294392
0.000284546
0.000277761
0.000264334
0.000261198
0.000247811
0.00142708
0.00299195
0.00173527
0.00256605
0.00294128
0.00304269
0.0030926
0.00312092
0.00313321
0.00312208
0.00307172
0.00295508
0.0027254
0.0023001
0.00159278
0.000867754
0.000821699
0.000582282
0.000389656
0.00104463
0.000991645
0.000877087
0.000795798
0.000771317
0.000867418
0.000979882
0.00106812
0.00111891
0.00111942
0.0010491
0.000944056
0.0008683
0.000945335
0.000839465
0.000822906
0.000383369
0.00202201
0.00575359
0.00280121
0.00304049
0.00411629
0.00460064
0.0048098
0.00491302
0.00496012
0.0049667
0.00493005
0.00483438
0.00464392
0.00429161
0.00370312
0.00289225
0.00188524
0.000870481
0.000583154
0.00133864
0.0010392
0.000725381
0.000508492
0.000351202
0.000371121
0.00039448
0.000419068
0.000446475
0.000479348
0.0005216
0.000578942
0.000661288
0.00145347
0.00153914
0.00172848
0.000641398
0.00255927
0.00894979
0.00512591
0.00387704
0.00436047
0.00502728
0.00552927
0.00586633
0.00607868
0.00620683
0.00626862
0.00626589
0.00617773
0.0059444
0.00546712
0.00464497
0.00341553
0.00192115
0.000872196
0.00191588
0.00198348
0.00155403
0.00118872
0.000907351
0.0007058
0.000705722
0.000705134
0.00070542
0.000708781
0.000717324
0.000733367
0.000759869
0.00080114
0.00179776
0.00167737
0.00136855
0.000851971
0.00302456
0.0120399
0.00842799
0.00613329
0.00522974
0.00508472
0.00543494
0.00596153
0.00644896
0.00683049
0.00711123
0.00730938
0.00743938
0.00749344
0.00743824
0.00723786
0.00687161
0.00633855
0.00571379
0.00530124
0.00486746
0.00459557
0.00444337
0.00433331
0.00419316
0.00407735
0.00394783
0.00380186
0.00364176
0.00347114
0.00329428
0.00311601
0.00293975
0.00276041
0.00243119
0.00203683
0.0015439
0.000950472
0.000927584
0.000899109
0.00342475
0.0143465
0.0117446
0.0089931
0.00716404
0.0059261
0.00541543
0.00554722
0.00606144
0.00668736
0.00725318
0.00771283
0.00807208
0.00834493
0.00852853
0.00860693
0.00855648
0.00834622
0.00797184
0.00752729
0.00711891
0.00680363
0.00658263
0.00640439
0.00623119
0.00605621
0.0058736
0.00568092
0.00547764
0.00526394
0.00503969
0.00480402
0.00455522
0.0042885
0.00398791
0.00363017
0.00315899
0.00257652
0.00190827
0.0010542
0.00374276
0.0147871
0.0127041
0.0107747
0.00900486
0.00736525
0.00617521
0.00554957
0.00550654
0.00595713
0.00668364
0.00738585
0.00798706
0.00847507
0.00885135
0.00911963
0.00926406
0.00925215
0.00906935
0.00876751
0.00843435
0.00812966
0.00786946
0.00764291
0.00743353
0.00722957
0.00702352
0.00681049
0.00658781
0.0063544
0.00610992
0.00585444
0.00558854
0.00531222
0.00501917
0.00468208
0.00422561
0.00353963
0.00259798
0.00121789
0.00370397
0.0119177
0.0114232
0.0114568
0.0102118
0.00850264
0.00705657
0.00608011
0.00559405
0.00558015
0.00597029
0.00660499
0.00730202
0.00793181
0.00845721
0.00888402
0.00919653
0.00936645
0.00937255
0.00924106
0.00902991
0.0087935
0.00856178
0.00834392
0.0081374
0.00793646
0.0077342
0.00752465
0.00730393
0.00707019
0.00682322
0.00656436
0.00629661
0.006024
0.00574839
0.00545801
0.00509702
0.00452634
0.00357788
0.00137602
0.00349367
0.0041181
0.0145546
0.014609
0.0118325
0.00930102
0.0076152
0.00662158
0.00613772
0.00603653
0.00620745
0.00653943
0.00694325
0.00737097
0.00780408
0.00822095
0.0085821
0.00885976
0.00902246
0.00906634
0.00901481
0.0089046
0.00876556
0.00861499
0.00845961
0.00830096
0.00813572
0.00795993
0.00777064
0.00756614
0.00734594
0.00711087
0.00686311
0.00660578
0.00634075
0.00606157
0.00573528
0.00526355
0.00436046
0.00155544
0.028522
0.0235984
0.0137634
0.0101228
0.00859039
0.00775971
0.00735518
0.00723389
0.00727445
0.00739329
0.00754849
0.00772419
0.00791578
0.00812004
0.00833027
0.00853304
0.00870624
0.0088308
0.00889579
0.00890967
0.00888535
0.00883423
0.00876289
0.00867272
0.00856434
0.00843868
0.0082964
0.00813762
0.00796192
0.00776857
0.00755677
0.00732556
0.00707267
0.00679046
0.00645376
0.0059811
0.00503205
0.00179174
0.00861593
0.016931
0.0123389
0.00949638
0.00808978
0.00750934
0.00740313
0.00753739
0.00776065
0.00799006
0.00819
0.00835321
0.00848652
0.0086005
0.00870307
0.00879649
0.00887805
0.00894385
0.00899159
0.00902207
0.00903821
0.00904338
0.00903724
0.00900325
0.00894542
0.00886905
0.00877823
0.00867506
0.00855966
0.0084304
0.0082838
0.00811402
0.00791121
0.00765873
0.00732784
0.00685634
0.00605909
0.00209651
0.00147572
0.00190255
0.00547088
0.00494363
0.00415421
0.00348776
0.00298872
0.00263522
0.00239793
0.0022493
0.00216366
0.00211897
0.0020982
0.00208975
0.00208675
0.0020857
0.00208507
0.00208424
0.00208276
0.00208021
0.00207633
0.00207091
0.00206408
0.0020561
0.00204728
0.00203929
0.00203094
0.00202168
0.00201142
0.00200022
0.00198817
0.00197527
0.00196135
0.00194595
0.00192808
0.00190571
0.00187513
0.0018303
0.00176688
0.00152968
)
;

boundaryField
{
    floor
    {
        type            compressible::alphatWallFunction;
        Prt             0.85;
        value           nonuniform List<scalar> 
36
(
0.000110986
3.91454e-05
3.8247e-05
3.48486e-05
3.34745e-05
3.21785e-05
3.11754e-05
3.21439e-05
3.40948e-05
3.61844e-05
3.78948e-05
3.87901e-05
3.81418e-05
3.68322e-05
3.52126e-05
3.40917e-05
3.18622e-05
3.13342e-05
2.90954e-05
2.90949e-05
5.11922e-05
9.07065e-05
0.000121463
0.000135523
0.000132281
0.000128225
0.000110985
0.000123706
0.000117086
8.1873e-05
3.91448e-05
8.1872e-05
5.21855e-05
0.000124091
8.19704e-05
0.000124332
)
;
    }
    ceiling
    {
        type            compressible::alphatWallFunction;
        Prt             0.85;
        value           nonuniform List<scalar> 
43
(
0.000208348
0.000265019
0.00070324
0.000640989
0.00054653
0.000465372
0.000403562
0.000359132
0.000328954
0.000309887
0.000298837
0.000293049
0.000290351
0.000289249
0.000288853
0.000288712
0.000288626
0.000288513
0.000288317
0.000287982
0.000287474
0.000286768
0.000285877
0.000284837
0.000283687
0.000282645
0.000281555
0.000280347
0.000279008
0.000277546
0.000275972
0.000274285
0.000272465
0.000270451
0.000268111
0.000265179
0.000261166
0.000255271
0.000246908
0.000215329
0.000465981
0.000542028
0.00106397
)
;
    }
    sWall
    {
        type            compressible::alphatWallFunction;
        Prt             0.85;
        value           uniform 0.000207539;
    }
    nWall
    {
        type            compressible::alphatWallFunction;
        Prt             0.85;
        value           nonuniform List<scalar> 6(0.000128104 0.000150025 0.000172751 0.000249946 0.000289777 0.000215085);
    }
    sideWalls
    {
        type            empty;
    }
    glass1
    {
        type            compressible::alphatWallFunction;
        Prt             0.85;
        value           nonuniform List<scalar> 9(0.00010681 0.000197788 0.000275936 0.000344492 0.00040272 0.000452116 0.000490992 0.000486406 0.000460932);
    }
    glass2
    {
        type            compressible::alphatWallFunction;
        Prt             0.85;
        value           nonuniform List<scalar> 2(0.000194318 0.000218508);
    }
    sun
    {
        type            compressible::alphatWallFunction;
        Prt             0.85;
        value           nonuniform List<scalar> 
14
(
0.000109273
0.000111186
8.68334e-05
8.43102e-05
8.57592e-05
8.76968e-05
8.98648e-05
9.23002e-05
9.49356e-05
9.76726e-05
0.000100437
0.000103152
0.000105809
0.000108512
)
;
    }
    Table_master
    {
        type            compressible::alphatWallFunction;
        Prt             0.85;
        value           nonuniform List<scalar> 9(4.60575e-05 4.92387e-05 5.29414e-05 5.68082e-05 6.10842e-05 6.61689e-05 7.26401e-05 8.13186e-05 9.3599e-05);
    }
    Table_slave
    {
        type            compressible::alphatWallFunction;
        Prt             0.85;
        value           nonuniform List<scalar> 9(0.000100166 0.000100155 0.000100068 0.00010011 0.000100603 0.000101856 0.000104203 0.000108067 0.000114052);
    }
    inlet
    {
        type            fixedValue;
        value           uniform 1.94e-05;
    }
    outlet
    {
        type            zeroGradient;
    }
}


// ************************************************************************* //
