/*--------------------------------*- C++ -*----------------------------------*=========                 |
  \      /  F ield         | OpenFOAM: The Open Source CFD Toolbox
   \    /   O peration     | Website:  https://openfoam.org
    \  /    A nd           | Version:  6
     \/     M anipulation  |
\*---------------------------------------------------------------------------*/
FoamFile
{
    version     2.0;
    format      ascii;
    class       volScalarField;
    location    "2300";
    object      PMV;
}
// * * * * * * * * * * * * * * * * * * * * * * * * * * * * * * * * * * * * * //

dimensions      [0 0 0 0 0 0 0];

internalField   nonuniform List<scalar> 
458
(
2.6779929989859306
2.561660128875673
2.5726747491464925
2.578533243243322
2.5844440374948885
2.5897067912947143
2.595017299395862
2.6004806053747664
2.6057045167839306
2.6108385741774525
2.6162131424517736
2.622542796375806
2.6297488538728677
2.63737105601956
2.634803366106723
1.956313595150758
1.9175770855493333
1.897232819318287
1.8982017080571723
1.903530393960014
1.9083743547946121
1.9117649563770993
1.9141867278228772
1.9161240926164427
1.9170927574975132
1.9175770855493333
1.9146710733932157
1.9112805933885453
1.9078899716110056
1.9069211966245703
1.9015927296936321
1.8919037306442337
1.889178141938978
2.7497214272103836
2.6224986028632604
2.6302089689435784
2.6336888467178112
2.6400702597792765
2.6467203961073684
2.652512317137159
2.6578966510953057
2.662895702699346
2.667067615037079
2.670058720909039
2.6711120159262722
2.6697048860046695
2.6631311112460083
2.647011494229217
2.6301170980451936
2.6128795638609006
2.5002646273372924
2.0791601100232344
2.0390430025054362
2.0245364476794605
2.0274380213721543
2.034691382498783
2.0443612407489824
2.0477453382877466
2.0506458462028463
2.0545129774618704
2.0593465472576216
2.065146321349825
2.0762609790849815
2.0873735279818315
2.1008989360038552
2.1197324171471483
2.118283918853465
2.1293880703040777
2.2537751660330567
2.8381250312187665
2.682811188139878
2.691781170869342
2.687326213402758
2.6918511994561163
2.6988428040629606
2.7061072707814775
2.7129572764297003
2.719334039674047
2.724231449172157
2.727676457137298
2.7282200043724343
2.724705943113426
2.7137141690252813
2.6940341003590036
2.667387689206419
2.6350600942721627
2.606020604058948
2.2576782318777417
2.259552163269625
2.255700922252595
2.2484788733158783
2.240773974148586
2.2104224872570324
2.235795567846847
2.2616772098899753
2.2900539063408094
2.3215160100647685
2.355081785484104
2.392351949478254
2.437748539285809
2.4918488331649984
2.5549983997136128
2.591007502961923
2.612692492196007
2.577564475661665
2.9302693240458533
2.7587867680755087
2.7708387542572153
2.758650842461213
2.755055729149542
2.7581125721190474
2.764148946779622
2.7713309821866114
2.7790336256403263
2.7861544307379607
2.791148115508982
2.792937334578643
2.789851272396236
2.7782033522290868
2.7560519558798937
2.7210568990421313
2.6713092686155373
2.6056280283283066
2.545273806992441
2.516755040037487
2.5931612829095045
2.6513140244707003
2.6941469905459474
2.722203604760405
2.7438206144842097
2.750115122091333
2.7555636953298244
2.761634385055249
2.7677836780385245
2.7744925005547314
2.7813081455294406
2.7883467604987393
2.794745798186265
2.799378069717206
2.8231955571754286
2.849643686093198
2.87730910442138
3.0
2.8509068797745605
2.872466117482637
2.8667537415912285
2.85060795515067
2.8396206651052984
2.8365728525844545
2.8392825751880384
2.8456273106390766
2.853477080081818
2.860705008782324
2.865724867477159
2.86696746945262
2.8624197645129956
2.8501731465198223
2.830222143016724
2.8039087165023266
2.774246635504835
2.749917397000758
2.7373633526038996
2.749147755181999
2.768294335576902
2.7838792580554417
2.794657706571083
2.800882729451157
2.805669519528794
2.8104718134399915
2.8152906708644383
2.821598394232596
2.828396018288368
2.836655304431223
2.846373391623626
2.8574981230563554
2.869296814614969
2.883352518335333
2.89548687364397
2.903587404355325
2.906022982333842
2.913926626181705
2.9202900187916456
3.0
2.959922283750567
3.0
3.0
2.984990285082655
2.9587375297208798
2.939507676331206
2.9290768655597503
2.926530058404394
2.929475685755059
2.9363052545815305
2.9430307572001797
2.9476703810670033
2.9483180447740103
2.942616410749599
2.930982006509437
2.912895195947505
2.891053796905934
2.871882468674546
2.8588924899568764
2.854689783303275
2.8554124725767176
2.8584679299754883
2.86085633186414
2.8626370799640135
2.8638979866690075
2.8656413665751983
2.8683723856887005
2.871622184584354
2.8758795887992488
2.8811450340226057
2.8883714197948147
2.896565110396361
2.906100953060226
2.915833258150007
2.9245320650965505
2.9320292582103606
2.9411784041333515
2.952145323730848
2.9578161337098825
3.0
3.0
3.0
3.0
3.0
3.0
3.0
3.0
3.0
3.0
3.0
3.0
3.0
3.0
3.0
3.0
3.0
3.0
2.9837962297799208
2.9685707361654368
2.957382460806356
2.9501138280799397
2.9452347597965596
2.9417282244160865
2.9391136965206095
2.936470544379152
2.9342893030790203
2.9330576420791923
2.932325610861543
2.9325695090514556
2.9342514463716025
2.9368813629228567
2.940853433512558
2.945107260262171
2.949905990952862
2.953745613845797
2.95707151298846
2.961617707945266
2.9687425270137315
2.974719618991076
3.0
3.0
3.0
3.0
3.0
3.0
3.0
3.0
3.0
3.0
3.0
3.0
3.0
3.0
3.0
3.0
3.0
3.0
3.0
3.0
3.0
3.0
3.0
3.0
3.0
3.0
3.0
3.0
3.0
3.0
2.9973384964208782
2.995081943348161
2.9937270486069427
2.993487162213313
2.992329931881174
2.9910705684974337
2.9889791987736243
2.987338691881512
2.987066479749115
2.988453907343176
3.0
3.0
3.0
3.0
3.0
3.0
3.0
3.0
3.0
3.0
3.0
3.0
3.0
3.0
3.0
3.0
3.0
3.0
3.0
3.0
3.0
3.0
3.0
3.0
3.0
3.0
3.0
3.0
3.0
3.0
3.0
3.0
3.0
3.0
3.0
3.0
3.0
3.0
3.0
3.0
3.0
3.0
3.0
3.0
3.0
3.0
3.0
3.0
3.0
3.0
3.0
3.0
3.0
3.0
3.0
3.0
3.0
3.0
3.0
3.0
3.0
3.0
3.0
3.0
3.0
3.0
3.0
3.0
3.0
3.0
3.0
3.0
3.0
3.0
3.0
3.0
3.0
3.0
3.0
3.0
3.0
3.0
3.0
3.0
3.0
3.0
3.0
3.0
3.0
3.0
3.0
3.0
3.0
3.0
3.0
3.0
3.0
3.0
3.0
3.0
3.0
3.0
3.0
3.0
3.0
3.0
3.0
3.0
3.0
3.0
3.0
3.0
3.0
3.0
3.0
3.0
3.0
3.0
3.0
3.0
3.0
3.0
3.0
3.0
3.0
3.0
3.0
3.0
3.0
3.0
3.0
3.0
3.0
3.0
3.0
3.0
3.0
3.0
3.0
3.0
3.0
3.0
3.0
3.0
3.0
3.0
3.0
3.0
3.0
3.0
3.0
3.0
3.0
3.0
3.0
2.9777273033078457
)
;

boundaryField
{
    ".*"
    {
        type            zeroGradient;
    }
}


// ************************************************************************* //
