/*--------------------------------*- C++ -*----------------------------------*\
  =========                 |
  \\      /  F ield         | OpenFOAM: The Open Source CFD Toolbox
   \\    /   O peration     | Website:  https://openfoam.org
    \\  /    A nd           | Version:  6
     \\/     M anipulation  |
\*---------------------------------------------------------------------------*/
FoamFile
{
    version     2.0;
    format      ascii;
    class       volVectorField;
    location    "2300";
    object      U;
}
// * * * * * * * * * * * * * * * * * * * * * * * * * * * * * * * * * * * * * //

dimensions      [0 1 -1 0 0 0 0];

internalField   nonuniform List<vector> 
458
(
(0.0884526 0.0556125 0)
(-0.116265 -0.00159255 0)
(-0.0891072 -0.00239561 0)
(-0.0881951 -0.000782935 0)
(-0.0882345 -0.000442992 0)
(-0.0886249 -0.000603522 0)
(-0.0889134 -0.00103283 0)
(-0.0888453 -0.0017178 0)
(-0.088159 -0.00273446 0)
(-0.0864762 -0.00420914 0)
(-0.0830088 -0.00631116 0)
(-0.0761886 -0.00937099 0)
(-0.0643267 -0.0142442 0)
(-0.0495795 -0.0227709 0)
(-0.0444156 -0.0363104 0)
(0.0391405 -0.00685688 0)
(-0.000119648 -0.00320914 0)
(0.00358898 -0.00236461 0)
(0.0101605 -0.00227138 0)
(0.0135718 -0.00197254 0)
(0.0157481 -0.00179606 0)
(0.0175704 -0.00137926 0)
(0.0190123 -0.00104606 0)
(0.0200213 -0.000837305 0)
(0.0206964 -0.000791251 0)
(0.0211021 -0.000917731 0)
(0.0213343 -0.000910306 0)
(0.0207749 -0.000768758 0)
(0.0194021 -0.000286746 0)
(0.0161596 0.0018276 0)
(0.010824 0.00427798 0)
(0.0158224 0.00769918 0)
(-0.0561017 -0.00115109 0)
(0.254849 0.121989 0)
(-0.135811 0.00958337 0)
(-0.0815477 -0.00207279 0)
(-0.0850116 0.000159527 0)
(-0.0863043 0.000859251 0)
(-0.0869718 0.000904716 0)
(-0.0873305 0.000629951 0)
(-0.0874725 2.67647e-06 0)
(-0.0873183 -0.00110856 0)
(-0.0866926 -0.00289595 0)
(-0.0851583 -0.00559465 0)
(-0.0820011 -0.00961018 0)
(-0.0770092 -0.0159146 0)
(-0.072101 -0.0263122 0)
(-0.0688329 -0.0410744 0)
(-0.0561005 -0.0500107 0)
(-0.0398647 -0.054681 0)
(0.0864785 -0.0200308 0)
(0.0171884 -0.00238744 0)
(-0.00507446 0.000424413 0)
(-0.00687652 -0.000943048 0)
(-0.00902148 -0.00174603 0)
(-0.0100672 -0.00184405 0)
(-0.0103221 -0.00322629 0)
(-0.00858142 -0.00207622 0)
(-0.00753588 -0.00106512 0)
(-0.00711821 -0.000241235 0)
(-0.00697503 0.000543141 0)
(-0.00709993 0.00152038 0)
(-0.00800605 0.00291182 0)
(-0.00861115 0.00401287 0)
(-0.00854145 0.00516717 0)
(-0.00758318 0.00763437 0)
(-0.00610842 0.00904069 0)
(-0.00628168 0.0110103 0)
(0.0361755 0.0031643 0)
(0.386691 0.184748 0)
(-0.165328 0.030252 0)
(-0.0664592 0.00397925 0)
(-0.0749158 0.00247928 0)
(-0.0784032 0.00161899 0)
(-0.0793985 0.000881834 0)
(-0.0796792 0.000248145 0)
(-0.0797508 -0.00062828 0)
(-0.0797549 -0.00202539 0)
(-0.0797148 -0.00422963 0)
(-0.0794534 -0.00754906 0)
(-0.07869 -0.0123715 0)
(-0.0775355 -0.0191965 0)
(-0.076862 -0.0280334 0)
(-0.0762503 -0.0365185 0)
(-0.0712726 -0.0405782 0)
(-0.0615435 -0.0465986 0)
(-0.0498136 -0.0446903 0)
(-0.0472481 0.0210595 0)
(-0.0337394 0.00741235 0)
(-0.0384128 0.00339907 0)
(-0.0409413 0.000536846 0)
(-0.0425061 -0.00203969 0)
(-0.0424135 -0.00548554 0)
(-0.0466732 -0.00572682 0)
(-0.0488628 -0.00515259 0)
(-0.0503069 -0.00473581 0)
(-0.0512154 -0.00440223 0)
(-0.0515539 -0.00408565 0)
(-0.0510445 -0.00373772 0)
(-0.0498523 -0.00357325 0)
(-0.0471806 -0.00355953 0)
(-0.0435454 -0.00112876 0)
(-0.0377503 -0.00238169 0)
(-0.0361817 -0.0067196 0)
(0.104793 0.0166873 0)
(0.489026 0.234069 0)
(-0.188985 0.0527892 0)
(-0.0483933 0.0124043 0)
(-0.0571231 0.0067641 0)
(-0.0642685 0.00369649 0)
(-0.0666009 0.00170577 0)
(-0.0673835 0.000527087 0)
(-0.0676643 -0.000476854 0)
(-0.0678401 -0.00176488 0)
(-0.0682764 -0.00374822 0)
(-0.0691819 -0.00686969 0)
(-0.0707244 -0.0115948 0)
(-0.0732948 -0.0182823 0)
(-0.0775104 -0.0266164 0)
(-0.0834056 -0.0348514 0)
(-0.0907993 -0.0408389 0)
(-0.10254 -0.0440438 0)
(-0.119643 -0.0388174 0)
(-0.121223 -0.0163497 0)
(-0.0976809 0.0135421 0)
(-0.0883 0.00774326 0)
(-0.08776 0.00458501 0)
(-0.0899419 0.00148056 0)
(-0.0922699 -0.00159854 0)
(-0.0931841 -0.00280901 0)
(-0.0920329 -0.00283708 0)
(-0.0903028 -0.00331968 0)
(-0.0880924 -0.00366808 0)
(-0.0855642 -0.00397442 0)
(-0.0827626 -0.00429958 0)
(-0.0795342 -0.00470507 0)
(-0.075476 -0.00529514 0)
(-0.0702327 -0.00621086 0)
(-0.0643473 -0.00841444 0)
(-0.0577951 -0.0149196 0)
(-0.0419971 -0.0241175 0)
(-0.000362143 -0.0332985 0)
(0.568831 0.271152 0)
(-0.205304 0.0742713 0)
(-0.0294623 0.0191545 0)
(-0.0288715 0.0108522 0)
(-0.0381053 0.00775304 0)
(-0.04433 0.00432103 0)
(-0.0478136 0.00175472 0)
(-0.0496565 5.87824e-05 0)
(-0.0505931 -0.00129091 0)
(-0.0513104 -0.00279963 0)
(-0.0525109 -0.00501912 0)
(-0.0546956 -0.00847836 0)
(-0.0583171 -0.0134581 0)
(-0.0637234 -0.0196226 0)
(-0.0708382 -0.0258491 0)
(-0.0795467 -0.0308745 0)
(-0.0903505 -0.0333081 0)
(-0.101316 -0.0292954 0)
(-0.105071 -0.0151839 0)
(-0.10032 -0.00171996 0)
(-0.0937139 0.00321233 0)
(-0.0891245 0.00381708 0)
(-0.0864969 0.00251793 0)
(-0.0850459 0.000724371 0)
(-0.0838984 -0.000520449 0)
(-0.0825273 -0.00162131 0)
(-0.0810619 -0.00234389 0)
(-0.0795022 -0.0028098 0)
(-0.0778531 -0.0031717 0)
(-0.0761501 -0.0035853 0)
(-0.0743996 -0.00426981 0)
(-0.0725399 -0.00563094 0)
(-0.0706353 -0.00839589 0)
(-0.0694569 -0.0135193 0)
(-0.0704702 -0.0218415 0)
(-0.0749575 -0.0359112 0)
(-0.0814564 -0.063122 0)
(-0.0735107 -0.107828 0)
(-0.0480024 -0.113781 0)
(-0.0791591 -0.119576 0)
(0.62257 0.300938 0)
(-0.219728 0.0865932 0)
(-0.0105258 0.0147201 0)
(0.0088931 0.0103936 0)
(0.0028368 0.0153895 0)
(-0.00792847 0.0120377 0)
(-0.0166955 0.00645708 0)
(-0.0226901 0.00257887 0)
(-0.0263583 0.000131466 0)
(-0.0285966 -0.00160384 0)
(-0.0302808 -0.0032642 0)
(-0.0325534 -0.00554583 0)
(-0.0360712 -0.00891648 0)
(-0.0412383 -0.0132728 0)
(-0.0480722 -0.0179455 0)
(-0.0563796 -0.0219759 0)
(-0.065753 -0.0238851 0)
(-0.0742951 -0.0212049 0)
(-0.078647 -0.0133093 0)
(-0.0780226 -0.00580221 0)
(-0.0749196 -0.00176527 0)
(-0.0717133 -0.000302496 0)
(-0.069026 -0.000585275 0)
(-0.0671086 -0.00162967 0)
(-0.0656975 -0.0026288 0)
(-0.0644247 -0.00353221 0)
(-0.0631595 -0.00427173 0)
(-0.0618072 -0.00484361 0)
(-0.0602934 -0.00530369 0)
(-0.0585718 -0.00572955 0)
(-0.0566029 -0.00623173 0)
(-0.0543442 -0.00701266 0)
(-0.0518065 -0.00843777 0)
(-0.049227 -0.0109006 0)
(-0.0473777 -0.0141408 0)
(-0.048136 -0.0171845 0)
(-0.0516453 -0.0171915 0)
(-0.0470738 -0.0123873 0)
(-0.0339985 -0.0219774 0)
(-0.0716628 -0.0430834 0)
(0.639666 0.326892 0)
(-0.224843 0.0608887 0)
(0.0282533 -0.0461289 0)
(0.060759 -0.00754285 0)
(0.0527591 0.0206678 0)
(0.036509 0.0232453 0)
(0.0240634 0.0163356 0)
(0.0149005 0.00953858 0)
(0.00757652 0.00460652 0)
(0.00220985 0.00133155 0)
(-0.00173604 -0.000905936 0)
(-0.00475595 -0.00277566 0)
(-0.00807909 -0.00499002 0)
(-0.0125117 -0.00781501 0)
(-0.0183163 -0.0110499 0)
(-0.0254097 -0.0140906 0)
(-0.0332263 -0.0158249 0)
(-0.0403268 -0.0148029 0)
(-0.0448089 -0.0109722 0)
(-0.0460966 -0.00680657 0)
(-0.0452865 -0.00405557 0)
(-0.0437201 -0.00279219 0)
(-0.0421267 -0.00268708 0)
(-0.0408303 -0.00324233 0)
(-0.039818 -0.00401883 0)
(-0.0389614 -0.00484104 0)
(-0.0381561 -0.00562373 0)
(-0.0373037 -0.00635006 0)
(-0.0363185 -0.00705619 0)
(-0.0351354 -0.00781411 0)
(-0.0337112 -0.0087383 0)
(-0.0320409 -0.0100169 0)
(-0.030196 -0.0119508 0)
(-0.0283843 -0.0149379 0)
(-0.0271227 -0.0193182 0)
(-0.0273794 -0.0250187 0)
(-0.02863 -0.0304364 0)
(-0.024933 -0.0346779 0)
(-0.0161251 -0.0496434 0)
(-0.0685954 -0.0853626 0)
(0.725719 0.334312 0)
(-0.0369287 0.0136298 0)
(0.0894728 -0.096877 0)
(0.140196 -0.0266273 0)
(0.110061 0.0248703 0)
(0.0748494 0.0332724 0)
(0.0587269 0.0264398 0)
(0.0508166 0.0184345 0)
(0.044145 0.0117856 0)
(0.0382505 0.00671927 0)
(0.0334858 0.00322456 0)
(0.0294574 0.000831488 0)
(0.0255525 -0.00115624 0)
(0.0214845 -0.00317053 0)
(0.0168211 -0.00532406 0)
(0.0112682 -0.00744804 0)
(0.00508463 -0.00900867 0)
(-0.000911626 -0.00920575 0)
(-0.00530614 -0.00783754 0)
(-0.00760251 -0.00594936 0)
(-0.00830044 -0.00449157 0)
(-0.00814557 -0.00372573 0)
(-0.00768792 -0.00361392 0)
(-0.00724286 -0.00396122 0)
(-0.00690754 -0.00455082 0)
(-0.00668093 -0.005239 0)
(-0.00652835 -0.00595999 0)
(-0.00638714 -0.0067009 0)
(-0.00618756 -0.0074839 0)
(-0.00586657 -0.00835843 0)
(-0.00537659 -0.00940408 0)
(-0.00470251 -0.0107404 0)
(-0.00389016 -0.0125319 0)
(-0.00308386 -0.0149729 0)
(-0.00261377 -0.0182369 0)
(-0.00304042 -0.0222252 0)
(-0.00416326 -0.026107 0)
(-0.00309344 -0.0306168 0)
(9.72694e-05 -0.0465294 0)
(-0.0709967 -0.0942133 0)
(0.845095 0.328746 0)
(0.38476 0.157567 0)
(0.140272 0.0488868 0)
(0.217212 0.0759935 0)
(0.144697 0.08522 0)
(0.0867697 0.067591 0)
(0.0732131 0.0465272 0)
(0.0726996 0.0312227 0)
(0.0715066 0.02109 0)
(0.0693017 0.014266 0)
(0.067043 0.00968971 0)
(0.0647829 0.00664662 0)
(0.0623341 0.0044969 0)
(0.0594008 0.00274643 0)
(0.0558056 0.0011398 0)
(0.0516235 -0.0003524 0)
(0.0471294 -0.00153482 0)
(0.0426424 -0.00217687 0)
(0.0388177 -0.00215942 0)
(0.0360685 -0.00173285 0)
(0.0343362 -0.00127834 0)
(0.0332953 -0.00101145 0)
(0.0326192 -0.00100805 0)
(0.032078 -0.00124553 0)
(0.0315595 -0.00165443 0)
(0.0309862 -0.00214832 0)
(0.0303259 -0.00270668 0)
(0.029597 -0.00333529 0)
(0.0288384 -0.00405682 0)
(0.0280913 -0.00491409 0)
(0.0273894 -0.00597432 0)
(0.0267487 -0.00733327 0)
(0.0261537 -0.00911178 0)
(0.0255375 -0.0114328 0)
(0.0247489 -0.0143613 0)
(0.0235356 -0.0177508 0)
(0.0218115 -0.0211401 0)
(0.0197652 -0.0253636 0)
(0.0159311 -0.0392921 0)
(-0.0320508 -0.0868038 0)
(-1.38737 0.0412535 0)
(0.0170672 0.100433 0)
(0.0155375 0.0731527 0)
(0.0228957 0.0509685 0)
(0.0526791 0.0361968 0)
(0.0754295 0.0274964 0)
(0.0868632 0.0231831 0)
(0.0922111 0.0212121 0)
(0.094898 0.0202801 0)
(0.0961303 0.0197001 0)
(0.0963369 0.0191049 0)
(0.0957354 0.0183124 0)
(0.0944383 0.017266 0)
(0.0924784 0.0159917 0)
(0.0898608 0.0145772 0)
(0.0868953 0.0132324 0)
(0.0839229 0.0120981 0)
(0.0812344 0.011168 0)
(0.0789764 0.0102659 0)
(0.0770727 0.00937929 0)
(0.0754027 0.00847222 0)
(0.0738561 0.00750635 0)
(0.0723607 0.00646354 0)
(0.070825 0.00540684 0)
(0.0691946 0.00427331 0)
(0.0674664 0.0030059 0)
(0.0656469 0.00154641 0)
(0.0637389 -0.000182006 0)
(0.0617382 -0.00228222 0)
(0.0596287 -0.0048853 0)
(0.0573768 -0.00814155 0)
(0.0549271 -0.0121867 0)
(0.0522086 -0.0170643 0)
(0.0491648 -0.0225817 0)
(0.04578 -0.0282207 0)
(0.0413713 -0.0341607 0)
(0.0341679 -0.0466317 0)
(0.0163443 -0.0913395 0)
(-0.587837 0.0789282 0)
(0.195431 0.0350083 0)
(0.0874874 -0.0150499 0)
(0.0692378 -0.032872 0)
(0.0903158 -0.0486646 0)
(0.111296 -0.0642529 0)
(0.122691 -0.0772516 0)
(0.1276 -0.0870159 0)
(0.12936 -0.0936142 0)
(0.129604 -0.0974446 0)
(0.129063 -0.0991693 0)
(0.128123 -0.099507 0)
(0.126977 -0.0990316 0)
(0.125675 -0.0981127 0)
(0.124187 -0.0969841 0)
(0.122503 -0.0957652 0)
(0.120683 -0.094547 0)
(0.118831 -0.0934367 0)
(0.116961 -0.0924517 0)
(0.115066 -0.0916814 0)
(0.113115 -0.091162 0)
(0.111051 -0.0908906 0)
(0.108814 -0.0908138 0)
(0.106427 -0.0904999 0)
(0.103891 -0.0901418 0)
(0.101209 -0.0898426 0)
(0.0983416 -0.0896472 0)
(0.0952295 -0.0895684 0)
(0.0917978 -0.089601 0)
(0.0879556 -0.0897296 0)
(0.0835945 -0.0899314 0)
(0.0786002 -0.0901761 0)
(0.0729018 -0.090423 0)
(0.0666016 -0.0906078 0)
(0.0602096 -0.0906232 0)
(0.0543008 -0.0907409 0)
(0.0543493 -0.0961908 0)
(0.0312316 -0.15178 0)
(0.476715 0.205825 0)
(0.268206 -0.14015 0)
(-0.108444 0.150598 0)
(0.195187 0.126524 0)
(0.204431 0.143851 0)
(0.165984 0.180485 0)
(0.153017 0.21861 0)
(0.153418 0.253493 0)
(0.154793 0.281363 0)
(0.155383 0.300577 0)
(0.156285 0.311794 0)
(0.157724 0.316778 0)
(0.159316 0.317491 0)
(0.160733 0.315618 0)
(0.161832 0.31238 0)
(0.162568 0.30854 0)
(0.162924 0.304544 0)
(0.162901 0.300615 0)
(0.16252 0.296896 0)
(0.161807 0.293513 0)
(0.160773 0.29051 0)
(0.159423 0.287985 0)
(0.157739 0.285982 0)
(0.155703 0.284496 0)
(0.153303 0.283475 0)
(0.150503 0.282249 0)
(0.147344 0.281053 0)
(0.143793 0.280034 0)
(0.139782 0.27925 0)
(0.135223 0.278697 0)
(0.129998 0.278338 0)
(0.123946 0.278121 0)
(0.116847 0.277993 0)
(0.108407 0.277915 0)
(0.0982464 0.277906 0)
(0.0858758 0.278106 0)
(0.0706749 0.278841 0)
(0.0520705 0.281228 0)
(0.0367758 0.296004 0)
(-0.0416182 0.424568 0)
)
;

boundaryField
{
    floor
    {
        type            noSlip;
    }
    ceiling
    {
        type            noSlip;
    }
    sWall
    {
        type            noSlip;
    }
    nWall
    {
        type            noSlip;
    }
    sideWalls
    {
        type            empty;
    }
    glass1
    {
        type            noSlip;
    }
    glass2
    {
        type            noSlip;
    }
    sun
    {
        type            noSlip;
    }
    Table_master
    {
        type            noSlip;
    }
    Table_slave
    {
        type            noSlip;
    }
    inlet
    {
        type            fixedValue;
        value           uniform (0.0707107 -0.0707107 0);
    }
    outlet
    {
        type            zeroGradient;
    }
}


// ************************************************************************* //
