/*--------------------------------*- C++ -*----------------------------------*\
  =========                 |
  \\      /  F ield         | OpenFOAM: The Open Source CFD Toolbox
   \\    /   O peration     | Website:  https://openfoam.org
    \\  /    A nd           | Version:  6
     \\/     M anipulation  |
\*---------------------------------------------------------------------------*/
FoamFile
{
    version     2.0;
    format      ascii;
    class       volScalarField;
    location    "400";
    object      epsilon;
}
// * * * * * * * * * * * * * * * * * * * * * * * * * * * * * * * * * * * * * //

dimensions      [0 2 -3 0 0 0 0];

internalField   nonuniform List<scalar> 
458
(
0.000155169
0.000181166
0.000173867
0.000194146
0.000213437
0.000231291
0.000247999
0.000264062
0.000280183
0.000297303
0.000310995
0.000319764
0.000323371
0.000324159
0.000323531
6.62214e-05
5.2227e-05
3.98997e-05
3.01018e-05
2.30712e-05
1.74399e-05
1.26791e-05
8.42716e-06
4.99189e-06
3.38974e-06
3.23472e-06
3.62093e-06
3.89254e-06
3.71563e-06
3.33102e-06
3.73506e-06
1.73751e-05
8.97536e-06
0.000542223
0.00108656
0.000173223
0.000152155
0.000152589
0.000154953
0.00015866
0.000164954
0.000175301
0.000191094
0.000208384
0.000224385
0.000236909
0.00024899
0.000278758
0.00035659
0.000274671
0.00021703
0.000118281
6.37731e-05
4.07234e-05
2.88112e-05
2.16373e-05
1.72175e-05
1.34629e-05
1.07623e-05
9.39892e-06
9.30266e-06
9.91225e-06
1.06705e-05
1.12653e-05
1.19446e-05
1.2303e-05
1.325e-05
8.01933e-05
2.93284e-05
0.00120532
0.00338104
0.000285116
0.000158339
0.000154476
0.000160743
0.000170204
0.000183601
0.000201675
0.000224196
0.000248142
0.00026739
0.000276527
0.000276584
0.000276449
0.000274378
0.00025481
0.000380498
0.000180541
7.00938e-05
4.04733e-05
2.83797e-05
2.43495e-05
4.53842e-05
3.08782e-05
2.35894e-05
1.96583e-05
1.73206e-05
1.57239e-05
1.45076e-05
1.35172e-05
1.28663e-05
1.37295e-05
1.69697e-05
0.000122061
5.67525e-05
0.00229303
0.00781275
0.000615992
0.000181843
0.000163425
0.000173594
0.000188106
0.000207049
0.000232072
0.000264194
0.000299328
0.000325234
0.000332993
0.000322937
0.000301093
0.000269974
0.000233381
0.00023978
0.000308848
0.000126628
6.34134e-05
3.76451e-05
2.61138e-05
2.34618e-05
4.32357e-05
4.20386e-05
6.32438e-05
9.27077e-05
0.000125615
0.000156017
0.000176242
0.000177086
0.00015339
9.45063e-05
6.22941e-05
0.000112844
8.80007e-05
0.00395925
0.0145343
0.00156131
0.000266215
0.00018434
0.00018782
0.000203121
0.00022739
0.000264213
0.000317722
0.000376013
0.000412611
0.000417028
0.000393504
0.000351104
0.000298311
0.000246381
0.000209276
0.000170055
9.83335e-05
6.09987e-05
3.7343e-05
2.62192e-05
2.42679e-05
2.9915e-05
4.06004e-05
5.83083e-05
8.10709e-05
0.000107185
0.000132108
0.000150356
0.000155649
0.00014325
0.000119041
9.43485e-05
9.49611e-05
0.000114246
0.000164097
0.00016582
0.000149888
0.00640737
0.0217114
0.00429956
0.000764932
0.000347948
0.000266852
0.000251232
0.000265564
0.000309642
0.000406354
0.000498635
0.000539646
0.000530553
0.00048535
0.000418445
0.000344151
0.000277584
0.000222235
0.000162455
0.000104705
6.34571e-05
3.82077e-05
2.91478e-05
3.0756e-05
4.02292e-05
5.69202e-05
7.96837e-05
0.000108371
0.00014215
0.000175947
0.000205962
0.000226276
0.000228379
0.000193039
0.000155554
0.000130172
0.000125582
0.000153177
0.000383322
0.000327838
0.00949674
0.0259567
0.0103856
0.00371338
0.0017736
0.000948178
0.000621884
0.000509067
0.0005018
0.000637972
0.000720869
0.00072635
0.000678024
0.000596634
0.000498231
0.000399622
0.000316912
0.000249854
0.000181423
0.000115612
6.50695e-05
4.05337e-05
3.47242e-05
4.04462e-05
5.48943e-05
7.66589e-05
0.000105018
0.000139697
0.00018016
0.000224672
0.000271286
0.000317485
0.000360931
0.000378532
0.000337983
0.000322442
0.000349568
0.00040425
0.000799662
0.000651504
0.0102433
0.0290359
0.0168493
0.0128285
0.00823673
0.00475713
0.0028379
0.00188441
0.00145244
0.00126955
0.00113654
0.00100455
0.000865969
0.000722602
0.000580067
0.000452259
0.000354549
0.000279987
0.000201354
0.000120807
6.43356e-05
4.31761e-05
4.10988e-05
5.0268e-05
6.81116e-05
9.32897e-05
0.0001259
0.000166242
0.000214545
0.000271193
0.000337613
0.000417205
0.000517914
0.000652836
0.000821558
0.00105013
0.00150322
0.00180646
0.00407222
0.00115516
0.00951306
0.0159987
0.0139407
0.0109558
0.00859353
0.00643259
0.00467441
0.00342001
0.00260962
0.00203276
0.00161638
0.00130002
0.00104484
0.000826803
0.000634964
0.000480896
0.000379759
0.000308105
0.000215488
0.000115308
6.32168e-05
4.75933e-05
4.85126e-05
5.92201e-05
7.7807e-05
0.000103911
0.000138133
0.000181311
0.000233561
0.000295231
0.000368062
0.000455163
0.00056047
0.000688558
0.000845722
0.00103769
0.00125459
0.0014596
0.00168495
0.00102459
0.00668152
0.011433
0.00806788
0.00618882
0.00476833
0.00367238
0.00285535
0.00223863
0.00175822
0.00138192
0.00108138
0.000831708
0.00061719
0.000464157
0.00039496
0.000347542
0.000225985
0.000116093
7.50293e-05
6.51295e-05
6.78112e-05
7.84762e-05
9.60392e-05
0.000120854
0.000153798
0.000196369
0.000247579
0.00030434
0.000368655
0.000446017
0.000542334
0.00065961
0.000788186
0.000907056
0.000990929
0.00101004
0.000957442
0.000623755
0.00462967
0.0083359
0.00653065
0.00542704
0.0043878
0.0034474
0.00266926
0.00205343
0.00158128
0.00121796
0.000936231
0.000707534
0.000509104
0.000414422
0.000473931
0.0005019
0.000361802
0.000231474
0.000164015
0.000139687
0.000138768
0.000152334
0.000177881
0.000215192
0.00026432
0.000321597
0.000378547
0.000429977
0.000476486
0.000526507
0.00058344
0.000656777
0.000755889
0.000855681
0.000907676
0.000916917
0.000892897
0.000677468
0.00207719
0.00276273
0.00341039
0.00424578
0.00449898
0.00424874
0.00354517
0.00268939
0.00204982
0.0015264
0.00112898
0.000853474
0.000637662
0.000454641
0.000290043
0.000160735
0.000178868
0.000197272
0.00018066
0.000162273
0.000153702
0.000152671
0.00015784
0.000167875
0.000181686
0.00019813
0.00021563
0.000232075
0.00024527
0.000257658
0.000271551
0.000290478
0.000338617
0.000425198
0.000558639
0.000675568
0.000709593
0.000629389
0.000508259
0.000391981
)
;

boundaryField
{
    floor
    {
        Cmu             0.09;
        kappa           0.41;
        E               9.8;
        type            epsilonWallFunction;
        value           nonuniform List<scalar> 
36
(
0.000323531
6.62214e-05
5.2227e-05
3.98997e-05
3.01018e-05
2.30712e-05
1.74399e-05
1.26791e-05
8.42716e-06
4.99189e-06
3.38974e-06
3.23472e-06
3.62093e-06
3.89254e-06
3.71563e-06
3.33102e-06
3.73506e-06
1.73751e-05
8.97536e-06
8.97536e-06
2.93284e-05
5.67525e-05
8.80007e-05
0.000164097
0.00016582
0.000149888
0.000323531
0.00035659
0.000274671
0.00021703
6.62214e-05
0.00021703
0.000118281
0.000380498
0.000180541
0.000308848
)
;
    }
    ceiling
    {
        Cmu             0.09;
        kappa           0.41;
        E               9.8;
        type            epsilonWallFunction;
        value           nonuniform List<scalar> 
43
(
0.00207719
0.00276273
0.00341039
0.00424578
0.00449898
0.00424874
0.00354517
0.00268939
0.00204982
0.0015264
0.00112898
0.000853474
0.000637662
0.000454641
0.000290043
0.000160735
0.000178868
0.000197272
0.00018066
0.000162273
0.000153702
0.000152671
0.00015784
0.000167875
0.000181686
0.00019813
0.00021563
0.000232075
0.00024527
0.000257658
0.000271551
0.000290478
0.000338617
0.000425198
0.000558639
0.000675568
0.000709593
0.000629389
0.000508259
0.000391981
0.00951306
0.0159987
0.00462967
)
;
    }
    sWall
    {
        Cmu             0.09;
        kappa           0.41;
        E               9.8;
        type            epsilonWallFunction;
        value           uniform 0.00207719;
    }
    nWall
    {
        Cmu             0.09;
        kappa           0.41;
        E               9.8;
        type            epsilonWallFunction;
        value           nonuniform List<scalar> 6(0.000149888 0.000327838 0.000651504 0.000623755 0.000677468 0.000391981);
    }
    sideWalls
    {
        type            empty;
    }
    glass1
    {
        Cmu             0.09;
        kappa           0.41;
        E               9.8;
        type            epsilonWallFunction;
        value           nonuniform List<scalar> 9(0.000155169 0.000542223 0.00120532 0.00229303 0.00395925 0.00640737 0.00949674 0.0102433 0.00951306);
    }
    glass2
    {
        Cmu             0.09;
        kappa           0.41;
        E               9.8;
        type            epsilonWallFunction;
        value           nonuniform List<scalar> 2(0.00115516 0.00102459);
    }
    sun
    {
        Cmu             0.09;
        kappa           0.41;
        E               9.8;
        type            epsilonWallFunction;
        value           nonuniform List<scalar> 
14
(
0.000155169
0.000181166
0.000173867
0.000194146
0.000213437
0.000231291
0.000247999
0.000264062
0.000280183
0.000297303
0.000310995
0.000319764
0.000323371
0.000324159
)
;
    }
    Table_master
    {
        Cmu             0.09;
        kappa           0.41;
        E               9.8;
        type            epsilonWallFunction;
        value           nonuniform List<scalar> 9(4.53842e-05 3.08782e-05 2.35894e-05 1.96583e-05 1.73206e-05 1.57239e-05 1.45076e-05 1.35172e-05 1.28663e-05);
    }
    Table_slave
    {
        Cmu             0.09;
        kappa           0.41;
        E               9.8;
        type            epsilonWallFunction;
        value           nonuniform List<scalar> 9(4.32357e-05 4.20386e-05 6.32438e-05 9.27077e-05 0.000125615 0.000156017 0.000176242 0.000177086 0.00015339);
    }
    inlet
    {
        type            turbulentMixingLengthDissipationRateInlet;
        mixingLength    0.01;
        phi             phi;
        k               k;
        value           uniform 0.00193196;
    }
    outlet
    {
        type            zeroGradient;
    }
}


// ************************************************************************* //
