/*--------------------------------*- C++ -*----------------------------------*\
  =========                 |
  \\      /  F ield         | OpenFOAM: The Open Source CFD Toolbox
   \\    /   O peration     | Website:  https://openfoam.org
    \\  /    A nd           | Version:  6
     \\/     M anipulation  |
\*---------------------------------------------------------------------------*/
FoamFile
{
    version     2.0;
    format      ascii;
    class       volScalarField;
    location    "800";
    object      alphat;
}
// * * * * * * * * * * * * * * * * * * * * * * * * * * * * * * * * * * * * * //

dimensions      [1 -1 -1 0 0 0 0];

internalField   nonuniform List<scalar> 
458
(
0.000732446
0.000750324
0.000607418
0.000598806
0.00061382
0.000630376
0.000647386
0.000665027
0.000684014
0.000704249
0.000724695
0.000745251
0.000766385
0.000789525
0.000813562
0.000301589
0.00030561
0.000307145
0.00030709
0.000309567
0.000310456
0.000323587
0.000341303
0.000358617
0.000372778
0.000381744
0.000380432
0.000370887
0.000361362
0.000359364
0.000359052
0.000389047
0.000289324
0.00133777
0.00278757
0.00167091
0.00249221
0.00282444
0.00295344
0.0030501
0.00312185
0.00315511
0.00314944
0.00309284
0.00296394
0.00272567
0.00230842
0.00162488
0.000908118
0.00087095
0.000654231
0.000462062
0.00127636
0.0011467
0.000948853
0.000824378
0.000758873
0.00087464
0.00102625
0.00115958
0.00125395
0.00129485
0.00126452
0.00118063
0.00112187
0.00127728
0.00123367
0.00141127
0.000557966
0.00187833
0.00511159
0.00231008
0.00292591
0.00412528
0.00455456
0.00477176
0.00492791
0.00503199
0.00507398
0.00505408
0.00496192
0.00477162
0.00442496
0.00384277
0.00302092
0.00196869
0.000920935
0.00068605
0.00165932
0.00126321
0.000867732
0.000599784
0.000402382
0.000428689
0.000459097
0.000490964
0.000526226
0.000568229
0.000622197
0.000695993
0.000803707
0.00183723
0.00199876
0.00235303
0.00084656
0.00236894
0.00773545
0.00375877
0.00305765
0.00436672
0.00514371
0.00555393
0.00587179
0.00613316
0.00631806
0.00642003
0.00643555
0.00635095
0.00611513
0.0056274
0.00478062
0.00352856
0.0020332
0.000938057
0.00212068
0.00225509
0.00173496
0.00130323
0.000982892
0.000760169
0.000766627
0.000775058
0.000785237
0.000800062
0.000822457
0.000855772
0.000904447
0.000975328
0.00223555
0.00215677
0.00184055
0.00114381
0.00280214
0.0102705
0.00601264
0.00411131
0.00436752
0.00496593
0.00543831
0.00592298
0.00642849
0.00688003
0.00723126
0.0074744
0.00762277
0.00768086
0.00762548
0.00742309
0.00705493
0.00652195
0.00591785
0.00558561
0.0051373
0.00480262
0.004605
0.00448219
0.00437254
0.00431155
0.00421432
0.00409647
0.00396214
0.00381609
0.00366498
0.00351755
0.00338233
0.00325843
0.00297604
0.00264214
0.00219571
0.00143913
0.00142401
0.00130062
0.00318908
0.0123151
0.00888462
0.00635981
0.00529721
0.00502719
0.00511815
0.00547965
0.00605093
0.00671009
0.00733651
0.00785426
0.0082454
0.00852529
0.00870462
0.00877435
0.00871542
0.00850661
0.00814883
0.00773327
0.00734945
0.00704487
0.00683307
0.00668098
0.00654611
0.00640826
0.00626406
0.00611265
0.00595381
0.00578845
0.00561806
0.00544469
0.00527207
0.00510626
0.0049531
0.00484568
0.0048038
0.00476458
0.00436431
0.00159387
0.00350136
0.0132714
0.0112862
0.00886955
0.00720085
0.00614228
0.00561846
0.00551907
0.00575399
0.00625068
0.00690041
0.00756933
0.0081631
0.00864373
0.00901139
0.00926967
0.00940141
0.0093879
0.0092196
0.00894751
0.00865259
0.00838406
0.00815367
0.00795364
0.00776994
0.00759243
0.0074163
0.00723706
0.00705185
0.00686031
0.00666423
0.00646767
0.00627824
0.00610851
0.00597455
0.00589161
0.00585993
0.00594596
0.00640259
0.00187485
0.00349989
0.0116756
0.0104218
0.0100284
0.00883085
0.00758576
0.00669495
0.00619019
0.00605099
0.00622177
0.00660678
0.0070979
0.00761868
0.00813159
0.00861606
0.00903974
0.00934517
0.00951955
0.00954502
0.00944484
0.00927382
0.00907947
0.00888426
0.00869447
0.00851045
0.00832945
0.00814855
0.00796183
0.00776401
0.00755266
0.00732825
0.00709435
0.00685859
0.00663432
0.00644428
0.00632923
0.00632832
0.00647965
0.00721386
0.00213868
0.00331413
0.00379882
0.010058
0.0107858
0.00957104
0.00827657
0.00733997
0.00683911
0.00672784
0.00687191
0.00710841
0.00735422
0.00760049
0.0078674
0.00816895
0.00849864
0.00882924
0.00911223
0.00929935
0.00937569
0.00936243
0.00929566
0.00919815
0.00907979
0.00894975
0.00881141
0.00866547
0.00850746
0.00833285
0.00813921
0.00792625
0.00769588
0.00745269
0.00720491
0.00696623
0.00676085
0.00663803
0.00669249
0.00704899
0.00209897
0.0210476
0.0190447
0.0115936
0.00947162
0.00870642
0.00845271
0.00843223
0.00847895
0.00852055
0.00854996
0.00858302
0.00863727
0.00872426
0.0088467
0.00899714
0.00915942
0.00931065
0.00943088
0.0095111
0.00955279
0.00956033
0.00953331
0.00948343
0.00941461
0.00932476
0.00921203
0.00907648
0.00891888
0.0087399
0.00853999
0.00831979
0.00808085
0.0078261
0.00755881
0.00727698
0.00694382
0.00616016
0.00178343
0.00673588
0.0142161
0.0110987
0.00952732
0.00898769
0.00901979
0.00923548
0.00942518
0.00953047
0.00956598
0.00956467
0.00955549
0.00955741
0.00957942
0.00962249
0.00968124
0.00974598
0.00980669
0.00985654
0.00989331
0.00991865
0.00993499
0.00994457
0.00994418
0.00991083
0.00984681
0.00975891
0.00965273
0.00953144
0.00939592
0.00924518
0.00907652
0.00888477
0.00866023
0.00838054
0.00796683
0.00686637
0.00216286
0.00170198
0.00190809
0.00408766
0.00397572
0.00355951
0.00317326
0.00287525
0.00267198
0.00255173
0.00248692
0.00245082
0.0024265
0.00240612
0.00238714
0.00236949
0.00235381
0.00234059
0.0023299
0.00232128
0.00231393
0.00230698
0.00229975
0.00229195
0.00228369
0.00227484
0.00226543
0.00225717
0.00224851
0.00223862
0.00222739
0.00221501
0.00220173
0.00218774
0.00217309
0.00215752
0.00214025
0.0021197
0.00209036
0.00199489
0.00174066
)
;

boundaryField
{
    floor
    {
        type            compressible::alphatWallFunction;
        Prt             0.85;
        value           nonuniform List<scalar> 
36
(
0.000115988
3.80315e-05
3.86867e-05
3.89399e-05
3.89363e-05
3.93436e-05
3.94903e-05
4.16246e-05
4.44852e-05
4.72612e-05
4.95183e-05
5.09407e-05
5.07305e-05
4.92115e-05
4.76909e-05
4.737e-05
4.73181e-05
5.20861e-05
3.602e-05
3.60195e-05
7.82021e-05
0.000120699
0.00016267
0.000203076
0.000201029
0.000184251
0.000115987
0.000129546
0.000124233
9.26695e-05
3.80309e-05
9.26684e-05
6.35248e-05
0.000131365
9.73241e-05
0.00013379
)
;
    }
    ceiling
    {
        type            compressible::alphatWallFunction;
        Prt             0.85;
        value           nonuniform List<scalar> 
43
(
0.000239083
0.000266195
0.000538797
0.000525201
0.000474417
0.000426752
0.00038956
0.000363958
0.000348706
0.000340448
0.000335832
0.000332717
0.000330103
0.000327668
0.000325401
0.000323385
0.000321684
0.000320306
0.000319195
0.000318246
0.000317347
0.000316414
0.000315408
0.000314341
0.000313198
0.000311984
0.000310917
0.000309799
0.000308522
0.000307071
0.000305471
0.000303755
0.000301946
0.00030005
0.000298034
0.000295797
0.000293132
0.000289323
0.000276904
0.000243516
0.000443914
0.000503355
0.000850262
)
;
    }
    sWall
    {
        type            compressible::alphatWallFunction;
        Prt             0.85;
        value           uniform 0.000238519;
    }
    nWall
    {
        type            compressible::alphatWallFunction;
        Prt             0.85;
        value           nonuniform List<scalar> 6(0.000184157 0.000223761 0.000260949 0.000248961 0.000298491 0.000243307);
    }
    sideWalls
    {
        type            empty;
    }
    glass1
    {
        type            compressible::alphatWallFunction;
        Prt             0.85;
        value           nonuniform List<scalar> 9(0.00010204 0.000186221 0.000257834 0.000320979 0.000375643 0.000423767 0.0004622 0.000462118 0.000439466);
    }
    glass2
    {
        type            compressible::alphatWallFunction;
        Prt             0.85;
        value           nonuniform List<scalar> 2(0.000295826 0.000290694);
    }
    sun
    {
        type            compressible::alphatWallFunction;
        Prt             0.85;
        value           nonuniform List<scalar> 
14
(
0.000104193
0.000106791
8.57085e-05
8.44259e-05
8.6675e-05
8.91458e-05
9.16759e-05
9.42911e-05
9.7096e-05
0.000100075
0.000103074
0.000106078
0.000109156
0.000112513
)
;
    }
    Table_master
    {
        type            compressible::alphatWallFunction;
        Prt             0.85;
        value           nonuniform List<scalar> 9(5.41964e-05 5.83225e-05 6.30517e-05 6.7965e-05 7.33549e-05 7.97164e-05 8.78053e-05 9.87287e-05 0.000114426);
    }
    Table_slave
    {
        type            compressible::alphatWallFunction;
        Prt             0.85;
        value           nonuniform List<scalar> 9(0.000108119 0.000109057 0.000110281 0.000111756 0.0001139 0.000117132 0.000121921 0.000128879 0.000138934);
    }
    inlet
    {
        type            fixedValue;
        value           uniform 1.94e-05;
    }
    outlet
    {
        type            zeroGradient;
    }
}


// ************************************************************************* //
