/*--------------------------------*- C++ -*----------------------------------*\
  =========                 |
  \\      /  F ield         | OpenFOAM: The Open Source CFD Toolbox
   \\    /   O peration     | Website:  https://openfoam.org
    \\  /    A nd           | Version:  6
     \\/     M anipulation  |
\*---------------------------------------------------------------------------*/
FoamFile
{
    version     2.0;
    format      ascii;
    class       volScalarField;
    location    "800";
    object      nut;
}
// * * * * * * * * * * * * * * * * * * * * * * * * * * * * * * * * * * * * * //

dimensions      [0 2 -1 0 0 0 0];

internalField   nonuniform List<scalar> 
458
(
0.000639536
0.000654745
0.000530047
0.000522553
0.000535677
0.000550148
0.000565015
0.000580433
0.000597027
0.000614713
0.000632581
0.000650544
0.000669008
0.000689222
0.000710208
0.000261535
0.000264926
0.000266234
0.000266192
0.000268354
0.000269132
0.000280517
0.000295871
0.000310872
0.000323139
0.000330902
0.000329749
0.000321455
0.000313183
0.000311452
0.000311185
0.000337222
0.000250861
0.00116878
0.0024336
0.00145867
0.00217576
0.00246594
0.00257871
0.00266324
0.00272601
0.00275517
0.00275031
0.00270095
0.00258842
0.0023803
0.00201584
0.00141879
0.000792822
0.000760251
0.000570517
0.000401181
0.00110798
0.000995293
0.000823562
0.000715555
0.000658757
0.000759241
0.000890834
0.00100657
0.0010885
0.00112403
0.00109777
0.00102505
0.000974141
0.00110926
0.00107132
0.00122558
0.000484976
0.00164193
0.00446421
0.00201735
0.00255524
0.00360294
0.00397816
0.00416816
0.00430484
0.00439602
0.00443292
0.0044157
0.00433527
0.00416896
0.00386586
0.00335682
0.00263838
0.00171894
0.00080389
0.000596853
0.00144348
0.00109879
0.000754696
0.000521572
0.000349765
0.000372713
0.000399248
0.000427069
0.000457863
0.000494548
0.000541682
0.000606142
0.000700256
0.00160158
0.0017428
0.00205216
0.000738197
0.0020718
0.00675842
0.00328366
0.00267124
0.0038152
0.00449448
0.00485337
0.00513157
0.00536041
0.00552237
0.0056118
0.00562556
0.00555162
0.00534523
0.00491829
0.00417728
0.00308219
0.00177516
0.000818589
0.00184999
0.00196843
0.00151514
0.00113856
0.000858932
0.000664441
0.000670117
0.000677512
0.000686433
0.000699414
0.000719011
0.000748155
0.000790721
0.000852691
0.00195439
0.00188589
0.00160975
0.00100062
0.00245178
0.008977
0.00525493
0.00359332
0.00381758
0.00434111
0.0047546
0.00517886
0.00562132
0.0060166
0.00632417
0.00653718
0.00666718
0.00671803
0.0066693
0.00649164
0.00616877
0.00570173
0.00517279
0.00488197
0.00449054
0.00419861
0.00402641
0.00391943
0.00382382
0.00377067
0.00368579
0.00358287
0.00346554
0.00333798
0.003206
0.00307725
0.0029592
0.00285107
0.00260432
0.00231238
0.00192181
0.00125963
0.00124642
0.00113848
0.00279153
0.0107691
0.00776916
0.00556168
0.00463282
0.0043972
0.00447739
0.00479414
0.00529433
0.00587143
0.00641995
0.00687345
0.00721617
0.00746141
0.0076184
0.00767912
0.00762691
0.00744332
0.00712946
0.00676539
0.00642953
0.00616318
0.00597811
0.0058453
0.00572749
0.00560704
0.00548103
0.00534871
0.0052099
0.00506541
0.00491655
0.00476511
0.00461436
0.00446959
0.00433589
0.00424216
0.00420571
0.00417147
0.00382106
0.00139551
0.00306611
0.0116116
0.00987633
0.00776237
0.00630227
0.00537638
0.00491863
0.00483226
0.00503833
0.00547351
0.00604274
0.00662889
0.00714929
0.00757059
0.00789282
0.00811898
0.00823399
0.00822147
0.00807329
0.00783434
0.00757566
0.00734028
0.00713845
0.00696329
0.00680245
0.00664705
0.00649287
0.00633598
0.0061739
0.00600629
0.00583476
0.00566285
0.00549722
0.00534887
0.00523184
0.00515943
0.00513182
0.00520718
0.00560699
0.00164182
0.00306634
0.0102231
0.00912883
0.00878548
0.00773648
0.00664608
0.0058663
0.00542474
0.00530342
0.00545361
0.00579151
0.00622233
0.0066791
0.00712891
0.00755367
0.00792497
0.00819246
0.00834476
0.00836632
0.00827771
0.00812712
0.0079562
0.00778468
0.00761801
0.00745647
0.00729764
0.00713892
0.00697513
0.00680165
0.00661635
0.00641968
0.00621475
0.00600824
0.00581184
0.00564544
0.0055447
0.00554385
0.0056762
0.00631893
0.00187316
0.00290543
0.00332966
0.00882391
0.00946404
0.00839697
0.00726103
0.00644002
0.00600157
0.00590492
0.00603219
0.00624026
0.0064562
0.00667232
0.00690643
0.00717086
0.00745988
0.00774949
0.0079971
0.00816041
0.00822642
0.00821384
0.00815434
0.00806796
0.00796337
0.00784863
0.00772668
0.00759811
0.007459
0.00730539
0.00713515
0.00694804
0.00674574
0.00653228
0.00631485
0.00610542
0.00592515
0.00581714
0.00586428
0.00617574
0.00183859
0.0185832
0.0167542
0.0101906
0.00832511
0.00765398
0.00743259
0.00741587
0.00745766
0.00749435
0.00751985
0.00754825
0.00759507
0.00767059
0.00777719
0.00790832
0.00804976
0.00818137
0.00828566
0.00835472
0.00838993
0.00839519
0.00837016
0.00832515
0.00826357
0.0081836
0.00808361
0.00796366
0.00782445
0.00766655
0.00749038
0.00729649
0.00708624
0.00686217
0.00662708
0.00637915
0.00608603
0.00539783
0.00156222
0.00595474
0.0125492
0.00979516
0.00840689
0.00792992
0.00795745
0.00814659
0.00831229
0.00840315
0.00843223
0.00842876
0.00841836
0.00841779
0.00843499
0.0084708
0.00852044
0.00857536
0.00862675
0.0086686
0.00869897
0.00871933
0.00873181
0.00873841
0.0087363
0.00870531
0.00864747
0.00856874
0.00847404
0.00836616
0.00824587
0.0081123
0.00796307
0.00779362
0.00759538
0.00734868
0.0069843
0.0060178
0.00189489
0.00154951
0.00173134
0.00365757
0.00354832
0.00317119
0.00282303
0.00255483
0.00237162
0.00226256
0.002203
0.00216918
0.00214603
0.00212658
0.00210855
0.00209184
0.00207699
0.00206441
0.00205415
0.00204578
0.00203858
0.00203177
0.00202477
0.0020173
0.00200945
0.00200111
0.0019923
0.00198453
0.00197642
0.00196725
0.00195692
0.00194559
0.00193348
0.00192076
0.00190747
0.00189337
0.00187777
0.00185926
0.00183295
0.0017485
0.00152476
)
;

boundaryField
{
    floor
    {
        type            nutkWallFunction;
        Cmu             0.09;
        kappa           0.41;
        E               9.8;
        value           nonuniform List<scalar> 
36
(
8.5973e-05
2.80277e-05
2.8503e-05
2.86878e-05
2.86856e-05
2.89869e-05
2.90956e-05
3.06683e-05
3.27757e-05
3.48204e-05
3.64827e-05
3.75299e-05
3.73737e-05
3.62528e-05
3.51312e-05
3.48949e-05
3.4857e-05
3.83729e-05
2.65423e-05
2.65422e-05
5.7744e-05
8.93839e-05
0.000120832
0.000150942
0.000149422
0.000136948
8.5973e-05
9.6038e-05
9.20838e-05
6.86169e-05
2.80276e-05
6.86169e-05
4.68627e-05
9.73755e-05
7.19244e-05
9.9148e-05
)
;
    }
    ceiling
    {
        type            nutkWallFunction;
        Cmu             0.09;
        kappa           0.41;
        E               9.8;
        value           nonuniform List<scalar> 
43
(
0.000184184
0.000204514
0.000409166
0.000397848
0.000358716
0.000322185
0.000293731
0.000274116
0.000262357
0.000255906
0.00025223
0.00024971
0.000247589
0.000245623
0.000243799
0.000242176
0.000240801
0.000239677
0.00023876
0.000237971
0.000237224
0.000236456
0.000235636
0.000234775
0.000233861
0.000232895
0.000232042
0.000231152
0.000230146
0.000229011
0.000227767
0.000226438
0.000225041
0.000223579
0.000222028
0.000220311
0.000218271
0.000215369
0.000206034
0.000181065
0.000330512
0.000374728
0.000638468
)
;
    }
    sWall
    {
        type            nutkWallFunction;
        Cmu             0.09;
        kappa           0.41;
        E               9.8;
        value           uniform 0.000184208;
    }
    nWall
    {
        type            nutkWallFunction;
        Cmu             0.09;
        kappa           0.41;
        E               9.8;
        value           nonuniform List<scalar> 6(0.000136951 0.00016645 0.000194155 0.000185281 0.000222191 0.000181074);
    }
    sideWalls
    {
        type            empty;
    }
    glass1
    {
        type            nutkWallFunction;
        Cmu             0.09;
        kappa           0.41;
        E               9.8;
        value           nonuniform List<scalar> 9(7.7191e-05 0.000140552 0.000194332 0.000241701 0.00028269 0.000318773 0.000347601 0.000347635 0.00033079);
    }
    glass2
    {
        type            nutkWallFunction;
        Cmu             0.09;
        kappa           0.41;
        E               9.8;
        value           nonuniform List<scalar> 2(0.000219736 0.000215934);
    }
    sun
    {
        type            nutkWallFunction;
        Cmu             0.09;
        kappa           0.41;
        E               9.8;
        value           nonuniform List<scalar> 
14
(
7.72379e-05
7.91244e-05
6.34938e-05
6.25448e-05
6.42146e-05
6.60488e-05
6.7927e-05
6.98684e-05
7.19508e-05
7.41623e-05
7.63885e-05
7.86187e-05
8.09033e-05
8.33953e-05
)
;
    }
    Table_master
    {
        type            nutkWallFunction;
        Cmu             0.09;
        kappa           0.41;
        E               9.8;
        value           nonuniform List<scalar> 9(4.00435e-05 4.31016e-05 4.66079e-05 5.02525e-05 5.4252e-05 5.89735e-05 6.49772e-05 7.30864e-05 8.47439e-05);
    }
    Table_slave
    {
        type            nutkWallFunction;
        Cmu             0.09;
        kappa           0.41;
        E               9.8;
        value           nonuniform List<scalar> 9(8.0327e-05 8.10279e-05 8.194e-05 8.30388e-05 8.46351e-05 8.70388e-05 9.05997e-05 9.57718e-05 0.000103244);
    }
    inlet
    {
        type            calculated;
        value           uniform 0.0185832;
    }
    outlet
    {
        type            calculated;
        value           nonuniform List<scalar> 2(0.00154951 0.00173134);
    }
}


// ************************************************************************* //
