/*--------------------------------*- C++ -*----------------------------------*\
  =========                 |
  \\      /  F ield         | OpenFOAM: The Open Source CFD Toolbox
   \\    /   O peration     | Website:  https://openfoam.org
    \\  /    A nd           | Version:  6
     \\/     M anipulation  |
\*---------------------------------------------------------------------------*/
FoamFile
{
    version     2.0;
    format      ascii;
    class       volScalarField;
    location    "1500";
    object      nut;
}
// * * * * * * * * * * * * * * * * * * * * * * * * * * * * * * * * * * * * * //

dimensions      [0 2 -1 0 0 0 0];

internalField   nonuniform List<scalar> 
458
(
0.000694039
0.000720125
0.000699323
0.000723563
0.000745358
0.000764262
0.000780861
0.000795852
0.000809989
0.00082419
0.000836148
0.000844634
0.000849953
0.000853941
0.000856923
0.000398142
0.00049725
0.000516826
0.000510492
0.000492301
0.000461135
0.000430573
0.000403438
0.000378851
0.000355882
0.000333803
0.000311766
0.000288333
0.00026052
0.000224132
0.000198407
0.000337407
0.000318573
0.00109938
0.00175792
0.00144813
0.00173587
0.00185856
0.00198487
0.002109
0.00222137
0.00230842
0.00235214
0.00235791
0.00229873
0.00213984
0.00183238
0.00134807
0.000897564
0.000865391
0.00056578
0.000527733
0.00126485
0.00161068
0.00177606
0.00157556
0.00116244
0.00101534
0.000912452
0.000815661
0.000719414
0.000624197
0.000531589
0.00044762
0.000384495
0.00035189
0.000326671
0.000635545
0.00042434
0.00147148
0.00275889
0.00157972
0.00252753
0.00276575
0.00292323
0.00305001
0.0031499
0.00322435
0.00326942
0.00328673
0.00325773
0.00315544
0.00294745
0.00260476
0.00212806
0.00152903
0.000942603
0.000727005
0.00230842
0.00242268
0.00217557
0.00154135
0.000503706
0.000413603
0.000352258
0.000314721
0.000291002
0.000274528
0.000262374
0.000253271
0.000247196
0.000285131
0.000298558
0.000669306
0.000490755
0.00185165
0.00424966
0.00162463
0.00284314
0.00330777
0.00347139
0.00357057
0.00363497
0.00367801
0.00370584
0.0037226
0.00372406
0.0036944
0.00360891
0.00342276
0.00306109
0.00245198
0.0016386
0.000963492
0.00258865
0.00259146
0.00238864
0.00199722
0.00132373
0.000511187
0.000511674
0.000527622
0.000548621
0.00056928
0.000583868
0.000586136
0.000570611
0.000551777
0.00051383
0.000478512
0.000752282
0.000551072
0.00223531
0.00616877
0.00217767
0.00266293
0.00353023
0.00375722
0.00384848
0.00388658
0.00389703
0.00389986
0.00390298
0.00392223
0.00394245
0.00394248
0.0038986
0.0037933
0.00363108
0.00340578
0.00306369
0.00280794
0.00247321
0.00216719
0.00196685
0.00188232
0.00186366
0.00196938
0.00208789
0.0022041
0.00229621
0.00234463
0.00233264
0.00223933
0.00193639
0.00154811
0.00118961
0.000934858
0.000940361
0.000684772
0.000685167
0.000755573
0.00262376
0.00819915
0.00393208
0.00249366
0.00318397
0.00366308
0.00389523
0.00400015
0.0040139
0.00397124
0.00393476
0.00396036
0.00399935
0.00402208
0.00400542
0.00393326
0.00379537
0.00355817
0.00318328
0.00272855
0.00230829
0.00202738
0.00192469
0.00193528
0.00201585
0.00216163
0.0023331
0.00249275
0.00262291
0.00270953
0.00274594
0.00272731
0.00258264
0.00227881
0.00188789
0.00142952
0.00117471
0.000960733
0.00112272
0.000776855
0.00299953
0.00986132
0.00706928
0.00408764
0.00298832
0.00290762
0.00329191
0.0036969
0.00396756
0.00394216
0.00390686
0.00393511
0.00396814
0.00398367
0.00396296
0.00388912
0.00373974
0.0034892
0.00312121
0.00267996
0.00226552
0.00199294
0.00191428
0.00193612
0.00201499
0.00214816
0.00231332
0.00247812
0.00262472
0.00273869
0.00282248
0.00288818
0.00292301
0.00277038
0.00245654
0.0020701
0.00176669
0.00155063
0.00142738
0.000929234
0.00308725
0.00969262
0.00826532
0.00704542
0.00543617
0.00422685
0.00369114
0.00363415
0.00380612
0.00388987
0.00388991
0.00388501
0.00388251
0.0038674
0.00381974
0.00372175
0.00355878
0.00331661
0.00299259
0.00261771
0.00225498
0.00199447
0.00192406
0.00195085
0.00202556
0.00213748
0.00227087
0.00240519
0.00252964
0.00264275
0.00275497
0.00288862
0.003074
0.00327984
0.00314247
0.00302312
0.00303222
0.00295793
0.00322308
0.00139395
0.00301526
0.00361678
0.00426137
0.00456531
0.00462446
0.00439658
0.00410576
0.00388989
0.0037812
0.00372557
0.00371656
0.00372389
0.00372099
0.00368705
0.00360757
0.00347433
0.00328468
0.00304052
0.00275266
0.00244728
0.00216295
0.00196045
0.00190902
0.00194338
0.00200884
0.00209024
0.00218143
0.002271
0.00234978
0.00241313
0.00245988
0.00248904
0.00249666
0.00247665
0.00243809
0.00238006
0.00227828
0.00212857
0.00198114
0.00134194
0.00272093
0.00538329
0.00500951
0.00476044
0.00452081
0.00431253
0.00415091
0.00402507
0.00390797
0.00379124
0.00366313
0.00351359
0.00333636
0.00312951
0.00289532
0.00264111
0.00238265
0.00214641
0.0019579
0.00183881
0.00183751
0.0018859
0.00193296
0.00197707
0.00202849
0.00208563
0.00214153
0.00219002
0.00222819
0.00225703
0.00228018
0.0023
0.00228831
0.00222813
0.00209576
0.0018902
0.00165965
0.001115
0.00254911
0.00582919
0.00539758
0.00505269
0.00476975
0.0045198
0.00427839
0.00405115
0.00382753
0.00356204
0.00328378
0.00300749
0.00274035
0.00248541
0.00224448
0.00202223
0.00183408
0.00171323
0.0016794
0.00167235
0.00177602
0.00188151
0.00190738
0.00188935
0.0018798
0.00189957
0.00194862
0.00202037
0.00210722
0.00219888
0.00227351
0.00234067
0.0023892
0.00239236
0.00232972
0.00225726
0.00219015
0.0011343
0.00201237
0.00218892
0.00233928
0.00250012
0.00234805
0.00221441
0.00202268
0.00186534
0.00171913
0.00158182
0.00145387
0.00134528
0.00124629
0.0011517
0.00105835
0.000964146
0.000867666
0.000768316
0.000667854
0.00057418
0.000499012
0.000453397
0.000469988
0.000499973
0.000523358
0.000547058
0.00057652
0.000612595
0.000654327
0.000700914
0.000752616
0.000811485
0.00088305
0.000959993
0.00103728
0.00111623
0.0011618
0.00114109
0.00105978
0.000983505
)
;

boundaryField
{
    floor
    {
        type            nutkWallFunction;
        Cmu             0.09;
        kappa           0.41;
        E               9.8;
        value           nonuniform List<scalar> 
36
(
0.000103742
4.65074e-05
5.93561e-05
6.18525e-05
6.10448e-05
5.87197e-05
5.47117e-05
5.07484e-05
4.71999e-05
4.39583e-05
4.09054e-05
3.79465e-05
3.49674e-05
3.17683e-05
2.79247e-05
2.28117e-05
1.91419e-05
3.84618e-05
3.59107e-05
3.59106e-05
4.99513e-05
5.85358e-05
6.62057e-05
8.28591e-05
8.29032e-05
9.15134e-05
0.000103742
0.000108599
0.00010476
6.804e-05
4.65073e-05
6.804e-05
6.32312e-05
0.000113951
8.80269e-05
0.000116425
)
;
    }
    ceiling
    {
        type            nutkWallFunction;
        Cmu             0.09;
        kappa           0.41;
        E               9.8;
        value           nonuniform List<scalar> 
43
(
0.000234648
0.000253766
0.000269921
0.000287205
0.000271005
0.000256665
0.000235909
0.000218714
0.000202592
0.000187315
0.000172949
0.000160645
0.000149334
0.00013843
0.00012757
0.000116498
0.00010503
9.3063e-05
8.07743e-05
6.91136e-05
5.95877e-05
5.37114e-05
5.58467e-05
5.9697e-05
6.26802e-05
6.56857e-05
6.93989e-05
7.39137e-05
7.90964e-05
8.48353e-05
9.11511e-05
9.82802e-05
0.000106866
0.000116007
0.000125104
0.000134318
0.000139603
0.000137204
0.000127739
0.000118784
0.000341749
0.000403964
0.00029214
)
;
    }
    sWall
    {
        type            nutkWallFunction;
        Cmu             0.09;
        kappa           0.41;
        E               9.8;
        value           uniform 0.000234711;
    }
    nWall
    {
        type            nutkWallFunction;
        Cmu             0.09;
        kappa           0.41;
        E               9.8;
        value           nonuniform List<scalar> 6(9.15128e-05 9.40967e-05 0.000112369 0.000134183 0.000136423 0.00011879);
    }
    sideWalls
    {
        type            empty;
    }
    glass1
    {
        type            nutkWallFunction;
        Cmu             0.09;
        kappa           0.41;
        E               9.8;
        value           nonuniform List<scalar> 9(8.39519e-05 0.000132469 0.000175161 0.000217539 0.000259348 0.000300904 0.000340489 0.000349663 0.000342158);
    }
    glass2
    {
        type            nutkWallFunction;
        Cmu             0.09;
        kappa           0.41;
        E               9.8;
        value           nonuniform List<scalar> 2(0.000166238 0.000160328);
    }
    sun
    {
        type            nutkWallFunction;
        Cmu             0.09;
        kappa           0.41;
        E               9.8;
        value           nonuniform List<scalar> 
14
(
8.39908e-05
8.71889e-05
8.46403e-05
8.76089e-05
9.0268e-05
9.2567e-05
9.458e-05
9.63938e-05
9.81005e-05
9.98115e-05
0.00010125
0.000102269
0.000102907
0.000103385
)
;
    }
    Table_master
    {
        type            nutkWallFunction;
        Cmu             0.09;
        kappa           0.41;
        E               9.8;
        value           nonuniform List<scalar> 9(6.01792e-05 4.85356e-05 4.0428e-05 3.53797e-05 3.21502e-05 2.98869e-05 2.82056e-05 2.69393e-05 2.60908e-05);
    }
    Table_slave
    {
        type            nutkWallFunction;
        Cmu             0.09;
        kappa           0.41;
        E               9.8;
        value           nonuniform List<scalar> 9(6.11399e-05 6.12022e-05 6.32309e-05 6.58909e-05 6.84961e-05 7.03291e-05 7.06145e-05 6.86658e-05 6.6293e-05);
    }
    inlet
    {
        type            calculated;
        value           uniform 0.000100623;
    }
    outlet
    {
        type            calculated;
        value           nonuniform List<scalar> 2(0.00201237 0.00218892);
    }
}


// ************************************************************************* //
