/*--------------------------------*- C++ -*----------------------------------*\
  =========                 |
  \\      /  F ield         | OpenFOAM: The Open Source CFD Toolbox
   \\    /   O peration     | Website:  https://openfoam.org
    \\  /    A nd           | Version:  6
     \\/     M anipulation  |
\*---------------------------------------------------------------------------*/
FoamFile
{
    version     2.0;
    format      ascii;
    class       volScalarField;
    location    "500";
    object      epsilon;
}
// * * * * * * * * * * * * * * * * * * * * * * * * * * * * * * * * * * * * * //

dimensions      [0 2 -3 0 0 0 0];

internalField   nonuniform List<scalar> 
458
(
0.000204396
0.000246775
0.000244944
0.000275742
0.000305466
0.000333667
0.000360917
0.000388133
0.000416689
0.000444197
0.000464664
0.000474326
0.000471549
0.000460459
0.000447125
2.81081e-05
5.61143e-05
5.37133e-05
4.97791e-05
4.5629e-05
4.06681e-05
3.59411e-05
3.18688e-05
2.84125e-05
2.54818e-05
2.29704e-05
2.07736e-05
1.88015e-05
1.69652e-05
1.51695e-05
1.32705e-05
1.14158e-05
8.35028e-06
0.000636707
0.00115771
0.000233405
0.000212716
0.000215283
0.000220632
0.000228585
0.000241181
0.000260782
0.000286284
0.000311835
0.000331209
0.000339497
0.00034335
0.000378195
0.000498351
0.000331608
0.000210999
0.000116781
8.37391e-05
6.2704e-05
4.91573e-05
4.02271e-05
3.65866e-05
3.08332e-05
2.59839e-05
2.20563e-05
1.88657e-05
1.62592e-05
1.40841e-05
1.2239e-05
1.0767e-05
1.01611e-05
1.04464e-05
1.95949e-05
1.4563e-05
0.00133024
0.0034112
0.000346009
0.000211377
0.000208497
0.0002182
0.00023319
0.000255009
0.000285006
0.000322116
0.000359222
0.000385621
0.000393693
0.000387975
0.000385896
0.000381793
0.000319203
0.000441932
0.000210478
0.000113519
7.34916e-05
5.27534e-05
4.31945e-05
8.24496e-05
6.08765e-05
4.59155e-05
3.55817e-05
2.83628e-05
2.32426e-05
1.9553e-05
1.69016e-05
1.51193e-05
1.21671e-05
1.1051e-05
2.91795e-05
2.03539e-05
0.00242248
0.00772365
0.000686795
0.000230134
0.000210057
0.000223296
0.000243376
0.000271852
0.000312351
0.000365488
0.000416803
0.000447444
0.000449277
0.000428926
0.000400314
0.000364403
0.000302193
0.000286668
0.00040464
0.000211544
0.000113154
6.96373e-05
4.90449e-05
4.10663e-05
9.16365e-05
7.64818e-05
7.11568e-05
6.96788e-05
6.86856e-05
6.5987e-05
6.0742e-05
5.51491e-05
4.82864e-05
3.01864e-05
1.96573e-05
4.00757e-05
2.7644e-05
0.0040697
0.0142986
0.00167016
0.000321352
0.000228519
0.000232133
0.000251562
0.000286977
0.000348168
0.000437065
0.000512372
0.000544943
0.000532536
0.000489641
0.000433173
0.000368818
0.000289332
0.000218687
0.000164008
0.000113542
7.80456e-05
5.55169e-05
4.3571e-05
3.84933e-05
4.10931e-05
4.49438e-05
4.92498e-05
5.26029e-05
5.39947e-05
5.25733e-05
4.82207e-05
4.35954e-05
3.95199e-05
3.28397e-05
2.53306e-05
3.27294e-05
3.82751e-05
4.65365e-05
5.74558e-05
6.57354e-05
0.00648672
0.0214231
0.00450758
0.000883603
0.000424823
0.000328864
0.000308349
0.000331311
0.000424096
0.000576828
0.000671056
0.000689907
0.000648547
0.00057458
0.000489021
0.000401526
0.000310068
0.000220544
0.000145371
9.67453e-05
6.76415e-05
5.14184e-05
4.51419e-05
4.49894e-05
4.97457e-05
5.72319e-05
6.47652e-05
7.10052e-05
7.47744e-05
7.45694e-05
6.88571e-05
5.81072e-05
4.79291e-05
3.88828e-05
3.17419e-05
3.07607e-05
3.36594e-05
5.45072e-05
0.000280245
0.000160876
0.00949466
0.0256399
0.0105569
0.0040387
0.00204308
0.00116118
0.000790921
0.000666251
0.000756777
0.000892919
0.000933926
0.000894288
0.000801227
0.000683666
0.000565732
0.00045638
0.000347989
0.000240116
0.000148875
9.17925e-05
6.42127e-05
5.41729e-05
5.37359e-05
5.76221e-05
6.44966e-05
7.35345e-05
8.35424e-05
9.37398e-05
0.000102582
0.000108534
0.000108577
9.59797e-05
7.99508e-05
6.62155e-05
5.79901e-05
5.71036e-05
6.48139e-05
0.000100178
0.000435071
0.000293781
0.0101988
0.0282383
0.0165765
0.012767
0.00851273
0.00517259
0.00325095
0.00228145
0.00183023
0.00157065
0.00137067
0.00118007
0.000984629
0.000800143
0.000644243
0.000514563
0.000387562
0.00025775
0.000149188
8.81602e-05
6.92826e-05
6.57839e-05
6.85177e-05
7.40161e-05
8.15494e-05
9.10886e-05
0.000102593
0.000116206
0.000131958
0.000149724
0.000168681
0.000186606
0.000186651
0.000191392
0.000219306
0.000297917
0.000483473
0.000782798
0.0029272
0.000789292
0.00946241
0.015812
0.0136477
0.0106945
0.00843699
0.00643567
0.00481067
0.00365285
0.00284581
0.00226328
0.001822
0.00145511
0.00113327
0.000878081
0.000696756
0.000560074
0.000413466
0.000254976
0.000139054
9.72212e-05
8.6777e-05
8.68328e-05
9.01749e-05
9.47084e-05
0.000100384
0.000107839
0.00011794
0.000131768
0.000150585
0.000175835
0.000209267
0.000253095
0.0003098
0.000386783
0.000509848
0.000690385
0.000919909
0.00115651
0.00136935
0.000751374
0.00568938
0.0102246
0.00762124
0.00607741
0.00486938
0.00390513
0.00314168
0.00250867
0.00196656
0.00149792
0.0011018
0.000844602
0.000702189
0.000592896
0.000412919
0.000228794
0.000154365
0.000134715
0.00013228
0.000133727
0.000134754
0.000134374
0.000133037
0.000131882
0.00013236
0.000136068
0.00014471
0.000160198
0.000184855
0.000221778
0.000274667
0.000347024
0.000444926
0.000566359
0.000687543
0.000759343
0.000753005
0.000456909
0.00449366
0.00790888
0.00636903
0.00540709
0.00452141
0.00359581
0.0028082
0.00215295
0.00160839
0.00116256
0.000819683
0.000744462
0.000778234
0.000754572
0.000568012
0.000409474
0.000337801
0.000316114
0.000309899
0.000307177
0.000301925
0.000291867
0.00027727
0.000260044
0.00024287
0.000228462
0.000219188
0.000217141
0.000224509
0.000243912
0.000280015
0.000336411
0.000414447
0.000507463
0.000604245
0.000685832
0.000670957
0.000484588
0.00196864
0.00261185
0.00320756
0.00393039
0.00424745
0.00408844
0.0035808
0.00255222
0.00182897
0.00121999
0.000856452
0.000585765
0.00033512
0.000261351
0.000290415
0.000295655
0.000259583
0.000220076
0.000195237
0.000179757
0.000171615
0.000164998
0.000158603
0.000152632
0.000148033
0.000145939
0.000147293
0.000152747
0.000162779
0.000177964
0.000199381
0.000229322
0.000266792
0.000312112
0.000366958
0.000430129
0.000504091
0.000482189
0.000385011
0.000310389
)
;

boundaryField
{
    floor
    {
        Cmu             0.09;
        kappa           0.41;
        E               9.8;
        type            epsilonWallFunction;
        value           nonuniform List<scalar> 
36
(
0.000447125
2.81081e-05
5.61143e-05
5.37133e-05
4.97791e-05
4.5629e-05
4.06681e-05
3.59411e-05
3.18688e-05
2.84125e-05
2.54818e-05
2.29704e-05
2.07736e-05
1.88015e-05
1.69652e-05
1.51695e-05
1.32705e-05
1.14158e-05
8.35028e-06
8.35028e-06
1.4563e-05
2.03539e-05
2.7644e-05
4.65365e-05
5.74558e-05
6.57354e-05
0.000447125
0.000498351
0.000331608
0.000210999
2.81081e-05
0.000210999
0.000116781
0.000441932
0.000210478
0.00040464
)
;
    }
    ceiling
    {
        Cmu             0.09;
        kappa           0.41;
        E               9.8;
        type            epsilonWallFunction;
        value           nonuniform List<scalar> 
43
(
0.00196864
0.00261185
0.00320756
0.00393039
0.00424745
0.00408844
0.0035808
0.00255222
0.00182897
0.00121999
0.000856452
0.000585765
0.00033512
0.000261351
0.000290415
0.000295655
0.000259583
0.000220076
0.000195237
0.000179757
0.000171615
0.000164998
0.000158603
0.000152632
0.000148033
0.000145939
0.000147293
0.000152747
0.000162779
0.000177964
0.000199381
0.000229322
0.000266792
0.000312112
0.000366958
0.000430129
0.000504091
0.000482189
0.000385011
0.000310389
0.00946241
0.015812
0.00449366
)
;
    }
    sWall
    {
        Cmu             0.09;
        kappa           0.41;
        E               9.8;
        type            epsilonWallFunction;
        value           uniform 0.00196864;
    }
    nWall
    {
        Cmu             0.09;
        kappa           0.41;
        E               9.8;
        type            epsilonWallFunction;
        value           nonuniform List<scalar> 6(6.57354e-05 0.000160876 0.000293781 0.000456909 0.000484588 0.000310389);
    }
    sideWalls
    {
        type            empty;
    }
    glass1
    {
        Cmu             0.09;
        kappa           0.41;
        E               9.8;
        type            epsilonWallFunction;
        value           nonuniform List<scalar> 9(0.000204396 0.000636707 0.00133024 0.00242248 0.0040697 0.00648672 0.00949466 0.0101988 0.00946241);
    }
    glass2
    {
        Cmu             0.09;
        kappa           0.41;
        E               9.8;
        type            epsilonWallFunction;
        value           nonuniform List<scalar> 2(0.000789292 0.000751374);
    }
    sun
    {
        Cmu             0.09;
        kappa           0.41;
        E               9.8;
        type            epsilonWallFunction;
        value           nonuniform List<scalar> 
14
(
0.000204396
0.000246775
0.000244944
0.000275742
0.000305466
0.000333667
0.000360917
0.000388133
0.000416689
0.000444197
0.000464664
0.000474326
0.000471549
0.000460459
)
;
    }
    Table_master
    {
        Cmu             0.09;
        kappa           0.41;
        E               9.8;
        type            epsilonWallFunction;
        value           nonuniform List<scalar> 9(8.24496e-05 6.08765e-05 4.59155e-05 3.55817e-05 2.83628e-05 2.32426e-05 1.9553e-05 1.69016e-05 1.51193e-05);
    }
    Table_slave
    {
        Cmu             0.09;
        kappa           0.41;
        E               9.8;
        type            epsilonWallFunction;
        value           nonuniform List<scalar> 9(9.16365e-05 7.64818e-05 7.11568e-05 6.96788e-05 6.86856e-05 6.5987e-05 6.0742e-05 5.51491e-05 4.82864e-05);
    }
    inlet
    {
        type            turbulentMixingLengthDissipationRateInlet;
        mixingLength    0.01;
        phi             phi;
        k               k;
        value           uniform 0.00193196;
    }
    outlet
    {
        type            zeroGradient;
    }
}


// ************************************************************************* //
