/*--------------------------------*- C++ -*----------------------------------*\
  =========                 |
  \\      /  F ield         | OpenFOAM: The Open Source CFD Toolbox
   \\    /   O peration     | Website:  https://openfoam.org
    \\  /    A nd           | Version:  6
     \\/     M anipulation  |
\*---------------------------------------------------------------------------*/
FoamFile
{
    version     2.0;
    format      ascii;
    class       surfaceScalarField;
    location    "2700";
    object      phi;
}
// * * * * * * * * * * * * * * * * * * * * * * * * * * * * * * * * * * * * * //

dimensions      [1 0 -1 0 0 0 0];

internalField   nonuniform List<scalar> 
850
(
-0.00275416
0.00280976
-0.00357041
0.000816258
-0.00424618
0.000675774
-0.00482324
0.000577079
-0.00527243
0.000449193
-0.0055782
0.000305778
-0.00572291
0.000144723
-0.00568414
-3.87584e-05
-0.00543616
-0.000247967
-0.00496765
-0.000468504
-0.00429578
-0.00067186
-0.00346277
-0.000833007
-0.00250972
-0.000953036
-0.0014116
-0.00109811
-0.00141053
-0.000377623
0.000379824
8.69119e-05
-0.000464522
0.000629175
-0.00054225
0.000997688
-0.0003685
0.00122797
-0.000230268
0.00134578
-0.000117796
0.00139416
-4.83691e-05
0.00141522
-2.10454e-05
0.00142379
-8.55569e-06
0.0014235
3.02879e-07
0.00141582
7.69833e-06
0.00139906
1.67734e-05
0.00136507
3.40011e-05
0.0012924
7.26825e-05
0.00114557
0.000146851
0.000910697
0.000234887
0.000629065
0.000281647
0.000632018
-0.00196815
0.00492684
-0.00283307
0.00168118
-0.00355662
0.00139933
-0.00412968
0.00115015
-0.00457039
0.000889912
-0.0048776
0.000613001
-0.00503641
0.000303535
-0.0050228
-5.23533e-05
-0.00481572
-0.000455039
-0.00441372
-0.000870495
-0.00384768
-0.00123789
-0.00317327
-0.00150741
-0.00246237
-0.00166393
-0.00185179
-0.00170867
-0.00175449
-0.00150782
-0.00089525
-0.000857173
-0.000468003
-0.000424856
-0.00046102
0.000654601
-0.000269503
0.000945906
-0.000755814
0.00112557
-0.000721899
0.00130219
-0.000545111
0.00143182
-0.000359887
0.00145205
-0.000138013
0.00145304
-4.93485e-05
0.00145582
-2.3802e-05
0.00145845
-1.11813e-05
0.0014596
-8.30114e-07
0.00145917
8.14928e-06
0.00145656
1.93899e-05
0.00144852
4.20566e-05
0.00140761
0.000113609
0.00124177
0.000312703
0.000951076
0.0005256
0.000580348
0.000652391
0.00122
-0.00139581
0.00654917
-0.00218458
0.00246997
-0.00283189
0.00204666
-0.00332005
0.00163832
-0.00370331
0.00127318
-0.0039835
0.000893198
-0.00413994
0.000459985
-0.00413899
-5.32938e-05
-0.00394838
-0.000645639
-0.00357351
-0.00124535
-0.00305811
-0.00175329
-0.0024664
-0.00209911
-0.00187344
-0.00225688
-0.0013697
-0.0022124
-0.00096254
-0.00191498
-0.000446577
-0.00137313
-2.35067e-05
-0.000847916
-0.000478874
0.00107648
-0.00133953
0.00130778
-0.000987096
0.00135992
-0.000774027
0.00142615
-0.000611333
0.00153797
-0.000471687
0.00140012
0.00135094
0.0013273
0.00131629
0.00131562
0.00132394
0.0013435
0.00138572
0.0014995
0.00126107
0.000551141
0.000954359
0.000832329
0.000530072
0.00107669
0.00176174
-0.000999535
0.00784025
-0.00166765
0.00313809
-0.00209036
0.00246938
-0.00241641
0.00196438
-0.00268673
0.0015435
-0.00289823
0.00110471
-0.00302528
0.00058705
-0.00301849
-6.00829e-05
-0.00282479
-0.000839327
-0.00246873
-0.00160141
-0.00201314
-0.00220887
-0.00152418
-0.00258806
-0.00105842
-0.00272264
-0.00065302
-0.00261779
-0.000277512
-0.00229048
0.000147279
-0.00179791
0.000591149
-0.00129178
0.00104592
-0.000933635
0.00179833
-0.000746202
0.00138673
-0.000927921
0.00132194
-0.000922297
0.00130014
-0.000752209
0.00128486
-0.000596038
0.00124493
-0.000431752
0.00146072
-0.000215919
0.00160848
-0.000147905
0.0017339
-0.000125559
0.0018401
-0.000106333
0.0019138
-7.38389e-05
0.00193187
-1.82054e-05
0.00186712
6.46079e-05
0.00168803
0.000178954
0.00134222
0.00034567
0.00120012
0.000693258
0.000923836
0.00110863
0.000503008
0.00149754
0.00227997
-0.000722833
0.00890915
-0.00126928
0.00368455
-0.00134904
0.00254915
-0.00144203
0.00205739
-0.0015483
0.00164978
-0.00164029
0.0011967
-0.00168907
0.000635844
-0.00163446
-0.000114681
-0.00141077
-0.00106301
-0.00108532
-0.00192684
-0.000728423
-0.00256576
-0.000390263
-0.00292622
-9.8872e-05
-0.00301403
0.00014125
-0.00285791
0.000356446
-0.00250567
0.000590736
-0.00203219
0.00084679
-0.00154782
0.00107693
-0.00116376
0.00125615
-0.000925419
0.00119158
-0.000863336
0.00107592
-0.000806621
0.00100843
-0.000684711
0.000972471
-0.000560064
0.000980025
-0.000439292
0.00108833
-0.000324214
0.00120385
-0.00026341
0.00131513
-0.000236825
0.00141961
-0.000210799
0.001508
-0.000162206
0.00156227
-7.24682e-05
0.00155932
6.75751e-05
0.00148523
0.000253064
0.00134554
0.000485371
0.00122117
0.000817644
0.00109617
0.00123365
0.00085952
0.0017342
0.00103212
0.00210738
-0.000935333
0.00198124
-0.00156948
0.000646299
-0.00151291
-0.000648539
0.00994948
-0.00106149
0.00409751
-0.000660838
0.0021485
-0.00040053
0.0017971
-0.000305716
0.00155498
-0.000251243
0.00114224
-0.00015681
0.000541421
2.96691e-05
-0.000301149
0.000285687
-0.00131902
0.000537022
-0.00217817
0.000735353
-0.00276408
0.000862636
-0.0030535
0.000920975
-0.00307236
0.000930273
-0.0028672
0.000922229
-0.00249762
0.000924879
-0.00203483
0.000942588
-0.00156552
0.000949235
-0.0011704
0.000921578
-0.00089775
0.00081814
-0.000759886
0.000685474
-0.000673942
0.000590652
-0.000589875
0.000543862
-0.00051326
0.000550326
-0.000445741
0.000614398
-0.000388272
0.000706549
-0.000355546
0.000808283
-0.000338544
0.000913805
-0.000316305
0.0010197
-0.000268087
0.00111876
-0.000171511
0.00118891
-2.56423e-06
0.00121661
0.000225386
0.0012186
0.000483394
0.00124525
0.000791008
0.00134608
0.00113283
0.00154452
0.00153578
0.00188236
0.00176955
0.00214037
0.00172324
0.00166317
0.00112352
0.000205184
-0.000756178
0.0111384
-0.000705145
0.00404649
0.000360662
0.0010827
0.000953091
0.00120468
0.00118877
0.00131931
0.00137932
0.000951702
0.00165544
0.000265317
0.00197386
-0.000619557
0.00220046
-0.00154562
0.00229997
-0.00227768
0.00226745
-0.00273156
0.00212296
-0.002909
0.00189854
-0.00284793
0.00163131
-0.00259996
0.00135807
-0.00222437
0.00110558
-0.00178234
0.000884987
-0.00134491
0.000688789
-0.000974185
0.000513005
-0.000721954
0.000340859
-0.000587727
0.000190139
-0.000523209
8.40312e-05
-0.000483753
2.78132e-05
-0.000457027
1.94209e-05
-0.000437334
5.31823e-05
-0.000422018
0.000112435
-0.000414783
0.000184211
-0.000410305
0.000265924
-0.000398002
0.000361569
-0.000363716
0.000476947
-0.000286874
0.000614341
-0.000139943
0.000753576
8.61671e-05
0.000889348
0.000347637
0.00106407
0.000616305
0.00131946
0.000877452
0.00169467
0.00116059
0.00220223
0.001262
0.00285237
0.00107311
0.00296998
0.00100593
0.00323501
0.00236367
0.00925852
0.00298634
0.00342383
0.0034207
0.000648351
0.00360999
0.0010154
0.00368776
0.00124156
0.00384129
0.000798187
0.00409901
7.61162e-06
0.00432101
-0.000841553
0.00433336
-0.00155796
0.00411681
-0.00206112
0.00371952
-0.00233426
0.00320579
-0.00239528
0.00263521
-0.00227735
0.00205779
-0.00202253
0.00151279
-0.00167936
0.00102238
-0.00129192
0.000603895
-0.000926419
0.000257299
-0.000627577
-1.09753e-05
-0.000453665
-0.000215897
-0.000382791
-0.000367982
-0.000371109
-0.000474763
-0.000376956
-0.000543086
-0.000388689
-0.000579722
-0.000400683
-0.000591355
-0.000410369
-0.000588169
-0.000417953
-0.000577366
-0.000421092
-0.00055999
-0.000415362
-0.000529776
-0.000393915
-0.000470023
-0.000346611
-0.000350335
-0.000259615
-0.000158383
-0.000105769
7.36476e-05
0.000115623
0.00034356
0.000346409
0.000665972
0.000555056
0.00106963
0.000756952
0.00153261
0.00079903
0.00193691
0.000668833
0.00128031
0.00166254
0.00474584
0.00978544
0.0131985
0.012473
0.00137389
0.0109629
0.00252549
0.00989795
0.00230651
0.00914189
0.00155426
0.00840559
0.000743911
0.00756517
-1.13133e-06
0.00661944
-0.000612231
0.0056234
-0.00106509
0.00462206
-0.00133293
0.00365105
-0.00142428
0.00273698
-0.00136328
0.0019022
-0.00118775
0.00116678
-0.000943937
0.000532544
-0.000657669
1.79569e-05
-0.000411819
-0.000357623
-0.000251982
-0.000611094
-0.00020018
-0.000791908
-0.000201961
-0.00093462
-0.000228382
-0.00105044
-0.000261121
-0.00114629
-0.000292818
-0.00122779
-0.000319172
-0.00130029
-0.000337851
-0.00137108
-0.000347148
-0.00144809
-0.000344066
-0.00153944
-0.000324003
-0.00165349
-0.000279844
-0.00179954
-0.000200546
-0.00198481
-7.43324e-05
-0.00220058
0.000110023
-0.00245138
0.000366433
-0.0028073
0.000702349
-0.0033738
0.00112157
-0.00423011
0.00161328
-0.00550748
0.00207641
-0.00707565
0.00223701
-0.00679436
0.00138127
-0.00179484
0.00318749
0.00271102
0.00401716
0.00169575
0.00527206
0.00105156
0.00553852
0.00128774
0.00531837
0.00096401
0.00493804
0.000379164
0.00444905
-0.000123268
0.00382376
-0.000439822
0.00309561
-0.000604789
0.00231683
-0.000645497
0.00153529
-0.000581734
0.000795175
-0.000447631
0.000127728
-0.000276477
-0.0004118
-0.000118126
-0.000783292
-4.03112e-05
-0.0010177
-1.75617e-05
-0.00118205
-3.58132e-05
-0.00131401
-6.99817e-05
-0.00143832
-0.000104053
-0.00156344
-0.000135988
-0.00169116
-0.000165079
-0.00182151
-0.000188812
-0.00195408
-0.000205266
-0.00208905
-0.000212158
-0.00222702
-0.000206082
-0.00236849
-0.000182519
-0.00251243
-0.000135883
-0.002655
-5.7958e-05
-0.00278974
6.04156e-05
-0.00290159
0.000221891
-0.00299042
0.000455282
-0.0030661
0.000778044
-0.00312966
0.00118514
-0.00315555
0.00163919
-0.00311818
0.00203906
-0.00286425
0.00198309
-0.00158163
9.86681e-05
-0.00331009
-0.00029478
0.00306572
0.00059703
0.00080389
0.000915363
0.000733181
0.00136272
0.00084035
0.0016606
0.00066611
0.00171303
0.000326708
0.00156162
2.813e-05
0.00124765
-0.000125855
0.000807687
-0.000164819
0.000296761
-0.00013456
-0.000214776
-7.01815e-05
-0.000665757
3.36582e-06
-0.00100732
6.51039e-05
-0.00122014
9.47108e-05
-0.00134901
8.85781e-05
-0.00143058
6.40178e-05
-0.00150078
3.44057e-05
-0.00157868
7.93518e-06
-0.00167067
-1.20507e-05
-0.00178056
-2.60808e-05
-0.00190993
-3.56938e-05
-0.00205697
-4.17579e-05
-0.00221726
-4.49605e-05
-0.00238365
-4.57495e-05
-0.0025459
-4.38127e-05
-0.00269088
-3.75285e-05
-0.00280313
-2.36194e-05
-0.00286345
2.38677e-06
-0.00286051
5.74815e-05
-0.00279158
0.000152981
-0.00263123
0.000294944
-0.00235149
0.000498324
-0.00193028
0.000763946
-0.00133252
0.00104145
-0.000393287
0.00109984
0.000987251
0.00060257
0.00163461
-0.000548672
-0.00160324
-0.00542283
-0.00812324
-0.00502013
-0.00420108
-0.00345852
-0.00261223
-0.00194288
-0.00161547
-0.00158927
-0.00171912
-0.00188965
-0.00203139
-0.00211006
-0.00211639
-0.00206208
-0.00197927
-0.00190351
-0.00185297
-0.00183248
-0.00183877
-0.00186528
-0.00190605
-0.00195669
-0.00201367
-0.00207417
-0.00213577
-0.0021957
-0.00224952
-0.00228949
-0.00230337
-0.00226189
-0.00212456
-0.00184487
-0.00136134
-0.000611723
0.000415846
0.00150198
0.0020906
0.00152736
)
;

boundaryField
{
    floor
    {
        type            calculated;
        value           nonuniform List<scalar> 
36
(
0
0
0
0
0
0
0
0
0
0
0
0
0
0
0
0
0
0
0
-2.93671e-06
-7.61422e-06
-1.16556e-05
-1.52017e-05
-1.37623e-05
-1.21391e-05
-1.13364e-05
-1.06505e-06
-2.05209e-06
-2.3805e-06
-2.75801e-06
-2.18778e-06
-4.21334e-06
-5.26137e-06
-5.6417e-06
-6.44849e-06
-6.19286e-06
)
;
    }
    ceiling
    {
        type            calculated;
        value           nonuniform List<scalar> 
43
(
-4.05067e-05
-3.90209e-05
-3.73784e-05
-1.51647e-05
-9.37512e-06
-5.93128e-06
-3.23521e-06
-6.85278e-07
1.94829e-06
4.01151e-06
5.7282e-06
7.19392e-06
8.50046e-06
9.71593e-06
1.081e-05
1.19143e-05
1.28412e-05
1.34929e-05
1.39278e-05
1.42403e-05
1.44785e-05
1.47055e-05
1.49582e-05
1.52439e-05
1.55539e-05
1.58628e-05
1.6131e-05
1.63128e-05
1.63689e-05
1.6274e-05
1.60175e-05
1.56707e-05
1.52624e-05
1.48116e-05
1.43476e-05
1.38954e-05
1.37164e-05
1.39716e-05
1.45806e-05
1.60003e-05
1.42013e-05
1.0761e-05
-5.99694e-05
)
;
    }
    sWall
    {
        type            calculated;
        value           uniform -0.000270654;
    }
    nWall
    {
        type            calculated;
        value           nonuniform List<scalar> 6(-4.52183e-05 -5.49086e-05 -5.98224e-05 -6.63679e-05 -7.22303e-05 -9.18665e-05);
    }
    sideWalls
    {
        type            empty;
        value           nonuniform 0();
    }
    glass1
    {
        type            calculated;
        value           nonuniform List<scalar> 9(-5.5588e-05 -0.00014892 -0.000226512 -0.000291536 -0.000346061 -0.000391779 -0.000432774 -0.000483745 -0.000541109);
    }
    glass2
    {
        type            calculated;
        value           nonuniform List<scalar> 2(-0.000230508 -0.000253664);
    }
    sun
    {
        type            calculated;
        value           uniform 0;
    }
    Table_master
    {
        type            calculated;
        value           nonuniform List<scalar> 9(-1.52556e-07 -1.52634e-07 -1.52661e-07 -1.52678e-07 -1.5269e-07 -1.52696e-07 -1.52696e-07 -1.52688e-07 -1.52656e-07);
    }
    Table_slave
    {
        type            calculated;
        value           nonuniform List<scalar> 9(1.52511e-07 1.52501e-07 1.52464e-07 1.52432e-07 1.52411e-07 1.5241e-07 1.52418e-07 1.52449e-07 1.5252e-07);
    }
    inlet
    {
        type            calculated;
        value           uniform -0.00452467;
    }
    outlet
    {
        type            calculated;
        value           nonuniform List<scalar> 2(0.005734 0.00273943);
    }
}


// ************************************************************************* //
