/*--------------------------------*- C++ -*----------------------------------*\
  =========                 |
  \\      /  F ield         | OpenFOAM: The Open Source CFD Toolbox
   \\    /   O peration     | Website:  https://openfoam.org
    \\  /    A nd           | Version:  6
     \\/     M anipulation  |
\*---------------------------------------------------------------------------*/
FoamFile
{
    version     2.0;
    format      ascii;
    class       volScalarField;
    location    "2900";
    object      epsilon;
}
// * * * * * * * * * * * * * * * * * * * * * * * * * * * * * * * * * * * * * //

dimensions      [0 2 -3 0 0 0 0];

internalField   nonuniform List<scalar> 
458
(
0.00072945
0.000973648
0.00108908
0.00127588
0.00147539
0.00170164
0.00195996
0.00221436
0.0024229
0.00251873
0.00232227
0.00176407
0.00127042
0.000886902
0.000590554
6.90416e-05
0.000110118
0.000169322
0.000205
0.000198391
0.000164263
0.000131384
0.000105972
8.67953e-05
7.21593e-05
6.08336e-05
5.19091e-05
4.47751e-05
3.88735e-05
3.37543e-05
2.90153e-05
2.53275e-05
1.92387e-05
0.0015604
0.00213579
0.000890094
0.000886163
0.000943472
0.00106415
0.00125513
0.00147813
0.00165828
0.00171816
0.00161326
0.00124551
0.000930217
0.00072143
0.000563105
0.000849643
0.000585059
0.000356164
6.33604e-05
0.000103754
0.000144184
0.000156556
0.000158208
0.000166211
0.000132673
0.00010232
7.93556e-05
6.23424e-05
4.97429e-05
4.02899e-05
3.30902e-05
2.75276e-05
2.39685e-05
2.24151e-05
4.47436e-05
3.34393e-05
0.00258003
0.00453091
0.000928778
0.000782297
0.000833133
0.000969201
0.0011796
0.0014177
0.0015962
0.00166619
0.00160493
0.00129347
0.000962056
0.000725098
0.000557267
0.000504595
0.000445079
0.00045153
0.000146279
0.000172166
0.000177125
0.000175458
0.000177516
0.000374991
0.000248769
0.000168372
0.000117716
8.52003e-05
6.37547e-05
4.92088e-05
3.93686e-05
3.30964e-05
2.52926e-05
2.23084e-05
8.25657e-05
4.85892e-05
0.00386529
0.00881815
0.00119891
0.000728768
0.000763277
0.000920562
0.00118294
0.00145873
0.0016477
0.0017403
0.00168181
0.00135813
0.000970629
0.00069309
0.000517517
0.000418174
0.00036337
0.000380225
0.000527237
0.000406869
0.000305616
0.000254793
0.000224949
0.000215506
0.000544515
0.000413525
0.000331129
0.000272653
0.000228073
0.000191514
0.000159057
0.000128748
9.90133e-05
5.50828e-05
3.49935e-05
0.000148859
6.66565e-05
0.00552105
0.0155546
0.00200923
0.000726957
0.000702063
0.000909664
0.00132156
0.00166001
0.00186275
0.0019652
0.00186586
0.00146689
0.000979689
0.000639543
0.000455892
0.000362241
0.000319611
0.000333459
0.000407377
0.000368227
0.000329572
0.000299072
0.000265397
0.000229622
0.000217188
0.000198918
0.000184037
0.000169043
0.000152544
0.000134441
0.000115223
9.59919e-05
7.76386e-05
5.65979e-05
4.1701e-05
0.000100517
0.000143889
0.000150715
0.00017973
0.000226835
0.00775792
0.0235414
0.00427724
0.00100393
0.000721005
0.00100153
0.00169589
0.00205583
0.00224864
0.00232414
0.00214821
0.00161833
0.000984709
0.000562873
0.00037034
0.000306173
0.000300936
0.000337408
0.000384531
0.000395328
0.000382406
0.000347302
0.000296892
0.000243047
0.0002035
0.00018268
0.000170944
0.000159292
0.000144767
0.000127414
0.000108617
9.01884e-05
7.36108e-05
5.86589e-05
5.05903e-05
7.27171e-05
0.000118072
0.00014223
0.000259053
0.000255251
0.0105057
0.0286018
0.00909118
0.00303221
0.00171835
0.0020125
0.00249957
0.00271945
0.00282951
0.00282278
0.00251453
0.00178366
0.000960647
0.000468659
0.000292423
0.000272596
0.000304249
0.000360432
0.000411826
0.000427031
0.000402091
0.000349987
0.000287233
0.000229489
0.000191686
0.00017615
0.000169901
0.000164843
0.000158156
0.000148185
0.000134929
0.00012051
0.000106876
9.48162e-05
9.15132e-05
0.000106399
0.000149424
0.000224574
0.000436799
0.000437281
0.0113377
0.0321666
0.0174211
0.00979882
0.00602265
0.00467007
0.00406631
0.00380117
0.00365668
0.00346298
0.00292106
0.00188361
0.000832358
0.000378774
0.000274667
0.000279325
0.000319734
0.000371157
0.000405428
0.000398979
0.000355287
0.000296221
0.000240471
0.000199662
0.000178174
0.000172496
0.000175415
0.000183227
0.000195442
0.000212294
0.000231492
0.000248894
0.000270751
0.000308885
0.000374873
0.000552262
0.000945345
0.00171671
0.0060709
0.00150111
0.0107713
0.019166
0.0152233
0.0114824
0.00870881
0.00683718
0.00569916
0.0050754
0.00462324
0.00414673
0.00321182
0.001684
0.000618322
0.000334607
0.000282446
0.000292353
0.000318571
0.000340821
0.000341476
0.000315119
0.000272555
0.000227416
0.000191815
0.000170574
0.000162905
0.000165331
0.000175144
0.000192192
0.000218385
0.000257071
0.000312777
0.000391875
0.000502758
0.000665841
0.000897467
0.00120532
0.00156221
0.0019007
0.00217705
0.00121793
0.00463676
0.00625865
0.00682296
0.00690713
0.00684751
0.00630482
0.00540684
0.00448313
0.00272779
0.00104296
0.000467993
0.000325395
0.000295472
0.000296154
0.000302864
0.000304341
0.000293733
0.00027111
0.000242834
0.000215858
0.000194949
0.00018202
0.000176744
0.00017759
0.000183823
0.000196143
0.000216707
0.000249198
0.000298343
0.000370855
0.000475759
0.000624464
0.000824692
0.00106849
0.00132605
0.00156739
0.00142395
0.000740651
0.00387989
0.0197479
0.0163597
0.0140941
0.010736
0.0065388
0.0031662
0.001627
0.000839652
0.000507268
0.000396893
0.000361593
0.000352443
0.000350958
0.000349869
0.000345854
0.00033837
0.000329332
0.000320814
0.000313261
0.000305982
0.000298466
0.000292023
0.000287688
0.000286449
0.000289892
0.000300294
0.000321199
0.000357732
0.000415623
0.00050212
0.000625102
0.000788889
0.000989062
0.0012202
0.00166466
0.000858861
0.000845454
0.0063691
0.00658351
0.00687413
0.0107666
0.007727
0.00433057
0.00201347
0.00129906
0.000891589
0.00068301
0.000558557
0.000481418
0.000437004
0.000411395
0.000393583
0.000375965
0.000353988
0.000326432
0.000295682
0.000266326
0.000242238
0.000225061
0.000214779
0.00021097
0.000211484
0.000215895
0.000224504
0.000238214
0.000258711
0.000287481
0.000325911
0.000376294
0.000441831
0.000526701
0.000635223
0.000777896
0.000847143
0.000659858
0.000525965
0.000704936
)
;

boundaryField
{
    floor
    {
        Cmu             0.09;
        kappa           0.41;
        E               9.8;
        type            epsilonWallFunction;
        value           nonuniform List<scalar> 
36
(
0.000590554
6.90416e-05
0.000110118
0.000169322
0.000205
0.000198391
0.000164263
0.000131384
0.000105972
8.67953e-05
7.21593e-05
6.08336e-05
5.19091e-05
4.47751e-05
3.88735e-05
3.37543e-05
2.90153e-05
2.53275e-05
1.92387e-05
1.92387e-05
3.34393e-05
4.85892e-05
6.66565e-05
0.000150715
0.00017973
0.000226835
0.000590554
0.000849643
0.000585059
0.000356164
6.90416e-05
0.000356164
6.33604e-05
0.00045153
0.000146279
0.000527237
)
;
    }
    ceiling
    {
        Cmu             0.09;
        kappa           0.41;
        E               9.8;
        type            epsilonWallFunction;
        value           nonuniform List<scalar> 
43
(
0.0063691
0.00658351
0.00687413
0.0107666
0.007727
0.00433057
0.00201347
0.00129906
0.000891589
0.00068301
0.000558557
0.000481418
0.000437004
0.000411395
0.000393583
0.000375965
0.000353988
0.000326432
0.000295682
0.000266326
0.000242238
0.000225061
0.000214779
0.00021097
0.000211484
0.000215895
0.000224504
0.000238214
0.000258711
0.000287481
0.000325911
0.000376294
0.000441831
0.000526701
0.000635223
0.000777896
0.000847143
0.000659858
0.000525965
0.000704936
0.0107713
0.019166
0.00387989
)
;
    }
    sWall
    {
        Cmu             0.09;
        kappa           0.41;
        E               9.8;
        type            epsilonWallFunction;
        value           uniform 0.0063691;
    }
    nWall
    {
        Cmu             0.09;
        kappa           0.41;
        E               9.8;
        type            epsilonWallFunction;
        value           nonuniform List<scalar> 6(0.000226835 0.000255251 0.000437281 0.000740651 0.000845454 0.000704936);
    }
    sideWalls
    {
        type            empty;
    }
    glass1
    {
        Cmu             0.09;
        kappa           0.41;
        E               9.8;
        type            epsilonWallFunction;
        value           nonuniform List<scalar> 9(0.00072945 0.0015604 0.00258003 0.00386529 0.00552105 0.00775792 0.0105057 0.0113377 0.0107713);
    }
    glass2
    {
        Cmu             0.09;
        kappa           0.41;
        E               9.8;
        type            epsilonWallFunction;
        value           nonuniform List<scalar> 2(0.00150111 0.00121793);
    }
    sun
    {
        Cmu             0.09;
        kappa           0.41;
        E               9.8;
        type            epsilonWallFunction;
        value           nonuniform List<scalar> 
14
(
0.00072945
0.000973648
0.00108908
0.00127588
0.00147539
0.00170164
0.00195996
0.00221436
0.0024229
0.00251873
0.00232227
0.00176407
0.00127042
0.000886902
)
;
    }
    Table_master
    {
        Cmu             0.09;
        kappa           0.41;
        E               9.8;
        type            epsilonWallFunction;
        value           nonuniform List<scalar> 9(0.000374991 0.000248769 0.000168372 0.000117716 8.52003e-05 6.37547e-05 4.92088e-05 3.93686e-05 3.30964e-05);
    }
    Table_slave
    {
        Cmu             0.09;
        kappa           0.41;
        E               9.8;
        type            epsilonWallFunction;
        value           nonuniform List<scalar> 9(0.000544515 0.000413525 0.000331129 0.000272653 0.000228073 0.000191514 0.000159057 0.000128748 9.90133e-05);
    }
    inlet
    {
        type            turbulentMixingLengthDissipationRateInlet;
        mixingLength    0.01;
        phi             phi;
        k               k;
        value           uniform 0.00129426;
    }
    outlet
    {
        type            zeroGradient;
    }
}


// ************************************************************************* //
