/*--------------------------------*- C++ -*----------------------------------*\
  =========                 |
  \\      /  F ield         | OpenFOAM: The Open Source CFD Toolbox
   \\    /   O peration     | Website:  https://openfoam.org
    \\  /    A nd           | Version:  6
     \\/     M anipulation  |
\*---------------------------------------------------------------------------*/
FoamFile
{
    version     2.0;
    format      ascii;
    class       volScalarField;
    location    "1200";
    object      k;
}
// * * * * * * * * * * * * * * * * * * * * * * * * * * * * * * * * * * * * * //

dimensions      [0 2 -2 0 0 0 0];

internalField   nonuniform List<scalar> 
458
(
0.00100875
0.00106934
0.000949952
0.00102037
0.0010925
0.00116041
0.00122445
0.00128622
0.00134806
0.00141367
0.00147096
0.00151498
0.00154526
0.00156705
0.00158053
0.000370918
0.000524823
0.000532264
0.000374685
0.000238335
0.000124625
0.000114704
0.000122075
0.00013484
0.000136554
0.000126867
0.000112148
9.8506e-05
0.000108193
0.000193078
0.000308941
0.000322893
0.000263596
0.0028004
0.00547664
0.00152986
0.00147645
0.00154666
0.00163475
0.00172977
0.00183321
0.00194573
0.00206424
0.00217848
0.00226337
0.00228526
0.00219711
0.00197799
0.00179837
0.00164054
0.00090523
0.000692087
0.00112095
0.00100587
0.000874763
0.00061908
0.000438027
0.000340385
0.000314213
0.000315737
0.000308451
0.000268298
0.000204774
0.000147233
0.000153945
0.000470869
0.000838721
0.00108988
0.000527234
0.00516282
0.0127878
0.00235241
0.00188273
0.0019224
0.0020198
0.00212947
0.00225129
0.00238581
0.00252865
0.00266888
0.00277457
0.0028169
0.00277532
0.00265431
0.00248633
0.00222845
0.00190889
0.0014158
0.00219738
0.00160041
0.0013492
0.00119105
0.000526477
0.000367871
0.000295602
0.000251124
0.00021894
0.000192337
0.000167254
0.000143944
0.000186882
0.00105073
0.00166892
0.0015024
0.000611654
0.00816785
0.0237846
0.00382607
0.00223223
0.00221135
0.00232978
0.00246681
0.00261635
0.00277963
0.00295461
0.00313293
0.00327331
0.00334966
0.00335124
0.00326997
0.00309551
0.00282437
0.00245069
0.00208275
0.00206161
0.0015658
0.00130069
0.00115006
0.00105649
0.00102968
0.00106661
0.00114533
0.00126339
0.00143579
0.00172324
0.00188316
0.00196533
0.00192943
0.00180827
0.00193075
0.00243328
0.00170833
0.0117131
0.0375622
0.00689036
0.00264737
0.00244079
0.00256745
0.00274267
0.00294237
0.00316563
0.00341103
0.00366089
0.00385387
0.00397143
0.00402315
0.00401489
0.00394608
0.00381843
0.00358835
0.00310315
0.00235007
0.00186777
0.00161762
0.00153782
0.00155127
0.00160762
0.00169944
0.0018633
0.00210611
0.0024448
0.00291685
0.00327282
0.00349509
0.0035107
0.00326268
0.00284832
0.00264188
0.00244033
0.00210479
0.00176735
0.00181967
0.0157781
0.0506805
0.013638
0.00396245
0.00289397
0.00287801
0.00305502
0.00330153
0.00359275
0.00393416
0.00425926
0.00446028
0.00454783
0.00456597
0.00454395
0.00448824
0.00436457
0.00406588
0.00351817
0.00285222
0.00230736
0.00197258
0.0018128
0.00175293
0.00175235
0.00181709
0.00197106
0.00222387
0.00258709
0.00309155
0.00366437
0.0040938
0.0043676
0.00441099
0.00395486
0.00342929
0.00300715
0.00264223
0.00243318
0.00197993
0.0201464
0.0588996
0.0269629
0.0105502
0.00550535
0.00415285
0.00397388
0.00413897
0.00442504
0.0048281
0.0051041
0.00517316
0.00510789
0.00498153
0.00483831
0.0046986
0.00453454
0.00424545
0.00376524
0.00317653
0.00264618
0.00227375
0.00205168
0.00192785
0.00187382
0.00190032
0.00202432
0.0022546
0.00262334
0.00320158
0.00394198
0.00454931
0.00507975
0.00557844
0.00584174
0.00543916
0.00501471
0.00448676
0.00426189
0.00285761
0.0211444
0.0639123
0.0415461
0.029948
0.019173
0.0120447
0.00860227
0.00722986
0.00678397
0.00662262
0.00635035
0.00600954
0.00565038
0.00529907
0.00496919
0.00467074
0.00439801
0.00409939
0.00371152
0.003244
0.00279974
0.00246287
0.00224343
0.00211502
0.00205981
0.00208414
0.00218752
0.00235448
0.00266853
0.00335428
0.00435379
0.00509645
0.005769
0.00668015
0.00812119
0.0098022
0.0106633
0.0104299
0.0141488
0.00436979
0.0199906
0.0283944
0.0286278
0.0256116
0.0217558
0.0174594
0.0138326
0.0112146
0.00947916
0.00823684
0.00729371
0.00654741
0.00592614
0.00538527
0.00490065
0.00446342
0.00407108
0.00371262
0.00336802
0.00303216
0.00273036
0.00249693
0.00234827
0.00227965
0.00228302
0.00236442
0.00249117
0.00253835
0.00263399
0.00334632
0.00471848
0.00542959
0.00574486
0.00594712
0.00614935
0.00640372
0.00665848
0.00666938
0.0067076
0.00407942
0.0165763
0.0294331
0.0224828
0.0181692
0.0148336
0.0122476
0.0102939
0.00880587
0.00763373
0.00668404
0.00589261
0.00521385
0.0046196
0.00409612
0.00363977
0.00325129
0.0029317
0.00268351
0.00251323
0.00242704
0.00242054
0.00247583
0.00257905
0.00274146
0.00293972
0.00284968
0.00240872
0.00275603
0.00465651
0.005678
0.00613994
0.00649362
0.00667694
0.00653821
0.00606139
0.00536561
0.00462391
0.00306604
0.0142652
0.0277372
0.0212066
0.0172311
0.0143269
0.0119976
0.0100861
0.00853187
0.00726448
0.00618865
0.00527146
0.00449365
0.00383726
0.00328893
0.00284121
0.00249255
0.00224581
0.00210563
0.00207389
0.00214209
0.00228365
0.00245833
0.00263475
0.00280652
0.00292851
0.00277001
0.00213739
0.00190519
0.00359682
0.00437258
0.00476898
0.00544415
0.00636184
0.00709409
0.00719989
0.00678324
0.00509974
0.0032022
0.0090445
0.0105509
0.0119634
0.0133618
0.0114291
0.00987682
0.00826675
0.0070458
0.00602415
0.00516221
0.00442988
0.0038407
0.00335199
0.00293087
0.00256089
0.00223425
0.00194796
0.00170166
0.00149617
0.00133239
0.00121071
0.00113041
0.00108862
0.00107914
0.00109366
0.0011251
0.00116155
0.00116232
0.00108934
0.00110047
0.00154808
0.00180229
0.00205872
0.00254699
0.00323145
0.00373604
0.00397097
0.00372248
0.0031865
0.00267442
)
;

boundaryField
{
    floor
    {
        type            kqRWallFunction;
        value           nonuniform List<scalar> 
36
(
0.00158053
0.000370918
0.000524823
0.000532264
0.000374685
0.000238335
0.000124625
0.000114704
0.000122075
0.00013484
0.000136554
0.000126867
0.000112148
9.8506e-05
0.000108193
0.000193078
0.000308941
0.000322893
0.000263596
0.000263596
0.000527234
0.000611654
0.00170833
0.00210479
0.00176735
0.00181967
0.00158053
0.00179837
0.00164054
0.00090523
0.000370918
0.00090523
0.000692087
0.00190889
0.0014158
0.00208275
)
;
    }
    ceiling
    {
        type            kqRWallFunction;
        value           nonuniform List<scalar> 
43
(
0.0090445
0.0105509
0.0119634
0.0133618
0.0114291
0.00987682
0.00826675
0.0070458
0.00602415
0.00516221
0.00442988
0.0038407
0.00335199
0.00293087
0.00256089
0.00223425
0.00194796
0.00170166
0.00149617
0.00133239
0.00121071
0.00113041
0.00108862
0.00107914
0.00109366
0.0011251
0.00116155
0.00116232
0.00108934
0.00110047
0.00154808
0.00180229
0.00205872
0.00254699
0.00323145
0.00373604
0.00397097
0.00372248
0.0031865
0.00267442
0.0199906
0.0283944
0.0142652
)
;
    }
    sWall
    {
        type            kqRWallFunction;
        value           uniform 0.0090445;
    }
    nWall
    {
        type            kqRWallFunction;
        value           nonuniform List<scalar> 6(0.00181967 0.00197993 0.00285761 0.00306604 0.0032022 0.00267442);
    }
    sideWalls
    {
        type            empty;
    }
    glass1
    {
        type            kqRWallFunction;
        value           nonuniform List<scalar> 9(0.00100875 0.0028004 0.00516282 0.00816785 0.0117131 0.0157781 0.0201464 0.0211444 0.0199906);
    }
    glass2
    {
        type            kqRWallFunction;
        value           nonuniform List<scalar> 2(0.00436979 0.00407942);
    }
    sun
    {
        type            kqRWallFunction;
        value           nonuniform List<scalar> 
14
(
0.00100875
0.00106934
0.000949952
0.00102037
0.0010925
0.00116041
0.00122445
0.00128622
0.00134806
0.00141367
0.00147096
0.00151498
0.00154526
0.00156705
)
;
    }
    Table_master
    {
        type            kqRWallFunction;
        value           nonuniform List<scalar> 9(0.000526477 0.000367871 0.000295602 0.000251124 0.00021894 0.000192337 0.000167254 0.000143944 0.000186882);
    }
    Table_slave
    {
        type            kqRWallFunction;
        value           nonuniform List<scalar> 9(0.00102968 0.00106661 0.00114533 0.00126339 0.00143579 0.00172324 0.00188316 0.00196533 0.00192943);
    }
    inlet
    {
        type            turbulentIntensityKineticEnergyInlet;
        intensity       0.05;
        value           uniform 0.0003375;
    }
    outlet
    {
        type            zeroGradient;
    }
}


// ************************************************************************* //
