/*--------------------------------*- C++ -*----------------------------------*\
  =========                 |
  \\      /  F ield         | OpenFOAM: The Open Source CFD Toolbox
   \\    /   O peration     | Website:  https://openfoam.org
    \\  /    A nd           | Version:  6
     \\/     M anipulation  |
\*---------------------------------------------------------------------------*/
FoamFile
{
    version     2.0;
    format      ascii;
    class       volScalarField;
    location    "2600";
    object      alphat;
}
// * * * * * * * * * * * * * * * * * * * * * * * * * * * * * * * * * * * * * //

dimensions      [1 -1 -1 0 0 0 0];

internalField   nonuniform List<scalar> 
458
(
0.00113762
0.00123602
0.00125097
0.00130965
0.00136383
0.00141381
0.00146153
0.00150941
0.00155407
0.00158622
0.00160059
0.0015922
0.00155897
0.00150526
0.00144056
0.000512519
0.00065321
0.000725508
0.00071385
0.000689353
0.000652009
0.000612964
0.000577225
0.000545377
0.000517026
0.000491794
0.000469264
0.00044875
0.000429492
0.000410484
0.000390024
0.000369471
0.000331415
0.00158361
0.00367827
0.00345518
0.00402326
0.00454958
0.00508548
0.00559523
0.00602363
0.00636843
0.00667356
0.00689731
0.00697297
0.0067898
0.00610767
0.00433189
0.00149537
0.0011823
0.000874405
0.000581621
0.00119427
0.00159868
0.00186739
0.00194919
0.00158814
0.00139695
0.00125852
0.00115111
0.00106523
0.000993171
0.000926415
0.000861383
0.000795482
0.000737694
0.000690963
0.000760727
0.000405513
0.00196337
0.00507408
0.00422328
0.0055281
0.00615396
0.00661437
0.00696307
0.00723071
0.00746547
0.00772214
0.0079842
0.0082136
0.00835571
0.00834117
0.00805915
0.00723066
0.0059009
0.00130511
0.00118001
0.00164067
0.00205828
0.00239355
0.00245455
0.000898531
0.000798312
0.000715676
0.000648315
0.000593307
0.000548123
0.000510898
0.000480372
0.000456119
0.000494744
0.000570143
0.000832099
0.000454229
0.0023361
0.00669405
0.00422913
0.00593724
0.00667089
0.00695182
0.00706128
0.00712489
0.00722962
0.00743008
0.00770643
0.00802869
0.00834751
0.00860219
0.00874735
0.00861452
0.00797338
0.00616038
0.00157997
0.00199372
0.00257745
0.00308202
0.00341336
0.00331225
0.000975229
0.000891331
0.000835606
0.000796054
0.000764145
0.000733211
0.000703272
0.00067196
0.000635019
0.000599838
0.000596682
0.00088312
0.000501178
0.00272006
0.00880685
0.00486232
0.00563399
0.00668895
0.00697089
0.00694351
0.00682539
0.00684839
0.00703049
0.00731577
0.00768625
0.00807771
0.0083888
0.00855628
0.0085038
0.00816659
0.00744621
0.00602512
0.00554198
0.00531937
0.00515861
0.00499537
0.00474379
0.00404356
0.00374001
0.00360093
0.0035125
0.00341581
0.00327192
0.00299125
0.00259351
0.0021073
0.00158941
0.0011788
0.00103783
0.000763381
0.000583249
0.000615121
0.00064197
0.00312615
0.0111022
0.00715243
0.00567075
0.00620114
0.00667807
0.00687079
0.00667442
0.00671669
0.00688057
0.00715449
0.00753033
0.00793718
0.00826037
0.00839311
0.0082804
0.00795781
0.0075334
0.00706566
0.00672516
0.00639625
0.00603388
0.00566972
0.00533194
0.00502121
0.00483734
0.00472289
0.00462028
0.00449883
0.00433993
0.00410306
0.00372971
0.00321753
0.00258948
0.00197945
0.00149524
0.0011178
0.001057
0.00144725
0.000863223
0.00349511
0.0127477
0.0104085
0.00787689
0.00710202
0.00698971
0.00706544
0.00697095
0.00690327
0.00696593
0.00720922
0.00760274
0.00803831
0.0083684
0.00846484
0.00828293
0.00790403
0.00750696
0.00720417
0.00692319
0.0065261
0.00603154
0.00554671
0.00516074
0.00491377
0.00478805
0.00470836
0.00462452
0.00452034
0.00439677
0.0042583
0.00405793
0.00369749
0.00318849
0.00263383
0.0021148
0.00168064
0.00149619
0.0017278
0.00105065
0.00356212
0.0114478
0.0103108
0.00975496
0.00910123
0.0085162
0.00790661
0.00735955
0.0070714
0.00710997
0.00743317
0.00791907
0.00840031
0.00870615
0.00871422
0.00841663
0.00794215
0.00749217
0.00711742
0.00662587
0.0059884
0.00537459
0.00490318
0.00460214
0.00443675
0.0043448
0.00426872
0.00418275
0.0040891
0.00400462
0.00394963
0.0039303
0.00383894
0.00350626
0.00315872
0.00289118
0.00277831
0.0027335
0.0033144
0.00145553
0.00346113
0.00409824
0.00463222
0.00485611
0.00509557
0.00524961
0.00545989
0.00583196
0.00642111
0.00716442
0.00794537
0.00862782
0.00908167
0.00920485
0.00895105
0.00841501
0.00780643
0.00720476
0.00648555
0.00570059
0.0050182
0.00452902
0.00421785
0.00402598
0.00389632
0.00378491
0.00366308
0.00352046
0.00336175
0.00319733
0.00303225
0.0028619
0.00269403
0.00254194
0.00242545
0.00235884
0.00230622
0.00222379
0.00212274
0.00144084
0.00190048
0.0049456
0.0060337
0.00683084
0.00770595
0.00856353
0.00924471
0.00972019
0.0099902
0.0100413
0.00985188
0.00940291
0.0087066
0.00780998
0.00687434
0.00597473
0.00521151
0.00463826
0.00425553
0.00399861
0.00380882
0.0036456
0.00348533
0.00331593
0.00313295
0.00293851
0.00274229
0.00256204
0.00241878
0.00232795
0.00227863
0.00224921
0.00223239
0.0022112
0.00214881
0.00201247
0.00182205
0.00125631
0.0022999
0.00660039
0.00837234
0.00865594
0.00919974
0.0097384
0.0100085
0.00999847
0.0097592
0.00931729
0.00869738
0.00793665
0.0070796
0.00621041
0.00545934
0.00494802
0.00466335
0.0045063
0.00438869
0.00427432
0.00415597
0.00401524
0.0038409
0.00363156
0.00339549
0.00314842
0.00290927
0.00269503
0.00251619
0.00239566
0.00233113
0.00231179
0.0023195
0.002324
0.00230365
0.00226507
0.00242985
0.00129217
0.0019587
0.00211755
0.00222977
0.00241406
0.00240799
0.00237626
0.00231578
0.00220853
0.00207983
0.00195908
0.00184347
0.00171713
0.00158064
0.00144375
0.00131966
0.0012227
0.00115643
0.00111451
0.00108744
0.00106845
0.00105366
0.00104027
0.00102415
0.00100528
0.00098495
0.000965612
0.000950322
0.000942037
0.000943002
0.000954644
0.000978093
0.00100937
0.00104744
0.00109259
0.00114461
0.00120037
0.00125698
0.0012423
0.00115945
0.00108799
)
;

boundaryField
{
    floor
    {
        type            compressible::alphatWallFunction;
        Prt             0.85;
        value           nonuniform List<scalar> 
36
(
0.000203023
7.11955e-05
9.23417e-05
0.000102983
0.000101275
9.76775e-05
9.21626e-05
8.6355e-05
8.09991e-05
7.61918e-05
7.18829e-05
6.8023e-05
6.45553e-05
6.13796e-05
5.83816e-05
5.54054e-05
5.2182e-05
4.89219e-05
4.28217e-05
4.28211e-05
5.46239e-05
6.22298e-05
6.94621e-05
8.19076e-05
8.66807e-05
9.06801e-05
0.00020302
0.000210409
0.00016776
0.000124523
7.11946e-05
0.000124522
8.16703e-05
0.000184627
0.000167442
0.00022175
)
;
    }
    ceiling
    {
        type            compressible::alphatWallFunction;
        Prt             0.85;
        value           nonuniform List<scalar> 
43
(
0.00027167
0.000292317
0.000306805
0.00033055
0.000329809
0.000325771
0.000318037
0.000304257
0.000287624
0.000271919
0.000256786
0.000240125
0.000221968
0.00020358
0.000186739
0.000173455
0.000164306
0.000158488
0.000154719
0.000152067
0.000149999
0.000148124
0.000145861
0.000143207
0.000140343
0.000137612
0.000135447
0.000134273
0.000134411
0.000136061
0.000139377
0.000143786
0.000149132
0.000155441
0.000162675
0.000170386
0.000178172
0.000176158
0.000164732
0.000154804
0.000461836
0.000539473
0.000315596
)
;
    }
    sWall
    {
        type            compressible::alphatWallFunction;
        Prt             0.85;
        value           uniform 0.000270487;
    }
    nWall
    {
        type            compressible::alphatWallFunction;
        Prt             0.85;
        value           nonuniform List<scalar> 6(9.05064e-05 0.000122736 0.000149265 0.00017777 0.000182679 0.000154497);
    }
    sideWalls
    {
        type            empty;
    }
    glass1
    {
        type            compressible::alphatWallFunction;
        Prt             0.85;
        value           nonuniform List<scalar> 9(0.000157744 0.000217619 0.000267243 0.000315026 0.000363472 0.000413982 0.000459329 0.000467635 0.000455507);
    }
    glass2
    {
        type            compressible::alphatWallFunction;
        Prt             0.85;
        value           nonuniform List<scalar> 2(0.000203825 0.000201889);
    }
    sun
    {
        type            compressible::alphatWallFunction;
        Prt             0.85;
        value           nonuniform List<scalar> 
14
(
0.000161592
0.000175165
0.000177216
0.000185249
0.000192629
0.000199408
0.000205855
0.000212299
0.000218291
0.000222591
0.00022451
0.000223389
0.000218945
0.00021174
)
;
    }
    Table_master
    {
        type            compressible::alphatWallFunction;
        Prt             0.85;
        value           nonuniform List<scalar> 9(0.000128031 0.00011364 0.000101611 9.16813e-05 8.3479e-05 7.66713e-05 7.10102e-05 6.63291e-05 6.25833e-05);
    }
    Table_slave
    {
        type            compressible::alphatWallFunction;
        Prt             0.85;
        value           nonuniform List<scalar> 9(0.000138918 0.000127006 0.000119022 0.000113317 0.000108689 0.000104181 9.97952e-05 9.51843e-05 8.97105e-05);
    }
    inlet
    {
        type            fixedValue;
        value           uniform 1.94e-05;
    }
    outlet
    {
        type            zeroGradient;
    }
}


// ************************************************************************* //
