/*--------------------------------*- C++ -*----------------------------------*\
  =========                 |
  \\      /  F ield         | OpenFOAM: The Open Source CFD Toolbox
   \\    /   O peration     | Website:  https://openfoam.org
    \\  /    A nd           | Version:  6
     \\/     M anipulation  |
\*---------------------------------------------------------------------------*/
FoamFile
{
    version     2.0;
    format      ascii;
    class       volScalarField;
    location    "2800";
    object      k;
}
// * * * * * * * * * * * * * * * * * * * * * * * * * * * * * * * * * * * * * //

dimensions      [0 2 -2 0 0 0 0];

internalField   nonuniform List<scalar> 
458
(
0.00269702
0.00327115
0.00344908
0.00381493
0.00418113
0.0045581
0.00495675
0.00525892
0.00541345
0.00538469
0.0051604
0.00474388
0.00412634
0.00299336
0.00198788
0.000552135
0.000798674
0.00109459
0.0012325
0.00121142
0.00106475
0.000911232
0.00078349
0.000680504
0.000596958
0.000528523
0.000471795
0.000424224
0.000382954
0.000345411
0.00030865
0.000273486
0.000220059
0.00479673
0.00893931
0.00555781
0.00598042
0.00663764
0.0074123
0.00823179
0.00898453
0.00949753
0.00966008
0.00943572
0.00885078
0.0079649
0.00673748
0.005317
0.00354088
0.00247624
0.00157265
0.000538934
0.00131081
0.00183522
0.00210285
0.00213537
0.00181356
0.00146858
0.00119311
0.000983872
0.000823986
0.000700185
0.000602311
0.000521072
0.000451726
0.00040034
0.000368046
0.000460909
0.000297162
0.00696814
0.0157765
0.00683365
0.00673237
0.00738234
0.00829828
0.00932077
0.010204
0.0107663
0.0109605
0.0107723
0.0102225
0.00933626
0.00825757
0.00706646
0.00583081
0.00468812
0.00258571
0.00144006
0.00196261
0.00236818
0.00259757
0.00258607
0.0019781
0.00148071
0.00112769
0.000880103
0.000704368
0.000577318
0.000483923
0.000415792
0.00036857
0.000342556
0.000340649
0.000586707
0.000359984
0.00940496
0.0250519
0.00857555
0.00713255
0.00770346
0.00885594
0.0101267
0.0110266
0.0115149
0.0116748
0.0114888
0.010927
0.0100681
0.00901642
0.00789489
0.00684713
0.00581924
0.00437231
0.00355117
0.00323699
0.00329364
0.00341399
0.00342855
0.00324498
0.00251963
0.00205818
0.00175873
0.00154574
0.00137734
0.00123292
0.00110473
0.000980378
0.000849052
0.000629992
0.000485687
0.000740274
0.000443964
0.0122689
0.0372377
0.0126185
0.0081837
0.0085723
0.0103068
0.0116279
0.0122704
0.0125447
0.0125876
0.0123376
0.0117108
0.0107158
0.00948077
0.00821439
0.0070996
0.00616481
0.00541971
0.00521327
0.00498961
0.00481942
0.00463155
0.00434543
0.00393692
0.00345012
0.00307072
0.00280484
0.00259088
0.00238794
0.00216635
0.00191433
0.00163679
0.00134507
0.00103001
0.000763486
0.000748486
0.000665125
0.000633688
0.00069658
0.000726242
0.0157306
0.0501917
0.0220649
0.0123551
0.0121721
0.0139387
0.0142692
0.014197
0.0141035
0.0139723
0.0136028
0.0128046
0.0115435
0.009984
0.00842399
0.00713029
0.00625447
0.0058535
0.00585828
0.00587496
0.00572674
0.00538498
0.00489145
0.00431876
0.00379546
0.00343681
0.00319614
0.00299793
0.00280087
0.00258166
0.00231485
0.00201279
0.00169428
0.00137245
0.00109162
0.000907967
0.000796418
0.000950613
0.00226642
0.00130883
0.0190739
0.0580678
0.0366869
0.0246086
0.0219833
0.0195986
0.0178312
0.0167579
0.0162326
0.015905
0.0153498
0.0142648
0.0126032
0.0105987
0.0086863
0.00723194
0.00642879
0.00623802
0.00635109
0.00634672
0.00607174
0.00557075
0.00494755
0.00431556
0.00380212
0.00347406
0.00326972
0.00311519
0.00297454
0.00283054
0.00266417
0.00244436
0.00218833
0.00191545
0.00167832
0.00151013
0.00143335
0.00162863
0.00325891
0.00201595
0.0196312
0.0540022
0.0404011
0.0326263
0.0269559
0.0228627
0.0203877
0.0192194
0.0188102
0.0184874
0.0176566
0.0160379
0.0137012
0.0110325
0.00873568
0.00720558
0.006513
0.00638738
0.00639535
0.00621939
0.00577875
0.00517655
0.00453552
0.00396436
0.00354195
0.00327906
0.00312405
0.00303181
0.00298589
0.00298549
0.00303336
0.00311661
0.00316995
0.00319293
0.00331484
0.00371868
0.00458122
0.0055954
0.0110526
0.00368292
0.018532
0.0253879
0.0237721
0.021329
0.0200345
0.0200448
0.0208651
0.021951
0.0226338
0.0222195
0.0203867
0.0174158
0.0137949
0.0100882
0.00786627
0.00672413
0.00621508
0.00600446
0.00580875
0.00547282
0.00499131
0.00443001
0.00388726
0.00343551
0.0031097
0.00290065
0.00277675
0.00271634
0.0027134
0.00276864
0.00288144
0.00304606
0.00327188
0.00357496
0.0039911
0.00451607
0.00506026
0.00548432
0.00578693
0.0035049
0.00556883
0.0176675
0.0256489
0.0294514
0.0309515
0.030457
0.0277477
0.0230687
0.0176674
0.0132304
0.00995205
0.00775431
0.00649723
0.00582251
0.00544856
0.00517186
0.00485754
0.00446257
0.00402212
0.00359214
0.00321314
0.00290742
0.00267142
0.00248881
0.00234825
0.00225087
0.002206
0.00222491
0.00231714
0.00249073
0.00274532
0.00307472
0.0034668
0.00386832
0.00415522
0.00417227
0.00389732
0.00244463
0.00847377
0.0285773
0.0299846
0.0276875
0.0250745
0.0218635
0.0182234
0.0144523
0.0110727
0.0085315
0.00683116
0.00579189
0.00520059
0.00486851
0.00466638
0.00450708
0.00434002
0.00415109
0.00395197
0.00375853
0.00357638
0.00340068
0.00322278
0.00303843
0.00285384
0.00268497
0.00255274
0.00247687
0.00247241
0.00255174
0.00272274
0.00298738
0.00332665
0.00367596
0.00396559
0.0041333
0.00417887
0.00256141
0.00630537
0.00740491
0.00825994
0.00979655
0.00911782
0.00864597
0.00804398
0.0071284
0.0060484
0.00495898
0.00400602
0.00329815
0.00282799
0.00252762
0.00233051
0.00218926
0.00207218
0.00195975
0.00184479
0.00173073
0.00162499
0.00153227
0.00145336
0.00138726
0.00133319
0.00129367
0.001273
0.00127576
0.00130533
0.0013635
0.00145103
0.00156763
0.00171524
0.00189671
0.00211304
0.00235221
0.00259063
0.00249453
0.0021386
0.00184542
)
;

boundaryField
{
    floor
    {
        type            kqRWallFunction;
        value           nonuniform List<scalar> 
36
(
0.00198788
0.000552135
0.000798674
0.00109459
0.0012325
0.00121142
0.00106475
0.000911232
0.00078349
0.000680504
0.000596958
0.000528523
0.000471795
0.000424224
0.000382954
0.000345411
0.00030865
0.000273486
0.000220059
0.000220059
0.000297162
0.000359984
0.000443964
0.000633688
0.00069658
0.000726242
0.00198788
0.00354088
0.00247624
0.00157265
0.000552135
0.00157265
0.000538934
0.00258571
0.00144006
0.00355117
)
;
    }
    ceiling
    {
        type            kqRWallFunction;
        value           nonuniform List<scalar> 
43
(
0.00630537
0.00740491
0.00825994
0.00979655
0.00911782
0.00864597
0.00804398
0.0071284
0.0060484
0.00495898
0.00400602
0.00329815
0.00282799
0.00252762
0.00233051
0.00218926
0.00207218
0.00195975
0.00184479
0.00173073
0.00162499
0.00153227
0.00145336
0.00138726
0.00133319
0.00129367
0.001273
0.00127576
0.00130533
0.0013635
0.00145103
0.00156763
0.00171524
0.00189671
0.00211304
0.00235221
0.00259063
0.00249453
0.0021386
0.00184542
0.018532
0.0253879
0.00847377
)
;
    }
    sWall
    {
        type            kqRWallFunction;
        value           uniform 0.00630537;
    }
    nWall
    {
        type            kqRWallFunction;
        value           nonuniform List<scalar> 6(0.000726242 0.00130883 0.00201595 0.00244463 0.00256141 0.00184542);
    }
    sideWalls
    {
        type            empty;
    }
    glass1
    {
        type            kqRWallFunction;
        value           nonuniform List<scalar> 9(0.00269702 0.00479673 0.00696814 0.00940496 0.0122689 0.0157306 0.0190739 0.0196312 0.018532);
    }
    glass2
    {
        type            kqRWallFunction;
        value           nonuniform List<scalar> 2(0.00368292 0.0035049);
    }
    sun
    {
        type            kqRWallFunction;
        value           nonuniform List<scalar> 
14
(
0.00269702
0.00327115
0.00344908
0.00381493
0.00418113
0.0045581
0.00495675
0.00525892
0.00541345
0.00538469
0.0051604
0.00474388
0.00412634
0.00299336
)
;
    }
    Table_master
    {
        type            kqRWallFunction;
        value           nonuniform List<scalar> 9(0.0019781 0.00148071 0.00112769 0.000880103 0.000704368 0.000577318 0.000483923 0.000415792 0.00036857);
    }
    Table_slave
    {
        type            kqRWallFunction;
        value           nonuniform List<scalar> 9(0.00251963 0.00205818 0.00175873 0.00154574 0.00137734 0.00123292 0.00110473 0.000980378 0.000849052);
    }
    inlet
    {
        type            turbulentIntensityKineticEnergyInlet;
        intensity       0.05;
        value           uniform 0.0003375;
    }
    outlet
    {
        type            zeroGradient;
    }
}


// ************************************************************************* //
