/*--------------------------------*- C++ -*----------------------------------*\
  =========                 |
  \\      /  F ield         | OpenFOAM: The Open Source CFD Toolbox
   \\    /   O peration     | Website:  https://openfoam.org
    \\  /    A nd           | Version:  6
     \\/     M anipulation  |
\*---------------------------------------------------------------------------*/
FoamFile
{
    version     2.0;
    format      ascii;
    class       volScalarField;
    location    "2800";
    object      nut;
}
// * * * * * * * * * * * * * * * * * * * * * * * * * * * * * * * * * * * * * //

dimensions      [0 2 -1 0 0 0 0];

internalField   nonuniform List<scalar> 
458
(
0.00116624
0.00128438
0.00131885
0.00138703
0.00145208
0.00151613
0.00158104
0.00162851
0.00165227
0.00164787
0.00161319
0.00154671
0.00144253
0.00122863
0.00100123
0.000527675
0.000634643
0.000742968
0.000788381
0.000781611
0.000732771
0.000677889
0.000628581
0.000585814
0.000548677
0.00051627
0.000487778
0.000462534
0.000439459
0.000417363
0.000394529
0.000371376
0.000333132
0.00155531
0.0040117
0.00394976
0.00462159
0.00529473
0.00591069
0.00635698
0.0067532
0.00707378
0.00729236
0.00738876
0.00734247
0.00712738
0.00660984
0.00505325
0.00133628
0.00111747
0.000890548
0.00052133
0.00140969
0.00216935
0.00273316
0.00285854
0.00199051
0.00165581
0.00143682
0.00127812
0.00115787
0.00106348
0.000985877
0.000910914
0.000832203
0.000757662
0.000693647
0.000735063
0.00038712
0.00187458
0.00547478
0.00496208
0.00599852
0.00654155
0.00695063
0.00725969
0.00758005
0.00790433
0.00820739
0.00845752
0.00860593
0.00860354
0.00834672
0.00767352
0.00620778
0.00457141
0.0011419
0.000852188
0.00165555
0.00257687
0.00339529
0.00349885
0.000998774
0.000864127
0.000754117
0.000666209
0.000595997
0.000539576
0.000494007
0.000457914
0.000431128
0.000484439
0.000568444
0.000825042
0.000426081
0.00217783
0.00686396
0.00508541
0.00629126
0.00663857
0.00681002
0.00698997
0.00724746
0.00756744
0.0079286
0.00828883
0.00856035
0.00868249
0.00863711
0.00838347
0.00782357
0.00659574
0.00362591
0.00133821
0.0017881
0.00269501
0.00379084
0.0046718
0.00458114
0.00112722
0.00101879
0.000941764
0.0008829
0.000833421
0.000788516
0.000746402
0.000703139
0.000654353
0.00061038
0.00059841
0.000897661
0.000473179
0.00248741
0.00862729
0.00565959
0.00629093
0.00663526
0.00664356
0.00674871
0.00694869
0.00725694
0.0076485
0.00804925
0.00836144
0.00851887
0.0085139
0.00838153
0.00813329
0.00758695
0.00642571
0.00579806
0.00596615
0.00637699
0.0067858
0.00699379
0.00677124
0.00553094
0.00488479
0.00450418
0.00423377
0.00398776
0.00368317
0.00327547
0.00277213
0.0022018
0.00164694
0.00122089
0.00107294
0.000765084
0.000565315
0.000592705
0.00060519
0.00281656
0.0105786
0.00768192
0.00679621
0.00703489
0.00687248
0.00682474
0.00690034
0.0071652
0.00758033
0.00802633
0.00836397
0.00850499
0.00845707
0.00831512
0.00819734
0.00814229
0.00808797
0.00829003
0.00858771
0.00876786
0.00875128
0.00852073
0.00807175
0.00739768
0.00681521
0.00634969
0.00594872
0.00556903
0.00517415
0.00469666
0.00412749
0.00346444
0.00274759
0.00210026
0.00159017
0.00118234
0.00114357
0.00154744
0.000812441
0.00310146
0.0118712
0.01038
0.0086942
0.00801921
0.00736361
0.00699357
0.00697222
0.00726919
0.00776491
0.00827632
0.0086269
0.00872448
0.00861512
0.00847308
0.00852222
0.00887369
0.00934437
0.00978614
0.00999927
0.00991855
0.00958204
0.00905518
0.0084067
0.00771211
0.00708279
0.00653905
0.00605746
0.00561669
0.00520938
0.00483472
0.00445791
0.00398537
0.00340998
0.00282345
0.00228305
0.00183664
0.00166376
0.00188668
0.00100831
0.00314644
0.0101066
0.00932386
0.00826484
0.00739729
0.00683599
0.00669765
0.00697976
0.00757155
0.00827333
0.00885369
0.00914666
0.00912033
0.00893237
0.00887729
0.00921987
0.00977191
0.0101752
0.0103741
0.0102972
0.00991971
0.00930806
0.0085456
0.00771999
0.00692518
0.00623619
0.00566065
0.00517484
0.00476549
0.00443588
0.00419728
0.00405496
0.00394034
0.00362493
0.00331142
0.0030783
0.00299347
0.0029508
0.00345349
0.00136285
0.00305708
0.00357816
0.00385078
0.00400931
0.00442691
0.00519762
0.00624966
0.00744699
0.00858324
0.00942498
0.00980202
0.00972146
0.00937454
0.00927799
0.00943191
0.00968029
0.00987153
0.00990826
0.0097518
0.00936376
0.00874966
0.00795251
0.00707023
0.00620454
0.00544506
0.00482534
0.00432429
0.003912
0.00357195
0.00329441
0.00306632
0.00286894
0.002703
0.00256901
0.00246012
0.00237993
0.00229478
0.00217507
0.00204804
0.0013295
0.00122398
0.00458518
0.0077465
0.00962978
0.0107451
0.0112892
0.0113193
0.0109662
0.010353
0.00961169
0.00904716
0.00886539
0.00885793
0.00879034
0.00861251
0.00830983
0.00785057
0.00722866
0.00649894
0.00574576
0.00503533
0.00442144
0.00392664
0.00352675
0.00319269
0.00290996
0.00267704
0.00249693
0.00237143
0.00230051
0.00226488
0.00224513
0.00222678
0.00218802
0.00209396
0.00192082
0.00169335
0.00111033
0.00206722
0.00831737
0.010033
0.0105122
0.0104818
0.0100921
0.00944145
0.00871097
0.00802691
0.00744727
0.00702951
0.00673707
0.00647248
0.00620472
0.00592486
0.0056055
0.00522838
0.00481265
0.0044051
0.00404496
0.00374438
0.00349297
0.00326882
0.00305799
0.00285631
0.00266872
0.00250507
0.00237523
0.00228504
0.00223462
0.00222082
0.00223515
0.00225964
0.00226358
0.00223011
0.00216129
0.00218774
0.00113654
0.0017832
0.00193244
0.00204096
0.0022227
0.00214432
0.00208809
0.00201409
0.001896
0.00174647
0.00158138
0.00142133
0.00128965
0.0011942
0.001129
0.00108408
0.00105071
0.00102223
0.000994107
0.000964505
0.000934212
0.00090522
0.000879016
0.00085608
0.000836386
0.000819928
0.000807686
0.000801212
0.000802084
0.000811331
0.000829215
0.000855421
0.000889132
0.000930056
0.000978022
0.00103229
0.00108915
0.00114302
0.00112162
0.00103852
0.000964706
)
;

boundaryField
{
    floor
    {
        type            nutkWallFunction;
        Cmu             0.09;
        kappa           0.41;
        E               9.8;
        value           nonuniform List<scalar> 
36
(
0.000120872
6.3232e-05
7.66583e-05
8.99778e-05
9.54913e-05
9.46718e-05
8.87344e-05
8.2006e-05
7.5905e-05
7.05665e-05
6.58921e-05
6.17813e-05
5.81406e-05
5.48928e-05
5.19047e-05
4.90246e-05
4.60281e-05
4.29668e-05
3.78552e-05
3.78551e-05
4.50499e-05
5.01616e-05
5.62629e-05
6.79882e-05
7.1427e-05
7.2988e-05
0.000120872
0.000159621
0.000134461
0.000107762
6.3232e-05
0.000107762
6.24253e-05
0.000137297
0.000103174
0.000159843
)
;
    }
    ceiling
    {
        type            nutkWallFunction;
        Cmu             0.09;
        kappa           0.41;
        E               9.8;
        value           nonuniform List<scalar> 
43
(
0.000209572
0.000225946
0.00023777
0.000257524
0.000249095
0.000243018
0.000234984
0.000222089
0.000205632
0.00018728
0.000169285
0.000154312
0.00014335
0.000135807
0.000130581
0.000126684
0.000123345
0.000120039
0.000116547
0.00011296
0.000109515
0.00010639
0.000103646
0.000101283
9.93026e-05
9.78266e-05
9.70447e-05
9.71495e-05
9.82647e-05
0.000100418
0.000103564
0.000107594
0.000112463
0.000118139
0.000124522
0.000131169
0.00013743
0.000134947
0.000125252
0.000116567
0.000346085
0.000399968
0.000240396
)
;
    }
    sWall
    {
        type            nutkWallFunction;
        Cmu             0.09;
        kappa           0.41;
        E               9.8;
        value           uniform 0.000209628;
    }
    nWall
    {
        type            nutkWallFunction;
        Cmu             0.09;
        kappa           0.41;
        E               9.8;
        value           nonuniform List<scalar> 6(7.29833e-05 9.83962e-05 0.000121709 0.000133645 0.00013669 0.000116572);
    }
    sideWalls
    {
        type            empty;
    }
    glass1
    {
        type            nutkWallFunction;
        Cmu             0.09;
        kappa           0.41;
        E               9.8;
        value           nonuniform List<scalar> 9(0.000140243 0.000184591 0.000220048 0.00025312 0.000286377 0.000321261 0.000351114 0.000355811 0.000346511);
    }
    glass2
    {
        type            nutkWallFunction;
        Cmu             0.09;
        kappa           0.41;
        E               9.8;
        value           nonuniform List<scalar> 2(0.000162707 0.00015891);
    }
    sun
    {
        type            nutkWallFunction;
        Cmu             0.09;
        kappa           0.41;
        E               9.8;
        value           nonuniform List<scalar> 
14
(
0.000140116
0.000153698
0.000157635
0.000165389
0.000172746
0.000179956
0.000187228
0.000192526
0.000195171
0.000194681
0.000190817
0.000183386
0.000171668
0.000147305
)
;
    }
    Table_master
    {
        type            nutkWallFunction;
        Cmu             0.09;
        kappa           0.41;
        E               9.8;
        value           nonuniform List<scalar> 9(0.000120581 0.000104605 9.13353e-05 8.05672e-05 7.18442e-05 6.47441e-05 5.89432e-05 5.43013e-05 5.08268e-05);
    }
    Table_slave
    {
        type            nutkWallFunction;
        Cmu             0.09;
        kappa           0.41;
        E               9.8;
        value           nonuniform List<scalar> 9(0.000135594 0.000122935 0.00011385 0.000106849 0.000100922 9.55074e-05 9.03961e-05 8.51095e-05 7.91011e-05);
    }
    inlet
    {
        type            calculated;
        value           uniform 0.000100623;
    }
    outlet
    {
        type            calculated;
        value           nonuniform List<scalar> 2(0.0017832 0.00193244);
    }
}


// ************************************************************************* //
