/*--------------------------------*- C++ -*----------------------------------*\
  =========                 |
  \\      /  F ield         | OpenFOAM: The Open Source CFD Toolbox
   \\    /   O peration     | Website:  https://openfoam.org
    \\  /    A nd           | Version:  6
     \\/     M anipulation  |
\*---------------------------------------------------------------------------*/
FoamFile
{
    version     2.0;
    format      ascii;
    class       volScalarField;
    location    "1700";
    object      epsilon;
}
// * * * * * * * * * * * * * * * * * * * * * * * * * * * * * * * * * * * * * //

dimensions      [0 2 -3 0 0 0 0];

internalField   nonuniform List<scalar> 
458
(
0.000153843
0.000179725
0.000173783
0.000193181
0.000211292
0.000227823
0.000243116
0.000257699
0.000272292
0.000286935
0.000297748
0.000303358
0.000303892
0.000302204
0.000300139
5.66204e-05
4.85769e-05
4.33202e-05
3.95928e-05
3.62757e-05
3.2553e-05
2.90357e-05
2.59848e-05
2.33774e-05
2.11211e-05
1.91462e-05
1.73939e-05
1.5808e-05
1.43263e-05
1.2879e-05
1.13592e-05
1.00044e-05
7.58721e-06
0.000521477
0.00103974
0.000169985
0.000149971
0.000149269
0.000150766
0.000154001
0.000160147
0.000170547
0.00018565
0.000201058
0.000213877
0.000222347
0.000230728
0.000257086
0.000327616
0.000250597
0.000199118
0.000103605
5.87625e-05
4.21687e-05
3.34669e-05
2.80404e-05
2.59086e-05
2.24353e-05
1.94661e-05
1.70018e-05
1.48923e-05
1.30714e-05
1.14867e-05
1.00985e-05
8.95628e-06
8.46015e-06
8.6563e-06
1.79362e-05
1.34222e-05
0.00114356
0.00321535
0.000269185
0.000153215
0.000149183
0.000155233
0.000165005
0.000179025
0.000197717
0.000220467
0.000242759
0.000258346
0.00026288
0.000259317
0.000257097
0.000252755
0.000230641
0.000347675
0.000158334
6.60595e-05
4.28007e-05
3.27916e-05
2.88978e-05
5.94603e-05
4.31251e-05
3.23908e-05
2.52872e-05
2.04611e-05
1.70769e-05
1.46465e-05
1.29106e-05
1.17932e-05
9.56566e-06
8.87614e-06
2.94249e-05
1.92914e-05
0.00215901
0.00744096
0.000561943
0.000169641
0.000153764
0.000164256
0.000179575
0.00019985
0.000226658
0.000260449
0.000293639
0.000313927
0.000315265
0.000300888
0.000277566
0.000246627
0.000210195
0.000213014
0.000264734
0.000118735
5.97483e-05
3.88755e-05
2.99642e-05
2.75127e-05
6.34097e-05
5.44172e-05
5.1064e-05
4.94553e-05
4.76377e-05
4.44864e-05
4.0456e-05
3.62603e-05
3.1345e-05
2.01492e-05
1.38254e-05
4.36159e-05
2.62666e-05
0.00370615
0.0139136
0.00136918
0.000225488
0.000161246
0.000169213
0.000187785
0.000215604
0.000257411
0.00031654
0.000370229
0.000396534
0.000391522
0.000362843
0.000320079
0.000270223
0.000221795
0.000185516
0.000146063
8.6936e-05
5.45728e-05
3.76299e-05
3.05196e-05
2.84702e-05
3.09098e-05
3.32798e-05
3.55208e-05
3.68987e-05
3.67335e-05
3.45778e-05
3.10621e-05
2.79755e-05
2.54425e-05
2.13316e-05
1.68307e-05
3.23922e-05
4.22889e-05
6.49354e-05
9.57919e-05
0.000122978
0.0059639
0.0208629
0.00362596
0.000535895
0.000244248
0.000207051
0.000212204
0.000239714
0.000301107
0.000412988
0.0004904
0.00051386
0.000492724
0.00044254
0.000377514
0.000309837
0.000250951
0.000198954
0.000141138
8.96106e-05
5.65818e-05
4.04537e-05
3.52489e-05
3.50556e-05
3.78798e-05
4.2214e-05
4.66558e-05
5.0153e-05
5.15993e-05
4.96894e-05
4.32476e-05
3.55691e-05
2.89707e-05
2.35717e-05
1.99735e-05
2.55912e-05
3.65206e-05
5.13298e-05
0.000139805
0.000130763
0.00891834
0.0249446
0.0088591
0.00250218
0.0011062
0.000616687
0.000454751
0.000421541
0.000501273
0.000637351
0.000693161
0.000679473
0.000621172
0.00053795
0.000445669
0.000359996
0.000289351
0.000227434
0.000161028
0.00010035
6.26264e-05
4.79938e-05
4.48855e-05
4.59373e-05
4.93376e-05
5.45182e-05
6.08688e-05
6.74329e-05
7.28941e-05
7.54213e-05
7.22854e-05
5.97845e-05
4.80856e-05
3.90818e-05
3.48147e-05
3.80012e-05
5.08966e-05
7.95066e-05
0.000168465
0.000170294
0.00973511
0.0294512
0.0158993
0.0105387
0.00619352
0.00347477
0.00213064
0.0015193
0.00129037
0.00116564
0.00104641
0.000917196
0.000780748
0.0006433
0.000514064
0.000407706
0.000328083
0.000260325
0.000184503
0.000111896
7.39612e-05
6.26028e-05
6.04115e-05
6.14347e-05
6.44727e-05
6.9541e-05
7.67403e-05
8.6112e-05
9.75222e-05
0.000110491
0.000123681
0.00013202
0.000129138
0.000134239
0.000155598
0.000221967
0.000384803
0.000697141
0.00241691
0.000763368
0.00911762
0.0157963
0.0144209
0.0110167
0.0081786
0.00585267
0.00417326
0.00307196
0.00234596
0.00183247
0.00145635
0.00116477
0.000926467
0.00072452
0.000556835
0.000437889
0.000361205
0.00029407
0.000205136
0.000125669
9.61098e-05
8.75431e-05
8.5025e-05
8.4217e-05
8.46631e-05
8.70407e-05
9.22914e-05
0.000101432
0.000115503
0.000135627
0.000163235
0.000200227
0.000249234
0.000321762
0.000434723
0.000594965
0.000789372
0.000976405
0.00112479
0.0006961
0.00714479
0.0142565
0.00880979
0.00620961
0.00455568
0.00342701
0.00263086
0.00203628
0.00157882
0.00122503
0.000945155
0.000716968
0.000539605
0.000444474
0.000401137
0.000342989
0.000231039
0.000168537
0.000148288
0.000141662
0.000137035
0.000131252
0.000124394
0.000117752
0.00011304
0.000112044
0.000116513
0.000128251
0.0001494
0.000182871
0.000230706
0.000297473
0.000388328
0.000499257
0.00060655
0.000671149
0.000680083
0.000465581
0.00528695
0.0109102
0.00714159
0.00523104
0.00394454
0.00302627
0.00231563
0.00177642
0.00136455
0.00105084
0.000806051
0.00060576
0.000467478
0.000497973
0.000562784
0.00053748
0.00043229
0.000372484
0.000347606
0.000335556
0.000324063
0.000308067
0.00028683
0.000262188
0.000237283
0.000215464
0.000199557
0.000191735
0.000193851
0.000207944
0.000238872
0.000288823
0.000358208
0.000440701
0.000514893
0.000606819
0.000668285
0.00050165
0.00259151
0.00335962
0.00410457
0.00506248
0.00432698
0.00374524
0.00282262
0.00215253
0.00160588
0.00116081
0.000867915
0.000651847
0.000476119
0.000323838
0.000195633
0.000188926
0.000221072
0.000226344
0.000204746
0.000185135
0.000172
0.000162116
0.000153111
0.000144505
0.000137001
0.0001317
0.000129586
0.00013135
0.000137482
0.000148567
0.00016577
0.000190772
0.00022181
0.00026067
0.000309161
0.000370645
0.000410126
0.000390838
0.000329679
0.000280129
)
;

boundaryField
{
    floor
    {
        Cmu             0.09;
        kappa           0.41;
        E               9.8;
        type            epsilonWallFunction;
        value           nonuniform List<scalar> 
36
(
0.000300139
5.66204e-05
4.85769e-05
4.33202e-05
3.95928e-05
3.62757e-05
3.2553e-05
2.90357e-05
2.59848e-05
2.33774e-05
2.11211e-05
1.91462e-05
1.73939e-05
1.5808e-05
1.43263e-05
1.2879e-05
1.13592e-05
1.00044e-05
7.58721e-06
7.58721e-06
1.34222e-05
1.92914e-05
2.62666e-05
6.49354e-05
9.57919e-05
0.000122978
0.000300139
0.000327616
0.000250597
0.000199118
5.66204e-05
0.000199118
0.000103605
0.000347675
0.000158334
0.000264734
)
;
    }
    ceiling
    {
        Cmu             0.09;
        kappa           0.41;
        E               9.8;
        type            epsilonWallFunction;
        value           nonuniform List<scalar> 
43
(
0.00259151
0.00335962
0.00410457
0.00506248
0.00432698
0.00374524
0.00282262
0.00215253
0.00160588
0.00116081
0.000867915
0.000651847
0.000476119
0.000323838
0.000195633
0.000188926
0.000221072
0.000226344
0.000204746
0.000185135
0.000172
0.000162116
0.000153111
0.000144505
0.000137001
0.0001317
0.000129586
0.00013135
0.000137482
0.000148567
0.00016577
0.000190772
0.00022181
0.00026067
0.000309161
0.000370645
0.000410126
0.000390838
0.000329679
0.000280129
0.00911762
0.0157963
0.00528695
)
;
    }
    sWall
    {
        Cmu             0.09;
        kappa           0.41;
        E               9.8;
        type            epsilonWallFunction;
        value           uniform 0.00259151;
    }
    nWall
    {
        Cmu             0.09;
        kappa           0.41;
        E               9.8;
        type            epsilonWallFunction;
        value           nonuniform List<scalar> 6(0.000122978 0.000130763 0.000170294 0.000465581 0.00050165 0.000280129);
    }
    sideWalls
    {
        type            empty;
    }
    glass1
    {
        Cmu             0.09;
        kappa           0.41;
        E               9.8;
        type            epsilonWallFunction;
        value           nonuniform List<scalar> 9(0.000153843 0.000521477 0.00114356 0.00215901 0.00370615 0.0059639 0.00891834 0.00973511 0.00911762);
    }
    glass2
    {
        Cmu             0.09;
        kappa           0.41;
        E               9.8;
        type            epsilonWallFunction;
        value           nonuniform List<scalar> 2(0.000763368 0.0006961);
    }
    sun
    {
        Cmu             0.09;
        kappa           0.41;
        E               9.8;
        type            epsilonWallFunction;
        value           nonuniform List<scalar> 
14
(
0.000153843
0.000179725
0.000173783
0.000193181
0.000211292
0.000227823
0.000243116
0.000257699
0.000272292
0.000286935
0.000297748
0.000303358
0.000303892
0.000302204
)
;
    }
    Table_master
    {
        Cmu             0.09;
        kappa           0.41;
        E               9.8;
        type            epsilonWallFunction;
        value           nonuniform List<scalar> 9(5.94603e-05 4.31251e-05 3.23908e-05 2.52872e-05 2.04611e-05 1.70769e-05 1.46465e-05 1.29106e-05 1.17932e-05);
    }
    Table_slave
    {
        Cmu             0.09;
        kappa           0.41;
        E               9.8;
        type            epsilonWallFunction;
        value           nonuniform List<scalar> 9(6.34097e-05 5.44172e-05 5.1064e-05 4.94553e-05 4.76377e-05 4.44864e-05 4.0456e-05 3.62603e-05 3.1345e-05);
    }
    inlet
    {
        type            turbulentMixingLengthDissipationRateInlet;
        mixingLength    0.01;
        phi             phi;
        k               k;
        value           uniform 0.000101881;
    }
    outlet
    {
        type            zeroGradient;
    }
}


// ************************************************************************* //
