/*--------------------------------*- C++ -*----------------------------------*\
  =========                 |
  \\      /  F ield         | OpenFOAM: The Open Source CFD Toolbox
   \\    /   O peration     | Website:  https://openfoam.org
    \\  /    A nd           | Version:  6
     \\/     M anipulation  |
\*---------------------------------------------------------------------------*/
FoamFile
{
    version     2.0;
    format      ascii;
    class       volScalarField;
    location    "2100";
    object      alphat;
}
// * * * * * * * * * * * * * * * * * * * * * * * * * * * * * * * * * * * * * //

dimensions      [1 -1 -1 0 0 0 0];

internalField   nonuniform List<scalar> 
458
(
0.000782385
0.000798526
0.000690918
0.000704196
0.000723772
0.000743197
0.000762445
0.000782135
0.000803324
0.000823331
0.000841396
0.000857207
0.000871199
0.000884675
0.000895616
0.00032405
0.000356575
0.000368866
0.000322466
0.000273272
0.000220096
0.000225604
0.000245084
0.000269169
0.000291506
0.000304611
0.000304538
0.000303616
0.000309887
0.00032784
0.000361567
0.000345223
0.000310874
0.00140262
0.00266322
0.00184762
0.0027499
0.00305686
0.00323823
0.00338677
0.00349835
0.00355793
0.00358225
0.00354636
0.00341752
0.00314083
0.00262218
0.00178756
0.000985818
0.000934362
0.00064449
0.000468652
0.000902639
0.00100739
0.00092193
0.00061224
0.000381238
0.000449394
0.000611937
0.000784974
0.000925517
0.00100671
0.00102645
0.00104967
0.00115086
0.00142529
0.00122544
0.00092468
0.000399064
0.00197411
0.0049074
0.00224232
0.00354071
0.00460237
0.0049856
0.00520902
0.00536049
0.00544839
0.00549061
0.00548188
0.00539707
0.00518932
0.00477986
0.00409228
0.00316821
0.00208225
0.00101469
0.000738763
0.00190288
0.00159202
0.00115556
0.000714575
0.000309918
0.000325425
0.000355731
0.000387154
0.00042081
0.000459906
0.000510243
0.000582691
0.000701535
0.00230934
0.0024824
0.00215327
0.000666402
0.00251925
0.00778643
0.00362536
0.00359947
0.00496046
0.00564173
0.00602591
0.00628455
0.00645411
0.00656896
0.00666318
0.00672442
0.00671226
0.00654333
0.0060869
0.00520797
0.00383192
0.00217082
0.00106012
0.0026133
0.00261409
0.00205184
0.00151012
0.00107984
0.000748484
0.000748154
0.000751239
0.000758085
0.000770742
0.000791706
0.000824256
0.000874099
0.000957836
0.00305648
0.00330094
0.00283817
0.000917667
0.00302005
0.0108675
0.00642092
0.00472658
0.00501928
0.00554925
0.00602956
0.00642111
0.00670651
0.00691527
0.00713785
0.00739165
0.00766195
0.00789778
0.00801458
0.00793753
0.00763192
0.00710055
0.00644929
0.00616531
0.00563497
0.00517063
0.00482494
0.00453237
0.0042947
0.00414963
0.00401301
0.00387929
0.003758
0.00366747
0.00362819
0.00365286
0.00374298
0.00392364
0.00388614
0.00373355
0.00311621
0.00132443
0.00115982
0.00100967
0.0034728
0.0135102
0.0102253
0.00759814
0.00642304
0.00598234
0.00601074
0.00624091
0.00650597
0.00671451
0.00696816
0.00731524
0.00776586
0.00827938
0.00875747
0.00910162
0.00924564
0.00913243
0.00875847
0.00824634
0.00769845
0.00722248
0.00684767
0.00655271
0.00630692
0.0060832
0.00585636
0.00560879
0.00533311
0.00504283
0.00477387
0.00456078
0.00440294
0.00426423
0.00410525
0.00391044
0.00360137
0.00297354
0.00219162
0.00105515
0.00382576
0.0146275
0.0128356
0.0105731
0.00890185
0.00765435
0.00692764
0.00657694
0.00645118
0.00645962
0.00654617
0.00677655
0.0071955
0.00781468
0.00851836
0.00914288
0.00957754
0.00973478
0.00959365
0.00923367
0.00878043
0.00833828
0.00795825
0.00764869
0.0073972
0.00718667
0.00699879
0.00680506
0.00656468
0.0062415
0.00584128
0.00542276
0.00503529
0.00467759
0.00431861
0.00391819
0.00341857
0.00279349
0.00211929
0.0010555
0.00380908
0.0121106
0.0112341
0.0112962
0.0103606
0.00912516
0.00808676
0.00731199
0.00677184
0.00642748
0.00625372
0.0062596
0.00646594
0.00691047
0.00757019
0.0083167
0.00897217
0.00938719
0.00950218
0.00935884
0.00906605
0.00872306
0.00839334
0.00810736
0.00787532
0.00770074
0.00758606
0.00752491
0.00748719
0.00740581
0.00719958
0.00685265
0.00640154
0.00588368
0.00530918
0.00469001
0.00404642
0.00342746
0.00295136
0.00159272
0.00362087
0.00413252
0.0116087
0.0123945
0.0111035
0.00968914
0.00849228
0.00756737
0.0068901
0.00641904
0.00611936
0.00597773
0.00600684
0.00623232
0.00665781
0.0072304
0.00783156
0.00831781
0.00859879
0.00866737
0.00857833
0.00840084
0.00819129
0.00798647
0.00780789
0.00767037
0.00758898
0.00758041
0.00765735
0.00780931
0.00797104
0.00808086
0.00811133
0.00809245
0.00809523
0.00802061
0.00755042
0.00646597
0.00599266
0.00182596
0.0254302
0.0218433
0.013056
0.0102972
0.00885654
0.00788503
0.00719648
0.00671806
0.00640951
0.00624298
0.00619523
0.00624549
0.00638088
0.00659283
0.00686099
0.00713454
0.00736964
0.00753236
0.00761292
0.00762269
0.00758303
0.00751604
0.00744035
0.00737112
0.00732252
0.0073101
0.00735129
0.00745581
0.00761499
0.0078313
0.00807368
0.00828629
0.00839904
0.00826173
0.00775653
0.00687186
0.0056444
0.00184257
0.00813493
0.0150578
0.010433
0.00866694
0.00773967
0.00712187
0.00669463
0.00641608
0.00626211
0.00620798
0.00622609
0.00629151
0.0063872
0.00650374
0.00663561
0.00677546
0.00691084
0.00702729
0.00711493
0.00717123
0.00719978
0.00720694
0.00719909
0.00718112
0.00715618
0.00712622
0.00709323
0.00706101
0.0070365
0.00703123
0.0070596
0.00711971
0.00712747
0.00693106
0.00648819
0.00573222
0.00505693
0.00184748
0.00223613
0.00353925
0.00576289
0.00449905
0.00329293
0.00258179
0.00230339
0.00211226
0.00195931
0.00183726
0.00174287
0.00167303
0.00162431
0.00159295
0.00157511
0.00156729
0.00156645
0.00157024
0.00157611
0.00158197
0.00158631
0.00158834
0.00158801
0.00158573
0.00158212
0.00157779
0.00157321
0.00156864
0.0015642
0.00156
0.001556
0.00155093
0.00154278
0.00152828
0.00150722
0.00148666
0.00145756
0.00140991
0.00140128
0.00132689
)
;

boundaryField
{
    floor
    {
        type            compressible::alphatWallFunction;
        Prt             0.85;
        value           nonuniform List<scalar> 
36
(
0.000127601
4.16161e-05
4.68511e-05
4.88135e-05
4.13614e-05
3.33028e-05
2.4365e-05
2.53018e-05
2.85944e-05
3.26173e-05
3.63056e-05
3.84519e-05
3.84397e-05
3.829e-05
3.93136e-05
4.22283e-05
4.76497e-05
4.5033e-05
3.94783e-05
3.94778e-05
5.35977e-05
9.43253e-05
0.000130741
0.000187339
0.000164723
0.000143771
0.000127599
0.000140396
0.000133112
9.109e-05
4.16155e-05
9.10889e-05
6.44536e-05
0.000144457
0.000104935
0.000150825
)
;
    }
    ceiling
    {
        type            compressible::alphatWallFunction;
        Prt             0.85;
        value           nonuniform List<scalar> 
43
(
0.000308038
0.000471476
0.000737115
0.000587703
0.000441099
0.000352141
0.000316638
0.000291996
0.000272103
0.000256107
0.000243655
0.000234394
0.000227908
0.000223721
0.000221335
0.000220287
0.000220174
0.00022068
0.000221463
0.000222246
0.000222824
0.000223094
0.000223049
0.000222742
0.000222259
0.000221678
0.000221063
0.000220451
0.000219855
0.00021929
0.000218753
0.000218072
0.000216978
0.000215031
0.000212202
0.000209435
0.000205513
0.000199073
0.000197911
0.00018778
0.000481489
0.00054368
0.00100945
)
;
    }
    sWall
    {
        type            compressible::alphatWallFunction;
        Prt             0.85;
        value           uniform 0.000307038;
    }
    nWall
    {
        type            compressible::alphatWallFunction;
        Prt             0.85;
        value           nonuniform List<scalar> 6(0.0001436 0.000149981 0.00015003 0.000256462 0.000257098 0.000187487);
    }
    sideWalls
    {
        type            empty;
    }
    glass1
    {
        type            compressible::alphatWallFunction;
        Prt             0.85;
        value           nonuniform List<scalar> 9(0.00010851 0.000193929 0.000269043 0.000338646 0.000401287 0.000457056 0.000500071 0.000498191 0.00047553);
    }
    glass2
    {
        type            compressible::alphatWallFunction;
        Prt             0.85;
        value           nonuniform List<scalar> 2(0.000222618 0.000253473);
    }
    sun
    {
        type            compressible::alphatWallFunction;
        Prt             0.85;
        value           nonuniform List<scalar> 
14
(
0.000111329
0.000113651
9.79558e-05
9.99086e-05
0.000102779
0.000105618
0.000108422
0.000111282
0.000114349
0.000117237
0.000119837
0.000122107
0.000124112
0.000126039
)
;
    }
    Table_master
    {
        type            compressible::alphatWallFunction;
        Prt             0.85;
        value           nonuniform List<scalar> 9(3.93918e-05 4.1911e-05 4.67887e-05 5.1789e-05 5.70863e-05 6.31721e-05 7.09123e-05 8.18879e-05 9.95399e-05);
    }
    Table_slave
    {
        type            compressible::alphatWallFunction;
        Prt             0.85;
        value           nonuniform List<scalar> 9(0.000106415 0.000106367 0.000106816 0.000107813 0.000109654 0.000112694 0.000117396 0.000124553 0.00013647);
    }
    inlet
    {
        type            fixedValue;
        value           uniform 1.94e-05;
    }
    outlet
    {
        type            zeroGradient;
    }
}


// ************************************************************************* //
