/*--------------------------------*- C++ -*----------------------------------*\
  =========                 |
  \\      /  F ield         | OpenFOAM: The Open Source CFD Toolbox
   \\    /   O peration     | Website:  https://openfoam.org
    \\  /    A nd           | Version:  6
     \\/     M anipulation  |
\*---------------------------------------------------------------------------*/
FoamFile
{
    version     2.0;
    format      ascii;
    class       volScalarField;
    location    "2100";
    object      epsilon;
}
// * * * * * * * * * * * * * * * * * * * * * * * * * * * * * * * * * * * * * //

dimensions      [0 2 -3 0 0 0 0];

internalField   nonuniform List<scalar> 
458
(
0.000110052
0.000116696
7.55907e-05
8.00405e-05
8.69093e-05
9.41022e-05
0.00010161
0.000109692
0.000118855
0.000127962
0.000136572
0.000144415
0.000151597
0.000158732
0.00016468
7.71322e-06
1.02785e-05
1.13806e-05
7.6026e-06
4.62631e-06
2.41631e-06
2.6018e-06
3.33526e-06
4.41825e-06
5.61229e-06
6.40407e-06
6.39932e-06
6.34189e-06
6.74388e-06
7.98729e-06
1.07208e-05
9.33147e-06
6.81341e-06
0.000635439
0.00142614
0.000135057
6.18448e-05
5.94848e-05
6.24632e-05
6.64146e-05
7.11317e-05
7.69908e-05
8.37946e-05
9.17031e-05
0.000101237
0.000113145
0.000128735
0.000154421
0.000219593
0.000186901
6.12868e-05
2.33646e-05
3.15561e-05
2.33902e-05
1.37755e-05
6.43584e-06
3.90997e-06
4.85269e-06
7.26364e-06
1.03073e-05
1.30784e-05
1.51102e-05
1.69077e-05
1.89e-05
2.16459e-05
2.3167e-05
2.25483e-05
2.44701e-05
1.44276e-05
0.001775
0.00509052
0.000478936
0.000101403
7.42658e-05
7.44485e-05
7.8458e-05
8.36086e-05
8.96133e-05
9.63588e-05
0.000103592
0.000111574
0.000120561
0.000130415
0.000141333
0.000156805
0.000180807
0.00023931
9.18439e-05
7.54084e-05
4.32334e-05
3.2029e-05
2.43774e-05
6.7646e-06
7.83373e-06
1.0236e-05
1.31999e-05
1.69566e-05
2.21446e-05
3.02558e-05
4.50932e-05
7.87808e-05
6.54159e-05
6.57559e-05
7.64124e-05
6.76496e-05
0.00369542
0.0113789
0.00149101
0.000248914
0.000128896
0.000113187
0.000112406
0.00011543
0.00012024
0.00012607
0.000131969
0.000138368
0.000145781
0.000153942
0.000161821
0.00017001
0.000182905
0.000210046
0.000272709
9.31623e-05
6.19105e-05
5.5765e-05
5.97121e-05
7.12688e-05
9.61646e-05
9.60422e-05
9.72392e-05
9.99273e-05
0.000105023
0.000113836
0.000128469
0.000153217
0.000201588
0.000123058
0.000137605
0.000142363
0.000177159
0.00637704
0.0192315
0.0037763
0.000805866
0.000348428
0.000244085
0.000207885
0.000192035
0.000185065
0.000183096
0.000182501
0.000183703
0.000187615
0.000193827
0.000199867
0.00020248
0.000198466
0.000182822
0.000149619
0.000103594
8.10482e-05
7.15007e-05
6.86669e-05
6.87101e-05
6.97934e-05
7.04088e-05
7.23996e-05
7.64502e-05
8.34216e-05
9.44873e-05
0.000111143
0.000134956
0.000166287
0.000198782
0.00024579
0.000306176
0.000364419
0.000533826
0.000358465
0.000236489
0.00971157
0.0257172
0.00796682
0.00263925
0.00127171
0.000759484
0.000532076
0.000414334
0.000343617
0.000302498
0.000274679
0.000256051
0.00024644
0.000245094
0.000249137
0.000253608
0.000252086
0.000236436
0.000203785
0.000165613
0.000136228
0.000117475
0.000106934
0.000101294
9.8182e-05
9.66845e-05
9.72443e-05
0.000100558
0.00010783
0.000120926
0.000142378
0.000175061
0.000221315
0.000281898
0.000357737
0.000446648
0.000529503
0.000541954
0.000318954
0.000269961
0.0130034
0.0272685
0.014337
0.00769089
0.00442193
0.00259588
0.00162489
0.00109227
0.000777879
0.000578005
0.000460057
0.000383126
0.000334359
0.000307961
0.0002996
0.000301307
0.000303435
0.000295122
0.000271176
0.000238308
0.000206977
0.000182656
0.000165966
0.00015515
0.000148171
0.000143932
0.000142391
0.000144198
0.000150899
0.000165241
0.00019116
0.00023285
0.000292777
0.000370755
0.000463552
0.000561903
0.000639914
0.000655874
0.000580136
0.000270265
0.0128601
0.0267623
0.0228228
0.0172483
0.0112474
0.00683598
0.00418377
0.00263276
0.00171673
0.00116714
0.000822175
0.000608426
0.000477208
0.000399121
0.000358477
0.000343716
0.000343212
0.000343399
0.000333147
0.000312023
0.000287205
0.000264336
0.000246047
0.000232558
0.000222947
0.000216412
0.000212767
0.00021256
0.000217562
0.000231644
0.000261593
0.000315659
0.000398079
0.000506635
0.000630341
0.000759934
0.000900134
0.00106771
0.00127087
0.000929952
0.011077
0.0164463
0.0605694
0.0439433
0.0248716
0.0138058
0.00780918
0.00457077
0.00279651
0.00179806
0.00121685
0.000864977
0.000646689
0.000513254
0.00043772
0.000401998
0.000392162
0.000394976
0.000398255
0.000395462
0.000386647
0.000374694
0.000362439
0.000351562
0.000342592
0.000335493
0.000330148
0.000326701
0.000326122
0.000331377
0.000349293
0.000383377
0.000442028
0.000534214
0.000669254
0.000851112
0.00103012
0.00122011
0.00255604
0.00140165
0.192375
0.134986
0.0287208
0.0124071
0.00679901
0.00409157
0.00262045
0.00177273
0.00126596
0.000956098
0.000765481
0.000649858
0.000582755
0.000549389
0.000540095
0.000548743
0.000565463
0.000582266
0.000594617
0.000601361
0.000603421
0.000602383
0.000599554
0.000595642
0.000590808
0.000584884
0.000577831
0.00057112
0.000567169
0.000567261
0.000577323
0.000602786
0.000642405
0.000687021
0.000728546
0.000778248
0.00111113
0.00143953
0.12456
0.059339
0.0164588
0.00733601
0.00436058
0.00294211
0.00215209
0.00168763
0.00141457
0.0012612
0.00118417
0.00115567
0.00115776
0.00117836
0.00120925
0.00124196
0.00127152
0.00129421
0.00130874
0.00131608
0.00131832
0.00131747
0.00131465
0.00130977
0.00130151
0.00128737
0.00126424
0.00122839
0.00117502
0.00110766
0.00103896
0.000989641
0.00097376
0.00097601
0.000981135
0.000968197
0.00149286
0.00145097
0.00261062
0.0103149
0.0443071
0.0210877
0.00826973
0.00398731
0.00283208
0.00218392
0.00174284
0.00143681
0.00122633
0.00108456
0.000992371
0.000935841
0.000904601
0.000891049
0.00088947
0.000895781
0.000905683
0.000915642
0.000922995
0.000926343
0.000925544
0.000921334
0.000914823
0.000907093
0.000898964
0.00089091
0.000883112
0.000875751
0.000868776
0.000860042
0.000846296
0.000822426
0.000788697
0.000756684
0.000712966
0.000645193
0.000633365
0.000537475
)
;

boundaryField
{
    floor
    {
        Cmu             0.09;
        kappa           0.41;
        E               9.8;
        type            epsilonWallFunction;
        value           nonuniform List<scalar> 
36
(
0.00016468
7.71322e-06
1.02785e-05
1.13806e-05
7.6026e-06
4.62631e-06
2.41631e-06
2.6018e-06
3.33526e-06
4.41825e-06
5.61229e-06
6.40407e-06
6.39932e-06
6.34189e-06
6.74388e-06
7.98729e-06
1.07208e-05
9.33147e-06
6.81341e-06
6.81341e-06
1.44276e-05
6.76496e-05
0.000177159
0.000533826
0.000358465
0.000236489
0.00016468
0.000219593
0.000186901
6.12868e-05
7.71322e-06
6.12868e-05
2.33646e-05
0.00023931
9.18439e-05
0.000272709
)
;
    }
    ceiling
    {
        Cmu             0.09;
        kappa           0.41;
        E               9.8;
        type            epsilonWallFunction;
        value           nonuniform List<scalar> 
43
(
0.00261062
0.0103149
0.0443071
0.0210877
0.00826973
0.00398731
0.00283208
0.00218392
0.00174284
0.00143681
0.00122633
0.00108456
0.000992371
0.000935841
0.000904601
0.000891049
0.00088947
0.000895781
0.000905683
0.000915642
0.000922995
0.000926343
0.000925544
0.000921334
0.000914823
0.000907093
0.000898964
0.00089091
0.000883112
0.000875751
0.000868776
0.000860042
0.000846296
0.000822426
0.000788697
0.000756684
0.000712966
0.000645193
0.000633365
0.000537475
0.011077
0.0164463
0.12456
)
;
    }
    sWall
    {
        Cmu             0.09;
        kappa           0.41;
        E               9.8;
        type            epsilonWallFunction;
        value           uniform 0.00261062;
    }
    nWall
    {
        Cmu             0.09;
        kappa           0.41;
        E               9.8;
        type            epsilonWallFunction;
        value           nonuniform List<scalar> 6(0.000236489 0.000269961 0.000270265 0.00143953 0.00145097 0.000537475);
    }
    sideWalls
    {
        type            empty;
    }
    glass1
    {
        Cmu             0.09;
        kappa           0.41;
        E               9.8;
        type            epsilonWallFunction;
        value           nonuniform List<scalar> 9(0.000110052 0.000635439 0.001775 0.00369542 0.00637704 0.00971157 0.0130034 0.0128601 0.011077);
    }
    glass2
    {
        Cmu             0.09;
        kappa           0.41;
        E               9.8;
        type            epsilonWallFunction;
        value           nonuniform List<scalar> 2(0.000929952 0.00140165);
    }
    sun
    {
        Cmu             0.09;
        kappa           0.41;
        E               9.8;
        type            epsilonWallFunction;
        value           nonuniform List<scalar> 
14
(
0.000110052
0.000116696
7.55907e-05
8.00405e-05
8.69093e-05
9.41022e-05
0.00010161
0.000109692
0.000118855
0.000127962
0.000136572
0.000144415
0.000151597
0.000158732
)
;
    }
    Table_master
    {
        Cmu             0.09;
        kappa           0.41;
        E               9.8;
        type            epsilonWallFunction;
        value           nonuniform List<scalar> 9(6.7646e-06 7.83373e-06 1.0236e-05 1.31999e-05 1.69566e-05 2.21446e-05 3.02558e-05 4.50932e-05 7.87808e-05);
    }
    Table_slave
    {
        Cmu             0.09;
        kappa           0.41;
        E               9.8;
        type            epsilonWallFunction;
        value           nonuniform List<scalar> 9(9.61646e-05 9.60422e-05 9.72392e-05 9.99273e-05 0.000105023 0.000113836 0.000128469 0.000153217 0.000201588);
    }
    inlet
    {
        type            turbulentMixingLengthDissipationRateInlet;
        mixingLength    0.01;
        phi             phi;
        k               k;
        value           uniform 3.77337e-06;
    }
    outlet
    {
        type            zeroGradient;
    }
}


// ************************************************************************* //
