/*--------------------------------*- C++ -*----------------------------------*=========                 |
  \      /  F ield         | OpenFOAM: The Open Source CFD Toolbox
   \    /   O peration     | Website:  https://openfoam.org
    \  /    A nd           | Version:  6
     \/     M anipulation  |
\*---------------------------------------------------------------------------*/
FoamFile
{
    version     2.0;
    format      ascii;
    class       volScalarField;
    location    "2100";
    object      PMV;
}
// * * * * * * * * * * * * * * * * * * * * * * * * * * * * * * * * * * * * * //

dimensions      [0 0 0 0 0 0 0];

internalField   nonuniform List<scalar> 
458
(
2.3264369016611113
2.1822403235779015
2.194692431401143
2.1948790417460593
2.1952925289860907
2.1953476402284147
2.195745455978138
2.197088537128516
2.1995166741656065
2.2017468117003283
2.2058985628602272
2.2118275121094078
2.221431368696972
2.230026335221206
2.218848873604764
1.7049682632627203
1.7117098106300173
1.7203769084356575
1.7136358916340246
1.7073760056612535
1.7035235929482357
1.698707891310785
1.6943735849877153
1.6924471738660605
1.692928779677659
1.6943735849877153
1.693891985240571
1.694855182709274
1.7006341966145242
1.7136358916340246
1.7377090116756257
1.7348205246646233
1.7309690852605277
2.37290491458353
2.2150641186052713
2.234532445130499
2.2331689366091663
2.235605504445027
2.2380212105789727
2.2402579924042443
2.24224606449777
2.2435352506701185
2.244686884747512
2.244917537210381
2.243659437280255
2.240709471148496
2.2324177440495117
2.2155649874625167
2.2142231520427647
2.2184374954318637
2.187448782676483
1.7239595663200653
1.7757331273357015
1.7781392254048798
1.7718832458804128
1.7526315785726685
1.7579261580587198
1.7555195655201838
1.7535942500614634
1.755038240101004
1.7608139927792812
1.7738082057127902
1.7954613355723326
1.818071429174878
1.8445227090119816
1.8709656689974519
1.853658512377677
1.8248052478816639
1.7407183631942071
2.454663271128807
2.2472362955543694
2.2791454841300456
2.273100391305324
2.2782242198957667
2.2834271278923035
2.288878159126109
2.2933674630415455
2.2968273340386234
2.298261651796203
2.297594720535775
2.2932689215095845
2.28367325259479
2.2667450239179883
2.243298843482041
2.218379158263361
2.1886876290873833
2.1527200241356046
1.9396751994412074
1.9243052074317477
1.9219033466864612
1.9281480175029662
1.9276676775342443
1.8252862151770266
1.8373095305594178
1.855100915720879
1.8728884570220077
1.8925943214939187
1.9146972865087084
1.9411159641060098
1.9780851407901558
2.0313408247774776
2.101314069612858
2.0902969359872388
2.0826314652419384
2.076199610596189
2.5433805718601223
2.2953085188804945
2.333159070582284
2.320663199268267
2.325472307572418
2.334283938681785
2.343234819691764
2.3510122635590283
2.356978290951607
2.360531655979601
2.360903640146
2.3558410215039305
2.343802395149276
2.3234560586408675
2.294710709352168
2.2578803325638153
2.2094621894914805
2.149477648273776
2.103984880412871
2.0878635569142725
2.1191128964274037
2.160128356526782
2.1964274732603717
2.2172705072236267
2.2341493612286354
2.2407343956506476
2.247770993659078
2.255944195328308
2.264798004877777
2.274518484344396
2.2843810381103933
2.2853347973802367
2.2815196061375755
2.2614832097869892
2.259097194116864
2.2552792514215025
2.2476422039756994
2.633230591679093
2.362469512819112
2.404822083298212
2.3924241513079716
2.3920620966267654
2.3995037579014222
2.4088694037707863
2.418293212718573
2.426666220330678
2.4318792756841656
2.43345573358643
2.429146578283492
2.4181485792533772
2.3991286766938775
2.373756274901933
2.342352615808529
2.3065969670264623
2.272166030440695
2.247191676203747
2.234733137103325
2.2383589374318493
2.2510910278284273
2.2614604105228135
2.2675655578899443
2.27111206417848
2.274689211368658
2.2789726196788296
2.2844266532424755
2.2910634348010475
2.299391992412667
2.3086136077452175
2.3193477568834404
2.3288349103770862
2.3325126318067175
2.33870267668829
2.3444154864868088
2.3448915068640104
2.332919527755079
2.3062152640511395
2.32725548282823
2.720243008533304
2.4499953420609732
2.5107590615626756
2.5005845851111395
2.4906456429264385
2.4868582085688002
2.489225430056824
2.494905738003689
2.5005845851111395
2.5062619515346856
2.5095730567959382
2.5086270790728515
2.501040577549371
2.4822844016590553
2.4582588868149475
2.4292396802447085
2.3979389096166694
2.367852570063142
2.3440823961368453
2.328157313060819
2.321246753860157
2.3190987603726874
2.3180039787416575
2.3164647193064276
2.3144674828275944
2.3132693302000122
2.312873517838443
2.313703190533861
2.316126826751191
2.320465287023585
2.326110835330947
2.3324571407375014
2.33887644052223
2.3447887499252165
2.351692859546741
2.35856323118695
2.3636792849264645
2.364995354547043
2.34936335224472
2.299717882198884
2.8053907356234786
2.569070386306813
2.6556230212191845
2.630547839956747
2.603401148700504
2.5884781767001033
2.581756049659468
2.5780379996741933
2.574267057026996
2.5709668332438156
2.570495323582409
2.5681375920495597
2.5624777995363504
2.5520970491817527
2.5365153780591116
2.516666543538545
2.4925329612758036
2.4643638221681234
2.4398002297593258
2.421038786825823
2.4070920278748833
2.3969880749863974
2.3872272872561253
2.378669903154948
2.371061211440249
2.3644019896003012
2.358692901095156
2.354410375794135
2.35136224739396
2.3487235280834953
2.347670147754624
2.347993020827326
2.348069200150059
2.3483062966593815
2.3472601772763335
2.3456680619165997
2.3434904142247825
2.3441495263179064
2.349713884060253
2.265963835186461
2.9239742745815707
2.7874929950422986
2.787708592654278
2.761566124847731
2.7263048499890803
2.6945011322111743
2.6693676064647547
2.6502297964371313
2.6370295169717655
2.6275741934340684
2.62002144457626
2.61441058335138
2.608937960283887
2.602239029983383
2.5937306265264515
2.5794518976881213
2.5587036442562865
2.5365153780591116
2.5128836472543736
2.491592401310352
2.473123459846949
2.4570103438136788
2.442783956025082
2.4304478611262588
2.4185819199311576
2.407659393360322
2.3972076378177753
2.3881779493182305
2.3800963110058695
2.3748658054632115
2.372487992108077
2.3748658054632115
2.3743948674954627
2.36486076066924
2.3542720343367027
2.344083964031524
2.3359204484057194
2.3310005403926652
2.3236307810002175
2.2965614498172653
3.0
3.0
2.921848202371374
2.8719640276047116
2.8242237528970957
2.784642706043481
2.7509708779534594
2.723045716272323
2.7015247823867514
2.684612188600572
2.6715961091058538
2.659665668668984
2.648562310485513
2.637391432471465
2.6257578374719786
2.613355643057063
2.5998007517581825
2.584967828543177
2.5693992234415326
2.5544200198616664
2.5365153780591116
2.5190305067575736
2.5024772060972764
2.4873316728183177
2.473123459846949
2.4593806028056697
2.4456298896526754
2.4323461110227886
2.41953149328829
2.408134378135142
2.399108252529673
2.3929307795782413
2.39007917762871
2.390554464697493
2.3924555326912498
2.395306892931333
2.399108252529673
2.4033841568954957
2.3751189509325767
2.3119453183701966
2.51302291622967
2.774985954084567
2.8017047144266534
2.786364671883007
2.7646819471397803
2.7443987449372136
2.7270411090463513
2.7122477319098173
2.6991509327899412
2.6877391685976613
2.676550375063682
2.6656323482545923
2.6545633553212395
2.6423601378332755
2.6290578725544647
2.6146136805004403
2.599905934186311
2.5842951421931923
2.5686534309360147
2.5534339498043206
2.5386652722709395
2.5243985175015218
2.510686638331288
2.4975613193504462
2.4845496139611187
2.4715878214415437
2.4585019820221334
2.4454115106074426
2.4319171327387212
2.4185730819752282
2.406526657046934
2.396851043917714
2.3898003165806734
2.38474071683071
2.380395990442951
2.3734029470288154
2.3505329006112934
2.345196967998344
2.581082628745912
2.709233342546234
2.7598012920425434
2.7696324371024734
2.755943665768354
2.7421493499688543
2.729463872534694
2.717213180271253
2.705456864317598
2.6946372508006182
2.684218133546889
2.6741527675142787
2.6638920841083085
2.653404071234042
2.6421544826718817
2.6301667515235936
2.617385378543486
2.60372847872715
2.5891209167660527
2.5745213143431362
2.5594148074254077
2.5443089822872813
2.529725976334387
2.514691842005257
2.4997209885912612
2.484811466734845
2.469931911130073
2.455052701652188
2.43922547653979
2.4240986694870896
2.409595316013146
2.396177596646301
2.3845068157074105
2.376217987162349
2.370655527815539
2.3681799000481547
2.3508221725814233
2.351044877908441
3.0
2.907652995659793
2.627759345867303
2.665150860803984
2.690988773202182
2.699864070118095
2.703377824153599
2.7001407414039145
2.6933362380474377
2.685218055437586
2.676269420312566
2.6670697525372
2.6581857828147273
2.649092726899624
2.6397641407243397
2.63070604525154
2.621347302038247
2.612206846707985
2.601610086151986
2.591111962534597
2.579588116042345
2.5675437290428973
2.5549544847498864
2.5418198214761634
2.5281471238561877
2.513949686474257
2.499245041574714
2.4840525877525983
2.468930076708016
2.453390468349923
2.436977615064885
2.4212521170678225
2.4055553409225254
2.3907259376430914
2.3769670436920163
2.3660729717545226
2.35737974110044
2.3512857028297844
2.332729724538159
2.2770943716495706
)
;

boundaryField
{
    ".*"
    {
        type            zeroGradient;
    }
}


// ************************************************************************* //
