// -*- C++ -*-
// File generated by PyFoam - sorry for the ugliness

FoamFile
{
 version 2.0;
 format ascii;
 class volScalarField;
 location "2100";
 object T;
}

dimensions [ 0 0 0 1 0 0 0 ];

internalField nonuniform List<scalar> 458
(
  304.976
  304.707
  304.704
  304.711
  304.718
  304.723
  304.727
  304.731
  304.735
  304.736
  304.737
  304.735
  304.731
  304.725
  304.717
  303.57
  303.584
  303.602
  303.588
  303.575
  303.567
  303.557
  303.548
  303.544
  303.545
  303.548
  303.547
  303.549
  303.561
  303.588
  303.638
  303.632
  303.624
  305.185
  304.794
  304.769
  304.779
  304.791
  304.801
  304.809
  304.815
  304.818
  304.819
  304.816
  304.807
  304.792
  304.769
  304.734
  304.699
  304.661
  304.575
  303.703
  303.717
  303.722
  303.709
  303.669
  303.68
  303.675
  303.671
  303.674
  303.686
  303.713
  303.758
  303.805
  303.86
  303.915
  303.879
  303.819
  303.751
  305.375
  304.89
  304.836
  304.844
  304.862
  304.877
  304.891
  304.902
  304.91
  304.913
  304.911
  304.901
  304.881
  304.849
  304.804
  304.747
  304.685
  304.629
  304.058
  304.026
  304.021
  304.034
  304.033
  303.82
  303.845
  303.882
  303.919
  303.96
  304.006
  304.061
  304.138
  304.249
  304.395
  304.372
  304.356
  304.416
  305.549
  305.006
  304.923
  304.919
  304.937
  304.958
  304.978
  304.995
  305.008
  305.016
  305.018
  305.01
  304.99
  304.956
  304.906
  304.839
  304.753
  304.647
  304.546
  304.468
  304.522
  304.594
  304.667
  304.711
  304.744
  304.749
  304.754
  304.76
  304.766
  304.772
  304.778
  304.78
  304.772
  304.73
  304.725
  304.717
  304.701
  305.712
  305.147
  305.057
  305.033
  305.039
  305.056
  305.076
  305.096
  305.114
  305.126
  305.132
  305.128
  305.113
  305.084
  305.043
  304.99
  304.929
  304.867
  304.813
  304.777
  304.772
  304.787
  304.801
  304.809
  304.812
  304.814
  304.817
  304.822
  304.829
  304.839
  304.85
  304.863
  304.873
  304.879
  304.892
  304.904
  304.905
  304.928
  304.918
  304.916
  305.863
  305.318
  305.26
  305.233
  305.212
  305.204
  305.209
  305.221
  305.233
  305.245
  305.252
  305.25
  305.238
  305.213
  305.177
  305.13
  305.077
  305.022
  304.973
  304.935
  304.913
  304.901
  304.893
  304.886
  304.879
  304.874
  304.871
  304.871
  304.875
  304.884
  304.897
  304.913
  304.931
  304.949
  304.967
  304.981
  304.991
  304.995
  304.961
  304.932
  306.007
  305.536
  305.562
  305.538
  305.484
  305.44
  305.412
  305.397
  305.389
  305.382
  305.381
  305.376
  305.364
  305.342
  305.309
  305.267
  305.219
  305.167
  305.117
  305.075
  305.041
  305.015
  304.994
  304.976
  304.96
  304.946
  304.934
  304.925
  304.921
  304.922
  304.93
  304.945
  304.963
  304.983
  305
  305.014
  305.022
  305.022
  305.004
  304.94
  306.206
  305.884
  305.911
  305.868
  305.792
  305.718
  305.66
  305.615
  305.581
  305.554
  305.53
  305.51
  305.49
  305.466
  305.436
  305.4
  305.356
  305.309
  305.259
  305.214
  305.175
  305.141
  305.111
  305.085
  305.06
  305.037
  305.015
  304.996
  304.979
  304.968
  304.963
  304.968
  304.979
  304.996
  305.014
  305.031
  305.046
  305.061
  305.074
  305.093
  306.479
  306.347
  306.183
  306.097
  306.002
  305.917
  305.845
  305.785
  305.737
  305.698
  305.667
  305.638
  305.61
  305.581
  305.55
  305.516
  305.478
  305.436
  305.392
  305.35
  305.309
  305.272
  305.237
  305.205
  305.175
  305.146
  305.117
  305.089
  305.062
  305.038
  305.019
  305.006
  305
  305.001
  305.005
  305.011
  305.019
  305.028
  305.045
  305.103
  305.552
  305.89
  305.921
  305.892
  305.855
  305.818
  305.784
  305.754
  305.727
  305.703
  305.679
  305.655
  305.63
  305.602
  305.571
  305.537
  305.502
  305.465
  305.428
  305.392
  305.357
  305.323
  305.29
  305.258
  305.226
  305.194
  305.162
  305.131
  305.101
  305.074
  305.053
  305.039
  305.031
  305.029
  305.03
  305.032
  305.035
  305.044
  305.612
  305.777
  305.804
  305.821
  305.816
  305.8
  305.781
  305.761
  305.741
  305.722
  305.703
  305.684
  305.664
  305.643
  305.62
  305.595
  305.568
  305.539
  305.508
  305.477
  305.445
  305.413
  305.382
  305.35
  305.318
  305.286
  305.254
  305.222
  305.188
  305.156
  305.127
  305.103
  305.085
  305.073
  305.064
  305.057
  305.049
  305.048
  306.516
  306.156
  305.657
  305.685
  305.705
  305.731
  305.748
  305.748
  305.74
  305.729
  305.716
  305.702
  305.688
  305.673
  305.657
  305.641
  305.624
  305.607
  305.587
  305.567
  305.545
  305.522
  305.498
  305.473
  305.447
  305.42
  305.392
  305.363
  305.334
  305.304
  305.272
  305.241
  305.21
  305.181
  305.154
  305.13
  305.107
  305.084
  305.058
  305.045
)
;

boundaryField
{
  floor
  {
    type wallHeatTransfer;
    Tinf uniform 305.2;
    alphaWall uniform 0.24;
    value nonuniform List<scalar> 36
(
  304.782
  303.998
  303.986
  303.991
  304.012
  304.044
  304.096
  304.082
  304.054
  304.027
  304.007
  303.997
  303.997
  303.999
  304.003
  304.009
  304.023
  304.029
  304.048
  304.048
  304.088
  304.547
  304.767
  304.956
  304.95
  304.951
  304.782
  304.762
  304.732
  304.681
  303.998
  304.681
  304.018
  304.699
  304.235
  304.625
)
;
  }
  ceiling
  {
    type wallHeatTransfer;
    Tinf uniform 303.2;
    alphaWall uniform 0.24;
    value nonuniform List<scalar> 43
(
  306.293
  306.02
  305.582
  305.591
  305.582
  305.58
  305.581
  305.569
  305.551
  305.53
  305.51
  305.49
  305.472
  305.456
  305.44
  305.424
  305.409
  305.393
  305.376
  305.358
  305.339
  305.318
  305.296
  305.273
  305.248
  305.223
  305.198
  305.171
  305.144
  305.116
  305.087
  305.058
  305.029
  305.001
  304.975
  304.951
  304.928
  304.902
  304.878
  304.858
  306.331
  306.22
  305.557
)
;
  }
  sWall
  {
    type wallHeatTransfer;
    Tinf uniform 315.2;
    alphaWall uniform 0.36;
    value uniform 307.364;
  }
  nWall
  {
    type wallHeatTransfer;
    Tinf uniform 307.2;
    alphaWall uniform 0.36;
    value nonuniform List<scalar> 6
(
  305.317
  305.317
  305.324
  305.288
  305.291
  305.356
)
;
  }
  sideWalls
  {
    type empty;
  }
  glass1
  {
    type wallHeatTransfer;
    Tinf uniform 315.2;
    alphaWall uniform 4.3;
    value nonuniform List<scalar> 9
(
  312.768
  311.814
  311.204
  310.773
  310.473
  310.261
  310.143
  310.26
  310.506
)
;
  }
  glass2
  {
    type wallHeatTransfer;
    Tinf uniform 307.2;
    alphaWall uniform 4.3;
    value nonuniform List<scalar> 2
(
  306.429
  306.375
)
;
  }
  sun
  {
    type wallHeatTransfer;
    Tinf uniform 305.2;
    alphaWall uniform 0.24;
    value nonuniform List<scalar> 14
(
  305.01
  304.78
  304.784
  304.79
  304.794
  304.797
  304.799
  304.801
  304.803
  304.803
  304.802
  304.8
  304.796
  304.79
)
;
  }
  Table_master
  {
    type zeroGradient;
  }
  Table_slave
  {
    type zeroGradient;
  }
  inlet
  {
    type fixedValue;
    value uniform 293.15;
  }
  outlet
  {
    type zeroGradient;
  }
} 	// ************************************************************************* //

