/*--------------------------------*- C++ -*----------------------------------*\
  =========                 |
  \\      /  F ield         | OpenFOAM: The Open Source CFD Toolbox
   \\    /   O peration     | Website:  https://openfoam.org
    \\  /    A nd           | Version:  6
     \\/     M anipulation  |
\*---------------------------------------------------------------------------*/
FoamFile
{
    version     2.0;
    format      ascii;
    class       volScalarField;
    location    "900";
    object      alphat;
}
// * * * * * * * * * * * * * * * * * * * * * * * * * * * * * * * * * * * * * //

dimensions      [1 -1 -1 0 0 0 0];

internalField   nonuniform List<scalar> 
458
(
0.000795211
0.000793377
0.000656357
0.000625017
0.000612323
0.000602348
0.000588992
0.000569293
0.000543567
0.000515506
0.000492087
0.000481883
0.000492284
0.00053072
0.000621938
0.000478663
0.000505636
0.000361683
0.000289187
0.000237086
0.000221751
0.000230521
0.000243988
0.000260353
0.000277942
0.000295149
0.000310919
0.000320248
0.000318878
0.000328365
0.000352634
0.000425701
0.000408355
0.00132821
0.00312789
0.00250365
0.00257329
0.00258114
0.00261963
0.00272085
0.00286576
0.00290601
0.00272599
0.00235605
0.00194914
0.00163205
0.00144812
0.00132284
0.000823498
0.000869984
0.000752206
0.000697781
0.00201611
0.00146488
0.00104201
0.00052643
0.000330384
0.000353937
0.000446867
0.000571763
0.00070757
0.000833619
0.000930414
0.00096531
0.000914929
0.00114288
0.00125971
0.00153895
0.00066483
0.00172887
0.00506059
0.00410497
0.00387883
0.00347974
0.00321284
0.00315929
0.00342466
0.00376356
0.00391216
0.00370288
0.00331631
0.00295471
0.00269601
0.00254122
0.00244998
0.00228013
0.000936841
0.000896081
0.00252334
0.00193706
0.00145563
0.0009015
0.000367287
0.000313262
0.000350919
0.000390973
0.000434466
0.000484954
0.000547749
0.000631917
0.000755228
0.00181993
0.00205877
0.0026571
0.000984597
0.00185195
0.00494685
0.00544959
0.00597743
0.00556795
0.00453355
0.00382296
0.00376313
0.00408239
0.00454569
0.00464193
0.00438629
0.00402283
0.00367291
0.00332668
0.00290399
0.00240373
0.00203452
0.000989015
0.00241545
0.002629
0.00202653
0.00143615
0.00101001
0.000731075
0.00074616
0.000764283
0.000786831
0.000816089
0.000854095
0.000905816
0.00097829
0.00108283
0.00243512
0.00252123
0.00251908
0.00131847
0.00252625
0.00326285
0.00374722
0.00438849
0.00490275
0.00520854
0.00502183
0.00441295
0.00436919
0.00493261
0.00534662
0.00538051
0.00527396
0.0051753
0.00510808
0.00502909
0.00489469
0.00472849
0.00472722
0.00471398
0.00459918
0.00434237
0.00413402
0.00400652
0.00394622
0.00398102
0.00397255
0.0039089
0.00380074
0.00366512
0.00351592
0.00337298
0.00325719
0.00317724
0.00302434
0.00287316
0.00266778
0.00187381
0.00192937
0.0018861
0.00330344
0.00329193
0.00332393
0.00369614
0.00433216
0.0049396
0.00516247
0.00496627
0.00471705
0.00519816
0.00575869
0.00596039
0.00603897
0.0061354
0.00626145
0.00638331
0.00646024
0.00647888
0.00644667
0.00635187
0.00625429
0.0061656
0.00611501
0.00609939
0.00610372
0.00611154
0.00609753
0.00605501
0.00598238
0.00588737
0.00577205
0.00564074
0.00550499
0.00538744
0.00532278
0.00537327
0.0055953
0.00597095
0.00584045
0.00236084
0.0038187
0.00405789
0.00376314
0.0036718
0.00430021
0.00503525
0.00538339
0.00535595
0.00523576
0.00545951
0.00601796
0.00620472
0.0063256
0.00650921
0.00674145
0.00698252
0.00718957
0.00733461
0.0074104
0.00743
0.00742773
0.00742042
0.00741975
0.00742485
0.00742618
0.00741444
0.00738326
0.00733226
0.00726727
0.00719249
0.0071117
0.00703014
0.00695584
0.00690043
0.00687762
0.00690026
0.00698909
0.00745376
0.0086798
0.00282853
0.00443193
0.00524624
0.00664164
0.00446609
0.00497075
0.00582247
0.00617156
0.00619105
0.00617548
0.00626581
0.00637365
0.00645721
0.00659492
0.00680774
0.00707728
0.00737412
0.00766289
0.00791186
0.00810081
0.00822657
0.00830538
0.00835439
0.00838589
0.00840428
0.00840069
0.00836996
0.00831514
0.00823978
0.00814582
0.00803369
0.00790575
0.00776822
0.007633
0.00752079
0.00746358
0.00750291
0.00761507
0.00788346
0.00985135
0.00332433
0.00531971
0.00688466
0.0137769
0.00669334
0.00567881
0.00701987
0.00752191
0.00752498
0.00741357
0.00735294
0.00735877
0.00742754
0.00755191
0.00771944
0.00792052
0.00814646
0.0083836
0.00861227
0.00881228
0.00897073
0.00908741
0.00916866
0.00922284
0.00925603
0.00925838
0.00923046
0.009176
0.00909803
0.00899543
0.00886569
0.00870854
0.00852706
0.00832924
0.00813189
0.00796919
0.00790312
0.00800943
0.00834801
0.00977622
0.00333242
0.0217263
0.0143779
0.0072649
0.008585
0.00942343
0.00962343
0.00969212
0.00972008
0.00971569
0.00970638
0.00971219
0.00974035
0.00979021
0.00985822
0.00993955
0.0100278
0.0101151
0.0101942
0.0102601
0.0103111
0.0103476
0.01037
0.0103721
0.0103506
0.0103079
0.0102398
0.010142
0.0100131
0.009854
0.00966636
0.00945311
0.00922095
0.00898601
0.00878138
0.0086588
0.00865438
0.00831208
0.00237893
0.00725935
0.0109419
0.00938359
0.00916825
0.00972252
0.0104754
0.0111113
0.0114366
0.0115159
0.0114724
0.0113907
0.0113125
0.0112517
0.0112098
0.0111843
0.0111716
0.0111681
0.0111701
0.0111748
0.0111803
0.0111856
0.011191
0.0111965
0.0112021
0.0112036
0.0111771
0.0111145
0.011021
0.0109023
0.0107632
0.0106068
0.0104364
0.0102555
0.0100678
0.00986687
0.00961645
0.00838653
0.00235589
0.00223379
0.0022146
0.00392894
0.00377073
0.00349026
0.00322816
0.00303375
0.0029151
0.00285745
0.00283927
0.00283058
0.00281666
0.00279597
0.00277144
0.00274625
0.00272255
0.00270132
0.00268278
0.00266664
0.00265241
0.00263954
0.00262755
0.00261611
0.00260498
0.00259402
0.00258315
0.00257201
0.0025619
0.00255184
0.00254053
0.00252763
0.00251337
0.00249825
0.00248299
0.00246853
0.00245621
0.00244898
0.00245461
0.00235302
0.00209
)
;

boundaryField
{
    floor
    {
        type            compressible::alphatWallFunction;
        Prt             0.85;
        value           nonuniform List<scalar> 
36
(
8.79318e-05
6.61369e-05
7.02707e-05
4.77915e-05
3.60512e-05
2.7369e-05
2.4769e-05
2.62604e-05
2.85367e-05
3.12795e-05
3.42013e-05
3.7035e-05
3.96125e-05
4.11276e-05
4.09036e-05
4.24405e-05
4.63461e-05
5.79069e-05
5.51868e-05
5.51861e-05
9.42258e-05
0.000140413
0.000186808
0.000261073
0.000268353
0.000262684
8.79307e-05
0.000117466
0.000124138
0.00010712
6.61361e-05
0.000107119
9.90845e-05
0.000133677
0.00012783
0.000141074
)
;
    }
    ceiling
    {
        type            compressible::alphatWallFunction;
        Prt             0.85;
        value           nonuniform List<scalar> 
43
(
0.000308589
0.000306063
0.000519784
0.000500525
0.000466187
0.000433835
0.000409656
0.000394809
0.000387557
0.000385246
0.000384124
0.000382347
0.000379723
0.000376618
0.000373432
0.000370432
0.000367745
0.000365396
0.000363349
0.000361542
0.000359906
0.000358382
0.000356925
0.000355507
0.000354111
0.000352725
0.000351305
0.000350014
0.00034873
0.000347287
0.000345642
0.000343823
0.000341893
0.000339945
0.000338096
0.000336519
0.000335589
0.000336296
0.000323301
0.000289396
0.000685739
0.000867688
0.000910635
)
;
    }
    sWall
    {
        type            compressible::alphatWallFunction;
        Prt             0.85;
        value           uniform 0.00030804;
    }
    nWall
    {
        type            compressible::alphatWallFunction;
        Prt             0.85;
        value           nonuniform List<scalar> 6(0.000262653 0.000324135 0.000383411 0.000326434 0.000323516 0.000289253);
    }
    sideWalls
    {
        type            empty;
    }
    glass1
    {
        type            compressible::alphatWallFunction;
        Prt             0.85;
        value           nonuniform List<scalar> 9(0.000111451 0.000185503 0.000238993 0.00025532 0.000342544 0.000440898 0.000504097 0.000578108 0.000683504);
    }
    glass2
    {
        type            compressible::alphatWallFunction;
        Prt             0.85;
        value           nonuniform List<scalar> 2(0.000447133 0.000448161);
    }
    sun
    {
        type            compressible::alphatWallFunction;
        Prt             0.85;
        value           nonuniform List<scalar> 
14
(
0.000113475
0.000113207
9.30883e-05
8.84046e-05
8.64937e-05
8.49907e-05
8.29808e-05
8.00124e-05
7.61214e-05
7.18525e-05
6.82691e-05
6.67031e-05
6.83061e-05
7.41861e-05
)
;
    }
    Table_master
    {
        type            compressible::alphatWallFunction;
        Prt             0.85;
        value           nonuniform List<scalar> 9(4.86073e-05 3.99456e-05 4.60274e-05 5.24024e-05 5.92299e-05 6.70467e-05 7.66274e-05 8.92582e-05 0.000107401);
    }
    Table_slave
    {
        type            compressible::alphatWallFunction;
        Prt             0.85;
        value           nonuniform List<scalar> 9(0.000103879 0.000106081 0.00010872 0.000111993 0.000116222 0.00012169 0.000129084 0.000139362 0.000154033);
    }
    inlet
    {
        type            fixedValue;
        value           uniform 1.94e-05;
    }
    outlet
    {
        type            zeroGradient;
    }
}


// ************************************************************************* //
