/*--------------------------------*- C++ -*----------------------------------*\
  =========                 |
  \\      /  F ield         | OpenFOAM: The Open Source CFD Toolbox
   \\    /   O peration     | Website:  https://openfoam.org
    \\  /    A nd           | Version:  6
     \\/     M anipulation  |
\*---------------------------------------------------------------------------*/
FoamFile
{
    version     2.0;
    format      ascii;
    class       volScalarField;
    location    "900";
    object      k;
}
// * * * * * * * * * * * * * * * * * * * * * * * * * * * * * * * * * * * * * //

dimensions      [0 2 -2 0 0 0 0];

internalField   nonuniform List<scalar> 
458
(
0.00096431
0.000959114
0.000655857
0.000594442
0.00057038
0.00055184
0.000527554
0.000492782
0.000449197
0.000403976
0.000368094
0.000353014
0.0003685
0.000428468
0.000588798
0.000344404
0.000383991
0.0001963
0.00012553
8.43975e-05
7.38623e-05
7.98235e-05
8.9409e-05
0.000101786
0.000115983
0.000130765
0.00014509
0.000153899
0.000152555
0.000161753
0.000186527
0.00027185
0.000250258
0.00269324
0.00506374
0.00206089
0.00151687
0.00132262
0.001225
0.00114809
0.00105904
0.000961253
0.000866982
0.000794653
0.000766696
0.000805895
0.000937148
0.00115774
0.00103378
0.00115347
0.000860826
0.000734194
0.00161293
0.000793296
0.000388765
0.000167422
0.000129604
0.000125827
0.0001622
0.000216886
0.000282782
0.000350646
0.000409623
0.000445032
0.000453103
0.000549681
0.000731627
0.00131453
0.000665923
0.00456868
0.0109318
0.00549583
0.00408271
0.00287837
0.00228413
0.00193303
0.00163171
0.00141368
0.00125881
0.00115677
0.00111261
0.0011345
0.00123283
0.00143198
0.00174512
0.00211672
0.00133859
0.00121723
0.0020925
0.00102279
0.000664945
0.000474296
0.000203423
0.000148052
0.000185879
0.00023084
0.000285188
0.000355494
0.000453757
0.000604284
0.000863785
0.00136725
0.0018503
0.00327073
0.00147187
0.00525419
0.01369
0.0123297
0.0111716
0.00803212
0.00506733
0.00364585
0.0025614
0.00200232
0.00170475
0.00154234
0.00147149
0.00148474
0.00157689
0.00172899
0.00189964
0.00208128
0.00239887
0.00149302
0.00168804
0.00139465
0.00108035
0.000929238
0.000844008
0.000819201
0.0008535
0.000895568
0.000949285
0.00102127
0.00111864
0.0012582
0.00146745
0.00179744
0.00234085
0.00283233
0.00362007
0.00266875
0.00986899
0.010215
0.00996233
0.00999593
0.00976252
0.00921552
0.00723415
0.00416517
0.00286958
0.00228843
0.00202553
0.00191581
0.0019136
0.00199655
0.00213433
0.00227698
0.00236816
0.00236439
0.00226773
0.00193396
0.00182153
0.00175063
0.0017347
0.00175536
0.00179935
0.00186103
0.00192338
0.001988
0.00206263
0.00215842
0.0022924
0.00248806
0.00277533
0.00318536
0.00375691
0.00454083
0.00553467
0.00541497
0.00574222
0.00548908
0.0170955
0.0133074
0.010438
0.00928297
0.00904388
0.00876506
0.00765412
0.00601322
0.00413272
0.00304144
0.00262969
0.00247399
0.00245817
0.00253816
0.00267568
0.00282191
0.00293099
0.00296773
0.00293098
0.00284376
0.00279786
0.00277778
0.00278633
0.00282001
0.00287193
0.00293614
0.00300693
0.00308211
0.0031593
0.00325228
0.00337793
0.00356137
0.00384235
0.00428603
0.00499844
0.00614837
0.00802575
0.0109404
0.0139174
0.00860564
0.0228647
0.0218416
0.0140932
0.0101308
0.00917801
0.00875053
0.00772654
0.00633689
0.00500993
0.00399134
0.00345486
0.00329742
0.00331404
0.00342969
0.00360756
0.00381693
0.00401232
0.00416122
0.00424827
0.00428053
0.00428699
0.00428703
0.00429507
0.00431802
0.00435723
0.00441093
0.00447035
0.00451887
0.00456188
0.00460682
0.00466657
0.00476189
0.00492577
0.00521212
0.00571703
0.00663538
0.0084727
0.0129244
0.0232739
0.0123591
0.0307995
0.0395862
0.0312446
0.013819
0.0102007
0.00947177
0.00829804
0.00695902
0.00591093
0.00528738
0.00498958
0.00490333
0.004955
0.00509415
0.00529948
0.00555303
0.00582451
0.00607489
0.00627054
0.0063969
0.00646992
0.00650813
0.00652865
0.00654696
0.00657741
0.00661635
0.00664512
0.00666038
0.00665923
0.0066448
0.0066269
0.0066232
0.00666281
0.00679444
0.00711472
0.0078184
0.00939707
0.0139183
0.0300605
0.0170802
0.0443779
0.0743201
0.112018
0.0326953
0.0136628
0.011858
0.0106114
0.00946808
0.00890213
0.00867305
0.00859738
0.00860184
0.00866149
0.00876525
0.0089099
0.00909334
0.00930554
0.00952429
0.00972151
0.00987534
0.00998164
0.0100459
0.0100788
0.0100953
0.0101147
0.0101292
0.0101351
0.0101199
0.0100761
0.0100071
0.0099233
0.00984159
0.00978872
0.00980914
0.0099832
0.0104746
0.0117072
0.0153488
0.0290232
0.0171693
0.216056
0.120585
0.0301337
0.0207041
0.0191762
0.0184609
0.0183069
0.0181937
0.0179585
0.0176625
0.0173822
0.017156
0.0169914
0.0168813
0.0168156
0.0167827
0.0167698
0.0167636
0.0167543
0.0167369
0.0167099
0.0166745
0.0166304
0.0165956
0.0165593
0.016491
0.0163765
0.0162242
0.0160499
0.0158717
0.015711
0.0155994
0.0155906
0.0157844
0.0164089
0.0181301
0.0201989
0.00874265
0.0840208
0.0680606
0.04168
0.0323561
0.0301677
0.0308758
0.0322605
0.0328764
0.0326351
0.0319463
0.0311481
0.0304087
0.0297787
0.0292566
0.0288272
0.028474
0.0281819
0.0279377
0.0277314
0.0275564
0.027409
0.0272902
0.0272014
0.0271414
0.0271061
0.0270293
0.0268811
0.0266787
0.0264503
0.0262245
0.0260291
0.0258961
0.0258626
0.0259781
0.02638
0.0278244
0.0237609
0.00857617
0.00824504
0.0080582
0.0251207
0.0230899
0.0197444
0.0168554
0.0148523
0.013679
0.0131088
0.0129073
0.0127941
0.0126369
0.0124235
0.0121812
0.0119386
0.0117137
0.0115144
0.0113414
0.0111913
0.0110594
0.0109405
0.0108305
0.0107261
0.0106255
0.0105272
0.0104306
0.0103327
0.0102438
0.0101561
0.0100591
0.00995044
0.00983194
0.00970773
0.00958339
0.00946601
0.00936552
0.0093036
0.00933785
0.00856941
0.00674899
)
;

boundaryField
{
    floor
    {
        type            kqRWallFunction;
        value           nonuniform List<scalar> 
36
(
0.000588798
0.000344404
0.000383991
0.0001963
0.00012553
8.43975e-05
7.38623e-05
7.98235e-05
8.9409e-05
0.000101786
0.000115983
0.000130765
0.00014509
0.000153899
0.000152555
0.000161753
0.000186527
0.00027185
0.000250258
0.000250258
0.000665923
0.00147187
0.00266875
0.00541497
0.00574222
0.00548908
0.000588798
0.00103378
0.00115347
0.000860826
0.000344404
0.000860826
0.000734194
0.00133859
0.00121723
0.00149302
)
;
    }
    ceiling
    {
        type            kqRWallFunction;
        value           nonuniform List<scalar> 
43
(
0.00824504
0.0080582
0.0251207
0.0230899
0.0197444
0.0168554
0.0148523
0.013679
0.0131088
0.0129073
0.0127941
0.0126369
0.0124235
0.0121812
0.0119386
0.0117137
0.0115144
0.0113414
0.0111913
0.0110594
0.0109405
0.0108305
0.0107261
0.0106255
0.0105272
0.0104306
0.0103327
0.0102438
0.0101561
0.0100591
0.00995044
0.00983194
0.00970773
0.00958339
0.00946601
0.00936552
0.0093036
0.00933785
0.00856941
0.00674899
0.0443779
0.0743201
0.0840208
)
;
    }
    sWall
    {
        type            kqRWallFunction;
        value           uniform 0.00824504;
    }
    nWall
    {
        type            kqRWallFunction;
        value           nonuniform List<scalar> 6(0.00548908 0.00860564 0.0123591 0.00874265 0.00857617 0.00674899);
    }
    sideWalls
    {
        type            empty;
    }
    glass1
    {
        type            kqRWallFunction;
        value           nonuniform List<scalar> 9(0.00096431 0.00269324 0.00456868 0.00525419 0.00986899 0.0170955 0.0228647 0.0307995 0.0443779);
    }
    glass2
    {
        type            kqRWallFunction;
        value           nonuniform List<scalar> 2(0.0170802 0.0171693);
    }
    sun
    {
        type            kqRWallFunction;
        value           nonuniform List<scalar> 
14
(
0.00096431
0.000959114
0.000655857
0.000594442
0.00057038
0.00055184
0.000527554
0.000492782
0.000449197
0.000403976
0.000368094
0.000353014
0.0003685
0.000428468
)
;
    }
    Table_master
    {
        type            kqRWallFunction;
        value           nonuniform List<scalar> 9(0.000203423 0.000148052 0.000185879 0.00023084 0.000285188 0.000355494 0.000453757 0.000604284 0.000863785);
    }
    Table_slave
    {
        type            kqRWallFunction;
        value           nonuniform List<scalar> 9(0.000819201 0.0008535 0.000895568 0.000949285 0.00102127 0.00111864 0.0012582 0.00146745 0.00179744);
    }
    inlet
    {
        type            turbulentIntensityKineticEnergyInlet;
        intensity       0.05;
        value           uniform 0.216056;
    }
    outlet
    {
        type            zeroGradient;
    }
}


// ************************************************************************* //
