/*--------------------------------*- C++ -*----------------------------------*\
  =========                 |
  \\      /  F ield         | OpenFOAM: The Open Source CFD Toolbox
   \\    /   O peration     | Website:  https://openfoam.org
    \\  /    A nd           | Version:  6
     \\/     M anipulation  |
\*---------------------------------------------------------------------------*/
FoamFile
{
    version     2.0;
    format      ascii;
    class       volScalarField;
    location    "900";
    object      nut;
}
// * * * * * * * * * * * * * * * * * * * * * * * * * * * * * * * * * * * * * //

dimensions      [0 2 -1 0 0 0 0];

internalField   nonuniform List<scalar> 
458
(
0.000696821
0.000694909
0.0005749
0.000547474
0.000536379
0.000527657
0.000515963
0.000498697
0.000476141
0.000451537
0.000431007
0.000422072
0.000431213
0.000464948
0.000544986
0.000416783
0.000440091
0.000314653
0.000251599
0.000206291
0.000192971
0.000200617
0.000212317
0.000226533
0.000241814
0.000256763
0.000270464
0.000278561
0.000277343
0.000285584
0.000306683
0.000370259
0.000355274
0.00116461
0.00274185
0.00219488
0.00225607
0.00226311
0.00229698
0.00238579
0.00251283
0.00254799
0.00238999
0.00206552
0.00170875
0.00143082
0.00126969
0.00116
0.000722153
0.000762838
0.000658973
0.000608547
0.00175766
0.001277
0.000908174
0.000458735
0.000287969
0.000308438
0.00038938
0.000498166
0.000616449
0.000726226
0.000810511
0.000840901
0.00079708
0.000995791
0.00109747
0.00134072
0.000579515
0.00151679
0.00443893
0.00360147
0.00340339
0.00305337
0.00281939
0.00277252
0.00300537
0.00330256
0.00343269
0.00324883
0.00290955
0.00259234
0.00236553
0.00222993
0.00214998
0.00200078
0.000821749
0.000783578
0.00220676
0.00169355
0.00127237
0.00078779
0.000320427
0.000273186
0.000306106
0.000341132
0.000379175
0.000423348
0.000478303
0.000551979
0.000659957
0.00159126
0.00180004
0.00232379
0.000861569
0.00162603
0.00434324
0.00478574
0.00524979
0.00489009
0.00398154
0.00335767
0.00330503
0.00358517
0.00399168
0.00407587
0.00385124
0.00353214
0.00322507
0.00292123
0.00255004
0.00211048
0.00178587
0.000867808
0.00211869
0.00230725
0.00177927
0.0012615
0.00088759
0.000642703
0.00065602
0.000671995
0.000691856
0.000717611
0.000751048
0.000796529
0.000860231
0.000952069
0.00214066
0.00221687
0.00221579
0.00116011
0.00223179
0.00287758
0.00330182
0.00386369
0.00431349
0.00458041
0.00441456
0.00387855
0.00383996
0.00433485
0.00469839
0.00472804
0.00463453
0.0045482
0.00448959
0.00442056
0.0043026
0.00415649
0.00415531
0.0041437
0.00404353
0.00381853
0.00363608
0.00352461
0.0034721
0.00350315
0.00349609
0.00344045
0.00334562
0.00322662
0.00309568
0.00297027
0.0028688
0.00279895
0.00266505
0.00253262
0.00235226
0.00165257
0.00170178
0.00166389
0.00293588
0.00292064
0.00294132
0.00326363
0.00381892
0.0043495
0.00454284
0.0043689
0.00414891
0.004572
0.00506497
0.00524238
0.00531175
0.00539709
0.00550866
0.00561651
0.00568472
0.00570146
0.00567334
0.00559018
0.00550478
0.00542724
0.0053833
0.00537016
0.00537457
0.00538204
0.00537028
0.00533341
0.00527
0.00518688
0.0050859
0.00497088
0.004852
0.00474923
0.00469315
0.00473862
0.00493534
0.00526747
0.00515302
0.00208338
0.00339515
0.00360537
0.00333605
0.00324706
0.00379469
0.00443706
0.00474046
0.00471525
0.00460961
0.00480685
0.0052989
0.00546374
0.00557065
0.00573294
0.00593818
0.00615125
0.00633421
0.00646239
0.00652942
0.00654689
0.00654508
0.00653887
0.0065386
0.00654348
0.00654511
0.00653527
0.00650831
0.00646382
0.006407
0.00634154
0.00627082
0.00619948
0.00613462
0.00608649
0.00606718
0.00608796
0.00616707
0.00657769
0.00766023
0.00249674
0.00394038
0.00466266
0.00589168
0.00395106
0.00438696
0.00513249
0.0054381
0.00545582
0.00544392
0.00552546
0.0056218
0.00569612
0.0058179
0.00600592
0.00624412
0.00650651
0.00676176
0.00698173
0.00714855
0.00725944
0.00732883
0.00737192
0.0073996
0.00741582
0.00741276
0.00738582
0.0073376
0.00727124
0.00718846
0.00708965
0.00697693
0.0068558
0.0067368
0.00663819
0.00658821
0.00662346
0.00672286
0.00695986
0.00869695
0.00293516
0.0047298
0.00612074
0.0122487
0.00592328
0.00501454
0.00619495
0.00663904
0.00664544
0.00655077
0.00650003
0.00650686
0.0065684
0.00667852
0.00682653
0.00700411
0.00720367
0.00741311
0.00761496
0.00779133
0.0079308
0.00803323
0.00810429
0.00815144
0.00818009
0.00818159
0.0081564
0.0081078
0.00803843
0.00794733
0.00783229
0.0076931
0.0075325
0.00735757
0.00718316
0.00703942
0.00698102
0.00707468
0.00737299
0.00863286
0.00294283
0.0194537
0.0127719
0.0064376
0.00760562
0.00835248
0.00853479
0.00859898
0.00862537
0.00862167
0.00861266
0.00861654
0.00863996
0.0086825
0.0087411
0.0088115
0.00888801
0.00896371
0.00903201
0.00908863
0.00913203
0.00916257
0.00918071
0.00918091
0.00916032
0.00912106
0.0090594
0.00897148
0.0088562
0.00871431
0.0085473
0.00835777
0.00815165
0.00794314
0.00776138
0.00765186
0.0076461
0.00734076
0.00210005
0.00650921
0.00979915
0.0084009
0.00820063
0.00868873
0.00935448
0.00991575
0.0102
0.010265
0.0102208
0.010143
0.0100685
0.0100098
0.00996835
0.00994167
0.00992668
0.00991999
0.00991836
0.00991924
0.00992091
0.00992257
0.00992437
0.00992641
0.00992862
0.00992728
0.00990123
0.00984338
0.0097582
0.00965098
0.00952576
0.00938546
0.0092328
0.00907094
0.00890303
0.00872312
0.00849882
0.00740825
0.00207976
0.00203933
0.0020161
0.00355953
0.00341256
0.00315565
0.00291565
0.00273692
0.0026266
0.0025713
0.00255149
0.00254033
0.00252471
0.00250332
0.00247878
0.00245395
0.00243071
0.00240991
0.00239169
0.00237579
0.00236173
0.00234898
0.00233713
0.00232584
0.0023149
0.00230417
0.00229357
0.00228278
0.00227295
0.0022632
0.00225237
0.00224017
0.00222679
0.00221268
0.00219847
0.00218497
0.00217334
0.00216616
0.00217016
0.00207898
0.001845
)
;

boundaryField
{
    floor
    {
        type            nutkWallFunction;
        Cmu             0.09;
        kappa           0.41;
        E               9.8;
        value           nonuniform List<scalar> 
36
(
6.53671e-05
4.89001e-05
5.19413e-05
3.53062e-05
2.66306e-05
2.02161e-05
1.82963e-05
1.93994e-05
2.10804e-05
2.31058e-05
2.52634e-05
2.7356e-05
2.92594e-05
3.03775e-05
3.02099e-05
3.13446e-05
3.42298e-05
4.2775e-05
4.07739e-05
4.07739e-05
6.97461e-05
0.000104311
0.000139502
0.000195447
0.000200926
0.000196706
6.53671e-05
8.74089e-05
9.23713e-05
7.96338e-05
4.89e-05
7.96338e-05
7.33762e-05
9.95094e-05
9.48982e-05
0.000105053
)
;
    }
    ceiling
    {
        type            nutkWallFunction;
        Cmu             0.09;
        kappa           0.41;
        E               9.8;
        value           nonuniform List<scalar> 
43
(
0.000238558
0.000235974
0.000399444
0.000384224
0.00035748
0.000332294
0.000313394
0.000301655
0.000295737
0.000293594
0.000292371
0.000290675
0.000288366
0.000285723
0.000283051
0.000280548
0.000278308
0.000276344
0.000274629
0.000273109
0.000271732
0.000270449
0.000269227
0.000268041
0.000266878
0.000265729
0.00026456
0.000263492
0.000262434
0.00026126
0.000259937
0.000258486
0.000256955
0.000255412
0.000253945
0.000252681
0.000251895
0.00025232
0.000242407
0.000216776
0.000517714
0.000655165
0.000693368
)
;
    }
    sWall
    {
        type            nutkWallFunction;
        Cmu             0.09;
        kappa           0.41;
        E               9.8;
        value           uniform 0.000238587;
    }
    nWall
    {
        type            nutkWallFunction;
        Cmu             0.09;
        kappa           0.41;
        E               9.8;
        value           nonuniform List<scalar> 6(0.000196708 0.000242874 0.000287399 0.000244675 0.000242491 0.000216783);
    }
    sideWalls
    {
        type            empty;
    }
    glass1
    {
        type            nutkWallFunction;
        Cmu             0.09;
        kappa           0.41;
        E               9.8;
        value           nonuniform List<scalar> 9(8.43549e-05 0.000140176 0.000180447 0.000192781 0.000259044 0.000334203 0.000382109 0.000438121 0.000517872);
    }
    glass2
    {
        type            nutkWallFunction;
        Cmu             0.09;
        kappa           0.41;
        E               9.8;
        value           nonuniform List<scalar> 2(0.000333662 0.000334466);
    }
    sun
    {
        type            nutkWallFunction;
        Cmu             0.09;
        kappa           0.41;
        E               9.8;
        value           nonuniform List<scalar> 
14
(
8.43809e-05
8.41501e-05
6.91806e-05
6.56982e-05
6.42788e-05
6.31621e-05
6.1667e-05
5.94576e-05
5.65607e-05
5.33827e-05
5.07156e-05
4.9551e-05
5.07462e-05
5.51268e-05
)
;
    }
    Table_master
    {
        type            nutkWallFunction;
        Cmu             0.09;
        kappa           0.41;
        E               9.8;
        value           nonuniform List<scalar> 9(3.60453e-05 2.96103e-05 3.41276e-05 3.88643e-05 4.39388e-05 4.97507e-05 5.68761e-05 6.62727e-05 7.97755e-05);
    }
    Table_slave
    {
        type            nutkWallFunction;
        Cmu             0.09;
        kappa           0.41;
        E               9.8;
        value           nonuniform List<scalar> 9(7.76229e-05 7.92753e-05 8.12522e-05 8.37024e-05 8.6867e-05 9.09555e-05 9.64823e-05 0.000104161 0.000115116);
    }
    inlet
    {
        type            calculated;
        value           uniform 0.0194537;
    }
    outlet
    {
        type            calculated;
        value           nonuniform List<scalar> 2(0.00203933 0.0020161);
    }
}


// ************************************************************************* //
