/*--------------------------------*- C++ -*----------------------------------*\
  =========                 |
  \\      /  F ield         | OpenFOAM: The Open Source CFD Toolbox
   \\    /   O peration     | Website:  https://openfoam.org
    \\  /    A nd           | Version:  6
     \\/     M anipulation  |
\*---------------------------------------------------------------------------*/
FoamFile
{
    version     2.0;
    format      ascii;
    class       surfaceScalarField;
    location    "900";
    object      phi;
}
// * * * * * * * * * * * * * * * * * * * * * * * * * * * * * * * * * * * * * //

dimensions      [1 0 -1 0 0 0 0];

internalField   nonuniform List<scalar> 
850
(
-0.00195884
0.00199387
-0.00229282
0.00033414
-0.00231592
2.33033e-05
-0.002282
-3.36881e-05
-0.00218703
-9.47126e-05
-0.00202155
-0.000165192
-0.00179285
-0.000228401
-0.00152487
-0.000267667
-0.00125336
-0.000271201
-0.00100545
-0.000247598
-0.000795427
-0.000209738
-0.0006227
-0.000172459
-0.000478162
-0.000144291
-0.000347292
-0.000130643
-0.000351402
0.00010839
-0.000110403
-7.6517e-05
0.000185109
-0.000110363
3.40502e-05
-8.09846e-05
-2.921e-05
1.12381e-05
-9.20403e-05
0.000107314
-9.58912e-05
0.000280732
-0.000173171
0.000404316
-0.00012336
0.000490355
-8.58342e-05
0.000552149
-6.16049e-05
0.000597412
-4.5086e-05
0.000633817
-3.62359e-05
0.000659412
-2.54318e-05
0.000650213
9.35531e-06
0.000530812
0.000119552
0.000328806
0.000202152
-3.85686e-05
0.000367517
-4.04688e-05
-0.00157625
0.00366009
-0.00210159
0.000859643
-0.00217253
9.44599e-05
-0.00218261
-2.33388e-05
-0.00213312
-0.00014389
-0.00200524
-0.000292724
-0.00181012
-0.000423134
-0.00157376
-0.000503622
-0.00134444
-0.000500122
-0.00114797
-0.000443679
-0.000997907
-0.000359439
-0.000902669
-0.00026736
-0.000858664
-0.000187988
-0.000830386
-0.000158632
-0.000895088
-0.000286423
-0.000533665
-0.00036878
-8.77793e-05
-0.000452899
-0.000106114
-4.03101e-05
-7.67544e-05
0.000142219
2.81812e-06
8.56845e-05
9.08271e-05
-2.77826e-05
8.45283e-05
-0.000271077
0.000151492
-4.41567e-05
-0.000322562
9.71924e-05
-0.000314317
0.000151061
-0.000177033
0.000179032
-0.00011362
0.000192841
-7.52403e-05
0.00019486
-4.69404e-05
0.000180713
-2.19326e-05
0.000148449
6.96931e-06
0.000115814
4.21229e-05
7.28294e-05
0.000162666
5.13576e-05
0.00022375
5.64701e-05
0.000362526
9.54167e-06
-0.00105677
0.00485137
-0.00154184
0.00134485
-0.00153031
8.31471e-05
-0.00166937
0.000116002
-0.00179461
-1.83278e-05
-0.00178128
-0.000305664
-0.00165485
-0.000549126
-0.00144787
-0.000710131
-0.00125698
-0.000690549
-0.00110091
-0.000599305
-0.000977919
-0.000482006
-0.000880134
-0.000364753
-0.000796561
-0.0002712
-0.000714123
-0.000240735
-0.000673553
-0.000326673
-0.000514799
-0.000527221
-0.00023154
-0.00073585
-0.000354979
-0.00036033
0.000270299
-0.00027353
-8.36592e-05
-0.000124721
-5.76556e-05
2.08108e-06
-4.19547e-05
0.000238917
-8.50214e-05
-8.30685e-05
-0.00039713
-0.00057391
-0.000687277
-0.000762268
-0.000808965
-0.000830654
-0.000823435
-0.000781054
-0.000586745
-3.15055e-05
-0.000386882
2.39793e-05
0.000100402
-0.000124704
9.63862e-05
0.00258276
0.00244572
0.00236846
0.00155951
0.00136725
0.00108476
0.000319529
0.00116421
-0.000576298
0.00087801
-0.00108104
0.00019952
-0.0011714
-0.000458332
-0.00110273
-0.000778337
-0.00103322
-0.000759577
-0.000975255
-0.000656798
-0.000943347
-0.000513458
-0.000935859
-0.000371814
-0.000950552
-0.000256111
-0.000994435
-0.000196483
-0.001097
-0.000223759
-0.0012951
-0.000328772
-0.00162708
-0.000403538
-0.00158278
-0.000398956
-0.00143533
-0.000168066
-0.00116795
3.16946e-06
-0.00122713
-2.42129e-05
-0.00132449
3.99572e-05
-0.00143524
6.90593e-05
-0.0015918
7.18341e-05
-0.00166429
7.26503e-05
-0.00170211
3.79803e-05
-0.00171499
1.30336e-05
-0.00171066
-4.16809e-06
-0.00169273
-1.7788e-05
-0.00166202
-3.05577e-05
-0.00161663
-4.52635e-05
-0.00154955
-6.69481e-05
-0.00144347
-0.000105974
-0.00127957
-0.000195169
-0.000941114
-0.000314244
-0.000599189
-0.000466393
-0.000526464
0.00551999
-0.00293293
0.00657696
0.000505427
0.0055143
0.00214959
0.00407038
0.00260979
0.00266328
0.00228642
0.0013151
0.00154872
0.000203264
0.000654227
-0.000436211
-0.000138492
-0.000637411
-0.000557973
-0.000726406
-0.000567343
-0.000798199
-0.0004412
-0.000867593
-0.000301977
-0.00093834
-0.000184954
-0.00101898
-0.000115462
-0.00113025
-0.000112128
-0.00129717
-0.000161496
-0.00149445
-0.000205912
-0.00168114
-0.000211921
-0.00169602
-0.000152861
-0.00165318
-3.9351e-05
-0.00167925
2.16309e-06
-0.00169156
5.25789e-05
-0.00170099
7.8804e-05
-0.0017121
8.32599e-05
-0.00170904
6.99231e-05
-0.00171286
4.2122e-05
-0.00171586
1.63685e-05
-0.00171574
-3.95423e-06
-0.00171448
-1.87138e-05
-0.00171689
-2.78074e-05
-0.00172913
-3.26872e-05
-0.0017583
-3.74336e-05
-0.00181234
-5.15884e-05
-0.00192037
-8.67881e-05
-0.00208438
-0.000149868
-0.00229423
-0.000256159
-0.00232972
-0.000490577
-0.00185918
-0.00049403
-0.00144602
-0.000436288
-0.0014946
0.0024608
-0.00531207
0.00423492
-0.00126742
0.00435181
0.00203398
0.00364201
0.00332091
0.00273741
0.00319232
0.00190059
0.00238656
0.00113308
0.00142231
0.000422033
0.000572897
-9.53326e-05
-4.02785e-05
-0.00038714
-0.000275123
-0.000572969
-0.000254916
-0.000716568
-0.000157929
-0.000833365
-6.77377e-05
-0.000938317
-1.01279e-05
-0.00105289
2.80548e-06
-0.00119161
-2.24089e-05
-0.00134042
-5.67431e-05
-0.00148023
-7.17557e-05
-0.00157251
-6.02274e-05
-0.00159547
-1.60511e-05
-0.00160634
1.3373e-05
-0.00159503
4.1602e-05
-0.00157314
5.72515e-05
-0.00154756
5.80269e-05
-0.00152227
4.49679e-05
-0.00150138
2.1578e-05
-0.0014803
-4.3549e-06
-0.0014551
-2.8803e-05
-0.00142401
-4.94503e-05
-0.0013858
-6.56601e-05
-0.00133999
-7.81267e-05
-0.00128725
-8.98087e-05
-0.00123194
-0.000106526
-0.00118479
-0.00013357
-0.00115832
-0.000175948
-0.00115987
-0.00025422
-0.00123563
-0.000414415
-0.00111672
-0.000612524
-0.000827496
-0.000725088
-0.00234772
0.000814752
-0.00604187
0.0021905
-0.00264282
0.00261323
0.00161211
0.00214386
0.00379142
0.00168889
0.00364839
0.001365
0.00271118
0.00107567
0.00171194
0.000761907
0.000886797
0.00036906
0.000352794
3.36733e-06
9.09381e-05
-0.000271432
2.03241e-05
-0.00045826
2.93494e-05
-0.000587492
6.19352e-05
-0.000684716
8.75315e-05
-0.000775
9.35093e-05
-0.000875411
7.83868e-05
-0.000982893
5.11061e-05
-0.00108169
2.74053e-05
-0.00115796
1.63978e-05
-0.0011941
2.04405e-05
-0.00120652
2.61537e-05
-0.00119725
3.2701e-05
-0.00117411
3.44673e-05
-0.00114443
2.87048e-05
-0.00111364
1.45323e-05
-0.00108423
-7.47165e-06
-0.0010548
-3.34155e-05
-0.00102299
-6.02443e-05
-0.000985669
-8.64058e-05
-0.000939694
-0.000111263
-0.000881971
-0.000135475
-0.000809826
-0.000161576
-0.000721683
-0.000194288
-0.000615364
-0.000239505
-0.000485903
-0.00030502
-0.00033834
-0.00040139
-0.000220712
-0.000531645
-0.000148925
-0.000683905
2.73315e-05
-0.000900929
-0.00234718
-0.000996427
-0.00495427
4.24726e-05
-0.00368153
0.000746142
0.000909077
0.000155848
0.00438265
0.000195566
0.00360936
0.000426139
0.00248093
0.00059391
0.00154429
0.000613464
0.000867363
0.000488638
0.000477849
0.000288573
0.000291363
9.37563e-05
0.000215608
-6.05485e-05
0.000184171
-0.000165821
0.000167729
-0.000233622
0.000155838
-0.000282899
0.000143266
-0.000329981
0.000125921
-0.000381918
0.000103473
-0.000434404
8.0306e-05
-0.000478932
6.13284e-05
-0.000506232
4.81363e-05
-0.000517347
3.76583e-05
-0.000513159
2.88958e-05
-0.000497527
1.92148e-05
-0.000474937
6.49186e-06
-0.000449749
-1.02778e-05
-0.000425021
-3.18239e-05
-0.000401008
-5.70525e-05
-0.000376515
-8.43602e-05
-0.00034964
-0.000112901
-0.000317423
-0.0001431
-0.000276064
-0.000176452
-0.000221233
-0.000216023
-0.000147744
-0.000267391
-4.71562e-05
-0.000339705
9.48594e-05
-0.000446645
0.000301312
-0.000607448
0.000611976
-0.000841911
0.00105242
-0.00112394
0.00142198
-0.00127009
-0.00111498
-0.00490018
-0.00861315
-0.00494133
-0.00276256
-0.00256325
0.00200498
-0.00135916
0.00240554
-0.000512924
0.00163485
7.69411e-05
0.000954614
0.000391586
0.000553048
0.000515337
0.000354537
0.0005386
0.000268621
0.000521811
0.00023297
0.000496675
0.000209896
0.000477425
0.000187561
0.000468203
0.000165619
0.00046664
0.000145361
0.000466729
0.000126334
0.000463132
0.000107547
0.000454824
8.90681e-05
0.00044479
7.17995e-05
0.000437096
5.62532e-05
0.000433466
4.17006e-05
0.000434884
2.7882e-05
0.000440586
1.39105e-05
0.000448803
-1.33041e-06
0.000457779
-1.88638e-05
0.000466734
-4.03908e-05
0.000475261
-6.51934e-05
0.000482113
-9.08267e-05
0.000487261
-0.000117663
0.000492524
-0.000147978
0.000500692
-0.000184232
0.000514941
-0.000229884
0.000538614
-0.000290676
0.000575423
-0.000376124
0.000630528
-0.000501358
0.000712834
-0.000689361
0.000847724
-0.000976404
0.00113223
-0.00140805
0.00166432
-0.00180176
0.000331213
-0.00581898
0.00166271
-0.00444621
0.000632002
-0.00223178
0.000191053
-0.000690198
9.3475e-05
0.000183783
8.11111e-05
0.000659065
7.84348e-05
0.000940486
7.38628e-05
0.00111107
9.88113e-05
0.00122249
0.000122301
0.00130205
0.000131068
0.00136279
0.000127501
0.00141177
0.00011728
0.00145269
0.000105035
0.00148649
9.30847e-05
0.00151258
8.19649e-05
0.00153061
7.15208e-05
0.00154137
6.14984e-05
0.00154645
5.16048e-05
0.00154717
4.14077e-05
0.00154471
3.07474e-05
0.00153957
1.94615e-05
0.00153123
7.40383e-06
0.00152058
-7.81429e-06
0.00150738
-2.67973e-05
0.00149117
-4.85972e-05
0.00147016
-6.94285e-05
0.001444
-9.11078e-05
0.0014135
-0.000117089
0.00137938
-0.000149732
0.00134171
-0.000191817
0.00129887
-0.000247453
0.00124587
-0.000322734
0.00117108
-0.000426181
0.00105086
-0.000568751
0.000836327
-0.000761476
0.000424374
-0.000995699
-0.000437714
-0.000939272
-0.000151931
-0.000361241
0.0019786
0.000865929
-0.000595677
0.00145747
-0.000400852
0.0017789
-0.000227688
0.00201626
-0.000155549
0.00217644
-8.08162e-05
0.00226493
-1.36281e-05
0.00232821
3.65215e-05
0.00238974
6.17447e-05
0.00245091
7.0812e-05
0.00250754
7.17145e-05
0.00255647
6.91233e-05
0.0025964
6.58e-05
0.00262716
6.29447e-05
0.00264901
6.06793e-05
0.00266239
5.86513e-05
0.00266795
5.64193e-05
0.0026664
5.35962e-05
0.00265834
4.9881e-05
0.00264434
4.51608e-05
0.00262483
3.9369e-05
0.00260028
3.23471e-05
0.00256872
2.41301e-05
0.00252759
1.47296e-05
0.00247599
3.38336e-06
0.002416
-9.04748e-06
0.00234903
-2.37492e-05
0.00227398
-4.16501e-05
0.00218818
-6.35519e-05
0.00208743
-9.06758e-05
0.00196509
-0.000124734
0.00181083
-0.000168089
0.00160874
-0.0002237
0.00133542
-0.00029505
0.000967929
-0.000393599
0.00054005
-0.000567432
8.61654e-05
-0.000484996
-0.000116474
0.000118413
0.00510158
0.00697359
0.00626975
0.00575546
0.00540907
0.00513144
0.00492774
0.00479271
0.00471088
0.00465755
0.00461615
0.00457802
0.00453926
0.00449884
0.00445706
0.00441438
0.00437096
0.00432653
0.00428044
0.00423175
0.00417941
0.00412229
0.00405911
0.00398862
0.0039096
0.00382004
0.00371886
0.00360376
0.00347145
0.00331787
0.00313772
0.00292401
0.00266743
0.00235575
0.00197332
0.00149319
0.000840725
0.000269678
)
;

boundaryField
{
    floor
    {
        type            calculated;
        value           nonuniform List<scalar> 
36
(
0
0
0
0
0
0
0
0
0
0
0
0
0
0
0
0
0
0
0
2.04296e-06
6.57052e-06
1.36596e-05
2.38929e-05
2.39126e-05
2.35619e-05
2.42351e-05
4.33208e-06
7.63029e-06
7.28129e-06
7.47317e-06
2.22901e-06
1.11351e-05
6.90526e-06
1.76109e-05
1.36051e-05
2.09188e-05
)
;
    }
    ceiling
    {
        type            calculated;
        value           nonuniform List<scalar> 
43
(
0.00019706
0.000189372
0.000106322
0.000107899
0.000113256
0.00011867
0.000122287
0.00012333
0.000122066
0.00011921
0.000116054
0.000113249
0.000110889
0.000108888
0.000107135
0.000105548
0.000104078
0.000102698
0.000101396
0.000100166
9.90064e-05
9.79132e-05
9.68836e-05
9.59133e-05
9.49975e-05
9.41313e-05
9.33207e-05
9.25152e-05
9.17412e-05
9.10379e-05
9.04134e-05
8.98582e-05
8.93529e-05
8.88681e-05
8.83606e-05
8.77585e-05
8.69051e-05
8.54196e-05
8.6435e-05
9.22842e-05
3.99972e-05
3.15732e-05
4.51135e-05
)
;
    }
    sWall
    {
        type            calculated;
        value           uniform 9.39494e-05;
    }
    nWall
    {
        type            calculated;
        value           nonuniform List<scalar> 6(2.47781e-05 2.60642e-05 2.72149e-05 4.58653e-05 5.11091e-05 6.13121e-05);
    }
    sideWalls
    {
        type            empty;
        value           nonuniform 0();
    }
    glass1
    {
        type            calculated;
        value           nonuniform List<scalar> 9(-3.49017e-05 -8.98623e-05 -0.00013441 -0.000176851 -0.000137468 -8.12324e-05 -8.48361e-05 -9.10974e-05 -9.39998e-05);
    }
    glass2
    {
        type            calculated;
        value           nonuniform List<scalar> 2(0.000190217 0.000218559);
    }
    sun
    {
        type            calculated;
        value           uniform 0;
    }
    Table_master
    {
        type            calculated;
        value           nonuniform List<scalar> 9(-1.49588e-07 -1.49693e-07 -1.49553e-07 -1.49435e-07 -1.49329e-07 -1.49229e-07 -1.4913e-07 -1.49025e-07 -1.48881e-07);
    }
    Table_slave
    {
        type            calculated;
        value           nonuniform List<scalar> 9(1.468e-07 1.46766e-07 1.46742e-07 1.46726e-07 1.46714e-07 1.46712e-07 1.4672e-07 1.4674e-07 1.4676e-07);
    }
    inlet
    {
        type            calculated;
        value           uniform 0.00139361;
    }
    outlet
    {
        type            calculated;
        value           nonuniform List<scalar> 2(-0.000409514 -0.00517264);
    }
}


// ************************************************************************* //
