// -*- C++ -*-
// File generated by PyFoam - sorry for the ugliness

FoamFile
{
 version 2.0;
 format ascii;
 class volVectorField;
 location "900";
 object U;
}

dimensions [ 0 1 -1 0 0 0 0 ];

internalField nonuniform List<vector> 458
(
  (0.0541246 0.0562697 0)
  (-0.112379 0.00658887 0)
  (-0.101455 -0.00077021 0)
  (-0.101238 -0.00215436 0)
  (-0.0984026 -0.00383543 0)
  (-0.0925084 -0.00563599 0)
  (-0.0836491 -0.00727046 0)
  (-0.0725881 -0.00830008 0)
  (-0.0606309 -0.00828125 0)
  (-0.0491219 -0.00732804 0)
  (-0.0391944 -0.0057125 0)
  (-0.0320794 -0.00359672 0)
  (-0.0272608 -0.000828823 0)
  (-0.0142047 0.00204697 0)
  (0.0318366 -0.00217612 0)
  (-0.0771472 -0.0035314 0)
  (0.025334 0.00318179 0)
  (-0.0011578 0.000739996 0)
  (-0.00469699 -0.00140549 0)
  (-0.00293973 -0.00119012 0)
  (0.0026808 -0.00420002 0)
  (0.00810454 -0.00603908 0)
  (0.0150208 -0.00458434 0)
  (0.0197104 -0.00331247 0)
  (0.0228828 -0.00239423 0)
  (0.0251669 -0.00176069 0)
  (0.0268429 -0.00144038 0)
  (0.0280992 -0.00130607 0)
  (0.0288917 -0.000805012 0)
  (0.026767 0.00184182 0)
  (0.0215482 0.00522223 0)
  (-0.014139 0.0118089 0)
  (0.0669298 -0.00310759 0)
  (0.178029 0.12165 0)
  (-0.123433 0.0261551 0)
  (-0.0946686 0.00176872 0)
  (-0.0957927 -0.00194618 0)
  (-0.0953089 -0.00574241 0)
  (-0.0912482 -0.0102505 0)
  (-0.0838384 -0.0145737 0)
  (-0.0740983 -0.017408 0)
  (-0.0636928 -0.0175848 0)
  (-0.0542676 -0.0159265 0)
  (-0.0466478 -0.0133932 0)
  (-0.0414527 -0.0111533 0)
  (-0.0387186 -0.0108515 0)
  (-0.0366619 -0.0156688 0)
  (-0.0339028 -0.0347402 0)
  (-0.0381926 -0.0866166 0)
  (-0.0652662 -0.0938457 0)
  (0.18738 -0.125962 0)
  (-0.121433 3.32934e-05 0)
  (0.0328348 0.00199768 0)
  (0.00901205 0.00302975 0)
  (0.000175257 0.00121122 0)
  (-0.009063 -0.0015493 0)
  (-0.00377507 -0.0121864 0)
  (-0.00199782 -0.0125832 0)
  (0.00502034 -0.00802239 0)
  (0.00744886 -0.00537996 0)
  (0.00824789 -0.00370876 0)
  (0.00849571 -0.0024825 0)
  (0.00830202 -0.00143352 0)
  (0.00732786 -5.88155e-05 0)
  (0.00564646 0.00214906 0)
  (0.00512731 0.00813023 0)
  (0.00472476 0.0115731 0)
  (-0.0326075 0.0150265 0)
  (0.122524 0.00270805 0)
  (0.291872 0.17999 0)
  (-0.128289 0.0299192 0)
  (-0.0704412 -0.0102326 0)
  (-0.0686983 -0.00353213 0)
  (-0.0776529 -0.00719435 0)
  (-0.0796223 -0.0161088 0)
  (-0.0756304 -0.0240121 0)
  (-0.068054 -0.0280288 0)
  (-0.0591154 -0.0269994 0)
  (-0.0514846 -0.0235655 0)
  (-0.0454403 -0.0188865 0)
  (-0.0406872 -0.013721 0)
  (-0.0364995 -0.008634 0)
  (-0.032226 -0.00452287 0)
  (-0.0296314 -0.00346957 0)
  (-0.0325099 -0.00727148 0)
  (-0.0389712 -0.0125145 0)
  (0.129988 0.0267565 0)
  (-0.133704 0.00928176 0)
  (0.00541043 -0.00162514 0)
  (-0.00594508 -0.00016303 0)
  (-0.00216681 0.000580443 0)
  (0.00084293 0.00133309 0)
  (0.0106309 -0.00999872 0)
  (-0.0123053 -0.0124206 0)
  (-0.0220054 -0.00842562 0)
  (-0.0279171 -0.00635855 0)
  (-0.0318985 -0.00498172 0)
  (-0.0346741 -0.00388051 0)
  (-0.0365337 -0.00289723 0)
  (-0.0368474 -0.00193417 0)
  (-0.034013 -0.000986943 0)
  (-0.0288158 0.00352255 0)
  (-0.0245686 0.00800166 0)
  (-0.0442262 0.00749517 0)
  (0.166013 0.0184258 0)
  (0.472979 0.2197 0)
  (0.0742857 0.107227 0)
  (0.0495023 0.0383759 0)
  (0.0413499 0.0202905 0)
  (-0.00626443 0.00247223 0)
  (-0.0416523 -0.0203104 0)
  (-0.0495166 -0.031381 0)
  (-0.0510257 -0.0361085 0)
  (-0.0471892 -0.0337814 0)
  (-0.0440702 -0.0288316 0)
  (-0.042001 -0.0228944 0)
  (-0.0411335 -0.0172463 0)
  (-0.0410689 -0.0130063 0)
  (-0.0417601 -0.0117408 0)
  (-0.0448554 -0.0151451 0)
  (-0.0537111 -0.0231037 0)
  (-0.0666687 -0.0325997 0)
  (-0.0671729 -0.0406773 0)
  (-0.0675964 -0.0799303 0)
  (-0.0621677 0.000910894 0)
  (-0.047477 -0.00293338 0)
  (-0.0555111 -0.00043708 0)
  (-0.0606151 0.000358003 0)
  (-0.0668448 -0.000377815 0)
  (-0.0724343 8.43179e-05 0)
  (-0.0742398 -0.00087684 0)
  (-0.0752618 -0.00170334 0)
  (-0.075423 -0.00227353 0)
  (-0.0749386 -0.00270637 0)
  (-0.0739267 -0.00305154 0)
  (-0.0723219 -0.00330881 0)
  (-0.069768 -0.00348176 0)
  (-0.0657668 -0.00359049 0)
  (-0.0608168 -0.00416828 0)
  (-0.0564952 -0.00469457 0)
  (-0.0401622 -0.00429983 0)
  (0.102253 0.0109355 0)
  (0.474732 0.000827767 0)
  (0.278214 0.0614067 0)
  (0.246437 0.0889337 0)
  (0.213672 0.0969836 0)
  (0.152182 0.0817923 0)
  (0.0900427 0.049489 0)
  (0.0276188 0.00416271 0)
  (-0.0139364 -0.0274237 0)
  (-0.025021 -0.0320628 0)
  (-0.0305697 -0.0282858 0)
  (-0.0336904 -0.0217866 0)
  (-0.0366587 -0.0152525 0)
  (-0.0395706 -0.0098449 0)
  (-0.0425614 -0.00666386 0)
  (-0.0465794 -0.00652278 0)
  (-0.0531624 -0.00845095 0)
  (-0.062248 -0.00872043 0)
  (-0.070811 -0.00439938 0)
  (-0.0743995 -0.00296845 0)
  (-0.0737431 0.000105229 0)
  (-0.0729382 0.00028376 0)
  (-0.0741189 0.00278371 0)
  (-0.0746492 0.0041637 0)
  (-0.0751397 0.00441099 0)
  (-0.0753335 0.00398348 0)
  (-0.0753313 0.00250811 0)
  (-0.0754777 0.00133599 0)
  (-0.0755281 0.000452789 0)
  (-0.0754627 -0.000253201 0)
  (-0.075454 -0.000898588 0)
  (-0.0757058 -0.00170508 0)
  (-0.0764582 -0.00310708 0)
  (-0.0781993 -0.00590583 0)
  (-0.0819945 -0.0112328 0)
  (-0.0890001 -0.0200973 0)
  (-0.0967296 -0.0358456 0)
  (-0.101516 -0.064667 0)
  (-0.117956 -0.136318 0)
  (-0.0967178 -0.141991 0)
  (0.149226 -0.165955 0)
  (0.280421 -0.247427 0)
  (0.136842 -0.0525736 0)
  (0.184204 0.0764546 0)
  (0.187122 0.125998 0)
  (0.146742 0.121094 0)
  (0.100176 0.0893098 0)
  (0.0623218 0.0507428 0)
  (0.0332506 0.0144142 0)
  (0.00401688 -0.0148566 0)
  (-0.0126653 -0.0202546 0)
  (-0.0218688 -0.016175 0)
  (-0.0287142 -0.0106278 0)
  (-0.0342461 -0.00583687 0)
  (-0.0388738 -0.00290167 0)
  (-0.0435372 -0.00251328 0)
  (-0.0492287 -0.00426776 0)
  (-0.0559175 -0.00616819 0)
  (-0.0626134 -0.00617716 0)
  (-0.067634 -0.00420794 0)
  (-0.0699895 -0.00135063 0)
  (-0.0706072 0.000318608 0)
  (-0.0705717 0.00206302 0)
  (-0.0697854 0.00303331 0)
  (-0.0687102 0.00316068 0)
  (-0.0675842 0.0026224 0)
  (-0.0665869 0.0015127 0)
  (-0.0656996 0.000392122 0)
  (-0.0646824 -0.00055354 0)
  (-0.0634671 -0.00123342 0)
  (-0.0619527 -0.00159747 0)
  (-0.0600951 -0.00163668 0)
  (-0.0578855 -0.00141127 0)
  (-0.0554685 -0.00109428 0)
  (-0.0532287 -0.000813323 0)
  (-0.0513902 -0.000160865 0)
  (-0.0496968 0.000987846 0)
  (-0.0510908 0.00199056 0)
  (-0.0668311 -0.00135242 0)
  (-0.106236 -0.00863282 0)
  (0.217979 -0.0808307 0)
  (0.212198 -0.272322 0)
  (0.0129032 -0.102168 0)
  (0.116139 0.0772246 0)
  (0.122802 0.156611 0)
  (0.0888272 0.153225 0)
  (0.0630945 0.11689 0)
  (0.0498474 0.0740854 0)
  (0.0393851 0.0364417 0)
  (0.02555 0.010338 0)
  (0.0075493 -0.0038028 0)
  (-0.00750256 -0.00596504 0)
  (-0.0167642 -0.00344154 0)
  (-0.023402 -0.000470181 0)
  (-0.0281354 0.00158568 0)
  (-0.0320953 0.00216768 0)
  (-0.0362619 0.00132518 0)
  (-0.0409931 -0.000183847 0)
  (-0.0457471 -0.00125094 0)
  (-0.0496836 -0.0011977 0)
  (-0.0520815 -0.00029969 0)
  (-0.0530865 0.000480721 0)
  (-0.0531167 0.00124947 0)
  (-0.0523356 0.00165195 0)
  (-0.0511244 0.0015593 0)
  (-0.0497791 0.000970145 0)
  (-0.0484542 -4.1665e-05 0)
  (-0.0471404 -0.00122237 0)
  (-0.0458347 -0.00239912 0)
  (-0.0443439 -0.00348495 0)
  (-0.0425397 -0.00444833 0)
  (-0.0402829 -0.0053174 0)
  (-0.0374414 -0.00620791 0)
  (-0.0339439 -0.00734517 0)
  (-0.0297889 -0.00899616 0)
  (-0.0247268 -0.0113863 0)
  (-0.0175788 -0.0149654 0)
  (-0.00775528 -0.0202002 0)
  (-0.00823559 -0.0263496 0)
  (-0.116261 -0.0347189 0)
  (0.332161 -0.103064 0)
  (0.111559 -0.227929 0)
  (-0.107312 -0.143635 0)
  (0.0381069 0.0231316 0)
  (0.0525197 0.187863 0)
  (0.00695302 0.1693 0)
  (0.00839719 0.120579 0)
  (0.0199907 0.07625 0)
  (0.0264491 0.0424318 0)
  (0.0250423 0.0214087 0)
  (0.017601 0.0110247 0)
  (0.00818489 0.0068596 0)
  (0.000176951 0.00564724 0)
  (-0.0054691 0.00563784 0)
  (-0.00906082 0.00581916 0)
  (-0.0114735 0.00569903 0)
  (-0.0135063 0.00502907 0)
  (-0.0156963 0.00389518 0)
  (-0.0180712 0.00269816 0)
  (-0.0202852 0.00185521 0)
  (-0.0219017 0.00150672 0)
  (-0.0227304 0.00130526 0)
  (-0.0228608 0.00119442 0)
  (-0.0223853 0.000994579 0)
  (-0.021524 0.000586269 0)
  (-0.0204329 -8.69267e-05 0)
  (-0.0192751 -0.00102787 0)
  (-0.0182194 -0.00214199 0)
  (-0.017167 -0.0033325 0)
  (-0.0160574 -0.00454136 0)
  (-0.0147877 -0.00575417 0)
  (-0.013205 -0.00700834 0)
  (-0.0111259 -0.00841702 0)
  (-0.00835674 -0.0102005 0)
  (-0.00469265 -0.0126998 0)
  (0.000420413 -0.0164697 0)
  (0.0087411 -0.0222208 0)
  (0.0230213 -0.0304379 0)
  (0.0375772 -0.0400567 0)
  (-0.0583119 -0.0506347 0)
  (0.548989 -0.0719809 0)
  (-0.0538989 -0.0978151 0)
  (-0.31868 -0.0842086 0)
  (-0.455319 -0.0215142 0)
  (-0.0443765 0.161946 0)
  (-0.0854353 0.14732 0)
  (-0.0461279 0.0997065 0)
  (-0.0106568 0.0624486 0)
  (0.0116568 0.0383652 0)
  (0.0210582 0.0260873 0)
  (0.0240086 0.0202722 0)
  (0.0236944 0.0174502 0)
  (0.0224702 0.0156371 0)
  (0.0214069 0.0141466 0)
  (0.0208043 0.0128697 0)
  (0.0206209 0.0117706 0)
  (0.0206429 0.010727 0)
  (0.0205942 0.00964092 0)
  (0.0203229 0.00853916 0)
  (0.0198808 0.00752571 0)
  (0.0194516 0.0066795 0)
  (0.0191898 0.00594252 0)
  (0.0191378 0.00529274 0)
  (0.0193016 0.00466307 0)
  (0.0196062 0.00398741 0)
  (0.020031 0.00324107 0)
  (0.020436 0.00238052 0)
  (0.0208291 0.00140179 0)
  (0.0211689 0.000342483 0)
  (0.0214192 -0.000794482 0)
  (0.0216235 -0.00205036 0)
  (0.0218891 -0.00350221 0)
  (0.0223534 -0.00529822 0)
  (0.0231608 -0.00771341 0)
  (0.0244335 -0.0112224 0)
  (0.02637 -0.0165926 0)
  (0.0300053 -0.0250019 0)
  (0.0372297 -0.0379971 0)
  (0.0437185 -0.0555901 0)
  (-0.0486391 -0.0654518 0)
  (0.586181 -0.0279539 0)
  (-1.48074 -0.0439224 0)
  (-0.104389 0.0455109 0)
  (-0.120984 0.0597559 0)
  (-0.0621618 0.0435279 0)
  (-0.0108676 0.0272618 0)
  (0.0210999 0.021254 0)
  (0.0369565 0.0206504 0)
  (0.0463655 0.0214339 0)
  (0.0521977 0.0220162 0)
  (0.0561935 0.0219496 0)
  (0.0592051 0.0213659 0)
  (0.0616017 0.0205316 0)
  (0.0635777 0.0196441 0)
  (0.0652258 0.0187764 0)
  (0.0665471 0.0179227 0)
  (0.0675108 0.0170654 0)
  (0.0681224 0.0162035 0)
  (0.068441 0.0153447 0)
  (0.0685427 0.0144856 0)
  (0.068482 0.0136316 0)
  (0.0682996 0.0127748 0)
  (0.0680041 0.0118852 0)
  (0.067551 0.01081 0)
  (0.0670272 0.00941649 0)
  (0.0663831 0.00779143 0)
  (0.0655551 0.00602589 0)
  (0.0644965 0.00405943 0)
  (0.0632261 0.00175166 0)
  (0.0617853 -0.00104818 0)
  (0.0602001 -0.00454878 0)
  (0.0584488 -0.00906901 0)
  (0.0563936 -0.0150835 0)
  (0.0536985 -0.0232502 0)
  (0.0500289 -0.0344091 0)
  (0.0443127 -0.0495108 0)
  (0.0281469 -0.0678483 0)
  (-0.0682414 -0.0685694 0)
  (0.264454 0.0384369 0)
  (-0.634025 0.021133 0)
  (0.215889 -0.0802733 0)
  (0.0807754 -0.115557 0)
  (0.0654558 -0.131505 0)
  (0.0811723 -0.141179 0)
  (0.0940115 -0.146871 0)
  (0.0999245 -0.149338 0)
  (0.102962 -0.146928 0)
  (0.105358 -0.142668 0)
  (0.107872 -0.13865 0)
  (0.110423 -0.135415 0)
  (0.112742 -0.13287 0)
  (0.114683 -0.130752 0)
  (0.116212 -0.128846 0)
  (0.117335 -0.127047 0)
  (0.118071 -0.125334 0)
  (0.118443 -0.123728 0)
  (0.118484 -0.122271 0)
  (0.118225 -0.121006 0)
  (0.117693 -0.119956 0)
  (0.116913 -0.119133 0)
  (0.115912 -0.118536 0)
  (0.114648 -0.11811 0)
  (0.113002 -0.117801 0)
  (0.110909 -0.117666 0)
  (0.108425 -0.117271 0)
  (0.105596 -0.116671 0)
  (0.102435 -0.116095 0)
  (0.0988759 -0.115648 0)
  (0.0947749 -0.115354 0)
  (0.0899007 -0.11518 0)
  (0.0838837 -0.115042 0)
  (0.0761452 -0.114809 0)
  (0.0661231 -0.114281 0)
  (0.053368 -0.113311 0)
  (0.0354175 -0.11448 0)
  (-0.0559724 -0.12931 0)
  (0.291711 -0.258395 0)
  (-0.991662 0.0277527 0)
  (0.516825 0.243944 0)
  (0.201298 0.310899 0)
  (0.300664 0.309372 0)
  (0.293494 0.342128 0)
  (0.257352 0.384545 0)
  (0.234542 0.417515 0)
  (0.223961 0.438762 0)
  (0.217854 0.449185 0)
  (0.213063 0.447936 0)
  (0.209745 0.440657 0)
  (0.207531 0.432031 0)
  (0.20571 0.424012 0)
  (0.203881 0.417064 0)
  (0.201946 0.411054 0)
  (0.199933 0.405716 0)
  (0.197886 0.400844 0)
  (0.195824 0.396325 0)
  (0.193743 0.392121 0)
  (0.191618 0.388245 0)
  (0.189414 0.384734 0)
  (0.187081 0.38162 0)
  (0.184569 0.378923 0)
  (0.181826 0.376649 0)
  (0.178796 0.374759 0)
  (0.17542 0.373188 0)
  (0.171647 0.372024 0)
  (0.167355 0.370614 0)
  (0.1625 0.368972 0)
  (0.15699 0.367435 0)
  (0.150656 0.366165 0)
  (0.143284 0.365176 0)
  (0.134613 0.364366 0)
  (0.124294 0.363523 0)
  (0.111852 0.362332 0)
  (0.0968019 0.360347 0)
  (0.0791573 0.356521 0)
  (0.0599823 0.350487 0)
  (-0.0944848 0.401314 0)
  (0.406284 0.654206 0)
)
;

boundaryField
{
  floor
  {
    type noSlip;
  }
  ceiling
  {
    type noSlip;
  }
  sWall
  {
    type noSlip;
  }
  nWall
  {
    type noSlip;
  }
  sideWalls
  {
    type empty;
  }
  glass1
  {
    type noSlip;
  }
  glass2
  {
    type noSlip;
  }
  sun
  {
    type noSlip;
  }
  Table_master
  {
    type noSlip;
  }
  Table_slave
  {
    type noSlip;
  }
  inlet
  {
    type fixedValue;
    value uniform (0.212132 -0.212132 0);
  }
  outlet
  {
    type zeroGradient;
  }
} 	// ************************************************************************* //

