// -*- C++ -*-
// File generated by PyFoam - sorry for the ugliness

FoamFile
{
 version 2.0;
 format ascii;
 class volScalarField;
 location "2100";
 object T;
}

dimensions [ 0 0 0 1 0 0 0 ];

internalField nonuniform List<scalar> 458
(
  303.763
  303.462
  303.453
  303.453
  303.453
  303.453
  303.453
  303.452
  303.451
  303.45
  303.448
  303.445
  303.44
  303.434
  303.426
  303.242
  303.233
  303.239
  303.241
  303.238
  303.235
  303.233
  303.23
  303.227
  303.224
  303.22
  303.216
  303.212
  303.208
  303.203
  303.198
  303.193
  303.196
  303.977
  303.494
  303.469
  303.473
  303.478
  303.481
  303.484
  303.486
  303.487
  303.487
  303.484
  303.476
  303.463
  303.445
  303.422
  303.403
  303.386
  303.394
  303.24
  303.235
  303.244
  303.245
  303.239
  303.23
  303.221
  303.212
  303.203
  303.194
  303.187
  303.179
  303.172
  303.166
  303.162
  303.16
  303.159
  303.179
  304.184
  303.541
  303.494
  303.502
  303.514
  303.525
  303.534
  303.542
  303.548
  303.55
  303.547
  303.537
  303.517
  303.489
  303.453
  303.417
  303.384
  303.361
  303.251
  303.252
  303.258
  303.253
  303.243
  303.231
  303.205
  303.18
  303.164
  303.153
  303.144
  303.136
  303.13
  303.126
  303.13
  303.135
  303.14
  303.17
  304.378
  303.604
  303.52
  303.529
  303.548
  303.568
  303.586
  303.603
  303.616
  303.623
  303.623
  303.612
  303.588
  303.551
  303.506
  303.457
  303.406
  303.356
  303.318
  303.288
  303.283
  303.275
  303.26
  303.247
  303.242
  303.238
  303.236
  303.235
  303.234
  303.232
  303.229
  303.225
  303.221
  303.202
  303.18
  303.16
  303.166
  304.556
  303.682
  303.552
  303.552
  303.575
  303.601
  303.628
  303.654
  303.676
  303.692
  303.697
  303.688
  303.662
  303.621
  303.571
  303.516
  303.463
  303.414
  303.374
  303.342
  303.318
  303.295
  303.271
  303.255
  303.251
  303.251
  303.252
  303.251
  303.251
  303.249
  303.245
  303.24
  303.232
  303.22
  303.201
  303.179
  303.168
  303.167
  303.166
  303.207
  304.707
  303.783
  303.615
  303.58
  303.595
  303.622
  303.653
  303.685
  303.716
  303.742
  303.756
  303.75
  303.724
  303.681
  303.627
  303.569
  303.512
  303.463
  303.42
  303.384
  303.35
  303.315
  303.281
  303.261
  303.258
  303.26
  303.263
  303.264
  303.263
  303.261
  303.257
  303.251
  303.241
  303.229
  303.213
  303.194
  303.179
  303.172
  303.169
  303.207
  304.828
  303.95
  303.787
  303.691
  303.653
  303.654
  303.675
  303.703
  303.734
  303.771
  303.794
  303.791
  303.765
  303.72
  303.665
  303.604
  303.547
  303.496
  303.453
  303.414
  303.377
  303.334
  303.291
  303.264
  303.262
  303.267
  303.271
  303.274
  303.274
  303.272
  303.267
  303.26
  303.248
  303.234
  303.219
  303.203
  303.189
  303.181
  303.177
  303.207
  305.036
  304.38
  304.21
  304.043
  303.907
  303.824
  303.787
  303.779
  303.789
  303.813
  303.823
  303.81
  303.775
  303.726
  303.671
  303.614
  303.56
  303.511
  303.468
  303.43
  303.394
  303.351
  303.299
  303.266
  303.266
  303.273
  303.279
  303.282
  303.283
  303.282
  303.278
  303.272
  303.262
  303.243
  303.229
  303.218
  303.211
  303.209
  303.213
  303.334
  305.326
  305.045
  304.749
  304.509
  304.31
  304.159
  304.053
  303.983
  303.941
  303.909
  303.862
  303.807
  303.748
  303.69
  303.635
  303.583
  303.537
  303.495
  303.459
  303.426
  303.395
  303.359
  303.308
  303.267
  303.268
  303.277
  303.285
  303.29
  303.292
  303.293
  303.292
  303.291
  303.29
  303.292
  303.298
  303.313
  303.337
  303.366
  303.392
  303.453
  297.193
  301.488
  302.881
  303.357
  303.552
  303.633
  303.661
  303.66
  303.65
  303.629
  303.601
  303.569
  303.537
  303.506
  303.476
  303.449
  303.424
  303.402
  303.38
  303.353
  303.312
  303.267
  303.268
  303.28
  303.289
  303.297
  303.302
  303.307
  303.311
  303.315
  303.319
  303.324
  303.332
  303.345
  303.364
  303.384
  303.401
  303.417
  298.14
  301.341
  302.401
  302.935
  303.201
  303.331
  303.391
  303.415
  303.425
  303.427
  303.425
  303.42
  303.412
  303.403
  303.393
  303.383
  303.372
  303.362
  303.35
  303.335
  303.308
  303.265
  303.265
  303.279
  303.29
  303.298
  303.305
  303.311
  303.317
  303.322
  303.327
  303.333
  303.34
  303.349
  303.362
  303.376
  303.376
  303.4
  300.284
  300.215
  300.21
  302.036
  302.586
  302.916
  303.127
  303.205
  303.245
  303.266
  303.276
  303.286
  303.294
  303.301
  303.306
  303.311
  303.315
  303.317
  303.318
  303.316
  303.311
  303.303
  303.287
  303.262
  303.259
  303.273
  303.284
  303.293
  303.3
  303.306
  303.312
  303.317
  303.322
  303.327
  303.333
  303.339
  303.352
  303.357
  303.355
  303.388
)
;

boundaryField
{
  floor
  {
    type wallHeatTransfer;
    Tinf uniform 305.2;
    alphaWall uniform 0.24;
    value nonuniform List<scalar> 36
(
  303.649
  303.616
  303.551
  303.559
  303.565
  303.572
  303.582
  303.592
  303.602
  303.61
  303.618
  303.626
  303.634
  303.642
  303.65
  303.659
  303.67
  303.678
  303.707
  303.707
  303.636
  303.581
  303.524
  303.478
  303.475
  303.51
  303.649
  303.621
  303.613
  303.693
  303.616
  303.693
  303.591
  303.578
  303.536
  303.535
)
;
  }
  ceiling
  {
    type wallHeatTransfer;
    Tinf uniform 303.2;
    alphaWall uniform 0.24;
    value nonuniform List<scalar> 43
(
  300.471
  300.393
  300.379
  302.098
  302.621
  302.933
  303.132
  303.205
  303.242
  303.261
  303.27
  303.278
  303.285
  303.291
  303.295
  303.299
  303.301
  303.302
  303.301
  303.298
  303.292
  303.283
  303.27
  303.249
  303.247
  303.26
  303.27
  303.279
  303.286
  303.292
  303.297
  303.302
  303.308
  303.313
  303.319
  303.325
  303.338
  303.342
  303.339
  303.367
  305.227
  304.971
  298.405
)
;
  }
  sWall
  {
    type wallHeatTransfer;
    Tinf uniform 315.2;
    alphaWall uniform 0.36;
    value uniform 301.674;
  }
  nWall
  {
    type wallHeatTransfer;
    Tinf uniform 307.2;
    alphaWall uniform 0.36;
    value nonuniform List<scalar> 6
(
  304.054
  303.927
  303.831
  303.978
  303.96
  303.99
)
;
  }
  sideWalls
  {
    type empty;
  }
  glass1
  {
    type wallHeatTransfer;
    Tinf uniform 315.2;
    alphaWall uniform 4.3;
    value nonuniform List<scalar> 9
(
  312.443
  311.603
  311.038
  310.593
  310.239
  309.946
  309.706
  309.754
  309.963
)
;
  }
  glass2
  {
    type wallHeatTransfer;
    Tinf uniform 307.2;
    alphaWall uniform 4.3;
    value nonuniform List<scalar> 2
(
  305.776
  305.835
)
;
  }
  sun
  {
    type wallHeatTransfer;
    Tinf uniform 305.2;
    alphaWall uniform 0.24;
    value nonuniform List<scalar> 14
(
  303.974
  303.71
  303.709
  303.702
  303.697
  303.693
  303.688
  303.685
  303.681
  303.677
  303.673
  303.668
  303.663
  303.656
)
;
  }
  Table_master
  {
    type zeroGradient;
  }
  Table_slave
  {
    type zeroGradient;
  }
  inlet
  {
    type fixedValue;
    value uniform 292.15;
  }
  outlet
  {
    type zeroGradient;
  }
} 	// ************************************************************************* //

