/*--------------------------------*- C++ -*----------------------------------*\
  =========                 |
  \\      /  F ield         | OpenFOAM: The Open Source CFD Toolbox
   \\    /   O peration     | Website:  https://openfoam.org
    \\  /    A nd           | Version:  6
     \\/     M anipulation  |
\*---------------------------------------------------------------------------*/
FoamFile
{
    version     2.0;
    format      ascii;
    class       volScalarField;
    location    "1500";
    object      k;
}
// * * * * * * * * * * * * * * * * * * * * * * * * * * * * * * * * * * * * * //

dimensions      [0 2 -2 0 0 0 0];

internalField   nonuniform List<scalar> 
458
(
0.00128354
0.0014542
0.00144038
0.00155492
0.0016609
0.00175732
0.00184688
0.00193299
0.00201998
0.00210483
0.00216883
0.00220487
0.00221259
0.00220563
0.00219455
0.000506255
0.000508261
0.000486545
0.000453398
0.00041395
0.000368155
0.000325042
0.000287715
0.000255446
0.000227141
0.000201837
0.000178606
0.000156458
0.000134262
0.000110645
8.59463e-05
9.87581e-05
0.00010046
0.002741
0.00515299
0.00219907
0.00225338
0.00237196
0.00250346
0.00264223
0.00279296
0.00295765
0.00313169
0.0032836
0.00336824
0.00333633
0.0031585
0.0028177
0.00237752
0.00193219
0.00150523
0.000909108
0.00091564
0.00088064
0.000808776
0.00071903
0.000603121
0.000505175
0.000425265
0.000359068
0.000303511
0.000256368
0.000216225
0.00018295
0.000159516
0.000148209
0.000142451
0.000330908
0.00021751
0.00447694
0.0105214
0.00290859
0.00268515
0.00279671
0.0029508
0.00311461
0.0032991
0.00351265
0.00374998
0.0039828
0.00415765
0.00423377
0.00422176
0.00416308
0.00393219
0.00326954
0.00241094
0.00139781
0.00132176
0.00119626
0.00106104
0.000923601
0.000675715
0.000501333
0.000386399
0.00030877
0.000254799
0.000216336
0.00018849
0.000168333
0.000154558
0.00014951
0.000150543
0.000282329
0.000234988
0.00665498
0.0186741
0.00405381
0.00294084
0.00299495
0.00315701
0.0033204
0.00350162
0.00372943
0.00401372
0.00429852
0.00450988
0.00461867
0.00464469
0.00460307
0.00440644
0.00393699
0.0033261
0.00214284
0.00197879
0.00171709
0.00145832
0.00125023
0.00107991
0.00080446
0.000674281
0.000620278
0.000601809
0.000596385
0.00058819
0.000564312
0.000525348
0.000479283
0.000350541
0.000263041
0.000308907
0.000259739
0.0093533
0.0297553
0.00676653
0.00330139
0.00313466
0.00326665
0.00342063
0.00360861
0.00389055
0.00428849
0.00464567
0.00486426
0.00494989
0.00494451
0.00486512
0.00466517
0.00430508
0.00384011
0.00311138
0.00249782
0.002019
0.00164763
0.0013934
0.0012368
0.00114395
0.00111909
0.00113138
0.00115332
0.00116512
0.00115024
0.00109508
0.000987199
0.000855606
0.000679977
0.00050486
0.000411333
0.000352911
0.000347924
0.000399818
0.000506193
0.012674
0.0414748
0.0137233
0.00498096
0.00379107
0.00365039
0.0037118
0.00388209
0.00425983
0.00482948
0.00521622
0.0053736
0.00537809
0.00530032
0.00516403
0.00494494
0.00460806
0.004131
0.00345966
0.00278715
0.00221998
0.00179509
0.00153443
0.00141399
0.00139209
0.00142814
0.00148014
0.0015226
0.00154159
0.00152734
0.00147086
0.00136008
0.00118465
0.000986229
0.000785744
0.000619558
0.000511444
0.000533804
0.0013356
0.000919242
0.0163077
0.0493781
0.0266991
0.0125824
0.00800498
0.00603645
0.00530642
0.005192
0.00559309
0.00600805
0.00614884
0.00609418
0.00594272
0.00575675
0.00555767
0.00532162
0.00498916
0.00449335
0.00380743
0.00307254
0.00243032
0.00198422
0.0017526
0.00168112
0.00170022
0.00175854
0.00181665
0.00185113
0.00185658
0.00183798
0.00180264
0.00175048
0.00162097
0.00143671
0.00125292
0.00110843
0.00101467
0.00105457
0.00194001
0.00133307
0.0171804
0.0517375
0.0360496
0.0287339
0.0212439
0.0152583
0.0116571
0.00980259
0.00883485
0.00809684
0.00750365
0.00701868
0.00661782
0.00629262
0.00603258
0.00578754
0.00545893
0.00494106
0.0042075
0.00339881
0.00271052
0.00232181
0.00215337
0.00211863
0.00214756
0.00219074
0.00221428
0.00220163
0.00215715
0.00210668
0.00209038
0.00214433
0.00227823
0.00235782
0.00242485
0.00267936
0.00313579
0.00355051
0.00777488
0.00227822
0.0163738
0.0233421
0.0225276
0.020472
0.0184312
0.0160007
0.0136805
0.0118302
0.0103871
0.00927353
0.00841273
0.00773628
0.0072058
0.00681676
0.00655946
0.0063521
0.0060455
0.0054959
0.00468867
0.00382975
0.00327247
0.00299062
0.00288293
0.00286598
0.0028806
0.00288384
0.0028424
0.00273673
0.00257243
0.00238993
0.00225687
0.00223233
0.00232692
0.00251907
0.00278064
0.00313254
0.00351056
0.00382977
0.00407845
0.0023155
0.00796607
0.0173244
0.0162942
0.0149603
0.0135466
0.0122196
0.0110319
0.009954
0.00903424
0.0082922
0.00773922
0.00741793
0.00731368
0.0072566
0.0070212
0.00643947
0.00556923
0.00497271
0.00464021
0.00448086
0.00441571
0.0043939
0.00438036
0.0043409
0.00423454
0.00401865
0.00366933
0.00321205
0.00274372
0.00241958
0.00233173
0.002411
0.00261682
0.00290658
0.00318827
0.00331717
0.00317052
0.00212366
0.00646005
0.015427
0.0151493
0.0141584
0.0131379
0.0120559
0.0111141
0.0103654
0.00959906
0.00901814
0.00871761
0.00889898
0.0094446
0.00988662
0.00998196
0.00958337
0.0089416
0.0084315
0.00809585
0.00789486
0.00778699
0.00774496
0.00775084
0.00777953
0.00777965
0.00766494
0.00733189
0.00671356
0.00584789
0.0049259
0.0041028
0.003521
0.00319476
0.00306929
0.00303048
0.00300065
0.00293917
0.00238544
0.00647764
0.00610144
0.00650422
0.00778903
0.00791389
0.00767707
0.00702307
0.00588311
0.00484182
0.00388227
0.00337129
0.00304665
0.00286416
0.00291933
0.00317231
0.00334161
0.00338525
0.00330259
0.00316415
0.0030484
0.00296982
0.00292101
0.00289236
0.00287578
0.00286265
0.00284073
0.00279337
0.00270404
0.00256684
0.00239926
0.00224752
0.00212896
0.00205343
0.00201929
0.00202469
0.00205217
0.00204251
0.00185788
0.00176432
0.00285991
)
;

boundaryField
{
    floor
    {
        type            kqRWallFunction;
        value           nonuniform List<scalar> 
36
(
0.00219455
0.000506255
0.000508261
0.000486545
0.000453398
0.00041395
0.000368155
0.000325042
0.000287715
0.000255446
0.000227141
0.000201837
0.000178606
0.000156458
0.000134262
0.000110645
8.59463e-05
9.87581e-05
0.00010046
0.00010046
0.00021751
0.000234988
0.000259739
0.000347924
0.000399818
0.000506193
0.00219455
0.00237752
0.00193219
0.00150523
0.000506255
0.00150523
0.000909108
0.00241094
0.00139781
0.00214284
)
;
    }
    ceiling
    {
        type            kqRWallFunction;
        value           nonuniform List<scalar> 
43
(
0.00647764
0.00610144
0.00650422
0.00778903
0.00791389
0.00767707
0.00702307
0.00588311
0.00484182
0.00388227
0.00337129
0.00304665
0.00286416
0.00291933
0.00317231
0.00334161
0.00338525
0.00330259
0.00316415
0.0030484
0.00296982
0.00292101
0.00289236
0.00287578
0.00286265
0.00284073
0.00279337
0.00270404
0.00256684
0.00239926
0.00224752
0.00212896
0.00205343
0.00201929
0.00202469
0.00205217
0.00204251
0.00185788
0.00176432
0.00285991
0.0163738
0.0233421
0.00646005
)
;
    }
    sWall
    {
        type            kqRWallFunction;
        value           uniform 0.00647764;
    }
    nWall
    {
        type            kqRWallFunction;
        value           nonuniform List<scalar> 6(0.000506193 0.000919242 0.00133307 0.00212366 0.00238544 0.00285991);
    }
    sideWalls
    {
        type            empty;
    }
    glass1
    {
        type            kqRWallFunction;
        value           nonuniform List<scalar> 9(0.00128354 0.002741 0.00447694 0.00665498 0.0093533 0.012674 0.0163077 0.0171804 0.0163738);
    }
    glass2
    {
        type            kqRWallFunction;
        value           nonuniform List<scalar> 2(0.00227822 0.0023155);
    }
    sun
    {
        type            kqRWallFunction;
        value           nonuniform List<scalar> 
14
(
0.00128354
0.0014542
0.00144038
0.00155492
0.0016609
0.00175732
0.00184688
0.00193299
0.00201998
0.00210483
0.00216883
0.00220487
0.00221259
0.00220563
)
;
    }
    Table_master
    {
        type            kqRWallFunction;
        value           nonuniform List<scalar> 9(0.000675715 0.000501333 0.000386399 0.00030877 0.000254799 0.000216336 0.00018849 0.000168333 0.000154558);
    }
    Table_slave
    {
        type            kqRWallFunction;
        value           nonuniform List<scalar> 9(0.00080446 0.000674281 0.000620278 0.000601809 0.000596385 0.00058819 0.000564312 0.000525348 0.000479283);
    }
    inlet
    {
        type            turbulentIntensityKineticEnergyInlet;
        intensity       0.05;
        value           uniform 0.000937501;
    }
    outlet
    {
        type            zeroGradient;
    }
}


// ************************************************************************* //
