/*--------------------------------*- C++ -*----------------------------------*=========                 |
  \      /  F ield         | OpenFOAM: The Open Source CFD Toolbox
   \    /   O peration     | Website:  https://openfoam.org
    \  /    A nd           | Version:  6
     \/     M anipulation  |
\*---------------------------------------------------------------------------*/
FoamFile
{
    version     2.0;
    format      ascii;
    class       volScalarField;
    location    "1500";
    object      PMV;
}
// * * * * * * * * * * * * * * * * * * * * * * * * * * * * * * * * * * * * * //

dimensions      [0 0 0 0 0 0 0];

internalField   nonuniform List<scalar> 
458
(
2.450490871188218
2.3070818678570713
2.2980674579050318
2.2876181404716696
2.2794793753249243
2.2727311230774965
2.2677211163818467
2.264425639791922
2.2629909216625257
2.26319380303495
2.2650289777854584
2.2690880396026194
2.2776572746050494
2.2869327444031344
2.2795245542453597
2.323953678086561
2.323001729078555
2.323001729078555
2.3158623063212707
2.30877508596165
2.3055759161987037
2.3052128238030742
2.3055135352658573
2.30618833398384
2.307555810381658
2.308838908466525
2.310352760371148
2.3126558489613194
2.315443221505851
2.311576172133739
2.291095590405711
2.2553449053873056
2.2310146652892864
2.483299267453888
2.3232787540877307
2.321321955077501
2.312419342261735
2.3068349323155033
2.3031650055581925
2.3001235152395094
2.2976225251496647
2.295770933830608
2.295347840769434
2.2932440748873817
2.2908641268949252
2.287825437666555
2.2810460008160507
2.269907693483563
2.2758269536734823
2.301383685365988
2.3177478295033302
2.316178784492934
2.3215737530730904
2.3215737530730904
2.3172390735648625
2.312789557542591
2.3101031361915116
2.309500211424236
2.309807908629766
2.3094088035872815
2.3093330896724353
2.309262191549008
2.30872461427978
2.3076445271837502
2.305770542954453
2.302407517262066
2.298010230997902
2.2810890058713356
2.23993263465957
2.554768628452195
2.331445772043378
2.3424801680279854
2.338209859647756
2.338551266149406
2.339461266495869
2.3405223056050573
2.341782070561381
2.342359310647061
2.3420787219853563
2.338623481215514
2.330928357455164
2.318403482094724
2.303060493413235
2.289237466632859
2.2886855057353173
2.2950808432215464
2.2973693151881793
2.3014702550835464
2.3197829079609584
2.3220497520648746
2.323001729078555
2.3212459539924155
2.3187456550586893
2.320862346587805
2.3215737530730904
2.321090401395552
2.3194299234541886
2.3173148819641503
2.3140105645420768
2.3096212957837383
2.30126829707097
2.292907355153027
2.287812648774227
2.2756767454634823
2.2744163709316116
2.6385762359112275
2.3446184130452226
2.3592274496383356
2.3603560501987655
2.368478917393297
2.376832169355194
2.3844003179205813
2.391416473325532
2.395599632855657
2.3974556604925543
2.391554413283235
2.377647522606289
2.3546644927409828
2.328789430878863
2.3063075110597886
2.2941042316833045
2.289529305855048
2.290219833464238
2.318209278505699
2.3032023305256635
2.3151161830884712
2.323477707086679
2.324905599033872
2.3263334277204706
2.327285278274594
2.3275349078415277
2.321044909647803
2.3159794799366815
2.3110471580537815
2.307033756585237
2.3042153551311877
2.3039599596822145
2.3088968914023136
2.3039132395151385
2.291422264795812
2.272605742768024
2.2614154617945763
2.7241513825634485
2.3695315051964285
2.3760649104994145
2.378959702894209
2.3939247544729527
2.4096132507824226
2.4257967059232786
2.440820027253981
2.451892254275996
2.4554914270798722
2.4461368006483752
2.422418345042014
2.387949113191881
2.350276896768898
2.3176642154517166
2.2955282957468137
2.284403474644111
2.2842728512838812
2.300336421026416
2.3052590782373317
2.318457998104775
2.325381548967553
2.327761192959831
2.3296647809260067
2.332044106117297
2.3334716156869737
2.3353748615828938
2.335907706751152
2.3302712553613274
2.325449189613419
2.3213652298239937
2.317617785410801
2.314872148602314
2.307927120544608
2.2939432526202563
2.270277466942402
2.2528096975948912
2.244566489751081
2.2273599820599
2.2015637714885097
2.8022079029903906
2.4098778860269374
2.4089927470464017
2.401033695065829
2.414444136034441
2.435347299606311
2.4607776483781683
2.4897061152974276
2.5080233480837415
2.510323432963522
2.4849227813436565
2.449682006615591
2.405257085105143
2.360708725375671
2.3210397110341585
2.2931294634736443
2.279013793500785
2.2789334507307033
2.2910103459632247
2.3055947813097966
2.323477707086679
2.327761192959831
2.3310923973919166
2.3339474379104694
2.336326441461936
2.338705265086001
2.340608193838401
2.3420353141825356
2.3429866913419217
2.3434623689789023
2.34249939990173
2.336575800938661
2.3281035672079757
2.3167407410770835
2.300927697121556
2.2800983321933
2.264876186233718
2.267562177035169
2.2434358714928537
2.2215633641049544
2.8705948177428136
2.486964303149471
2.5075102792421937
2.4595112942620028
2.444884009430791
2.452318981970314
2.4722385826484023
2.497820258266999
2.51171279916391
2.5035168392957265
2.4814465853712298
2.4462725953272426
2.4013934453137056
2.3548575250026467
2.314727726475691
2.286087401318453
2.2728593676689566
2.275022014007341
2.2899853123516007
2.310623597328678
2.325381548967553
2.330616532346652
2.3348990608655122
2.3382295147980994
2.340608193838401
2.3429866913419217
2.3444137023313014
2.3458406474469427
2.3467919074971113
2.3467919074971113
2.3467919074971113
2.3458406474469427
2.3434623689789023
2.3364752196188947
2.317257791234949
2.2972915424968603
2.281277622539177
2.275452795274499
2.2409095571499686
2.2388761655456046
2.980337354710878
2.7102516067481375
2.659112098363969
2.5861481048487676
2.5385227365367315
2.511156688737065
2.4997292219059366
2.4970062465033145
2.496613337897688
2.486408206051032
2.4601120359920614
2.419768202945898
2.372831641707473
2.328475509752755
2.292681173866005
2.271179063228825
2.265898796931552
2.27520800784853
2.2969931956232257
2.3196696873656335
2.328237100574501
2.3339474379104694
2.3382295147980994
2.3415596146746025
2.3439380393111273
2.3458406474469427
2.3472675264922107
2.3482187423858645
2.348694339269705
2.3491699287685033
2.348694339269705
2.347743138124223
2.3458406474469427
2.342511006407379
2.338705265086001
2.3339474379104694
2.329188894564584
2.3219830084463666
2.2530680671965304
2.2058968014169373
3.0
2.992387361981304
2.8639257516831096
2.7513687262683617
2.66178022565517
2.597823608594744
2.5550274861842155
2.526270834652767
2.5024779450815893
2.461887901242437
2.4105522058629947
2.357985421888069
2.3115849471059353
2.2765227887325405
2.256195197041847
2.251162332920885
2.2618100613343364
2.2853875254827987
2.31110002112935
2.322525744068992
2.330616532346652
2.335850655117393
2.3401324725245387
2.3429866913419217
2.3453650064064884
2.3445583977214266
2.3415860635068917
2.3382359417442875
2.334442583561239
2.330407415155425
2.3246091044764494
2.3174549989826727
2.3095142675240177
2.301329721505444
2.2936422756945753
2.282791297413625
2.271510659857838
2.2623512800204924
2.252907376685879
2.2312395413470636
-0.8837361958178075
0.9929450153203576
1.6602780048443557
1.9710304590830248
2.117278813170891
2.1830419863851596
2.2036927959733874
2.2125496938610807
2.211974911300859
2.2075437506565017
2.203352772027884
2.2050813363956143
2.2162759516164234
2.238997956330997
2.271423803336958
2.298241382995126
2.313956824436447
2.3244296420712187
2.3315682553178214
2.336326441461936
2.3395066145710994
2.336935675148863
2.3339626204137796
2.330359745398711
2.326117440700896
2.3218471805042693
2.3172571261324975
2.312913176030423
2.3081639723820717
2.3039098408510057
2.2997268599060954
2.2969023297117652
2.2947621361110326
2.2932254976006625
2.293643682306536
2.300039775977885
2.320319541863477
2.2814207930179506
-0.1826819141506498
1.0873912131853338
1.5808053520275165
1.8405338791461994
1.9816315511376648
2.0541715809364254
2.086460422830411
2.101921004902268
2.116345399311818
2.132297584563358
2.1515387796856267
2.178067372890281
2.212299548684847
2.247283429606554
2.2754792213674646
2.2908756001768724
2.2972363067253414
2.3008607710203393
2.3025669639082507
2.3038729610084228
2.304716487230573
2.3046339953540036
2.3042178292456796
2.3026870428168755
2.3008501187546533
2.2978060336855517
2.2940296833619835
2.291505323246425
2.2901678316655363
2.291751067796532
2.2966415256643216
2.304550301367594
2.3166346124944246
2.3333773959871085
2.3538592034923327
2.365335524499142
2.3042073952098483
2.3113618781262444
1.809828184091162
1.1432418854947095
0.8436572485439929
1.4966303091854636
1.728781871657954
1.89394302529216
2.0080028442919247
2.06880871393513
2.0809798018665306
2.0799472198757645
2.0856256442609564
2.094412044146412
2.106177319458253
2.1315348099520555
2.166617015628047
2.1875412970696586
2.201831598388032
2.2109824691862143
2.216112532851785
2.220129416720796
2.2229069774662253
2.2257787109041627
2.2279426965684292
2.2301918363420423
2.232277500241363
2.2334279195473665
2.233979725733001
2.2338996912932823
2.233458203352485
2.2327946585243383
2.23464713922378
2.2377065709638355
2.2426012652272673
2.2485572135606797
2.2546509399855377
2.2592194215615238
2.261164092997381
2.2587570337997116
2.2410417370524103
2.226264123736045
)
;

boundaryField
{
    ".*"
    {
        type            zeroGradient;
    }
}


// ************************************************************************* //
