/*--------------------------------*- C++ -*----------------------------------*\
  =========                 |
  \\      /  F ield         | OpenFOAM: The Open Source CFD Toolbox
   \\    /   O peration     | Website:  https://openfoam.org
    \\  /    A nd           | Version:  6
     \\/     M anipulation  |
\*---------------------------------------------------------------------------*/
FoamFile
{
    version     2.0;
    format      ascii;
    class       volScalarField;
    location    "2700";
    object      nut;
}
// * * * * * * * * * * * * * * * * * * * * * * * * * * * * * * * * * * * * * //

dimensions      [0 2 -1 0 0 0 0];

internalField   nonuniform List<scalar> 
458
(
0.000686839
0.000711359
0.000685467
0.000711907
0.000736573
0.000758496
0.000778183
0.000796342
0.00081378
0.000831524
0.000847603
0.000860576
0.000870596
0.000879188
0.000886396
0.000380513
0.000476011
0.00047183
0.00039601
0.000320142
0.000232999
0.000213629
0.000213947
0.000220374
0.000210948
0.000194518
0.000180023
0.000174564
0.000183084
0.000219117
0.000290218
0.000331706
0.00029196
0.00110592
0.0017837
0.00141351
0.00170438
0.00182624
0.00195665
0.00208903
0.00221316
0.00231491
0.00237543
0.00239889
0.00236134
0.00222484
0.00193151
0.00143744
0.000944781
0.000912075
0.000634284
0.000522663
0.00137012
0.00160624
0.00152666
0.00111263
0.00083023
0.000690607
0.000666977
0.000646808
0.000557144
0.000424427
0.000301648
0.000239112
0.00026457
0.000533759
0.00100432
0.00125488
0.000446012
0.00148061
0.00278512
0.00153247
0.00247266
0.00269794
0.00285283
0.00298606
0.00309769
0.00318671
0.00324877
0.00328684
0.00328642
0.00322079
0.00305219
0.00274331
0.00228828
0.00166354
0.000979217
0.000780216
0.00232615
0.0021888
0.00180512
0.00139031
0.000497767
0.000410498
0.00036391
0.000330913
0.000303755
0.00027842
0.000252961
0.000230052
0.000323242
0.00114685
0.00153343
0.00145215
0.000509942
0.00185228
0.00418789
0.00156427
0.0027966
0.00322329
0.00337413
0.00347431
0.00354594
0.00359863
0.00363843
0.00367213
0.00370389
0.00372638
0.00371589
0.00361351
0.0033163
0.00270891
0.00179474
0.00100534
0.00228578
0.00273363
0.00233361
0.00176078
0.00117016
0.000724529
0.000731218
0.000751518
0.000781735
0.000821493
0.000878899
0.000921224
0.000948613
0.000951962
0.00126912
0.00156795
0.00189476
0.000848628
0.00221559
0.00590376
0.00192933
0.00267154
0.00345948
0.00363945
0.00371794
0.0037556
0.00376911
0.00377429
0.003781
0.00381555
0.00389293
0.00401793
0.00417901
0.00434813
0.0044881
0.00452832
0.00436769
0.0042076
0.00394644
0.0036898
0.00352375
0.00342528
0.00336928
0.00342296
0.00352639
0.00366457
0.00381783
0.00396168
0.00405443
0.00406699
0.00399509
0.0038673
0.00347955
0.0030397
0.00211743
0.000989962
0.000941178
0.000859746
0.0025706
0.00762453
0.00301004
0.00231678
0.00332327
0.00367615
0.00381859
0.00387737
0.00387087
0.00382086
0.00374874
0.00373242
0.00377553
0.00388272
0.00405739
0.00429268
0.00454997
0.00472482
0.00470266
0.0045117
0.00429359
0.0041773
0.0041725
0.00421246
0.0042492
0.00429446
0.00436544
0.00445836
0.00455556
0.00463473
0.00467038
0.00463895
0.00456326
0.00449353
0.0044227
0.00414591
0.00369985
0.00323871
0.00298241
0.00105017
0.00292322
0.00899617
0.00524037
0.00266536
0.00246872
0.00298761
0.00347055
0.00378782
0.00394148
0.00386981
0.00368782
0.0036102
0.00359217
0.00362773
0.00372163
0.00388025
0.0040859
0.00426124
0.00431328
0.00423371
0.00412317
0.00410053
0.00418943
0.00432224
0.00443842
0.00453309
0.00461875
0.00469455
0.00474921
0.0047628
0.00471974
0.00462775
0.00452658
0.00448544
0.0045765
0.00474903
0.00465425
0.00419417
0.00380724
0.0012149
0.00302464
0.00940482
0.00709075
0.005067
0.00358568
0.00294865
0.00302192
0.00337381
0.00369468
0.00367214
0.00354079
0.00343697
0.00337811
0.00335925
0.00337565
0.00342891
0.0035204
0.00362697
0.00369845
0.00370736
0.00369238
0.00373068
0.00387421
0.00409682
0.00433946
0.00457543
0.00477489
0.0049046
0.00495502
0.00491558
0.00478112
0.0045731
0.0043466
0.0041772
0.00412311
0.00416291
0.00404891
0.00359308
0.00323914
0.00124968
0.00296219
0.00360328
0.00392934
0.00396954
0.00372236
0.00337766
0.00312171
0.00300358
0.0029821
0.00298823
0.00300066
0.00301133
0.00301733
0.00301842
0.00301666
0.00301713
0.00302725
0.00305098
0.00308332
0.00311812
0.00316426
0.00324836
0.00340057
0.0036352
0.00395011
0.0043404
0.00476337
0.0050762
0.00523724
0.00522868
0.00504959
0.00471144
0.00424344
0.00369926
0.00314819
0.00267238
0.00230525
0.00205422
0.00183777
0.00131579
0.00190983
0.00290864
0.00327623
0.00328206
0.00317806
0.00306948
0.00298244
0.00291191
0.00285748
0.00281294
0.00277215
0.00273089
0.00268794
0.00264577
0.00261091
0.00259309
0.0026032
0.00265067
0.00274157
0.00287695
0.00305287
0.00326397
0.0035146
0.00383349
0.00426034
0.00477922
0.00529126
0.00561176
0.00571875
0.00572332
0.00569809
0.00564989
0.00550587
0.00512317
0.004537
0.00398755
0.00339001
0.0013817
0.00202969
0.00320809
0.00345394
0.00341255
0.00329756
0.00316494
0.00304106
0.00293508
0.00282824
0.00271546
0.00260791
0.00251237
0.00243376
0.00237738
0.0023513
0.00236843
0.0024459
0.00259768
0.00282
0.00308382
0.00334836
0.00358028
0.00376557
0.00393693
0.00413206
0.00437379
0.00466138
0.00495367
0.00517953
0.00532174
0.00539754
0.0054015
0.00526282
0.00488045
0.00413668
0.00317801
0.00258682
0.00127265
0.00178707
0.00188018
0.00196134
0.0020975
0.00200834
0.00185798
0.0017398
0.00163251
0.0015339
0.00144173
0.00135881
0.00128452
0.00121521
0.00114889
0.0010847
0.00102274
0.000964244
0.000911766
0.000869165
0.000840847
0.000829743
0.000834834
0.000850885
0.000871821
0.000893772
0.000912735
0.00093007
0.000948937
0.000972167
0.0010007
0.00103282
0.00106764
0.00110506
0.001145
0.00118046
0.00118033
0.00112417
0.00104002
0.000996118
0.00117267
)
;

boundaryField
{
    floor
    {
        type            nutkWallFunction;
        Cmu             0.09;
        kappa           0.41;
        E               9.8;
        value           nonuniform List<scalar> 
36
(
0.000107267
4.41783e-05
5.66311e-05
5.6094e-05
4.62317e-05
3.61152e-05
2.40824e-05
2.13315e-05
2.13766e-05
2.22928e-05
2.09488e-05
1.85857e-05
1.64777e-05
1.56773e-05
1.69231e-05
2.21093e-05
3.20259e-05
3.76586e-05
3.22668e-05
3.22668e-05
5.27558e-05
6.09746e-05
0.000102744
0.000119545
0.000113781
0.00010408
0.000107267
0.000114209
0.000110327
7.66105e-05
4.41783e-05
7.66105e-05
6.25977e-05
0.000118281
9.45038e-05
0.000121359
)
;
    }
    ceiling
    {
        type            nutkWallFunction;
        Cmu             0.09;
        kappa           0.41;
        E               9.8;
        value           nonuniform List<scalar> 
43
(
0.000210084
0.000220322
0.000229203
0.00024405
0.000234374
0.000217932
0.000204904
0.000192993
0.000181969
0.000171595
0.000162199
0.000153726
0.000145772
0.000138114
0.000130652
0.000123403
0.000116513
0.00011029
0.000105207
0.000101812
0.000100477
0.000101088
0.000103015
0.000105522
0.000108143
0.000110401
0.000112461
0.000114698
0.000117445
0.000120808
0.000124581
0.000128657
0.00013302
0.000137659
0.000141762
0.000141748
0.000135243
0.000125427
0.000120272
0.000140864
0.000336228
0.000402616
0.000236621
)
;
    }
    sWall
    {
        type            nutkWallFunction;
        Cmu             0.09;
        kappa           0.41;
        E               9.8;
        value           uniform 0.000210137;
    }
    nWall
    {
        type            nutkWallFunction;
        Cmu             0.09;
        kappa           0.41;
        E               9.8;
        value           nonuniform List<scalar> 6(0.000104082 0.000126623 0.000145743 0.00016481 0.000152375 0.000140873);
    }
    sideWalls
    {
        type            empty;
    }
    glass1
    {
        type            nutkWallFunction;
        Cmu             0.09;
        kappa           0.41;
        E               9.8;
        value           nonuniform List<scalar> 9(8.30635e-05 0.000133234 0.000176196 0.000217615 0.00025723 0.000295272 0.000332512 0.000343142 0.000336619);
    }
    glass2
    {
        type            nutkWallFunction;
        Cmu             0.09;
        kappa           0.41;
        E               9.8;
        value           nonuniform List<scalar> 2(0.000149778 0.00015735);
    }
    sun
    {
        type            nutkWallFunction;
        Cmu             0.09;
        kappa           0.41;
        E               9.8;
        value           nonuniform List<scalar> 
14
(
8.31043e-05
8.61148e-05
8.29361e-05
8.61816e-05
8.91964e-05
9.18659e-05
9.42553e-05
9.64529e-05
9.85578e-05
0.000100694
0.000102625
0.00010418
0.00010538
0.000106407
)
;
    }
    Table_master
    {
        type            nutkWallFunction;
        Cmu             0.09;
        kappa           0.41;
        E               9.8;
        value           nonuniform List<scalar> 9(5.94254e-05 4.81352e-05 4.19863e-05 3.75705e-05 3.38933e-05 3.0424e-05 2.68953e-05 2.36792e-05 3.65368e-05);
    }
    Table_slave
    {
        type            nutkWallFunction;
        Cmu             0.09;
        kappa           0.41;
        E               9.8;
        value           nonuniform List<scalar> 9(8.77273e-05 8.85441e-05 9.1018e-05 9.46858e-05 9.94868e-05 0.000106371 0.000111413 0.000114661 0.000115056);
    }
    inlet
    {
        type            calculated;
        value           uniform 0.000100623;
    }
    outlet
    {
        type            calculated;
        value           nonuniform List<scalar> 2(0.00178707 0.00188018);
    }
}


// ************************************************************************* //
