/*--------------------------------*- C++ -*----------------------------------*=========                 |
  \      /  F ield         | OpenFOAM: The Open Source CFD Toolbox
   \    /   O peration     | Website:  https://openfoam.org
    \  /    A nd           | Version:  6
     \/     M anipulation  |
\*---------------------------------------------------------------------------*/
FoamFile
{
    version     2.0;
    format      ascii;
    class       volScalarField;
    location    "2700";
    object      PMV;
}
// * * * * * * * * * * * * * * * * * * * * * * * * * * * * * * * * * * * * * //

dimensions      [0 0 0 0 0 0 0];

internalField   nonuniform List<scalar> 
458
(
2.1641426981473706
2.0046894132625113
2.0069534030513623
1.9950359123632273
1.9851970145990172
1.9774652679749272
1.9713687620210978
1.9669234571001408
1.9652891219658861
1.9657427310487898
1.9691263879730736
1.9771768234446812
1.9910410034868424
2.0041799987634774
1.991341085168913
1.9131249471553629
1.918866670392873
1.9265215615917408
1.9140819337940778
1.8547249625580833
1.745950646381293
1.7267700053201678
1.7258108769970908
1.7286882347816963
1.727729124587606
1.7282086808199584
1.7306064278788098
1.733483649029869
1.7320450487519148
1.7339631778687814
1.741155833521751
1.7392378429825157
1.738278833771983
2.191099032087229
2.008056265331477
2.0214978764061398
2.0079640804215506
1.9997757309063533
1.9934857912488682
1.9893426613009653
1.986190653919417
1.984574574823603
1.984688335152721
1.9857697864493333
1.9877050424416505
1.9889633301674527
1.9856475686923236
1.9759336879157283
1.9873001985732577
2.0049895435526874
2.0469645289897715
1.8891984673103586
1.9341755959470794
1.9427853447495835
1.9437419147969677
1.9049900362047063
1.8523305602567028
1.8144895878541498
1.7919685360511692
1.7713591699729694
1.7588954589397057
1.7526629884477556
1.7512246685839197
1.7497863273103436
1.7526629884477556
1.7785490135342363
1.7996359298209128
1.7761524614276376
1.721703044048747
2.266710335926688
2.0072192784440173
2.0405060786520473
2.027003041302822
2.024270609056066
2.02240039748361
2.0217987369967525
2.021810765876686
2.022413055389671
2.022684522392062
2.023281202820008
2.0206496804098495
2.014350056360606
2.001822001217419
1.985939687575109
1.9744632079749316
1.9593977309717345
1.939824580504165
1.972432469309343
1.972432469309343
1.9776909991348777
1.9791250663674003
1.9733885986352893
1.8935038788756142
1.861428900001541
1.8427522285969014
1.8298196764980736
1.8168850983768936
1.8034693758638458
1.7890930925566764
1.7732765164087794
1.7881345908415243
1.9002043598670493
1.8561615689602076
1.7948438866592866
1.6723160990029027
2.355243903254737
2.015736572489493
2.0568132043984537
2.046568643102904
2.0506903672763066
2.055521669894255
2.060368452354539
2.0657221333086007
2.069537458326964
2.0724065529349307
2.073030075890938
2.0687956226745023
2.058440678301537
2.040098259548907
2.017271919895603
1.9920201436112333
1.9621008196466634
1.9296732900203584
1.9187012330044433
1.9380280436375412
1.9555828930021786
1.9693331410302441
1.9687160133052881
1.9609850856784061
1.9666436228846786
1.9857558159472601
1.9977648784060436
1.998242746555682
1.9991984713484277
2.0011098748104255
2.0020655534240666
1.9869168684766971
1.9628801283134043
1.9459201186188686
1.9230839640092163
1.8901803490360953
1.9011615206930546
2.445231884080748
2.0359253821698187
2.0703016631436943
2.0641383233225836
2.075432634545019
2.087694978440182
2.099738082486556
2.11199785850891
2.122263723364427
2.1289670278428434
2.132085319769907
2.128003475275138
2.115254537591426
2.0955647582669985
2.0711623104794374
2.043806096563806
2.015583556694065
1.991981192677326
1.9818735863596602
1.982440021613876
1.989228180287185
1.9930999803487655
1.9903364529954894
1.9869316116241047
1.989798671910811
1.9984860362805292
2.005410306729381
2.005410306729381
2.0058881131114457
2.0073215089023564
2.0082770865984156
2.0087548695865234
1.9952742904248109
1.9767602409982783
1.9464964263974915
1.9042001291533774
1.8720934688642679
1.850335649117082
1.8460654603602678
1.854409549814396
2.527917682443159
2.0696720698621727
2.0897345437430177
2.0793349653625914
2.095603124076692
2.114614091130504
2.1351573951987834
2.1564471024460405
2.1758254162204564
2.1904473007343856
2.1968072786206028
2.190471288556276
2.174688136206174
2.152488491612591
2.127238311653201
2.1008914117847404
2.0762812447566255
2.0567068574813185
2.046166191262535
2.041861759537034
2.039028763161649
2.0339071976319727
2.025077314572884
2.0166626015351614
2.012139840973441
2.0115183795619314
2.0116214852530487
2.010188195068537
2.0106659623900596
2.0116214852530487
2.0130547400441627
2.012988514895057
2.0130547400441627
2.009710423825087
1.9955667939267943
1.9450134331302025
1.9109887538925403
1.8997059969614578
1.8815098985470675
1.8608489826731927
2.593609127597416
2.1405781060943134
2.165409024713885
2.1112850863621104
2.1146954147951926
2.138698304156825
2.1673682755358854
2.2008968723399263
2.219495487585511
2.236615189664657
2.2508756224428126
2.238659163149588
2.21651900768062
2.1935890620879874
2.169953393355045
2.148010937953775
2.1284178848460975
2.114461991622833
2.10672645190967
2.1031813030580477
2.0927804104792465
2.075127015538401
2.0588996187869677
2.0445771937887303
2.0331165365700907
2.024041840604911
2.0178319991611806
2.013574452929564
2.0056373677110235
1.9989459183336282
1.9940803630564956
1.9911147318938456
1.9928967759258758
2.0019075576119376
2.009232648663215
1.997287006425483
1.9848610015539474
1.9511114619810894
1.8990198600445627
1.84349449007675
2.710014239493822
2.3941754557628347
2.35236496251592
2.242438437201781
2.198581846430413
2.192579876164769
2.201398043203596
2.2119232052204496
2.220474191716113
2.220640689235626
2.2204482184105343
2.215673610020045
2.2045529033148243
2.1898643000995137
2.1744058760598177
2.1602288688812017
2.148179653512819
2.1407505918032537
2.1377491495156575
2.1328347416196833
2.1161495316223125
2.099458447482661
2.081807403590448
2.064150210365667
2.0488743214939635
2.0355043697445048
2.025474784603458
2.0192650994681958
2.0107185531578713
1.9946069441672858
1.9801737592160755
1.9680530405789294
1.957317807962234
1.949675470278891
1.9449636260796654
1.945591643375751
1.9567585943095758
1.967693065643325
1.910274048594074
1.8015152680381705
2.873088252678014
2.7151926488647478
2.5955598246698774
2.4685010532345864
2.3664686520262217
2.2983759724571007
2.256821024052832
2.2326440605130027
2.220047541046817
2.211522547397713
2.1987523514068146
2.1841442868371774
2.1692561922653866
2.1555699236517754
2.142907041204418
2.1330346553741575
2.126624884968348
2.1231449880655577
2.1225574190460295
2.1228628132496197
2.12367672758141
2.1142422729387333
2.099458447482661
2.0837159246871138
2.0674912226048416
2.0507840464839364
2.0355043697445048
2.025474784603458
2.020220479729712
2.0105690254108466
1.982785126383515
1.958296911979424
1.9367067752518785
1.918880997113216
1.9038942570483444
1.8922550497685733
1.8851423071445066
1.8820900068128348
1.8747830606738605
1.847530676639176
1.0277395493001449
1.587895366060412
1.9129659555998686
2.0474185198830495
2.0987722942302023
2.117158220922736
2.1220539959428253
2.1210326470913192
2.1172906960371707
2.110636576837313
2.103239488577588
2.0962183005242676
2.0911398859404913
2.0874385006621052
2.0860498308978577
2.0867639991038054
2.0891963905685094
2.0927549610712037
2.0958328606380365
2.097998491523029
2.0978948074409796
2.0932574430671105
2.079898810631362
2.0655820988934717
2.0507840464839364
2.03693702030796
2.026430060423886
2.020220479729712
2.0183097032473394
2.01878740335086
2.020220479729712
2.016661137526888
2.006329339429636
1.9974082558055
1.990564428507987
1.9933206547098652
1.9634743793504743
1.9022574566845951
0.9669043626459015
1.5931489736425117
1.8265983260300427
1.9391475034129926
1.9898611167954994
2.0108003871846014
2.019037227478986
2.0207317119557846
2.021296483361119
2.0226644341674693
2.0245353454160075
2.027691431290762
2.0313194007660518
2.0355825652743245
2.0410415757945684
2.0460807351404307
2.0515228469319458
2.055271639706384
2.0575932521413858
2.058739053629082
2.058293067260395
2.056413612081034
2.053712128314757
2.049701991471937
2.0457098180930204
2.0425872364104025
2.0359819240515025
2.027385320067291
2.021175844003056
2.017354291095938
2.01544341911659
2.0149656912100253
2.015921143062033
2.0178319991611806
2.0178319991611806
1.9630977977880484
1.9214488345003091
1.9625685230959447
1.2543538353973376
1.2070234072521777
1.2410359996316025
1.660330334255998
1.872057782307716
1.955006648151369
1.9607795093585925
1.9577704009612245
1.9553793635781833
1.9552045695183293
1.9575075012222238
1.962410517928563
1.9690104390265706
1.9770971731420706
1.985330359525047
1.9926117953198828
1.9980265069001084
1.9991855835648933
1.9961500778018946
1.9900135019142104
1.9828395340829357
1.9768621811171547
1.9717511702482362
1.9679848728667568
1.965385017394229
1.963127045014008
1.95998941756642
1.9565413170813895
1.9531802723936174
1.9494261481954007
1.9464524340454734
1.9427953400719724
1.9394666741306275
1.9366274848252885
1.9337873582721918
1.9305395973521946
1.9324543907823584
1.941649695288058
1.9581611892178197
1.8354730178012657
)
;

boundaryField
{
    ".*"
    {
        type            zeroGradient;
    }
}


// ************************************************************************* //
