/*--------------------------------*- C++ -*----------------------------------*\
  =========                 |
  \\      /  F ield         | OpenFOAM: The Open Source CFD Toolbox
   \\    /   O peration     | Website:  https://openfoam.org
    \\  /    A nd           | Version:  6
     \\/     M anipulation  |
\*---------------------------------------------------------------------------*/
FoamFile
{
    version     2.0;
    format      ascii;
    class       volScalarField;
    location    "2500";
    object      alphat;
}
// * * * * * * * * * * * * * * * * * * * * * * * * * * * * * * * * * * * * * //

dimensions      [1 -1 -1 0 0 0 0];

internalField   nonuniform List<scalar> 
458
(
0.00112202
0.0012125
0.00121772
0.00127106
0.00132023
0.00136521
0.00140768
0.00144977
0.00148892
0.00151579
0.00152541
0.00151326
0.00147806
0.00142507
0.00136385
0.000485265
0.000598704
0.000649047
0.00063399
0.000610019
0.00057634
0.000541581
0.000509651
0.000481053
0.000455522
0.000432872
0.000412525
0.000393958
0.000376579
0.000359563
0.000341656
0.000330419
0.000302662
0.00158567
0.00361606
0.00336412
0.00391524
0.00439937
0.00489316
0.00536396
0.00575922
0.00606729
0.00633219
0.00651085
0.00653541
0.00629575
0.00556171
0.00383876
0.00139278
0.00113645
0.00094574
0.000638102
0.00108018
0.0014115
0.00164858
0.00172396
0.00142405
0.00126175
0.00114238
0.00104826
0.000971618
0.000903184
0.000841045
0.000782523
0.00072584
0.000677143
0.000635406
0.000765638
0.00040371
0.00197963
0.00501509
0.00406587
0.00540442
0.00598398
0.0063927
0.00669952
0.00693433
0.0071353
0.00735426
0.00757206
0.00775021
0.00784144
0.00779117
0.00750166
0.00676181
0.00550826
0.00128934
0.00107337
0.00150694
0.0018702
0.00216584
0.00220983
0.000799303
0.000710829
0.000638835
0.000580605
0.000533254
0.000494437
0.000462361
0.000435852
0.000414457
0.000450755
0.000519976
0.00086104
0.000470676
0.0023642
0.00666988
0.00406508
0.00580599
0.00650384
0.0067292
0.00680024
0.00683844
0.00691666
0.00708212
0.00731316
0.00757528
0.00783047
0.00803837
0.00812902
0.00795787
0.00728307
0.0055723
0.00141345
0.00183597
0.00238005
0.00282963
0.00312479
0.00301217
0.000872536
0.000803198
0.000759621
0.000730075
0.000706058
0.000680936
0.000654445
0.000626175
0.000592113
0.000561895
0.000563397
0.00096915
0.000530101
0.00275564
0.00880059
0.00468303
0.00549507
0.00653457
0.00674738
0.00667481
0.00654512
0.00653321
0.00668051
0.00691969
0.00721774
0.00753079
0.00779272
0.00790485
0.00779915
0.00741425
0.00669771
0.00536741
0.00489368
0.0046913
0.00457792
0.00448826
0.00431356
0.00369613
0.00345237
0.00334469
0.00327
0.00317861
0.00303955
0.00277637
0.00239958
0.00194829
0.00148036
0.00110582
0.00102543
0.000854875
0.000698696
0.000773323
0.000845381
0.00316494
0.0110895
0.00689852
0.00541858
0.00601225
0.00645546
0.00661262
0.00636886
0.00634452
0.00648504
0.00671437
0.00701676
0.0073378
0.00758584
0.00766604
0.00751959
0.00717002
0.00671812
0.00622274
0.00588013
0.00560609
0.00534638
0.00510036
0.00485697
0.00459563
0.00442407
0.00430291
0.00418967
0.00406245
0.00390993
0.00370572
0.00337689
0.00292043
0.00235942
0.00181598
0.00134879
0.00108137
0.000918759
0.00119174
0.000869381
0.00353934
0.0127459
0.0101612
0.00741358
0.00651127
0.0063614
0.0065577
0.00649916
0.0064579
0.00651283
0.0066974
0.00699157
0.00731835
0.007563
0.00761359
0.00741573
0.00702603
0.00660024
0.00627044
0.00602756
0.00573888
0.00537658
0.0050018
0.00467802
0.00444372
0.00430037
0.00419722
0.00409956
0.00399677
0.00389003
0.00378385
0.00363682
0.0033252
0.00286685
0.00237092
0.00189945
0.00156926
0.00141091
0.00134816
0.00100244
0.00360838
0.0115533
0.0103253
0.00956852
0.00862662
0.00785861
0.00741976
0.00695529
0.00666058
0.00662181
0.00680982
0.00713553
0.00747833
0.0077024
0.00769164
0.00740595
0.0069392
0.00648363
0.00615271
0.00580022
0.00531064
0.00480524
0.00438995
0.00410233
0.00392536
0.00381597
0.00373344
0.00366106
0.00360081
0.00356355
0.00356283
0.0035992
0.00356019
0.00326457
0.00296714
0.00278474
0.00280983
0.00292603
0.00348687
0.00158589
0.00350626
0.00415601
0.00481097
0.0051255
0.00540138
0.00552752
0.00559838
0.0057559
0.00608335
0.00653321
0.00702939
0.00749254
0.00783386
0.00795134
0.00776788
0.0072946
0.0067147
0.00621619
0.00565656
0.00502141
0.00442716
0.00397409
0.00367165
0.00347859
0.00334783
0.00324449
0.00314931
0.00305649
0.0029664
0.0028789
0.00278977
0.00269164
0.00259355
0.00250547
0.0024478
0.00242395
0.00238466
0.00228809
0.0021564
0.00152078
0.00244227
0.00561385
0.00608339
0.00646315
0.00690716
0.00739555
0.0077794
0.00805484
0.00824295
0.00835286
0.00832575
0.0080604
0.00752822
0.00681452
0.00603373
0.00525449
0.00451147
0.00393309
0.00354245
0.00328629
0.00310991
0.00297464
0.00285772
0.00274785
0.00264178
0.00254185
0.00245377
0.00238472
0.00234157
0.00232978
0.00233893
0.00235275
0.00236477
0.00235367
0.00228041
0.00212835
0.00192996
0.0012911
0.00258186
0.00648171
0.00740033
0.00754531
0.00786726
0.0082074
0.00838203
0.00825764
0.00808874
0.00794679
0.00767858
0.00708053
0.00632707
0.00551809
0.00476565
0.00418928
0.00382697
0.00360325
0.00343593
0.00329004
0.00315588
0.00302248
0.00288706
0.0027531
0.00262746
0.00251766
0.00242987
0.00236718
0.00232789
0.00232344
0.00235391
0.00240795
0.0024662
0.00250083
0.00247674
0.0024853
0.00258601
0.00132088
0.00208285
0.00225538
0.00238265
0.00252246
0.00244153
0.00235251
0.00220949
0.00200883
0.00181245
0.00169465
0.00159401
0.00148665
0.00136952
0.00125029
0.00112615
0.00101801
0.000939943
0.000890003
0.0008586
0.000837708
0.000823846
0.000814152
0.000806268
0.000800771
0.000798793
0.000801617
0.00081038
0.000825941
0.000848986
0.000880337
0.000921517
0.000970334
0.00102542
0.00108713
0.00115514
0.00123103
0.00127141
0.00124704
0.00117072
0.00109887
)
;

boundaryField
{
    floor
    {
        type            compressible::alphatWallFunction;
        Prt             0.85;
        value           nonuniform List<scalar> 
36
(
0.000192619
6.70039e-05
8.42072e-05
9.17092e-05
8.94735e-05
8.59005e-05
8.08508e-05
7.56006e-05
7.07408e-05
6.63556e-05
6.24128e-05
5.88915e-05
5.57082e-05
5.27857e-05
5.00341e-05
4.7324e-05
4.44538e-05
4.26426e-05
3.81337e-05
3.81332e-05
5.43209e-05
6.47534e-05
7.3854e-05
9.90372e-05
0.000109939
0.000120344
0.000192617
0.000196545
0.000161397
0.000134658
6.7003e-05
0.000134657
9.00794e-05
0.000182456
0.000152617
0.000199349
)
;
    }
    ceiling
    {
        type            compressible::alphatWallFunction;
        Prt             0.85;
        value           nonuniform List<scalar> 
43
(
0.000287812
0.000310087
0.000326406
0.000344344
0.000334079
0.000322726
0.000304372
0.000278394
0.000252693
0.000237129
0.000223736
0.000209342
0.000193505
0.000177222
0.000160082
0.000144973
0.00013395
0.000126843
0.000122349
0.000119349
0.000117354
0.000115956
0.000114818
0.000114024
0.000113739
0.000114148
0.000115414
0.000117659
0.000120974
0.000125467
0.000131339
0.00013826
0.000146021
0.000154659
0.000164113
0.000174586
0.000180129
0.000176786
0.00016627
0.000156299
0.000467367
0.000546433
0.000351577
)
;
    }
    sWall
    {
        type            compressible::alphatWallFunction;
        Prt             0.85;
        value           uniform 0.000286613;
    }
    nWall
    {
        type            compressible::alphatWallFunction;
        Prt             0.85;
        value           nonuniform List<scalar> 6(0.000120149 0.000123587 0.000142466 0.000182503 0.000186568 0.000155982);
    }
    sideWalls
    {
        type            empty;
    }
    glass1
    {
        type            compressible::alphatWallFunction;
        Prt             0.85;
        value           nonuniform List<scalar> 9(0.000155503 0.000217757 0.000269191 0.000318428 0.000367744 0.00041858 0.000464531 0.000473076 0.000460833);
    }
    glass2
    {
        type            compressible::alphatWallFunction;
        Prt             0.85;
        value           nonuniform List<scalar> 2(0.000221094 0.000212461);
    }
    sun
    {
        type            compressible::alphatWallFunction;
        Prt             0.85;
        value           nonuniform List<scalar> 
14
(
0.000159415
0.000171918
0.000172637
0.000179962
0.000186685
0.000192808
0.00019857
0.000204261
0.000209538
0.00021315
0.000214441
0.000212809
0.000208073
0.00020092
)
;
    }
    Table_master
    {
        type            compressible::alphatWallFunction;
        Prt             0.85;
        value           nonuniform List<scalar> 9(0.000113793 0.000100908 9.02805e-05 8.15774e-05 7.44206e-05 6.84943e-05 6.35529e-05 5.94363e-05 5.60906e-05);
    }
    Table_slave
    {
        type            compressible::alphatWallFunction;
        Prt             0.85;
        value           nonuniform List<scalar> 9(0.000124331 0.000114358 0.000108038 0.000103728 0.000100209 9.6513e-05 9.25976e-05 8.83977e-05 8.33062e-05);
    }
    inlet
    {
        type            fixedValue;
        value           uniform 1.94e-05;
    }
    outlet
    {
        type            zeroGradient;
    }
}


// ************************************************************************* //
