/*--------------------------------*- C++ -*----------------------------------*\
  =========                 |
  \\      /  F ield         | OpenFOAM: The Open Source CFD Toolbox
   \\    /   O peration     | Website:  https://openfoam.org
    \\  /    A nd           | Version:  6
     \\/     M anipulation  |
\*---------------------------------------------------------------------------*/
FoamFile
{
    version     2.0;
    format      ascii;
    class       volScalarField;
    location    "2500";
    object      T;
}
// * * * * * * * * * * * * * * * * * * * * * * * * * * * * * * * * * * * * * //

dimensions      [0 0 0 1 0 0 0];

internalField   nonuniform List<scalar> 
458
(
303.881
303.62
303.61
303.608
303.606
303.604
303.602
303.599
303.595
303.588
303.579
303.568
303.558
303.549
303.544
303.554
303.542
303.539
303.539
303.538
303.538
303.537
303.537
303.536
303.535
303.534
303.533
303.532
303.531
303.53
303.529
303.527
303.536
304.061
303.661
303.639
303.643
303.648
303.651
303.653
303.652
303.647
303.636
303.618
303.596
303.572
303.552
303.537
303.531
303.531
303.539
303.549
303.539
303.537
303.537
303.536
303.533
303.53
303.527
303.523
303.519
303.516
303.513
303.51
303.507
303.506
303.505
303.505
303.523
304.245
303.709
303.669
303.679
303.693
303.705
303.714
303.718
303.716
303.7
303.672
303.635
303.596
303.563
303.541
303.529
303.524
303.527
303.538
303.538
303.541
303.543
303.545
303.541
303.537
303.532
303.527
303.522
303.518
303.513
303.509
303.505
303.502
303.5
303.499
303.516
304.426
303.77
303.699
303.711
303.734
303.758
303.78
303.794
303.796
303.776
303.733
303.677
303.62
303.573
303.544
303.529
303.524
303.524
303.53
303.534
303.542
303.549
303.556
303.56
303.563
303.565
303.566
303.567
303.568
303.567
303.566
303.565
303.562
303.541
303.521
303.506
303.515
304.6
303.847
303.736
303.738
303.766
303.8
303.835
303.866
303.875
303.848
303.788
303.711
303.637
303.577
303.543
303.527
303.524
303.527
303.534
303.544
303.555
303.565
303.573
303.579
303.584
303.587
303.589
303.59
303.59
303.589
303.586
303.581
303.574
303.56
303.539
303.518
303.514
303.564
303.621
303.626
304.753
303.948
303.807
303.781
303.8
303.833
303.874
303.923
303.936
303.896
303.818
303.725
303.638
303.574
303.536
303.521
303.522
303.532
303.545
303.559
303.573
303.585
303.594
303.601
303.605
303.608
303.609
303.61
303.609
303.606
303.601
303.594
303.585
303.572
303.553
303.531
303.52
303.541
303.559
303.591
304.89
304.11
303.974
303.92
303.905
303.915
303.942
303.979
303.972
303.911
303.814
303.706
303.613
303.55
303.517
303.511
303.522
303.54
303.56
303.579
303.595
303.607
303.616
303.621
303.625
303.627
303.627
303.627
303.625
303.621
303.615
303.605
303.594
303.581
303.565
303.546
303.533
303.536
303.544
303.568
305.097
304.515
304.369
304.255
304.169
304.119
304.099
304.067
303.992
303.878
303.748
303.631
303.546
303.5
303.488
303.501
303.527
303.557
303.583
303.605
303.619
303.629
303.635
303.639
303.642
303.643
303.642
303.641
303.639
303.635
303.629
303.62
303.608
303.596
303.584
303.572
303.564
303.567
303.581
303.703
305.392
305.124
304.831
304.588
304.407
304.27
304.159
304.036
303.865
303.692
303.553
303.465
303.428
303.431
303.461
303.504
303.548
303.587
303.612
303.628
303.639
303.646
303.651
303.654
303.656
303.657
303.656
303.656
303.654
303.652
303.651
303.651
303.653
303.659
303.671
303.691
303.718
303.747
303.77
303.824
295.983
299.973
301.639
302.299
302.596
302.74
302.87
302.988
303.099
303.206
303.307
303.397
303.477
303.546
303.589
303.617
303.635
303.646
303.654
303.659
303.663
303.666
303.669
303.671
303.672
303.674
303.676
303.677
303.68
303.683
303.687
303.694
303.706
303.722
303.742
303.763
303.78
303.795
297.085
300.08
301.347
302.049
302.413
302.634
302.814
302.983
303.138
303.28
303.404
303.49
303.552
303.594
303.621
303.638
303.649
303.656
303.662
303.667
303.671
303.674
303.678
303.681
303.684
303.687
303.69
303.693
303.695
303.698
303.702
303.708
303.716
303.727
303.74
303.755
303.751
303.778
300.042
299.948
299.943
301.746
302.296
302.606
302.847
303.053
303.221
303.339
303.428
303.496
303.545
303.579
303.603
303.619
303.63
303.636
303.641
303.646
303.65
303.655
303.659
303.663
303.668
303.672
303.676
303.68
303.684
303.688
303.692
303.696
303.701
303.705
303.711
303.719
303.729
303.733
303.733
303.77
)
;

boundaryField
{
    floor
    {
        type            wallHeatTransfer;
        Tinf            uniform 305.2;
        alphaWall       uniform 0.24;
        value           nonuniform List<scalar> 
36
(
303.708
303.893
303.839
303.821
303.825
303.832
303.843
303.856
303.868
303.88
303.891
303.902
303.913
303.923
303.933
303.943
303.955
303.962
303.991
303.991
303.91
303.869
303.842
303.828
303.859
303.849
303.708
303.693
303.72
303.755
303.893
303.755
303.833
303.7
303.735
303.691
)
;
    }
    ceiling
    {
        type            wallHeatTransfer;
        Tinf            uniform 303.2;
        alphaWall       uniform 0.24;
        value           nonuniform List<scalar> 
43
(
300.266
300.165
300.15
301.834
302.353
302.645
302.871
303.063
303.22
303.327
303.408
303.469
303.511
303.539
303.557
303.568
303.573
303.577
303.58
303.583
303.586
303.589
303.592
303.595
303.599
303.603
303.607
303.611
303.616
303.621
303.627
303.633
303.639
303.646
303.654
303.664
303.673
303.677
303.673
303.704
305.29
305.046
297.451
)
;
    }
    sWall
    {
        type            wallHeatTransfer;
        Tinf            uniform 315.2;
        alphaWall       uniform 0.36;
        value           uniform 301.608;
    }
    nWall
    {
        type            wallHeatTransfer;
        Tinf            uniform 307.2;
        alphaWall       uniform 0.36;
        value           nonuniform List<scalar> 6(304.334 304.292 304.208 304.297 304.274 304.338);
    }
    sideWalls
    {
        type            empty;
    }
    glass1
    {
        type            wallHeatTransfer;
        Tinf            uniform 315.2;
        alphaWall       uniform 4.3;
        value           nonuniform List<scalar> 9(311.844 311.173 310.743 310.411 310.135 309.891 309.707 309.774 309.993);
    }
    glass2
    {
        type            wallHeatTransfer;
        Tinf            uniform 307.2;
        alphaWall       uniform 4.3;
        value           nonuniform List<scalar> 2(305.925 305.997);
    }
    sun
    {
        type            wallHeatTransfer;
        Tinf            uniform 305.2;
        alphaWall       uniform 0.24;
        value           nonuniform List<scalar> 
14
(
304.032
303.791
303.781
303.774
303.768
303.762
303.756
303.75
303.743
303.735
303.726
303.718
303.711
303.707
)
;
    }
    Table_master
    {
        type            zeroGradient;
    }
    Table_slave
    {
        type            zeroGradient;
    }
    inlet
    {
        type            fixedValue;
        value           uniform 292.15;
    }
    outlet
    {
        type            zeroGradient;
    }
}


// ************************************************************************* //
