/*--------------------------------*- C++ -*----------------------------------*\
  =========                 |
  \\      /  F ield         | OpenFOAM: The Open Source CFD Toolbox
   \\    /   O peration     | Website:  https://openfoam.org
    \\  /    A nd           | Version:  6
     \\/     M anipulation  |
\*---------------------------------------------------------------------------*/
FoamFile
{
    version     2.0;
    format      ascii;
    class       volScalarField;
    location    "1100";
    object      k;
}
// * * * * * * * * * * * * * * * * * * * * * * * * * * * * * * * * * * * * * //

dimensions      [0 2 -2 0 0 0 0];

internalField   nonuniform List<scalar> 
458
(
0.00089967
0.000955259
0.00088441
0.00094489
0.00100151
0.00105192
0.00109703
0.00113837
0.00117785
0.00121806
0.00125211
0.00127541
0.00128831
0.00129598
0.00129963
0.000369648
0.000597605
0.000690121
0.000721306
0.000709818
0.000657124
0.000601703
0.000552908
0.000510728
0.000473118
0.000438925
0.000407373
0.000377802
0.000349432
0.000321339
0.000291919
0.000265589
0.000218906
0.00237006
0.00450759
0.00130018
0.00128328
0.00132317
0.00137575
0.00143409
0.00150048
0.00157634
0.00165998
0.00174006
0.00179228
0.00179103
0.00170538
0.00153229
0.0014083
0.00127175
0.00099723
0.000672745
0.00113683
0.00116454
0.00113394
0.00104267
0.000901848
0.000793966
0.000733638
0.000679825
0.000623512
0.000566777
0.000510918
0.000455604
0.000401409
0.000360735
0.000337502
0.000499843
0.000316045
0.00433461
0.0105055
0.0019052
0.00161947
0.0016495
0.00172383
0.00180794
0.00190287
0.00200872
0.00212059
0.00222618
0.00229113
0.00228996
0.00221386
0.00208455
0.0019419
0.00176632
0.00162353
0.00105091
0.00169355
0.0013825
0.00106951
0.000890537
0.000726789
0.000568242
0.000458593
0.000392875
0.000351641
0.000322188
0.00029918
0.000281559
0.000271808
0.000281634
0.000306063
0.000704968
0.000407043
0.00693713
0.0201657
0.00304216
0.00190896
0.00191526
0.00202863
0.00215354
0.00228754
0.00243201
0.00258443
0.00273428
0.00283291
0.00284607
0.00276207
0.00258424
0.00233513
0.00208103
0.00188091
0.0017602
0.00204789
0.00131985
0.000971367
0.000766386
0.000716505
0.000673999
0.000686907
0.000712522
0.000738414
0.0007547
0.00075155
0.000720739
0.000676941
0.000626248
0.000524614
0.000450855
0.000910724
0.000530854
0.0101486
0.0330952
0.00567752
0.00223703
0.00210865
0.00224254
0.00241089
0.0025994
0.00281102
0.00304751
0.00328569
0.00344844
0.00349641
0.00342437
0.00323444
0.00294805
0.00262936
0.00230648
0.00186412
0.0013101
0.000936903
0.000721491
0.000684753
0.000786242
0.000944624
0.00106781
0.00116425
0.00124968
0.00130503
0.00130874
0.00124525
0.0011153
0.000970659
0.000806877
0.00065287
0.000783632
0.000797785
0.000755009
0.000810308
0.000829171
0.0139804
0.0461708
0.0123091
0.00340594
0.0024846
0.00248511
0.00265196
0.00288017
0.00315675
0.00351113
0.00386453
0.00407119
0.00411637
0.00402262
0.00380318
0.0034737
0.0030657
0.00254986
0.00191284
0.00130934
0.000897714
0.000670142
0.000672149
0.00080319
0.000943938
0.00111241
0.00127802
0.00144075
0.00157722
0.00165455
0.00164033
0.0014872
0.00127824
0.0010575
0.000863044
0.000793737
0.000774314
0.000960888
0.00241369
0.00138449
0.0182803
0.05487
0.0260145
0.00987285
0.00503025
0.00362315
0.00342735
0.00356565
0.00382446
0.00428744
0.00465275
0.00477746
0.00471973
0.00453595
0.00424984
0.00386743
0.00341514
0.00285502
0.00218913
0.00154055
0.00103123
0.000693057
0.000672669
0.000829985
0.000982536
0.00115496
0.00135404
0.00157397
0.00179244
0.00196984
0.00207933
0.00207081
0.00182795
0.0015423
0.00131514
0.0011938
0.00117045
0.00139346
0.00334429
0.00206816
0.0193787
0.0601528
0.0396456
0.0288626
0.0184453
0.0115021
0.00807662
0.00663375
0.0061465
0.00604789
0.00588199
0.0056277
0.00531117
0.00494841
0.00454294
0.0040951
0.00360277
0.00304968
0.00243621
0.00181769
0.00124119
0.000751008
0.00067802
0.000868111
0.00105398
0.00124742
0.00146607
0.00170787
0.00196521
0.00223135
0.0025046
0.00277785
0.00295304
0.00287792
0.00293273
0.00331825
0.00424459
0.00548013
0.0120073
0.00391556
0.0184794
0.0266322
0.0273401
0.0245801
0.0209505
0.0168489
0.0133616
0.0108298
0.00915821
0.00796058
0.00706194
0.00634881
0.00573968
0.00518205
0.00464458
0.00411119
0.00357465
0.00303054
0.00248323
0.00195477
0.00145529
0.000817527
0.000670725
0.000889756
0.00110939
0.00131508
0.00153005
0.00176103
0.00200881
0.00227633
0.00256834
0.00288742
0.00322847
0.00358598
0.0040609
0.00470294
0.00538833
0.00591586
0.00625422
0.0037265
0.0160769
0.0298333
0.0223428
0.0179587
0.0146596
0.0121298
0.0102294
0.00878291
0.00761828
0.00665616
0.00583763
0.00511779
0.00446551
0.0038617
0.00329668
0.00276804
0.00228109
0.00184615
0.0014355
0.000844988
0.000624949
0.000844985
0.00107972
0.00128242
0.00147215
0.00166293
0.0018584
0.00206311
0.00228594
0.0025422
0.00285408
0.00323276
0.00365672
0.00407854
0.00435225
0.00429524
0.00388892
0.00241242
0.0137477
0.0278984
0.0211141
0.017124
0.0142437
0.0119611
0.0100879
0.00856224
0.00731433
0.00623024
0.00529825
0.00449494
0.00379666
0.00318353
0.00264099
0.00216055
0.00174046
0.00138306
0.00105801
0.000693033
0.000539105
0.000688742
0.000848553
0.00101424
0.00118746
0.00137714
0.00158992
0.0018322
0.00211025
0.00242808
0.002794
0.00321613
0.00367664
0.00411204
0.00446597
0.00470342
0.00366674
0.00244706
0.00861181
0.0101212
0.0115309
0.0130203
0.011254
0.0098255
0.00820077
0.00697892
0.00594857
0.00506844
0.00431042
0.00371449
0.00321204
0.00276983
0.00237076
0.00200628
0.00167298
0.00137098
0.00110332
0.000875384
0.000691064
0.000550165
0.000502346
0.000604559
0.000708349
0.000816327
0.000929532
0.00104922
0.00117698
0.0013156
0.00147025
0.00165095
0.00186368
0.00210236
0.00236889
0.00265953
0.0030054
0.00291736
0.00246299
0.00209209
)
;

boundaryField
{
    floor
    {
        type            kqRWallFunction;
        value           nonuniform List<scalar> 
36
(
0.00129963
0.000369648
0.000597605
0.000690121
0.000721306
0.000709818
0.000657124
0.000601703
0.000552908
0.000510728
0.000473118
0.000438925
0.000407373
0.000377802
0.000349432
0.000321339
0.000291919
0.000265589
0.000218906
0.000218906
0.000316045
0.000407043
0.000530854
0.000755009
0.000810308
0.000829171
0.00129963
0.0014083
0.00127175
0.00099723
0.000369648
0.00099723
0.000672745
0.00162353
0.00105091
0.0017602
)
;
    }
    ceiling
    {
        type            kqRWallFunction;
        value           nonuniform List<scalar> 
43
(
0.00861181
0.0101212
0.0115309
0.0130203
0.011254
0.0098255
0.00820077
0.00697892
0.00594857
0.00506844
0.00431042
0.00371449
0.00321204
0.00276983
0.00237076
0.00200628
0.00167298
0.00137098
0.00110332
0.000875384
0.000691064
0.000550165
0.000502346
0.000604559
0.000708349
0.000816327
0.000929532
0.00104922
0.00117698
0.0013156
0.00147025
0.00165095
0.00186368
0.00210236
0.00236889
0.00265953
0.0030054
0.00291736
0.00246299
0.00209209
0.0184794
0.0266322
0.0137477
)
;
    }
    sWall
    {
        type            kqRWallFunction;
        value           uniform 0.00861181;
    }
    nWall
    {
        type            kqRWallFunction;
        value           nonuniform List<scalar> 6(0.000829171 0.00138449 0.00206816 0.00241242 0.00244706 0.00209209);
    }
    sideWalls
    {
        type            empty;
    }
    glass1
    {
        type            kqRWallFunction;
        value           nonuniform List<scalar> 9(0.00089967 0.00237006 0.00433461 0.00693713 0.0101486 0.0139804 0.0182803 0.0193787 0.0184794);
    }
    glass2
    {
        type            kqRWallFunction;
        value           nonuniform List<scalar> 2(0.00391556 0.0037265);
    }
    sun
    {
        type            kqRWallFunction;
        value           nonuniform List<scalar> 
14
(
0.00089967
0.000955259
0.00088441
0.00094489
0.00100151
0.00105192
0.00109703
0.00113837
0.00117785
0.00121806
0.00125211
0.00127541
0.00128831
0.00129598
)
;
    }
    Table_master
    {
        type            kqRWallFunction;
        value           nonuniform List<scalar> 9(0.000726789 0.000568242 0.000458593 0.000392875 0.000351641 0.000322188 0.00029918 0.000281559 0.000271808);
    }
    Table_slave
    {
        type            kqRWallFunction;
        value           nonuniform List<scalar> 9(0.000673999 0.000686907 0.000712522 0.000738414 0.0007547 0.00075155 0.000720739 0.000676941 0.000626248);
    }
    inlet
    {
        type            turbulentIntensityKineticEnergyInlet;
        intensity       0.05;
        value           uniform 0.0003375;
    }
    outlet
    {
        type            zeroGradient;
    }
}


// ************************************************************************* //
