/*--------------------------------*- C++ -*----------------------------------*\
  =========                 |
  \\      /  F ield         | OpenFOAM: The Open Source CFD Toolbox
   \\    /   O peration     | Website:  https://openfoam.org
    \\  /    A nd           | Version:  6
     \\/     M anipulation  |
\*---------------------------------------------------------------------------*/
FoamFile
{
    version     2.0;
    format      ascii;
    class       volScalarField;
    location    "1100";
    object      T;
}
// * * * * * * * * * * * * * * * * * * * * * * * * * * * * * * * * * * * * * //

dimensions      [0 0 0 1 0 0 0];

internalField   nonuniform List<scalar> 
458
(
303.504
303.192
303.184
303.185
303.187
303.187
303.188
303.188
303.188
303.188
303.187
303.184
303.18
303.174
303.167
303.013
302.983
302.974
302.969
302.965
302.961
302.959
302.956
302.953
302.95
302.946
302.942
302.938
302.934
302.93
302.924
302.918
302.922
303.727
303.224
303.201
303.206
303.212
303.217
303.221
303.224
303.226
303.226
303.224
303.217
303.205
303.187
303.164
303.144
303.127
303.116
303.002
302.986
302.976
302.967
302.961
302.954
302.946
302.939
302.932
302.925
302.918
302.911
302.904
302.899
302.895
302.892
302.89
302.905
303.941
303.273
303.226
303.236
303.25
303.263
303.274
303.284
303.291
303.294
303.293
303.284
303.265
303.237
303.202
303.166
303.132
303.105
303.003
302.991
302.983
302.972
302.964
302.955
302.942
302.929
302.917
302.906
302.896
302.887
302.879
302.873
302.872
302.871
302.873
302.895
304.14
303.336
303.252
303.265
303.286
303.308
303.329
303.347
303.362
303.371
303.373
303.363
303.341
303.307
303.262
303.212
303.158
303.103
303.065
303.034
303.014
302.995
302.978
302.967
302.957
302.951
302.947
302.943
302.939
302.935
302.931
302.926
302.92
302.903
302.886
302.874
302.889
304.322
303.417
303.284
303.287
303.313
303.342
303.371
303.399
303.423
303.441
303.448
303.442
303.42
303.384
303.336
303.281
303.224
303.169
303.12
303.077
303.04
303.006
302.984
302.974
302.968
302.963
302.959
302.955
302.951
302.945
302.939
302.932
302.924
302.912
302.896
302.88
302.882
302.88
302.88
302.924
304.477
303.519
303.346
303.313
303.332
303.362
303.394
303.428
303.46
303.488
303.505
303.505
303.484
303.447
303.398
303.342
303.284
303.228
303.174
303.121
303.067
303.018
302.99
302.981
302.977
302.973
302.969
302.965
302.959
302.953
302.945
302.936
302.926
302.915
302.901
302.887
302.88
302.876
302.873
302.922
304.6
303.688
303.518
303.42
303.384
303.389
303.413
303.442
303.474
303.513
303.541
303.545
303.525
303.488
303.439
303.383
303.327
303.272
303.218
303.161
303.095
303.031
302.995
302.986
302.983
302.981
302.978
302.974
302.968
302.961
302.951
302.94
302.927
302.915
302.903
302.891
302.882
302.877
302.876
302.917
304.813
304.131
303.953
303.779
303.638
303.555
303.52
303.514
303.526
303.555
303.572
303.566
303.54
303.499
303.45
303.397
303.345
303.295
303.245
303.192
303.122
303.043
303.001
302.991
302.99
302.989
302.987
302.983
302.978
302.972
302.963
302.953
302.938
302.923
302.914
302.906
302.902
302.904
302.914
303.056
305.109
304.819
304.527
304.285
304.078
303.92
303.811
303.739
303.697
303.667
303.625
303.577
303.525
303.473
303.423
303.375
303.33
303.287
303.245
303.201
303.146
303.057
303.006
302.996
302.996
302.997
302.997
302.996
302.993
302.99
302.987
302.984
302.985
302.99
303.003
303.025
303.057
303.091
303.12
303.188
297.368
301.466
302.773
303.205
303.375
303.442
303.463
303.46
303.449
303.428
303.401
303.37
303.339
303.308
303.278
303.249
303.22
303.189
303.148
303.074
303.012
303.001
303.003
303.006
303.009
303.011
303.013
303.016
303.019
303.022
303.027
303.034
303.046
303.065
303.088
303.112
303.132
303.15
298.294
301.326
302.329
302.817
303.054
303.167
303.218
303.238
303.244
303.245
303.241
303.234
303.225
303.214
303.202
303.189
303.176
303.159
303.136
303.088
303.021
303.006
303.009
303.014
303.018
303.022
303.026
303.03
303.034
303.039
303.043
303.05
303.059
303.072
303.088
303.104
303.105
303.132
300.255
300.191
300.187
301.938
302.475
302.795
302.971
303.04
303.076
303.094
303.102
303.109
303.115
303.12
303.124
303.126
303.127
303.127
303.124
303.119
303.11
303.094
303.04
303.014
303.018
303.022
303.026
303.03
303.033
303.037
303.04
303.043
303.047
303.052
303.057
303.064
303.079
303.085
303.084
303.119
)
;

boundaryField
{
    floor
    {
        type            wallHeatTransfer;
        Tinf            uniform 305.2;
        alphaWall       uniform 0.24;
        value           nonuniform List<scalar> 
36
(
303.433
303.453
303.363
303.338
303.328
303.327
303.333
303.343
303.351
303.36
303.368
303.375
303.383
303.39
303.398
303.407
303.418
303.428
303.462
303.462
303.391
303.345
303.302
303.248
303.239
303.273
303.433
303.405
303.4
303.416
303.453
303.416
303.365
303.358
303.313
303.314
)
;
    }
    ceiling
    {
        type            wallHeatTransfer;
        Tinf            uniform 303.2;
        alphaWall       uniform 0.24;
        value           nonuniform List<scalar> 
43
(
300.439
300.367
300.354
302.005
302.516
302.819
302.986
303.051
303.085
303.102
303.11
303.117
303.123
303.128
303.132
303.134
303.136
303.136
303.135
303.131
303.125
303.112
303.069
303.046
303.047
303.049
303.052
303.054
303.056
303.058
303.06
303.062
303.065
303.068
303.072
303.078
303.091
303.096
303.096
303.128
305.021
304.754
298.546
)
;
    }
    sWall
    {
        type            wallHeatTransfer;
        Tinf            uniform 315.2;
        alphaWall       uniform 0.36;
        value           uniform 301.618;
    }
    nWall
    {
        type            wallHeatTransfer;
        Tinf            uniform 307.2;
        alphaWall       uniform 0.36;
        value           nonuniform List<scalar> 6(303.839 303.693 303.587 303.75 303.732 303.756);
    }
    sideWalls
    {
        type            empty;
    }
    glass1
    {
        type            wallHeatTransfer;
        Tinf            uniform 315.2;
        alphaWall       uniform 4.3;
        value           nonuniform List<scalar> 9(312.426 311.546 310.956 310.492 310.125 309.823 309.573 309.621 309.833);
    }
    glass2
    {
        type            wallHeatTransfer;
        Tinf            uniform 307.2;
        alphaWall       uniform 4.3;
        value           nonuniform List<scalar> 2(305.666 305.735);
    }
    sun
    {
        type            wallHeatTransfer;
        Tinf            uniform 305.2;
        alphaWall       uniform 0.24;
        value           nonuniform List<scalar> 
14
(
303.757
303.485
303.486
303.481
303.476
303.471
303.467
303.464
303.461
303.457
303.454
303.449
303.445
303.439
)
;
    }
    Table_master
    {
        type            zeroGradient;
    }
    Table_slave
    {
        type            zeroGradient;
    }
    inlet
    {
        type            fixedValue;
        value           uniform 292.15;
    }
    outlet
    {
        type            zeroGradient;
    }
}


// ************************************************************************* //
