/*--------------------------------*- C++ -*----------------------------------*\
  =========                 |
  \\      /  F ield         | OpenFOAM: The Open Source CFD Toolbox
   \\    /   O peration     | Website:  https://openfoam.org
    \\  /    A nd           | Version:  6
     \\/     M anipulation  |
\*---------------------------------------------------------------------------*/
FoamFile
{
    version     2.0;
    format      ascii;
    class       volScalarField;
    location    "1000";
    object      alphat;
}
// * * * * * * * * * * * * * * * * * * * * * * * * * * * * * * * * * * * * * //

dimensions      [1 -1 -1 0 0 0 0];

internalField   nonuniform List<scalar> 
458
(
0.00193214
0.00251104
0.00252318
0.00242749
0.00232455
0.00223032
0.00214453
0.00206498
0.00199227
0.00192353
0.00185569
0.0017855
0.00170834
0.00161527
0.00150094
0.000376532
0.000376181
0.000382085
0.000456482
0.000516974
0.000436538
0.000366109
0.000336005
0.000328806
0.000324823
0.000318457
0.000311433
0.000308778
0.000318201
0.000338743
0.000390521
0.000498904
0.000526802
0.00224829
0.00389228
0.0044205
0.0044508
0.00432762
0.00420926
0.00411443
0.00403133
0.00392499
0.00378201
0.00359477
0.00335151
0.00303453
0.00262028
0.0020828
0.00149644
0.00137493
0.00117973
0.000610012
0.00130654
0.00118329
0.00152224
0.00165554
0.0011631
0.00100704
0.000922324
0.000876171
0.000817437
0.00073733
0.000656928
0.000611457
0.000673611
0.00090191
0.00120018
0.00155798
0.000746282
0.0030152
0.00491195
0.00505004
0.00479137
0.00460214
0.00456454
0.00462286
0.00471
0.0047643
0.00474293
0.00461407
0.00435809
0.00396706
0.00344608
0.00284182
0.00229879
0.00196142
0.0012565
0.000773585
0.00181075
0.00142229
0.00162345
0.00176782
0.000723375
0.000592469
0.000499281
0.000436241
0.000392189
0.000358969
0.000331945
0.000310876
0.000323671
0.00085899
0.00142926
0.00200673
0.000862627
0.00321547
0.00639467
0.00564604
0.00483625
0.00465781
0.0049093
0.00535547
0.00573359
0.00588574
0.00582151
0.00558133
0.00520082
0.00470446
0.00411115
0.00346423
0.00286002
0.00236975
0.00168047
0.00121123
0.00119611
0.00117331
0.00130772
0.00163203
0.00198997
0.000917545
0.000885413
0.000858398
0.000832981
0.000807529
0.000785965
0.000764631
0.00073943
0.000707002
0.000795328
0.00114271
0.00168484
0.00086823
0.00332025
0.0072679
0.00544473
0.00450832
0.0050728
0.00620098
0.00708554
0.00740016
0.0071833
0.00679293
0.00632123
0.00579046
0.00520481
0.00456783
0.00390952
0.00329124
0.00275575
0.00218076
0.00176801
0.00159885
0.00155904
0.00169284
0.00210329
0.00269562
0.0031379
0.00340373
0.00356364
0.00366677
0.0037619
0.00371893
0.00351836
0.0031599
0.00266836
0.00220655
0.00196855
0.00179779
0.00162849
0.0010648
0.00121147
0.00119109
0.00339221
0.00710664
0.00466099
0.00494393
0.00672003
0.00776657
0.00817944
0.00814461
0.00773985
0.00718974
0.00661874
0.00604478
0.00545822
0.00484539
0.00422907
0.00365052
0.00314494
0.00266691
0.00233758
0.00221806
0.00232722
0.00274546
0.00347444
0.00425587
0.0048762
0.00530456
0.00560122
0.00579185
0.00578717
0.005604
0.00524676
0.00471882
0.00404983
0.00335955
0.00279343
0.00222866
0.00173377
0.00264949
0.00355996
0.00136217
0.00346622
0.00607927
0.004063
0.00474168
0.0067748
0.00775892
0.0080264
0.00791955
0.0075771
0.00709764
0.00660418
0.00611
0.00560341
0.0050798
0.00454059
0.00401765
0.00359715
0.00326384
0.00317068
0.00341663
0.00409548
0.00504341
0.00596755
0.00665384
0.00705966
0.00725617
0.00727516
0.00713398
0.00687821
0.00651139
0.00602923
0.00543423
0.00475377
0.00406556
0.00344171
0.00277502
0.00215843
0.00295328
0.00428114
0.00168477
0.00354936
0.00505149
0.00434768
0.00468405
0.00604566
0.00697418
0.00730306
0.00738209
0.00725807
0.00696799
0.00659749
0.00621378
0.00582331
0.00543143
0.0050505
0.00470518
0.00448119
0.00446974
0.00489595
0.00576034
0.00687143
0.00782853
0.00836031
0.00855107
0.0084767
0.00821337
0.00785601
0.00744392
0.00698872
0.00648897
0.0059434
0.00536046
0.00476706
0.00421109
0.00372927
0.00330573
0.00295805
0.00351002
0.00565508
0.00226766
0.00366719
0.00419867
0.00545109
0.006127
0.00602562
0.00661112
0.00686553
0.00703737
0.00711287
0.00705311
0.00685405
0.00662718
0.00640784
0.00621567
0.00607587
0.00602639
0.00614282
0.00651827
0.00722216
0.00808363
0.00880432
0.00916516
0.00913814
0.0088323
0.00837105
0.00784654
0.00731573
0.00680288
0.0063093
0.00583589
0.00538872
0.00498204
0.00463871
0.00438614
0.00424683
0.00423238
0.00431305
0.00474344
0.00697014
0.00252487
0.00621968
0.0076813
0.00698127
0.00711011
0.00725633
0.00743244
0.00758537
0.00766219
0.00761297
0.0075269
0.00747612
0.00747992
0.00755371
0.00771437
0.0079811
0.00834837
0.00874214
0.00903611
0.00913247
0.009011
0.00872402
0.00835242
0.00796129
0.00758743
0.00724686
0.00694473
0.00668162
0.00646015
0.0062862
0.00616836
0.00611553
0.00613202
0.00620949
0.00631948
0.00641649
0.00659418
0.00748367
0.00220462
0.00298737
0.00728396
0.00789969
0.00786854
0.00789408
0.00789903
0.00784571
0.00772789
0.0075544
0.00739231
0.00732105
0.00734323
0.00745685
0.00765762
0.00793069
0.00824063
0.00852571
0.00872124
0.00879855
0.00876913
0.00866616
0.0085253
0.00837516
0.00823403
0.00811088
0.00800928
0.0079309
0.00787879
0.00785797
0.00787458
0.0079327
0.00802683
0.00812877
0.00818039
0.00811791
0.00789143
0.00672014
0.00196701
0.00124592
0.00149061
0.0019711
0.00200282
0.00198091
0.00194888
0.00193306
0.00192312
0.00191874
0.0019228
0.00193891
0.00196296
0.00198948
0.0020193
0.00205226
0.00208711
0.00212149
0.00215198
0.00217471
0.00218743
0.00219031
0.00218556
0.00217643
0.00216608
0.00215668
0.00214926
0.00214414
0.00214135
0.0021409
0.00214293
0.00214765
0.00215519
0.00216504
0.00217548
0.00218388
0.00219059
0.00220192
0.00220909
0.00212044
0.0017695
)
;

boundaryField
{
    floor
    {
        type            compressible::alphatWallFunction;
        Prt             0.85;
        value           nonuniform List<scalar> 
36
(
0.000211367
5.01972e-05
5.01388e-05
5.10732e-05
6.27176e-05
7.20156e-05
5.96257e-05
4.85372e-05
4.37278e-05
4.25736e-05
4.19312e-05
4.08987e-05
3.9757e-05
3.93281e-05
4.08711e-05
4.42025e-05
5.24786e-05
6.93696e-05
7.36063e-05
7.36054e-05
0.000106292
0.000123115
0.000123898
0.000151761
0.000172124
0.000169316
0.000211365
0.000210762
0.000194341
0.000167607
5.01965e-05
0.000167605
8.60856e-05
0.000178176
0.000110176
0.000171955
)
;
    }
    ceiling
    {
        type            compressible::alphatWallFunction;
        Prt             0.85;
        value           nonuniform List<scalar> 
43
(
0.000177963
0.00021089
0.000273863
0.000277973
0.000275118
0.000270936
0.000268868
0.000267567
0.000266994
0.000267524
0.000269632
0.000272775
0.000276237
0.000280124
0.000284414
0.000288943
0.000293404
0.000297355
0.000300297
0.000301943
0.000302319
0.000301707
0.00030053
0.000299194
0.000297979
0.000297019
0.000296356
0.000295994
0.000295935
0.000296196
0.000296806
0.000297779
0.000299052
0.000300401
0.000301486
0.000302353
0.000303815
0.000304738
0.000293285
0.000247404
0.000487143
0.000551638
0.000403296
)
;
    }
    sWall
    {
        type            compressible::alphatWallFunction;
        Prt             0.85;
        value           uniform 0.000177599;
    }
    nWall
    {
        type            compressible::alphatWallFunction;
        Prt             0.85;
        value           nonuniform List<scalar> 6(0.000169248 0.000192676 0.000236002 0.000303961 0.000273141 0.000247216);
    }
    sideWalls
    {
        type            empty;
    }
    glass1
    {
        type            compressible::alphatWallFunction;
        Prt             0.85;
        value           nonuniform List<scalar> 9(0.000264557 0.000305359 0.000401453 0.000426094 0.0004389 0.000447641 0.000456595 0.000466612 0.000480763);
    }
    glass2
    {
        type            compressible::alphatWallFunction;
        Prt             0.85;
        value           nonuniform List<scalar> 2(0.000312825 0.000345769);
    }
    sun
    {
        type            compressible::alphatWallFunction;
        Prt             0.85;
        value           nonuniform List<scalar> 
14
(
0.000268515
0.000343116
0.000344642
0.000332455
0.000319292
0.000307188
0.000296119
0.000285814
0.000276357
0.000267381
0.000258489
0.000249251
0.00023905
0.000226676
)
;
    }
    Table_master
    {
        type            compressible::alphatWallFunction;
        Prt             0.85;
        value           nonuniform List<scalar> 9(0.000102728 8.33458e-05 6.92308e-05 5.94966e-05 5.25884e-05 4.73118e-05 4.29718e-05 3.95562e-05 4.16436e-05);
    }
    Table_slave
    {
        type            compressible::alphatWallFunction;
        Prt             0.85;
        value           nonuniform List<scalar> 9(0.000130737 0.000126159 0.000122296 0.000118647 0.00011498 0.000111862 0.000108767 0.000105098 0.000100354);
    }
    inlet
    {
        type            fixedValue;
        value           uniform 1.94e-05;
    }
    outlet
    {
        type            zeroGradient;
    }
}


// ************************************************************************* //
