/*--------------------------------*- C++ -*----------------------------------*\
  =========                 |
  \\      /  F ield         | OpenFOAM: The Open Source CFD Toolbox
   \\    /   O peration     | Website:  https://openfoam.org
    \\  /    A nd           | Version:  6
     \\/     M anipulation  |
\*---------------------------------------------------------------------------*/
FoamFile
{
    version     2.0;
    format      ascii;
    class       volScalarField;
    location    "1300";
    object      alphat;
}
// * * * * * * * * * * * * * * * * * * * * * * * * * * * * * * * * * * * * * //

dimensions      [1 -1 -1 0 0 0 0];

internalField   nonuniform List<scalar> 
458
(
0.000806497
0.000838587
0.000815881
0.000843801
0.000868592
0.000889896
0.000908429
0.000925022
0.000940559
0.00095612
0.000968483
0.000976222
0.000979612
0.000980895
0.000980736
0.000483037
0.000558182
0.000592814
0.000615555
0.00062015
0.000601776
0.000578072
0.000555025
0.000533718
0.00051384
0.000495081
0.000477158
0.000459751
0.000442383
0.00042439
0.000404459
0.000385049
0.000348868
0.00127075
0.00204994
0.00170838
0.00204034
0.00218649
0.00233707
0.00248482
0.00261811
0.00272039
0.00276965
0.00277484
0.00270201
0.00250918
0.00213862
0.00155783
0.00101134
0.000951427
0.000890714
0.000727768
0.00134146
0.00190794
0.00221409
0.00215756
0.00164435
0.00145824
0.00135453
0.00126667
0.00118192
0.00109976
0.00101886
0.000934484
0.000841711
0.000756702
0.000687738
0.000769351
0.000417613
0.00169261
0.00317989
0.00187264
0.00295696
0.00323024
0.00341352
0.00356055
0.00367649
0.00376385
0.00381799
0.00384221
0.00381786
0.00371761
0.00351226
0.00317331
0.00266828
0.00192572
0.00106338
0.000863905
0.00250766
0.00290656
0.00278212
0.00231565
0.000695128
0.000609773
0.000540295
0.000488285
0.000450529
0.000422721
0.000401818
0.000386693
0.000378976
0.000468339
0.00057073
0.00087947
0.000473208
0.00212372
0.00487011
0.00190613
0.00331745
0.00383115
0.00401203
0.00411781
0.0041831
0.00422539
0.00425313
0.0042712
0.00427362
0.00424162
0.0041506
0.00395776
0.00358417
0.00292875
0.00195772
0.00105699
0.00287033
0.00299278
0.00285756
0.00256545
0.00212263
0.000619752
0.000622629
0.000638085
0.000655217
0.000668309
0.00067237
0.000662623
0.000643655
0.000620137
0.000601531
0.00060632
0.000970033
0.000543159
0.00256083
0.00707125
0.00252329
0.003107
0.0040709
0.00431561
0.00440467
0.00443186
0.00443026
0.00442677
0.00443052
0.00445277
0.00446828
0.00444861
0.00436434
0.00419817
0.00397775
0.00373603
0.00340083
0.0031584
0.00287104
0.00260251
0.00238436
0.00227142
0.00219836
0.00231175
0.00243159
0.00253214
0.00259536
0.00260472
0.00254146
0.00232197
0.00195899
0.00154382
0.00119533
0.00108437
0.000858793
0.000659842
0.000691088
0.000707238
0.00300597
0.00942356
0.00455773
0.00289955
0.00366853
0.00419701
0.00444493
0.00454476
0.00453988
0.0044771
0.00444861
0.00448678
0.00452691
0.00453151
0.00447074
0.00432885
0.00411811
0.00383806
0.00346414
0.00306238
0.0027399
0.00249507
0.00233437
0.0022938
0.00237687
0.00254744
0.00271699
0.00286463
0.00297472
0.00303561
0.00303788
0.00295282
0.00269752
0.00229741
0.00185093
0.0014542
0.00114618
0.00114035
0.00164022
0.00092955
0.00343846
0.0113546
0.00820242
0.00473979
0.0034817
0.00335557
0.00375505
0.0041935
0.0044914
0.00443567
0.00442719
0.00447235
0.00450912
0.00451019
0.00445058
0.00431182
0.00409064
0.00377624
0.00338848
0.00301445
0.00272721
0.0024995
0.0023461
0.00231027
0.00238069
0.00252362
0.00268596
0.00284145
0.00297756
0.00307849
0.00314977
0.00319316
0.00311205
0.00281999
0.00242269
0.00201468
0.00166483
0.00154464
0.00190188
0.00113891
0.00353812
0.0111356
0.00953065
0.00814511
0.00631462
0.00492728
0.00429502
0.00420213
0.0043796
0.00445061
0.00445112
0.00445049
0.00444697
0.00441757
0.00433544
0.00418005
0.00394424
0.00363469
0.00328952
0.00298468
0.00275522
0.00253639
0.00237488
0.0023299
0.00237729
0.00248024
0.0026032
0.0027266
0.00284425
0.00295649
0.00307628
0.00322139
0.00338263
0.00336201
0.00309542
0.00291067
0.00290088
0.00296882
0.0036839
0.00157107
0.00345411
0.00414965
0.00489818
0.00525203
0.00533196
0.00508409
0.00476007
0.00451746
0.00439573
0.00433155
0.00432084
0.00432683
0.004316
0.00426118
0.004143
0.00395165
0.0036905
0.00338376
0.00308908
0.00287535
0.00273843
0.00254661
0.00238003
0.00231524
0.00232662
0.00238113
0.00245156
0.00252121
0.00258164
0.00262893
0.00266052
0.00267149
0.00265332
0.00260405
0.00254639
0.00252018
0.00248686
0.00239944
0.00228179
0.00153921
0.0031868
0.00626855
0.0058122
0.00552472
0.00525564
0.00502511
0.00484835
0.00470697
0.00457127
0.00443116
0.00427255
0.00408292
0.00385413
0.00358419
0.00328172
0.00297958
0.00275575
0.00267164
0.00265735
0.00252588
0.00236601
0.00226463
0.00222146
0.00222016
0.00224118
0.00226917
0.00229462
0.00231353
0.00232671
0.002339
0.00235782
0.00238174
0.00238544
0.00235995
0.00227025
0.00208688
0.00184035
0.00126727
0.00298266
0.00678817
0.00627972
0.00587952
0.00555379
0.00527184
0.00499867
0.00473925
0.00446835
0.00414965
0.00381705
0.00348694
0.00316673
0.00285984
0.00257377
0.00234449
0.00229593
0.0024737
0.0026745
0.00269478
0.00257802
0.00241637
0.00227439
0.0021827
0.00214078
0.00213694
0.00216036
0.00220352
0.00226012
0.00232118
0.00236879
0.0024303
0.00248684
0.0025092
0.00248915
0.00243078
0.00233294
0.00128431
0.00233687
0.00254428
0.00271956
0.00289269
0.00271897
0.00256801
0.00234171
0.00215667
0.00198336
0.00181909
0.00166843
0.00153981
0.0014215
0.00130702
0.0011921
0.0010734
0.000948325
0.000818731
0.000704453
0.000676237
0.000690453
0.000693672
0.000689629
0.000690001
0.000701642
0.000725117
0.000757624
0.000796305
0.000839387
0.000886271
0.000937504
0.000995091
0.00106344
0.00113406
0.00120713
0.00128026
0.00135814
0.00133668
0.00123188
0.00113846
)
;

boundaryField
{
    floor
    {
        type            compressible::alphatWallFunction;
        Prt             0.85;
        value           nonuniform List<scalar> 
36
(
0.000139611
6.66106e-05
7.81155e-05
8.3328e-05
8.67266e-05
8.74093e-05
8.46627e-05
8.11052e-05
7.76292e-05
7.44e-05
7.13728e-05
6.85026e-05
6.57477e-05
6.30596e-05
6.03646e-05
5.75585e-05
5.44323e-05
5.13689e-05
4.56046e-05
4.56039e-05
5.6496e-05
6.51367e-05
7.5831e-05
9.33025e-05
9.79125e-05
0.000100287
0.000139609
0.000143923
0.000135465
0.000126829
6.66097e-05
0.000126828
0.000103287
0.000151218
0.000122991
0.000150328
)
;
    }
    ceiling
    {
        type            compressible::alphatWallFunction;
        Prt             0.85;
        value           nonuniform List<scalar> 
43
(
0.000320576
0.000347022
0.000369197
0.000391076
0.00036928
0.000350211
0.000321382
0.000297582
0.000275088
0.000253568
0.000233643
0.000216475
0.000200543
0.000184983
0.000169209
0.00015273
0.000135136
0.000116615
9.99867e-05
9.58149e-05
9.79087e-05
9.83874e-05
9.77961e-05
9.7853e-05
9.95665e-05
0.00010301
0.000107755
0.00011337
0.000119585
0.000126305
0.000133601
0.000141745
0.000151341
0.000161181
0.000171289
0.000181333
0.00019196
0.00018904
0.000174697
0.000161796
0.000460963
0.000545671
0.000402065
)
;
    }
    sWall
    {
        type            compressible::alphatWallFunction;
        Prt             0.85;
        value           uniform 0.00031937;
    }
    nWall
    {
        type            compressible::alphatWallFunction;
        Prt             0.85;
        value           nonuniform List<scalar> 6(0.000100097 0.000132154 0.000161522 0.00017923 0.000181561 0.000161472);
    }
    sideWalls
    {
        type            empty;
    }
    glass1
    {
        type            compressible::alphatWallFunction;
        Prt             0.85;
        value           nonuniform List<scalar> 9(0.00011164 0.000175797 0.00023194 0.000287856 0.000343406 0.00039902 0.000452282 0.000464581 0.00045452);
    }
    glass2
    {
        type            compressible::alphatWallFunction;
        Prt             0.85;
        value           nonuniform List<scalar> 2(0.000219059 0.000214859);
    }
    sun
    {
        type            compressible::alphatWallFunction;
        Prt             0.85;
        value           nonuniform List<scalar> 
14
(
0.00011476
0.000119368
0.000116097
0.000120116
0.000123672
0.000126717
0.00012936
0.000131721
0.000133927
0.000136132
0.000137881
0.000138974
0.000139453
0.000139634
)
;
    }
    Table_master
    {
        type            compressible::alphatWallFunction;
        Prt             0.85;
        value           nonuniform List<scalar> 9(9.85945e-05 8.59414e-05 7.54807e-05 6.75405e-05 6.17102e-05 5.7377e-05 5.40959e-05 5.17084e-05 5.04859e-05);
    }
    Table_slave
    {
        type            compressible::alphatWallFunction;
        Prt             0.85;
        value           nonuniform List<scalar> 9(8.74385e-05 8.78679e-05 9.01689e-05 9.27113e-05 9.46491e-05 9.52498e-05 9.381e-05 9.09989e-05 8.74997e-05);
    }
    inlet
    {
        type            fixedValue;
        value           uniform 1.94e-05;
    }
    outlet
    {
        type            zeroGradient;
    }
}


// ************************************************************************* //
