/*--------------------------------*- C++ -*----------------------------------*\
  =========                 |
  \\      /  F ield         | OpenFOAM: The Open Source CFD Toolbox
   \\    /   O peration     | Website:  https://openfoam.org
    \\  /    A nd           | Version:  6
     \\/     M anipulation  |
\*---------------------------------------------------------------------------*/
FoamFile
{
    version     2.0;
    format      ascii;
    class       surfaceScalarField;
    location    "1300";
    object      phi;
}
// * * * * * * * * * * * * * * * * * * * * * * * * * * * * * * * * * * * * * //

dimensions      [1 0 -1 0 0 0 0];

internalField   nonuniform List<scalar> 
850
(
-0.0025335
0.00259358
-0.00294785
0.000414378
-0.00344143
0.000493596
-0.00392711
0.000485708
-0.00435806
0.000430972
-0.00471413
0.000356096
-0.00497851
0.000264401
-0.00513226
0.000153775
-0.0051532
2.09681e-05
-0.00501333
-0.000139853
-0.00468493
-0.000328378
-0.00414795
-0.000536953
-0.00335896
-0.000788967
-0.00213027
-0.00122866
-0.00212874
0.00023281
-0.000230108
0.000607433
-0.000374582
0.000994613
-0.000387142
0.00140453
-0.000409885
0.00178808
-0.000383509
0.00197265
-0.000184536
0.00201966
-4.69838e-05
0.00202272
-3.02263e-06
0.0020088
1.39512e-05
0.00198184
2.69964e-05
0.00194479
3.70817e-05
0.0018973
4.75182e-05
0.00183022
6.71144e-05
0.00171873
0.000111522
0.00152173
0.000197026
0.00121685
0.000304911
0.000812896
0.000403989
0.000816269
-0.00186942
0.00462195
-0.00256262
0.0011076
-0.003192
0.00112301
-0.00371989
0.00101362
-0.00417456
0.000885663
-0.00455489
0.000736457
-0.00485012
0.000559653
-0.00504453
0.000348205
-0.00512001
9.64782e-05
-0.00506366
-0.000196179
-0.00486896
-0.000523054
-0.00453072
-0.000875176
-0.00405338
-0.00126628
-0.00357966
-0.00170236
-0.00382765
-0.00188073
-0.00236717
-0.00145752
-0.000969168
-0.00139486
-0.000960828
0.00065178
-0.000875805
0.00077711
-0.000499883
0.000943136
-0.000553138
0.0012452
-0.000711919
0.00157829
-0.000716563
0.00165208
-0.000258297
0.00165647
-5.13453e-05
0.00165688
-3.39838e-06
0.00165342
1.74489e-05
0.00164576
3.46855e-05
0.0016362
4.66734e-05
0.00162539
5.83614e-05
0.00161007
8.24744e-05
0.00156026
0.000161365
0.00138236
0.000374959
0.0010706
0.000616711
0.000664625
0.000809995
0.00148998
-0.00138303
0.00624368
-0.00214137
0.00186596
-0.0027444
0.00172607
-0.00321988
0.00148912
-0.00363088
0.00129669
-0.00398071
0.00108631
-0.00425978
0.000838745
-0.00445363
0.000542085
-0.0045459
0.000188772
-0.00452182
-0.000220239
-0.00437362
-0.000671221
-0.00411004
-0.00113874
-0.00377864
-0.00159765
-0.00349502
-0.00198596
-0.00323254
-0.00214319
-0.00256721
-0.00212282
-0.00169982
-0.00226223
-0.00265325
-0.000190191
-0.000676659
7.35616e-05
-0.000763608
0.000412145
-0.000891693
0.000738409
-0.00103815
0.00129869
-0.00127681
0.00104058
0.000989415
0.000986204
0.00100384
0.00103872
0.00108558
0.00114414
0.0012268
0.00138836
0.0012131
0.000550258
0.000952894
0.000876959
0.000552814
0.00121011
0.00205684
-0.00103193
0.00757906
-0.00176618
0.00260023
-0.00219564
0.00215555
-0.00255488
0.00184839
-0.00288015
0.00162198
-0.00316843
0.00137462
-0.00340952
0.00107986
-0.00358885
0.000721446
-0.00368661
0.000286558
-0.00367978
-0.000227051
-0.00356035
-0.000790618
-0.00335462
-0.00134444
-0.00312123
-0.00183102
-0.00291754
-0.00218962
-0.00269387
-0.00236684
-0.0023906
-0.00242607
-0.00219176
-0.00246105
-0.002697
-0.00214799
-0.00130598
-0.0013821
-0.000749416
-0.0012332
-0.000309198
-0.0012038
1.96827e-05
-0.00122054
0.0001857
-0.00120414
-3.73247e-07
-0.00109071
0.000557144
-0.000557639
0.000983589
-0.000426567
0.00136465
-0.000381187
0.00170966
-0.00034513
0.00200474
-0.000295203
0.00221898
-0.00021436
0.00230137
-8.25174e-05
0.00219303
0.000108224
0.00182751
0.000365392
0.0015933
0.000784503
0.00123183
0.00123846
0.000732912
0.00170906
0.00280775
-0.000768589
0.00870444
-0.0014382
0.00326986
-0.00158792
0.00230529
-0.00179166
0.00205216
-0.00200536
0.00183571
-0.00220411
0.0015734
-0.00237553
0.0012513
-0.002509
0.000854945
-0.0025857
0.000363286
-0.00257214
-0.000240582
-0.00245993
-0.000902804
-0.00229168
-0.00151267
-0.00212024
-0.00200243
-0.00197255
-0.0023373
-0.00182737
-0.002512
-0.00168534
-0.00256808
-0.00162603
-0.00252034
-0.00153347
-0.00224053
-0.00107312
-0.00184243
-0.000675386
-0.00163091
-0.000351906
-0.00152726
-0.000134973
-0.00143745
-2.45805e-05
-0.0013145
3.73632e-05
-0.00115262
0.000362894
-0.000883139
0.0006887
-0.000752342
0.000997833
-0.000690289
0.00129149
-0.000638759
0.00156051
-0.000564191
0.00178439
-0.000438213
0.00192836
-0.000226455
0.00194907
8.75379e-05
0.00184647
0.00046802
0.00171865
0.000912357
0.001584
0.00137315
0.00144734
0.00184575
0.00226052
0.0019946
0.00150865
0.000769759
0.00143816
8.78454e-05
0.00151088
-0.000694016
0.00979993
-0.00125861
0.00383448
-0.000974114
0.00202082
-0.000927127
0.0020052
-0.00103133
0.00193993
-0.00114116
0.00168326
-0.00121813
0.00132829
-0.00126547
0.000902311
-0.0012755
0.000373344
-0.00121576
-0.000300305
-0.0010966
-0.00102193
-0.000970681
-0.00163857
-0.000875375
-0.00209772
-0.000818996
-0.00239366
-0.00078898
-0.002542
-0.000784996
-0.00257204
-0.000810227
-0.00249509
-0.000765516
-0.00228523
-0.000598344
-0.00200959
-0.000418774
-0.00181047
-0.000276775
-0.00166924
-0.000196303
-0.00151789
-0.00015781
-0.00135296
-0.000108606
-0.00120179
6.21924e-05
-0.00105391
0.000275949
-0.000966068
0.000500968
-0.000915279
0.000730728
-0.00086849
0.000961028
-0.000794462
0.00118618
-0.000663335
0.00139343
-0.000433677
0.00154304
-6.20456e-05
0.00161167
0.000399412
0.00166938
0.000854675
0.00179045
0.00125211
0.00202106
0.00161516
0.00228558
0.00173012
0.00184868
0.00120669
0.00102412
0.000912434
0.00259209
-0.000897013
0.0111376
-0.000973969
0.00391146
-7.756e-05
0.00112443
0.000267264
0.0016604
0.000207602
0.00199962
0.000122674
0.00176821
0.00011719
0.0013338
0.000169312
0.000850214
0.0002762
0.000266481
0.000412827
-0.000436907
0.000522215
-0.00113129
0.000567962
-0.0016843
0.000543395
-0.00207313
0.00046131
-0.00231155
0.000341481
-0.00242215
0.000197969
-0.00242852
4.91315e-05
-0.00234625
-5.64073e-05
-0.00217968
-0.000100392
-0.0019656
-0.000131487
-0.00177936
-0.00017589
-0.00162482
-0.000243481
-0.00145027
-0.000308949
-0.00128745
-0.000340646
-0.00117006
-0.000304228
-0.00109029
-0.000222544
-0.00104772
-0.000113547
-0.00102425
1.63286e-05
-0.000998337
0.000165999
-0.000944105
0.000339793
-0.000837101
0.000548767
-0.000642624
0.000801115
-0.000314367
0.00104778
0.00015277
0.00126968
0.000632805
0.00153782
0.000983998
0.00187551
0.0012775
0.00224839
0.00135728
0.00240955
0.00104556
0.00187873
0.00144329
0.00452922
0.00210275
0.00952576
0.00259398
0.00342025
0.00283856
0.000879872
0.00269232
0.00180667
0.00238992
0.00230205
0.00219778
0.00196037
0.00212995
0.00140166
0.00215992
0.000820265
0.00228262
0.00014381
0.00239823
-0.000552494
0.00239412
-0.00112716
0.00226725
-0.00155741
0.00204796
-0.00185382
0.00177059
-0.00203417
0.00146436
-0.00211591
0.00115083
-0.00211499
0.000847809
-0.00204321
0.000576181
-0.00190805
0.000340885
-0.0017303
0.000119226
-0.0015577
-0.000100593
-0.00140498
-0.000314383
-0.00123645
-0.000496645
-0.00110516
-0.000634833
-0.00103183
-0.000724247
-0.00100085
-0.000777687
-0.000994251
-0.00080718
-0.000994724
-0.000819507
-0.000985983
-0.000812509
-0.000951075
-0.000775929
-0.000873654
-0.000682984
-0.000735543
-0.000479774
-0.00051755
-0.000132676
-0.000194302
0.000261133
0.000239022
0.000648993
0.000596166
0.00106443
0.000862084
0.00146592
0.000955817
0.00166634
0.000845172
0.000977463
0.00213219
0.00576053
0.0100605
0.0134708
0.0122611
0.00208962
0.00999038
0.00407741
0.00834761
0.00394483
0.00719942
0.00310858
0.00639356
0.00220754
0.00586876
0.00134509
0.00544127
0.000571317
0.00497694
-8.81371e-05
0.0044754
-0.000625602
0.00395456
-0.00103655
0.00342709
-0.00132634
0.00290393
-0.00151099
0.002396
-0.00160797
0.00191302
-0.00163199
0.00146186
-0.00159205
0.00104512
-0.00149129
0.000655986
-0.00134116
0.000281484
-0.00118319
-8.67301e-05
-0.00103675
-0.000424479
-0.000898661
-0.000710336
-0.000819262
-0.000953098
-0.000789038
-0.00116321
-0.000790699
-0.00135274
-0.000804698
-0.00153204
-0.000815392
-0.0017096
-0.000808386
-0.00189228
-0.000768376
-0.00208731
-0.000678589
-0.00230309
-0.000519739
-0.00254992
-0.000270696
-0.0028271
8.29118e-05
-0.00313362
0.00054557
-0.0036283
0.00109087
-0.00446653
0.00170034
-0.0057934
0.00228271
-0.00754135
0.00259315
-0.00738161
0.00197248
-0.0013416
0.00302662
0.00342255
0.00410374
0.00300028
0.00540674
0.00264184
0.00580635
0.00270898
0.00583167
0.00218223
0.00576032
0.00141645
0.00561367
0.000717982
0.00535478
0.000170772
0.00497382
-0.000244628
0.00449457
-0.00055729
0.00395315
-0.000784899
0.00338181
-0.00093964
0.00280691
-0.00103306
0.00224939
-0.00107446
0.00172351
-0.00106617
0.00123088
-0.000998664
0.000755926
-0.000866195
0.000293509
-0.000720762
-0.000153087
-0.000590133
-0.000548585
-0.000503126
-0.000892209
-0.0004756
-0.00120645
-0.000474766
-0.00150551
-0.000491602
-0.00179788
-0.0005123
-0.00208856
-0.000524681
-0.00237946
-0.000517451
-0.00266853
-0.000479283
-0.00294857
-0.000398515
-0.00320506
-0.000263222
-0.00341752
-5.8214e-05
-0.00357369
0.000239111
-0.00367151
0.000643422
-0.00374936
0.00116875
-0.00382031
0.00177132
-0.00388091
0.00234335
-0.00381044
0.00252271
-0.00233105
0.000493124
-0.00359778
-0.000370683
0.00383717
0.00127018
0.00135942
0.00229278
0.00161925
0.00316562
0.00183615
0.00386533
0.00148253
0.00433381
0.00094799
0.00454672
0.000505079
0.00454163
0.000175876
0.00435806
-6.10457e-05
0.00403154
-0.000230761
0.00360081
-0.000354157
0.00310161
-0.000440433
0.00256524
-0.000496675
0.00201958
-0.000528787
0.00149166
-0.000538242
0.00100736
-0.000514346
0.000541955
-0.000400785
0.000100931
-0.000279724
-0.000271148
-0.000218023
-0.000606526
-0.000167707
-0.000931419
-0.000150667
-0.00124642
-0.000159733
-0.00155524
-0.000182743
-0.00186036
-0.000207146
-0.00216146
-0.000223552
-0.00245279
-0.000226085
-0.00272177
-0.000210274
-0.00294902
-0.000171239
-0.00310931
-0.000102904
-0.00316923
1.74147e-06
-0.00310567
0.000175583
-0.00288813
0.000425911
-0.00249244
0.000773084
-0.00191217
0.00119109
-0.00101732
0.00144853
0.000535099
0.000970316
0.00142667
-0.00039842
-0.00208874
-0.00616709
-0.00836498
-0.00449662
-0.00312588
-0.00150044
0.000338559
0.00182142
0.00276871
0.00327246
0.00344657
0.00338341
0.0031502
0.00279324
0.00234962
0.00184935
0.00131651
0.00077366
0.000254078
-0.00015246
-0.000437905
-0.000661946
-0.000836256
-0.000994101
-0.00116144
-0.00135204
-0.00156711
-0.00179855
-0.00203241
-0.0022503
-0.00242897
-0.00253909
-0.00254434
-0.00237549
-0.00195605
-0.00118923
-4.23362e-06
0.00143829
0.00240245
0.00199748
)
;

boundaryField
{
    floor
    {
        type            calculated;
        value           nonuniform List<scalar> 
36
(
0
0
0
0
0
0
0
0
0
0
0
0
0
0
0
0
0
0
0
-3.3416e-06
-9.05622e-06
-1.40124e-05
-1.79563e-05
-1.78558e-05
-1.73232e-05
-1.66511e-05
-1.51071e-06
-2.9367e-06
-3.11232e-06
-3.29713e-06
-2.65709e-06
-5.02202e-06
-6.05204e-06
-7.37307e-06
-8.92788e-06
-8.9038e-06
)
;
    }
    ceiling
    {
        type            calculated;
        value           nonuniform List<scalar> 
43
(
-3.44498e-05
-3.28611e-05
-3.11859e-05
-1.13049e-05
-6.17487e-06
-2.84562e-06
-3.1197e-07
7.08666e-07
1.34461e-06
1.77747e-06
2.12204e-06
2.46515e-06
2.81889e-06
3.19483e-06
3.60689e-06
4.07378e-06
4.61989e-06
5.24963e-06
5.76411e-06
5.75044e-06
6.06087e-06
6.64397e-06
7.21627e-06
7.64241e-06
7.88515e-06
7.96292e-06
7.92185e-06
7.80592e-06
7.64555e-06
7.45801e-06
7.25036e-06
7.02087e-06
6.75612e-06
6.51056e-06
6.29164e-06
6.1178e-06
6.0375e-06
6.18415e-06
6.57907e-06
7.69519e-06
1.34691e-05
9.96292e-06
-4.39496e-05
)
;
    }
    sWall
    {
        type            calculated;
        value           uniform -0.000241851;
    }
    nWall
    {
        type            calculated;
        value           nonuniform List<scalar> 6(-5.6044e-05 -5.70565e-05 -5.83641e-05 -7.48408e-05 -8.23336e-05 -9.89265e-05);
    }
    sideWalls
    {
        type            empty;
        value           nonuniform 0();
    }
    glass1
    {
        type            calculated;
        value           nonuniform List<scalar> 9(-6.00592e-05 -0.000158926 -0.000238686 -0.000303426 -0.000356768 -0.000401457 -0.000440642 -0.000490876 -0.000548212);
    }
    glass2
    {
        type            calculated;
        value           nonuniform List<scalar> 2(-0.000253822 -0.000279447);
    }
    sun
    {
        type            calculated;
        value           uniform 0;
    }
    Table_master
    {
        type            calculated;
        value           nonuniform List<scalar> 9(-1.52962e-07 -1.53091e-07 -1.53126e-07 -1.53137e-07 -1.5314e-07 -1.53138e-07 -1.53131e-07 -1.53115e-07 -1.53068e-07);
    }
    Table_slave
    {
        type            calculated;
        value           nonuniform List<scalar> 9(1.5319e-07 1.53073e-07 1.52945e-07 1.52829e-07 1.52731e-07 1.52662e-07 1.5264e-07 1.52648e-07 1.52696e-07);
    }
    inlet
    {
        type            calculated;
        value           uniform -0.00435955;
    }
    outlet
    {
        type            calculated;
        value           nonuniform List<scalar> 2(0.0064434 0.00223075);
    }
}


// ************************************************************************* //
