// -*- C++ -*-
// File generated by PyFoam - sorry for the ugliness

FoamFile
{
 version 2.0;
 format ascii;
 class volScalarField;
 location "300";
 object T;
}

dimensions [ 0 0 0 1 0 0 0 ];

internalField nonuniform List<scalar> 458
(
  302.443
  302.164
  302.151
  302.147
  302.144
  302.141
  302.137
  302.134
  302.129
  302.126
  302.128
  302.141
  302.174
  302.205
  302.234
  302.541
  302.511
  302.498
  302.507
  302.52
  302.531
  302.541
  302.551
  302.561
  302.571
  302.582
  302.592
  302.602
  302.613
  302.624
  302.636
  302.651
  302.684
  302.621
  302.186
  302.158
  302.155
  302.154
  302.151
  302.148
  302.141
  302.127
  302.11
  302.103
  302.119
  302.161
  302.205
  302.226
  302.239
  302.251
  302.275
  302.548
  302.476
  302.468
  302.482
  302.502
  302.511
  302.519
  302.527
  302.535
  302.543
  302.55
  302.558
  302.567
  302.576
  302.588
  302.603
  302.624
  302.671
  302.814
  302.224
  302.178
  302.182
  302.189
  302.194
  302.194
  302.185
  302.155
  302.111
  302.083
  302.098
  302.156
  302.217
  302.245
  302.256
  302.262
  302.276
  302.492
  302.451
  302.452
  302.479
  302.512
  302.516
  302.522
  302.529
  302.536
  302.543
  302.551
  302.559
  302.567
  302.575
  302.588
  302.601
  302.621
  302.67
  303.013
  302.277
  302.205
  302.217
  302.24
  302.262
  302.275
  302.265
  302.21
  302.125
  302.065
  302.075
  302.151
  302.232
  302.276
  302.289
  302.289
  302.288
  302.301
  302.33
  302.377
  302.437
  302.499
  302.554
  302.597
  302.628
  302.653
  302.675
  302.693
  302.709
  302.723
  302.736
  302.745
  302.707
  302.669
  302.649
  302.677
  303.213
  302.348
  302.236
  302.247
  302.286
  302.333
  302.371
  302.368
  302.277
  302.143
  302.05
  302.056
  302.146
  302.252
  302.321
  302.346
  302.342
  302.337
  302.354
  302.391
  302.449
  302.516
  302.584
  302.645
  302.696
  302.734
  302.764
  302.787
  302.804
  302.814
  302.818
  302.816
  302.807
  302.776
  302.728
  302.687
  302.686
  302.813
  302.907
  302.905
  303.398
  302.445
  302.288
  302.275
  302.313
  302.374
  302.451
  302.457
  302.324
  302.149
  302.036
  302.04
  302.146
  302.285
  302.385
  302.427
  302.429
  302.429
  302.455
  302.503
  302.566
  302.635
  302.701
  302.757
  302.803
  302.837
  302.863
  302.881
  302.892
  302.895
  302.89
  302.879
  302.86
  302.829
  302.782
  302.733
  302.711
  302.766
  302.805
  302.853
  303.561
  302.609
  302.427
  302.375
  302.381
  302.427
  302.511
  302.491
  302.327
  302.124
  302.005
  302.022
  302.162
  302.341
  302.476
  302.538
  302.552
  302.56
  302.594
  302.647
  302.708
  302.77
  302.825
  302.871
  302.906
  302.931
  302.948
  302.958
  302.962
  302.959
  302.946
  302.928
  302.905
  302.874
  302.833
  302.787
  302.757
  302.768
  302.786
  302.82
  303.8
  303.091
  302.878
  302.725
  302.643
  302.632
  302.642
  302.503
  302.25
  302.024
  301.935
  302.008
  302.211
  302.442
  302.605
  302.676
  302.695
  302.711
  302.748
  302.799
  302.85
  302.898
  302.938
  302.968
  302.988
  303.001
  303.008
  303.009
  303.006
  302.998
  302.985
  302.967
  302.944
  302.916
  302.885
  302.851
  302.831
  302.838
  302.86
  303.005
  304.142
  303.811
  303.566
  303.312
  303.107
  302.969
  302.736
  302.333
  301.971
  301.796
  301.832
  302.03
  302.337
  302.621
  302.766
  302.816
  302.837
  302.859
  302.893
  302.932
  302.968
  302.998
  303.021
  303.036
  303.044
  303.045
  303.043
  303.037
  303.029
  303.02
  303.011
  303.004
  302.999
  302.999
  303.008
  303.028
  303.061
  303.097
  303.124
  303.19
  297.806
  299.204
  300.105
  300.507
  300.641
  300.815
  301.073
  301.426
  301.823
  302.216
  302.656
  302.843
  302.914
  302.942
  302.961
  302.983
  303.009
  303.034
  303.054
  303.068
  303.075
  303.078
  303.077
  303.073
  303.068
  303.063
  303.058
  303.053
  303.049
  303.046
  303.046
  303.05
  303.061
  303.081
  303.108
  303.14
  303.173
  303.21
  298.071
  299.265
  300.022
  300.427
  300.748
  301.133
  301.585
  302.099
  302.533
  302.792
  302.939
  303
  303.028
  303.045
  303.06
  303.075
  303.09
  303.101
  303.108
  303.11
  303.11
  303.107
  303.103
  303.098
  303.094
  303.089
  303.085
  303.081
  303.077
  303.075
  303.074
  303.077
  303.084
  303.096
  303.115
  303.141
  303.15
  303.19
  299.449
  299.422
  299.42
  300.298
  300.897
  301.468
  302.07
  302.525
  302.761
  302.921
  303.017
  303.066
  303.095
  303.113
  303.123
  303.131
  303.138
  303.142
  303.146
  303.147
  303.146
  303.143
  303.139
  303.135
  303.13
  303.125
  303.12
  303.116
  303.111
  303.107
  303.103
  303.099
  303.097
  303.096
  303.097
  303.105
  303.115
  303.126
  303.134
  303.18
)
;

boundaryField
{
  floor
  {
    type wallHeatTransfer;
    Tinf uniform 305.2;
    alphaWall uniform 0.24;
    value nonuniform List<scalar> 36
(
  302.545
  303.016
  302.943
  302.891
  302.882
  302.895
  302.922
  302.954
  302.985
  303.015
  303.043
  303.071
  303.098
  303.123
  303.149
  303.175
  303.203
  303.231
  303.289
  303.289
  303.206
  303.159
  303.127
  303.163
  303.228
  303.207
  302.545
  302.498
  302.543
  302.61
  303.016
  302.61
  303.027
  302.576
  302.879
  302.577
)
;
  }
  ceiling
  {
    type wallHeatTransfer;
    Tinf uniform 303.2;
    alphaWall uniform 0.24;
    value nonuniform List<scalar> 43
(
  299.654
  299.626
  299.622
  300.438
  301.014
  301.565
  302.143
  302.576
  302.798
  302.947
  303.036
  303.082
  303.109
  303.124
  303.134
  303.141
  303.147
  303.151
  303.154
  303.155
  303.155
  303.153
  303.149
  303.145
  303.141
  303.137
  303.132
  303.128
  303.123
  303.119
  303.115
  303.111
  303.109
  303.107
  303.108
  303.114
  303.124
  303.133
  303.141
  303.182
  304.098
  303.787
  298.389
)
;
  }
  sWall
  {
    type wallHeatTransfer;
    Tinf uniform 315.2;
    alphaWall uniform 0.36;
    value uniform 300.712;
  }
  nWall
  {
    type wallHeatTransfer;
    Tinf uniform 307.2;
    alphaWall uniform 0.36;
    value nonuniform List<scalar> 6
(
  303.701
  303.637
  303.516
  303.781
  303.759
  303.808
)
;
  }
  sideWalls
  {
    type empty;
  }
  glass1
  {
    type wallHeatTransfer;
    Tinf uniform 315.2;
    alphaWall uniform 4.3;
    value nonuniform List<scalar> 9
(
  311.027
  310.411
  310.02
  309.722
  309.475
  309.244
  309.049
  309.111
  309.339
)
;
  }
  glass2
  {
    type wallHeatTransfer;
    Tinf uniform 307.2;
    alphaWall uniform 4.3;
    value nonuniform List<scalar> 2
(
  305.568
  305.699
)
;
  }
  sun
  {
    type wallHeatTransfer;
    Tinf uniform 305.2;
    alphaWall uniform 0.24;
    value nonuniform List<scalar> 14
(
  302.721
  302.45
  302.431
  302.417
  302.405
  302.394
  302.383
  302.373
  302.363
  302.356
  302.356
  302.371
  302.414
  302.476
)
;
  }
  Table_master
  {
    type zeroGradient;
  }
  Table_slave
  {
    type zeroGradient;
  }
  inlet
  {
    type fixedValue;
    value uniform 299.15;
  }
  outlet
  {
    type zeroGradient;
  }
} 	// ************************************************************************* //

