/*--------------------------------*- C++ -*----------------------------------*\
  =========                 |
  \\      /  F ield         | OpenFOAM: The Open Source CFD Toolbox
   \\    /   O peration     | Website:  https://openfoam.org
    \\  /    A nd           | Version:  6
     \\/     M anipulation  |
\*---------------------------------------------------------------------------*/
FoamFile
{
    version     2.0;
    format      ascii;
    class       volScalarField;
    location    "1100";
    object      epsilon;
}
// * * * * * * * * * * * * * * * * * * * * * * * * * * * * * * * * * * * * * //

dimensions      [0 2 -3 0 0 0 0];

internalField   nonuniform List<scalar> 
458
(
0.000427821
0.000563023
0.00061596
0.000714132
0.000813753
0.000917331
0.00103094
0.00115492
0.00126681
0.00134701
0.00136947
0.00130906
0.00114424
0.000799538
0.000371768
2.06845e-05
3.5925e-05
6.04214e-05
7.82095e-05
7.81575e-05
5.8274e-05
4.13481e-05
2.95731e-05
2.13678e-05
1.55632e-05
1.14379e-05
8.39384e-06
6.13595e-06
4.49686e-06
3.34499e-06
2.60333e-06
3.06149e-06
2.72548e-06
0.000977571
0.00137136
0.000523098
0.000515745
0.00053463
0.000570433
0.000630756
0.000719036
0.000818477
0.000903358
0.000943546
0.000918936
0.000831386
0.000684878
0.000531491
0.000834702
0.000464998
0.000224642
2.12754e-05
3.96917e-05
7.44009e-05
8.24725e-05
8.11612e-05
7.87585e-05
5.65989e-05
3.89131e-05
2.69998e-05
1.90765e-05
1.38244e-05
1.02863e-05
7.88492e-06
6.33513e-06
5.45598e-06
5.08534e-06
1.33753e-05
9.53164e-06
0.00169393
0.0031216
0.000577268
0.000459041
0.000467901
0.000509902
0.00058335
0.000689183
0.000807887
0.000907635
0.000962634
0.000955565
0.000884886
0.000751762
0.000601477
0.000494246
0.000411388
0.000491107
6.46234e-05
0.000107226
0.000116036
0.000112381
0.000107065
0.000178094
0.000108913
6.80373e-05
4.42486e-05
3.02309e-05
2.1789e-05
1.65264e-05
1.31187e-05
1.08724e-05
8.93227e-06
7.61014e-06
1.79255e-05
1.4176e-05
0.00264592
0.00631339
0.000811797
0.000429158
0.000420379
0.000468738
0.000559877
0.000700177
0.000842145
0.000949841
0.00101253
0.00101311
0.000937697
0.000801386
0.000649556
0.000525857
0.000446709
0.000424861
0.000712967
0.000420754
0.000279616
0.000205836
0.000163683
0.000143629
0.00031479
0.000241141
0.000194848
0.00016322
0.000139419
0.000120693
0.000104182
8.82502e-05
7.17168e-05
4.06118e-05
2.32599e-05
2.46102e-05
1.99737e-05
0.0039357
0.0113082
0.00149394
0.000451927
0.000383831
0.000435936
0.000573767
0.000798658
0.00096539
0.00107062
0.00113025
0.00112023
0.00102164
0.000854996
0.000669991
0.000517175
0.000415899
0.000365362
0.00035651
0.000298624
0.000249703
0.000211919
0.000180447
0.000153638
0.000142252
0.000127911
0.000115906
0.000105525
9.57859e-05
8.61975e-05
7.6182e-05
6.57938e-05
5.54854e-05
4.26625e-05
3.05473e-05
2.5857e-05
2.75062e-05
4.04271e-05
6.41833e-05
0.000102272
0.00573683
0.0171096
0.00335636
0.000743477
0.000456843
0.000467151
0.000739238
0.00106543
0.00121584
0.00129393
0.00133042
0.00129586
0.00115739
0.000935067
0.000693315
0.00049672
0.000370481
0.000311025
0.0002884
0.00026878
0.000247443
0.000222178
0.000193633
0.000164675
0.000141554
0.00012583
0.000115153
0.000106535
9.83411e-05
8.96828e-05
8.0053e-05
6.96188e-05
5.93824e-05
4.95087e-05
4.05623e-05
3.39288e-05
3.37312e-05
3.90659e-05
0.00010555
0.000118336
0.0079585
0.0207785
0.00727436
0.00249917
0.00138286
0.00114088
0.00145585
0.00160962
0.00163912
0.00164396
0.0016337
0.0015497
0.00134215
0.0010402
0.000726266
0.000483366
0.000339856
0.000281851
0.00026874
0.000261878
0.000247389
0.000224207
0.000196032
0.0001678
0.000145038
0.000130201
0.000120946
0.00011437
0.000109066
0.000104211
9.89466e-05
9.25991e-05
8.63371e-05
8.09378e-05
7.80279e-05
7.94206e-05
8.85712e-05
0.000108598
0.000208982
0.000224623
0.00859917
0.0241032
0.0130148
0.00795262
0.00511191
0.00377216
0.00303901
0.00255453
0.00227414
0.00214133
0.00205301
0.00188147
0.00155782
0.00114132
0.000738856
0.000458406
0.000315309
0.000270697
0.000264536
0.000258255
0.000242106
0.000218489
0.000192596
0.000169217
0.000151653
0.000140382
0.000133596
0.0001297
0.000128318
0.000129851
0.000135411
0.000146152
0.000160786
0.000184125
0.000227216
0.000311088
0.000456623
0.000654779
0.00198485
0.000581755
0.00810716
0.0141633
0.010845
0.00817118
0.00618106
0.00480071
0.00381353
0.00319025
0.00286861
0.00272607
0.00257737
0.00225531
0.00172343
0.00114635
0.000653502
0.000410048
0.000319758
0.000291751
0.000283017
0.000272976
0.000256903
0.000237209
0.000217716
0.000201239
0.000189012
0.000180468
0.000174036
0.000168634
0.000164677
0.00016447
0.000171625
0.000191807
0.000229875
0.000290013
0.000377517
0.00049582
0.000636623
0.000782651
0.000924512
0.000585124
0.00263568
0.00353794
0.00383188
0.00380181
0.00369404
0.00366368
0.0036432
0.00353845
0.00316317
0.00245097
0.00150072
0.000834224
0.000552959
0.000449611
0.000414077
0.00040274
0.000397137
0.000390195
0.000381302
0.000372361
0.000365159
0.000360283
0.000356939
0.00035312
0.00034615
0.00033349
0.000313881
0.000289082
0.00026492
0.000249825
0.000253716
0.000284148
0.000344985
0.00043438
0.000536492
0.000619783
0.000639209
0.00057414
0.00178453
0.0075016
0.00718327
0.00679534
0.00647793
0.00579765
0.00523244
0.00463514
0.00362928
0.00251025
0.00160751
0.00109916
0.000876708
0.00079643
0.000774254
0.000776897
0.000791625
0.000811879
0.000833821
0.000855809
0.000877819
0.000900463
0.000923742
0.000945635
0.000961037
0.000961945
0.000939355
0.000887035
0.000806131
0.000708148
0.000611549
0.000535956
0.000493557
0.000483372
0.000488132
0.000519802
0.000899607
0.000736919
0.00253636
0.0027709
0.00299121
0.00445
0.00386317
0.0029814
0.0022466
0.00198228
0.00191837
0.00179769
0.00157139
0.00130567
0.00106995
0.000898781
0.000805546
0.000759561
0.000737645
0.000726366
0.000718176
0.00070995
0.000701382
0.000693258
0.000686191
0.000680033
0.00067376
0.00066565
0.00065371
0.000636265
0.000612651
0.000583813
0.00055247
0.000522486
0.00049802
0.000482243
0.000475756
0.000474125
0.000457716
0.000416979
0.000392506
0.000365883
)
;

boundaryField
{
    floor
    {
        Cmu             0.09;
        kappa           0.41;
        E               9.8;
        type            epsilonWallFunction;
        value           nonuniform List<scalar> 
36
(
0.000371768
2.06845e-05
3.5925e-05
6.04214e-05
7.82095e-05
7.81575e-05
5.8274e-05
4.13481e-05
2.95731e-05
2.13678e-05
1.55632e-05
1.14379e-05
8.39384e-06
6.13595e-06
4.49686e-06
3.34499e-06
2.60333e-06
3.06149e-06
2.72548e-06
2.72548e-06
9.53164e-06
1.4176e-05
1.99737e-05
4.04271e-05
6.41833e-05
0.000102272
0.000371768
0.000834702
0.000464998
0.000224642
2.06845e-05
0.000224642
2.12754e-05
0.000491107
6.46234e-05
0.000712967
)
;
    }
    ceiling
    {
        Cmu             0.09;
        kappa           0.41;
        E               9.8;
        type            epsilonWallFunction;
        value           nonuniform List<scalar> 
43
(
0.00253636
0.0027709
0.00299121
0.00445
0.00386317
0.0029814
0.0022466
0.00198228
0.00191837
0.00179769
0.00157139
0.00130567
0.00106995
0.000898781
0.000805546
0.000759561
0.000737645
0.000726366
0.000718176
0.00070995
0.000701382
0.000693258
0.000686191
0.000680033
0.00067376
0.00066565
0.00065371
0.000636265
0.000612651
0.000583813
0.00055247
0.000522486
0.00049802
0.000482243
0.000475756
0.000474125
0.000457716
0.000416979
0.000392506
0.000365883
0.00810716
0.0141633
0.00178453
)
;
    }
    sWall
    {
        Cmu             0.09;
        kappa           0.41;
        E               9.8;
        type            epsilonWallFunction;
        value           uniform 0.00253636;
    }
    nWall
    {
        Cmu             0.09;
        kappa           0.41;
        E               9.8;
        type            epsilonWallFunction;
        value           nonuniform List<scalar> 6(0.000102272 0.000118336 0.000224623 0.00057414 0.000736919 0.000365883);
    }
    sideWalls
    {
        type            empty;
    }
    glass1
    {
        Cmu             0.09;
        kappa           0.41;
        E               9.8;
        type            epsilonWallFunction;
        value           nonuniform List<scalar> 9(0.000427821 0.000977571 0.00169393 0.00264592 0.0039357 0.00573683 0.0079585 0.00859917 0.00810716);
    }
    glass2
    {
        Cmu             0.09;
        kappa           0.41;
        E               9.8;
        type            epsilonWallFunction;
        value           nonuniform List<scalar> 2(0.000581755 0.000585124);
    }
    sun
    {
        Cmu             0.09;
        kappa           0.41;
        E               9.8;
        type            epsilonWallFunction;
        value           nonuniform List<scalar> 
14
(
0.000427821
0.000563023
0.00061596
0.000714132
0.000813753
0.000917331
0.00103094
0.00115492
0.00126681
0.00134701
0.00136947
0.00130906
0.00114424
0.000799538
)
;
    }
    Table_master
    {
        Cmu             0.09;
        kappa           0.41;
        E               9.8;
        type            epsilonWallFunction;
        value           nonuniform List<scalar> 9(0.000178094 0.000108913 6.80373e-05 4.42486e-05 3.02309e-05 2.1789e-05 1.65264e-05 1.31187e-05 1.08724e-05);
    }
    Table_slave
    {
        Cmu             0.09;
        kappa           0.41;
        E               9.8;
        type            epsilonWallFunction;
        value           nonuniform List<scalar> 9(0.00031479 0.000241141 0.000194848 0.00016322 0.000139419 0.000120693 0.000104182 8.82502e-05 7.17168e-05);
    }
    inlet
    {
        type            turbulentMixingLengthDissipationRateInlet;
        mixingLength    0.01;
        phi             phi;
        k               k;
        value           uniform 0.000471672;
    }
    outlet
    {
        type            zeroGradient;
    }
}


// ************************************************************************* //
