/*--------------------------------*- C++ -*----------------------------------*=========                 |
  \      /  F ield         | OpenFOAM: The Open Source CFD Toolbox
   \    /   O peration     | Website:  https://openfoam.org
    \  /    A nd           | Version:  6
     \/     M anipulation  |
\*---------------------------------------------------------------------------*/
FoamFile
{
    version     2.0;
    format      ascii;
    class       volScalarField;
    location    "1100";
    object      PMV;
}
// * * * * * * * * * * * * * * * * * * * * * * * * * * * * * * * * * * * * * //

dimensions      [0 0 0 0 0 0 0];

internalField   nonuniform List<scalar> 
458
(
2.252269771090825
2.0921087618733005
2.072396951470797
2.0566869109049755
2.045589410245349
2.0390638290827963
2.0362168125618387
2.0376752457211507
2.0436179628303095
2.056184175415673
2.0764116045300893
2.1080879050378254
2.152790303886122
2.1727174914567677
2.185615272487253
2.2867433779714736
2.2791205818003877
2.2724492867793846
2.2710195615485613
2.274832035460789
2.2791205818003877
2.2838850235141
2.288648817373359
2.292459381798113
2.295793279710337
2.297221993681556
2.296745762338377
2.293888234867342
2.289601497852664
2.2843614321562655
2.279597054948222
2.275785090445529
2.2734024052877393
2.2551684052759424
2.107912036754508
2.0971393655531507
2.0829467971637516
2.074055541041988
2.067916374252952
2.0647474001784554
2.06456318390295
2.06431358788735
2.066513450553161
2.073817289702499
2.0920976047550184
2.1237611729346453
2.1655504123436744
2.175583996191408
2.1808387648884104
2.1808984798737994
2.194689162981117
2.285790619149496
2.270542973837624
2.2595797278801903
2.2605331842234264
2.26482343108066
2.26911317288706
2.2738789550300984
2.2786441022360133
2.282932186800569
2.28721974761162
2.2910304694027244
2.2931146399950584
2.2935972032433183
2.2937325317313033
2.292459381798113
2.289601497852664
2.2862670018153453
2.279597054948222
2.3061631893563814
2.1138367129660147
2.120284305225789
2.114611406169681
2.1136342722414465
2.1125076644151144
2.1116058033487204
2.109091210516923
2.0996252016242125
2.0829347143231622
2.0699040417482024
2.0717145081107704
2.0945163130259363
2.1369250865630676
2.1727174914567677
2.1798833997807567
2.17816736306601
2.1691158352995865
2.262832305089532
2.2398948121784485
2.227154874991126
2.2284724222960346
2.2344454449450724
2.2431191860701873
2.259639354746679
2.2735317216122004
2.2791205818003877
2.2838850235141
2.288648817373359
2.292459381798113
2.294599594136101
2.292518559247681
2.2915357647296557
2.2956238511258436
2.293544621369931
2.2784307543946523
2.3795005736584405
2.123174903729292
2.138643750776427
2.147217344804467
2.1601393851276622
2.1715958054613047
2.1781200719422165
2.1740514524671504
2.147173247565212
2.103167131013814
2.063415427155327
2.0507372348088313
2.069472141250706
2.109552450437257
2.1496593315350054
2.169495759979635
2.1618801915077155
2.1426061839265027
2.133036288208796
2.1494548538449383
2.168272318180136
2.188343434488071
2.2106641764335335
2.2335827239619084
2.2501996101547115
2.256144001861273
2.26236656611128
2.2703112397082266
2.278421832165379
2.2873565619088936
2.296955477720383
2.3077012505704353
2.321211203334343
2.3204903050870205
2.31111167214594
2.293823653026371
2.278835765321444
2.46190749913519
2.1414931958029433
2.154421474552136
2.173765815902087
2.2054959354826096
2.2383771029344333
2.261332931192153
2.248292807557793
2.1905404476089014
2.1157787737052787
2.053869749945159
2.031771058039296
2.049753884847457
2.0917663271630014
2.138106831026422
2.169322702233779
2.1728521946609747
2.1629294243819963
2.163101964760544
2.17474877125975
2.19392352945043
2.2173335008019377
2.242392435451459
2.2680025915937274
2.289372962631312
2.3042597272640553
2.3167806950951886
2.328188863870065
2.3381954757850574
2.3460413740733452
2.3519848639132013
2.355325723383092
2.3558501217460432
2.3463508045195534
2.3288285562569624
2.301638625272541
2.287376381792494
2.275932561698059
2.3757039379374034
2.277977928042433
2.5436878328465666
2.1749094457085274
2.181911998302688
2.195153304450532
2.234494565775159
2.295206874744165
2.328162453717064
2.282673163790479
2.2008901887273136
2.1094434952591774
2.0394531357203505
2.0148620323694804
2.036037013137888
2.0860384884579974
2.1427889401827467
2.187757487438573
2.207808103260961
2.207967326618592
2.2146709958240063
2.2305185915484858
2.2514398970457665
2.2761596753206095
2.302328725618694
2.3274562837784365
2.3433837898515995
2.3566963183510263
2.3690526715479083
2.3790289965552742
2.3875773650033314
2.3937495697678295
2.397072495618475
2.397547166561487
2.3909165874510365
2.375028696436106
2.3525824595259284
2.3236813918013794
2.302667684576946
2.2860604535746867
2.299573825374508
2.320111054218662
2.619959184754667
2.245566089311074
2.2651867636033836
2.24437809092483
2.2587782393300255
2.297948475011006
2.3049126601412047
2.262430979526082
2.1778924585626083
2.079856369171376
2.0098132733899807
1.993361856002368
2.0288803968321187
2.095786025082279
2.169593409230153
2.231586531016621
2.2600564591398524
2.2724492867793846
2.2853142299802243
2.301031604276117
2.3181694909337724
2.3357740439445385
2.3524179269723167
2.367627202443094
2.3814038018353343
2.3932748334257843
2.4032425748516193
2.411309016662217
2.417475824107205
2.421270063173786
2.4222185366130677
2.4198472881562236
2.4146297842508884
2.406089830903107
2.384011638352175
2.356289406540881
2.332906900977413
2.3123834365637492
2.295389166260908
2.3243313440664104
2.733541822627043
2.4880761541610386
2.4301095679164364
2.3558727310306
2.330203648550235
2.3261998457655193
2.303939822537499
2.2276775932930475
2.114159717744015
2.0092835743881157
1.9566856304119578
1.970470362266981
2.0391180898761427
2.1340806080121633
2.2306524548156568
2.2838850235141
2.3067452142112144
2.320073150547804
2.3333956187507425
2.34861440503049
2.3652512666594943
2.3814038018353343
2.395173729887409
2.407038849410369
2.4170015055255396
2.4255379200975837
2.431700102939614
2.4364401942952028
2.439283820212528
2.4397577264029775
2.437862047648211
2.4345442645977307
2.4283827654703996
2.4203215551311468
2.4103601496224347
2.399920397915378
2.3909010298252813
2.37614523048989
2.3277103375830457
2.2774903670449844
2.898416715314202
2.754740853660434
2.642362204664259
2.536809279786758
2.458023471297387
2.399084949280532
2.2760878378018474
2.102658452072597
1.9526903526036048
1.8763880925861918
1.8885486674658292
1.9711655734299773
2.0959794030778136
2.226815936519125
2.303412393112223
2.339579149265042
2.3576469893933916
2.3690526715479083
2.3809288566107996
2.3942242979643655
2.4079878343804286
2.4189470224573135
2.426547342990913
2.4321756390238627
2.4365871803918457
2.439687722292282
2.441141268775795
2.440642719327997
2.43740875759842
2.4323349841541475
2.424118285376198
2.4137578315662878
2.401728911856587
2.389288833022806
2.376550248509901
2.3627982681647133
2.351065306946324
2.34321146211824
2.334255999183391
2.3164455498494467
0.11080070371503059
0.6820176367493459
1.048224134512046
1.2036515486158248
1.286779339313854
1.3913714607743481
1.5290571601583796
1.7012148491122627
1.8943708770505239
2.0849188524424553
2.239074523474443
2.3248318104355876
2.3520292740771636
2.3664985580714575
2.376886775376713
2.386459579977617
2.397582557693927
2.4080608733512436
2.4181195539229914
2.4254388085529013
2.43068152259804
2.4339986849828943
2.435920483709175
2.4354196856001753
2.433314459670409
2.4299508801996823
2.4247540405103702
2.418620983273633
2.411996549335555
2.4049989251961623
2.3981608680975106
2.3920200513265053
2.3869359947956696
2.383750789982351
2.3834298844874398
2.3938589398753938
2.429770534077017
2.3845411276867607
0.1647576666012266
0.8540899676371064
1.1828479565482088
1.384063316922388
1.5284648427541434
1.6743895710634753
1.850298720098047
2.0291735058647777
2.173902325692811
2.2555652841185956
2.314598453499914
2.3510758967201335
2.3717668796295928
2.384576321975603
2.393799040476812
2.402436582098222
2.4105973266071956
2.417542648803728
2.4232222110538957
2.426717919853104
2.4286070383164153
2.4289230114059497
2.4276335785386998
2.425164716705311
2.421478500288535
2.417128209859635
2.4128050444311184
2.408348163578522
2.4047144032862726
2.4029531805684488
2.4032292084518785
2.40732384461854
2.4162203908134856
2.4308254033004086
2.442600973897169
2.447812744482494
2.3994434687657202
2.4006140152291433
0.6710038774887255
0.6482846142391441
0.7048438034016606
1.1481841878001955
1.4692036527413255
1.740014615446322
1.9532617623647541
2.083834863694892
2.1689663526492535
2.236148142658591
2.2867598044275717
2.3208536950992134
2.3435609704545386
2.358915809615752
2.367965053101214
2.3745857992699198
2.379714193685544
2.383241753728673
2.386127673641956
2.387820768593236
2.3883649462320586
2.3878221116440033
2.3857010432759584
2.3830612894543277
2.37987180402971
2.3760935748565872
2.3722437471313755
2.367822501839223
2.3639911731175456
2.3603787697664877
2.3571908278160856
2.3556884185195237
2.354912207576278
2.3552385245780307
2.3555405593879457
2.3560736416265984
2.356511992064194
2.3569717838010202
2.351709701445684
2.3534440614918513
)
;

boundaryField
{
    ".*"
    {
        type            zeroGradient;
    }
}


// ************************************************************************* //
