/*--------------------------------*- C++ -*----------------------------------*\
  =========                 |
  \\      /  F ield         | OpenFOAM: The Open Source CFD Toolbox
   \\    /   O peration     | Website:  https://openfoam.org
    \\  /    A nd           | Version:  6
     \\/     M anipulation  |
\*---------------------------------------------------------------------------*/
FoamFile
{
    version     2.0;
    format      ascii;
    class       volScalarField;
    location    "200";
    object      alphat;
}
// * * * * * * * * * * * * * * * * * * * * * * * * * * * * * * * * * * * * * //

dimensions      [1 -1 -1 0 0 0 0];

internalField   nonuniform List<scalar> 
458
(
0.00192474
0.00218306
0.00246841
0.00247036
0.00236217
0.00224836
0.00213725
0.00203136
0.00193019
0.00183791
0.00175161
0.00166622
0.00157651
0.0014739
0.00135109
0.000587871
0.000676522
0.000760966
0.000850077
0.000924304
0.000867407
0.000803207
0.000748964
0.000704164
0.000666748
0.000635245
0.000608332
0.000584647
0.000562917
0.000541328
0.000517775
0.000489861
0.000446726
0.00202421
0.00338715
0.00432972
0.00459894
0.00461922
0.00450831
0.00434623
0.0041755
0.00401117
0.00381524
0.00358291
0.00332096
0.00301745
0.00263609
0.00208352
0.00140845
0.00129135
0.00111468
0.000567015
0.000977272
0.00160769
0.00227006
0.00267771
0.00185483
0.00155742
0.00136933
0.00124479
0.0011598
0.00110284
0.00107
0.00104829
0.000994416
0.000917281
0.000832274
0.000795434
0.000470404
0.00197545
0.00342
0.00406248
0.00435701
0.00441813
0.00437362
0.00429696
0.00421288
0.00413157
0.0040574
0.00397037
0.00384237
0.00363752
0.00331372
0.00283817
0.00231097
0.00200868
0.0012031
0.000562034
0.000857242
0.00143667
0.00233527
0.00298771
0.00106845
0.000931564
0.000804202
0.000695671
0.000605918
0.000532683
0.000473927
0.00043618
0.000434039
0.000594244
0.000715971
0.000894556
0.000486312
0.00207579
0.00388078
0.00432937
0.00437672
0.00435122
0.0043324
0.00433488
0.00433542
0.00434684
0.00434991
0.00431548
0.00422145
0.00404574
0.0037638
0.00336303
0.00288881
0.00244902
0.00170682
0.00119428
0.0010147
0.00118452
0.00186689
0.00299375
0.0038272
0.00128466
0.0012142
0.00115532
0.00110342
0.00105567
0.00101047
0.000962736
0.000908807
0.000844861
0.00078476
0.000735787
0.000980734
0.000527952
0.00325212
0.00531996
0.00499232
0.00455675
0.00452378
0.00470207
0.00497706
0.00522043
0.00530451
0.00520887
0.00501683
0.00477772
0.00449901
0.00416585
0.00376929
0.00332344
0.00287432
0.00232969
0.00203112
0.00197675
0.00237904
0.00339589
0.00470516
0.00575946
0.00582442
0.00567441
0.00551813
0.00536394
0.00510826
0.00467126
0.00409137
0.00339611
0.00262817
0.00190528
0.00135819
0.00117882
0.000784735
0.000625692
0.00070179
0.000785034
0.00342498
0.00718086
0.00480455
0.00414808
0.00527278
0.00650957
0.00719143
0.00716904
0.00649143
0.00599535
0.00560195
0.00525063
0.00490563
0.00454424
0.00416086
0.00376881
0.00340653
0.0030879
0.00307115
0.00354987
0.00464615
0.00605694
0.00726548
0.00798331
0.00818257
0.00816
0.00804174
0.00777049
0.00729467
0.0066405
0.00583351
0.00490028
0.0038861
0.00289743
0.00209126
0.00156539
0.00113084
0.000899594
0.00113843
0.000812201
0.0034196
0.00659512
0.00353816
0.00482776
0.0068783
0.00749441
0.00754926
0.00726013
0.00676565
0.00633326
0.00597466
0.00564902
0.00533311
0.00501845
0.00470193
0.00443529
0.00429482
0.00441473
0.00513566
0.0064768
0.0079506
0.00906532
0.00969497
0.00985093
0.00970606
0.00946666
0.00913216
0.00864354
0.00801589
0.00727055
0.00643081
0.00552205
0.00457899
0.00365942
0.00285196
0.00222367
0.00174485
0.00147864
0.00133849
0.000932207
0.00328319
0.00482934
0.00282266
0.00431434
0.00681157
0.00746618
0.00742635
0.00720925
0.00693458
0.0066703
0.00643767
0.00622618
0.0060344
0.00587453
0.00577683
0.0058075
0.00609214
0.00684733
0.00814543
0.00953938
0.0105763
0.0109889
0.0109756
0.0106174
0.0100904
0.00950869
0.00888994
0.0082149
0.00747664
0.00669486
0.00590545
0.00514864
0.00445422
0.0038281
0.00322796
0.00285861
0.0026596
0.00256179
0.00301811
0.00140993
0.00310109
0.00335443
0.00300915
0.00409493
0.00594581
0.00710155
0.00736374
0.0074259
0.00739546
0.0073233
0.00726687
0.00723902
0.00725375
0.00733657
0.00752879
0.00788765
0.00847844
0.0093294
0.0102863
0.0110025
0.0112663
0.0110632
0.0105188
0.00978101
0.00897852
0.00818017
0.00738051
0.00654462
0.00565911
0.00475517
0.00390974
0.00321451
0.00271852
0.00240702
0.00223711
0.00217006
0.002135
0.00207784
0.0019751
0.00138288
0.00359607
0.0045165
0.00549482
0.00649097
0.00698438
0.00735119
0.00762188
0.007801
0.0079582
0.00812975
0.00833189
0.00858192
0.00889651
0.0092818
0.00971872
0.010134
0.0103812
0.0103154
0.00989721
0.00920042
0.00836354
0.00751586
0.0067277
0.00600006
0.00530185
0.00461339
0.00394647
0.00334057
0.00284361
0.00248518
0.00226256
0.0021499
0.00211247
0.00210943
0.00208815
0.00200479
0.0018484
0.00126075
0.00216961
0.00492475
0.00499019
0.0051126
0.00542941
0.00579337
0.00613065
0.00640079
0.00663215
0.00686457
0.00709866
0.00733376
0.00756492
0.00777634
0.00793515
0.00798569
0.00786282
0.00753968
0.00705715
0.00650552
0.00597155
0.0054961
0.00507497
0.00468538
0.00430879
0.00393932
0.0035822
0.00324825
0.00294931
0.00269635
0.0024991
0.00236333
0.00228277
0.00223203
0.00218226
0.00214981
0.00241147
0.00132335
0.00149073
0.00156178
0.00160976
0.00143372
0.00142736
0.00144927
0.00147584
0.0015015
0.00152607
0.0015505
0.00157152
0.00158684
0.0015962
0.00159905
0.00159451
0.0015814
0.00155847
0.00152482
0.00148119
0.00143096
0.00137903
0.0013299
0.00128601
0.00124717
0.00121175
0.00117822
0.00114605
0.00111601
0.00108977
0.00106936
0.00105668
0.00105319
0.00105995
0.00107761
0.00110573
0.00114008
0.00117079
0.00115091
0.00109936
0.00108723
)
;

boundaryField
{
    floor
    {
        type            compressible::alphatWallFunction;
        Prt             0.85;
        value           nonuniform List<scalar> 
36
(
0.000190857
8.25815e-05
9.57671e-05
0.000108133
0.000121005
0.000131608
0.000123492
0.000114259
0.000106389
9.98378e-05
9.43281e-05
8.966e-05
8.565e-05
8.2103e-05
7.88332e-05
7.55692e-05
7.19894e-05
6.77201e-05
6.10619e-05
6.10611e-05
6.47268e-05
6.71765e-05
7.35421e-05
8.82546e-05
9.95225e-05
0.000111665
0.000190855
0.000198638
0.000182705
0.000158347
8.25806e-05
0.000158346
7.9444e-05
0.000170586
7.86927e-05
0.00016937
)
;
    }
    ceiling
    {
        type            compressible::alphatWallFunction;
        Prt             0.85;
        value           nonuniform List<scalar> 
43
(
0.000209918
0.000219449
0.000225863
0.000202239
0.00020138
0.000204341
0.000207924
0.000211378
0.000214681
0.000217957
0.000220774
0.000222825
0.000224078
0.000224462
0.00022386
0.000222113
0.000219049
0.000214543
0.000208679
0.000201905
0.000194871
0.00018819
0.000182196
0.000176872
0.000172002
0.000167374
0.000162921
0.000158748
0.000155091
0.000152239
0.000150462
0.00014997
0.000150911
0.000153377
0.000157294
0.000162065
0.000166316
0.000163568
0.000156412
0.000154729
0.000417068
0.000448384
0.000299265
)
;
    }
    sWall
    {
        type            compressible::alphatWallFunction;
        Prt             0.85;
        value           uniform 0.000208892;
    }
    nWall
    {
        type            compressible::alphatWallFunction;
        Prt             0.85;
        value           nonuniform List<scalar> 6(0.000111488 0.000115408 0.00013257 0.000178419 0.000186979 0.000154435);
    }
    sideWalls
    {
        type            empty;
    }
    glass1
    {
        type            compressible::alphatWallFunction;
        Prt             0.85;
        value           nonuniform List<scalar> 9(0.000261619 0.000274529 0.000268409 0.000281526 0.000428345 0.000449091 0.000448231 0.000431367 0.000408746);
    }
    glass2
    {
        type            compressible::alphatWallFunction;
        Prt             0.85;
        value           nonuniform List<scalar> 2(0.000197729 0.000194161);
    }
    sun
    {
        type            compressible::alphatWallFunction;
        Prt             0.85;
        value           nonuniform List<scalar> 
14
(
0.000267313
0.00030087
0.000337476
0.000337694
0.000323872
0.000309264
0.000294929
0.000281195
0.000268003
0.000255904
0.000244529
0.000233213
0.000221254
0.000207482
)
;
    }
    Table_master
    {
        type            compressible::alphatWallFunction;
        Prt             0.85;
        value           nonuniform List<scalar> 9(0.000152022 0.00013274 0.000114497 9.86781e-05 8.53692e-05 7.43293e-05 6.53347e-05 5.9484e-05 5.91526e-05);
    }
    Table_slave
    {
        type            compressible::alphatWallFunction;
        Prt             0.85;
        value           nonuniform List<scalar> 9(0.000181917 0.000172243 0.000164111 0.000156904 0.000150237 0.000143894 0.00013716 0.000129505 0.000120358);
    }
    inlet
    {
        type            fixedValue;
        value           uniform 1.94e-05;
    }
    outlet
    {
        type            zeroGradient;
    }
}


// ************************************************************************* //
