/*--------------------------------*- C++ -*----------------------------------*\
  =========                 |
  \\      /  F ield         | OpenFOAM: The Open Source CFD Toolbox
   \\    /   O peration     | Website:  https://openfoam.org
    \\  /    A nd           | Version:  6
     \\/     M anipulation  |
\*---------------------------------------------------------------------------*/
FoamFile
{
    version     2.0;
    format      ascii;
    class       volScalarField;
    location    "200";
    object      epsilon;
}
// * * * * * * * * * * * * * * * * * * * * * * * * * * * * * * * * * * * * * //

dimensions      [0 2 -3 0 0 0 0];

internalField   nonuniform List<scalar> 
458
(
0.00161126
0.00234621
0.00339154
0.00339587
0.00296791
0.00255889
0.0021979
0.00188719
0.00161919
0.00139802
0.00121031
0.00104189
0.000882586
0.000721315
0.000555722
4.60321e-05
7.01081e-05
9.97253e-05
0.000138975
0.000178653
0.000147683
0.00011729
9.51227e-05
7.90757e-05
6.71475e-05
5.80887e-05
5.1029e-05
4.53108e-05
4.0456e-05
3.59886e-05
3.15031e-05
2.66886e-05
2.02542e-05
0.00187782
0.00255938
0.00428033
0.00404473
0.00342089
0.00275523
0.00219165
0.00175432
0.00142379
0.00117839
0.000995412
0.000855306
0.00074219
0.000644315
0.000527569
0.000629433
0.000485214
0.000312182
4.1316e-05
4.53135e-05
8.77122e-05
0.000114704
0.000138722
0.000156602
0.000119364
8.88188e-05
6.82138e-05
5.41963e-05
4.46462e-05
3.81384e-05
3.34794e-05
2.93071e-05
2.59366e-05
2.39001e-05
2.7312e-05
2.36531e-05
0.00175075
0.00435956
0.00500707
0.00460184
0.00376669
0.00295043
0.00230299
0.00182131
0.00146529
0.00119975
0.000998514
0.000841462
0.000713303
0.000603055
0.000500063
0.000465708
0.000422428
0.000392465
4.02435e-05
6.54441e-05
9.39945e-05
0.00012097
0.000149151
0.000275797
0.00018286
0.000117696
7.62239e-05
5.03923e-05
3.42618e-05
2.41468e-05
1.88403e-05
1.85758e-05
1.79213e-05
1.80816e-05
3.01635e-05
2.61414e-05
0.00203941
0.00747074
0.00696519
0.00553775
0.00414646
0.00307059
0.00232434
0.00182421
0.00147455
0.00121293
0.0010075
0.000840066
0.000700064
0.00058138
0.000481795
0.000416451
0.000362925
0.000330174
0.000383917
0.000223777
0.000168624
0.000156938
0.00017156
0.000198396
0.000479619
0.000405171
0.000349202
0.000304348
0.000266621
0.000233904
0.000202371
0.000170292
0.000136865
8.32847e-05
4.80199e-05
5.14209e-05
3.34541e-05
0.00776926
0.0141925
0.00987544
0.00637212
0.00420352
0.00287453
0.00210243
0.00166748
0.00135373
0.00112269
0.000939838
0.000787566
0.000657693
0.000546739
0.000455604
0.000386507
0.000331269
0.000301485
0.000309726
0.000251928
0.000222543
0.000229785
0.000251097
0.000260381
0.00025323
0.00023044
0.000213927
0.000201899
0.000189967
0.000175268
0.000156273
0.000133336
0.000108298
7.97748e-05
5.41952e-05
4.95331e-05
4.37048e-05
5.57711e-05
7.88811e-05
0.000110386
0.00902657
0.0236458
0.00899453
0.00387134
0.00218125
0.00138019
0.00109947
0.00101458
0.000961331
0.000874711
0.000777959
0.000680071
0.000585904
0.000500085
0.000428197
0.000371643
0.000329949
0.00031558
0.000322075
0.000316086
0.000336098
0.000369164
0.000380277
0.000353323
0.000302721
0.000260958
0.000234604
0.000214008
0.000193111
0.000170325
0.000145424
0.000119534
9.48885e-05
7.28792e-05
5.55766e-05
4.74277e-05
4.54329e-05
5.06552e-05
0.000124961
0.000122148
0.00895866
0.0204756
0.00476405
0.00116152
0.000780012
0.000605875
0.000578511
0.00059814
0.000639954
0.00064379
0.000618366
0.000573268
0.000518527
0.000463471
0.000414985
0.000378731
0.000361223
0.000378709
0.000428094
0.000486882
0.000537733
0.000544973
0.000502527
0.000423343
0.000338387
0.000276674
0.000237826
0.000210123
0.000185905
0.000162373
0.000139156
0.000117018
9.73413e-05
8.11852e-05
7.02338e-05
6.59947e-05
7.07141e-05
9.03892e-05
0.000176472
0.000184577
0.00790682
0.0139613
0.00564256
0.00102607
0.000473984
0.000397164
0.00040501
0.000432815
0.000469305
0.000496087
0.000504729
0.000496536
0.000477877
0.000456925
0.000441706
0.000437603
0.000458971
0.000525667
0.000611026
0.000668662
0.000676892
0.000615819
0.000505054
0.000392843
0.000305289
0.000249806
0.000216157
0.000193057
0.000175047
0.000160882
0.000150717
0.000145034
0.000144284
0.000149492
0.000166287
0.000217354
0.000333951
0.000571353
0.00210582
0.000639431
0.00663665
0.00831868
0.0115502
0.00215152
0.000472841
0.000351026
0.00035949
0.00038273
0.000410014
0.000438836
0.000462161
0.000478509
0.000490305
0.000502462
0.000520711
0.000549537
0.000595031
0.000653738
0.000691324
0.000678865
0.000615341
0.000518988
0.000414989
0.000327661
0.000265353
0.000224539
0.000197274
0.000177708
0.000164129
0.000157447
0.000159964
0.000175049
0.000207408
0.000264003
0.000355051
0.000491507
0.000672576
0.000869061
0.00103313
0.000604593
0.023988
0.00363762
0.000610807
0.000388882
0.000386751
0.000408664
0.000438221
0.000471038
0.000504074
0.000535903
0.000566233
0.000595698
0.000624575
0.000651014
0.000670635
0.000672898
0.000643285
0.00058286
0.000505989
0.00042982
0.000365969
0.00031773
0.000281849
0.000252945
0.000227194
0.000203549
0.000183403
0.000169573
0.000165379
0.000174153
0.000199564
0.000246355
0.000319808
0.000421084
0.000536244
0.000625885
0.000645231
0.000459169
0.0023103
0.00139344
0.000658198
0.000514249
0.000485019
0.000479262
0.000484874
0.000500466
0.00052276
0.000547341
0.000571864
0.000594831
0.000614872
0.000630211
0.000638627
0.000637422
0.000625181
0.000605257
0.00058314
0.000562333
0.000543288
0.000524571
0.000503918
0.000479222
0.000449269
0.000414413
0.000376876
0.00034033
0.000309174
0.000287949
0.000281083
0.000292603
0.000324712
0.000374125
0.000431082
0.000492247
0.000654698
0.000530979
0.000754342
0.000866688
0.000948983
0.000671867
0.000663036
0.000694081
0.000733008
0.000771974
0.000810598
0.000850259
0.000885494
0.00091192
0.000928502
0.000933915
0.000926473
0.000904314
0.000866022
0.000811561
0.000744178
0.00067123
0.000600889
0.000538994
0.000487386
0.000444542
0.000407725
0.000374777
0.000344885
0.000318435
0.000296454
0.000280065
0.000270171
0.000267451
0.000272576
0.000286378
0.000309337
0.000339033
0.000367181
0.000348909
0.000304251
0.000294596
)
;

boundaryField
{
    floor
    {
        Cmu             0.09;
        kappa           0.41;
        E               9.8;
        type            epsilonWallFunction;
        value           nonuniform List<scalar> 
36
(
0.000555722
4.60321e-05
7.01081e-05
9.97253e-05
0.000138975
0.000178653
0.000147683
0.00011729
9.51227e-05
7.90757e-05
6.71475e-05
5.80887e-05
5.1029e-05
4.53108e-05
4.0456e-05
3.59886e-05
3.15031e-05
2.66886e-05
2.02542e-05
2.02542e-05
2.36531e-05
2.61414e-05
3.34541e-05
5.57711e-05
7.88811e-05
0.000110386
0.000555722
0.000629433
0.000485214
0.000312182
4.60321e-05
0.000312182
4.1316e-05
0.000392465
4.02435e-05
0.000383917
)
;
    }
    ceiling
    {
        Cmu             0.09;
        kappa           0.41;
        E               9.8;
        type            epsilonWallFunction;
        value           nonuniform List<scalar> 
43
(
0.000754342
0.000866688
0.000948983
0.000671867
0.000663036
0.000694081
0.000733008
0.000771974
0.000810598
0.000850259
0.000885494
0.00091192
0.000928502
0.000933915
0.000926473
0.000904314
0.000866022
0.000811561
0.000744178
0.00067123
0.000600889
0.000538994
0.000487386
0.000444542
0.000407725
0.000374777
0.000344885
0.000318435
0.000296454
0.000280065
0.000270171
0.000267451
0.000272576
0.000286378
0.000309337
0.000339033
0.000367181
0.000348909
0.000304251
0.000294596
0.00663665
0.00831868
0.0023103
)
;
    }
    sWall
    {
        Cmu             0.09;
        kappa           0.41;
        E               9.8;
        type            epsilonWallFunction;
        value           uniform 0.000754342;
    }
    nWall
    {
        Cmu             0.09;
        kappa           0.41;
        E               9.8;
        type            epsilonWallFunction;
        value           nonuniform List<scalar> 6(0.000110386 0.000122148 0.000184577 0.000459169 0.000530979 0.000294596);
    }
    sideWalls
    {
        type            empty;
    }
    glass1
    {
        Cmu             0.09;
        kappa           0.41;
        E               9.8;
        type            epsilonWallFunction;
        value           nonuniform List<scalar> 9(0.00161126 0.00187782 0.00175075 0.00203941 0.00776926 0.00902657 0.00895866 0.00790682 0.00663665);
    }
    glass2
    {
        Cmu             0.09;
        kappa           0.41;
        E               9.8;
        type            epsilonWallFunction;
        value           nonuniform List<scalar> 2(0.000639431 0.000604593);
    }
    sun
    {
        Cmu             0.09;
        kappa           0.41;
        E               9.8;
        type            epsilonWallFunction;
        value           nonuniform List<scalar> 
14
(
0.00161126
0.00234621
0.00339154
0.00339587
0.00296791
0.00255889
0.0021979
0.00188719
0.00161919
0.00139802
0.00121031
0.00104189
0.000882586
0.000721315
)
;
    }
    Table_master
    {
        Cmu             0.09;
        kappa           0.41;
        E               9.8;
        type            epsilonWallFunction;
        value           nonuniform List<scalar> 9(0.000275797 0.00018286 0.000117696 7.62239e-05 5.03923e-05 3.42618e-05 2.41468e-05 1.88403e-05 1.85758e-05);
    }
    Table_slave
    {
        Cmu             0.09;
        kappa           0.41;
        E               9.8;
        type            epsilonWallFunction;
        value           nonuniform List<scalar> 9(0.000479619 0.000405171 0.000349202 0.000304348 0.000266621 0.000233904 0.000202371 0.000170292 0.000136865);
    }
    inlet
    {
        type            turbulentMixingLengthDissipationRateInlet;
        mixingLength    0.01;
        phi             phi;
        k               k;
        value           uniform 0.000101881;
    }
    outlet
    {
        type            zeroGradient;
    }
}


// ************************************************************************* //
