/*--------------------------------*- C++ -*----------------------------------*\
  =========                 |
  \\      /  F ield         | OpenFOAM: The Open Source CFD Toolbox
   \\    /   O peration     | Website:  https://openfoam.org
    \\  /    A nd           | Version:  6
     \\/     M anipulation  |
\*---------------------------------------------------------------------------*/
FoamFile
{
    version     2.0;
    format      ascii;
    class       volScalarField;
    location    "1400";
    object      nut;
}
// * * * * * * * * * * * * * * * * * * * * * * * * * * * * * * * * * * * * * //

dimensions      [0 2 -1 0 0 0 0];

internalField   nonuniform List<scalar> 
458
(
0.000732694
0.000768297
0.000756641
0.000783065
0.000806105
0.000825862
0.000843125
0.000858725
0.000873541
0.000888348
0.000899197
0.000905168
0.000906627
0.000906165
0.000904968
0.000569132
0.000535639
0.000518134
0.00050963
0.000502486
0.00048962
0.000474937
0.000460748
0.000447504
0.000435004
0.000423082
0.000411552
0.000400152
0.000388476
0.000375936
0.00036132
0.000345209
0.000313756
0.00111626
0.00190238
0.00164422
0.00192938
0.00208502
0.00224515
0.00240167
0.00254236
0.0026492
0.00270333
0.0027155
0.00265221
0.00246987
0.00210908
0.00152161
0.000929041
0.000859214
0.000806255
0.000677748
0.00099518
0.00128672
0.00149413
0.00154776
0.00128366
0.00117515
0.00110677
0.00104669
0.000989268
0.00093295
0.000875493
0.000812436
0.000739993
0.000673063
0.00061995
0.000669973
0.000368875
0.00146179
0.00282777
0.00183727
0.00274476
0.00299884
0.00317648
0.00331589
0.00342474
0.00350844
0.00356264
0.00360137
0.00360753
0.00355958
0.00344221
0.00323438
0.00284396
0.00206777
0.000952615
0.000771529
0.0015172
0.00189797
0.00205444
0.0019088
0.000589049
0.000533446
0.00048767
0.000451319
0.000422767
0.000400208
0.000382344
0.000368702
0.000360083
0.000420135
0.0005089
0.000745129
0.000408163
0.00181699
0.0042098
0.0018164
0.00304334
0.00345774
0.00360385
0.00367588
0.00371037
0.00373191
0.00375317
0.00378238
0.00380782
0.00381026
0.00377769
0.00369227
0.0034949
0.00306756
0.00221302
0.000909986
0.00204808
0.00229363
0.0022825
0.00221754
0.00197394
0.000575137
0.0005577
0.00055606
0.000558351
0.000558264
0.000551637
0.000537273
0.000521193
0.000500201
0.000483081
0.000504088
0.000792276
0.000449191
0.00218333
0.00606138
0.00228889
0.00284467
0.00360977
0.00378447
0.00381641
0.00379254
0.00375887
0.00375188
0.00377824
0.00382278
0.00384923
0.00383561
0.0037676
0.00364159
0.00348973
0.00334535
0.00307475
0.00281316
0.00255065
0.00232029
0.00218724
0.00211815
0.00200024
0.00205433
0.00213013
0.00218638
0.00220643
0.00217707
0.00206694
0.00183114
0.0015119
0.00115603
0.000883571
0.00084381
0.000651419
0.000520004
0.000550947
0.000572349
0.00256344
0.00808762
0.00403629
0.00262923
0.00323741
0.00363771
0.00379823
0.00382671
0.00377482
0.00370482
0.00374137
0.00381121
0.00385404
0.00384297
0.00376244
0.00362381
0.00348446
0.00337642
0.00320535
0.00291172
0.00256384
0.00227246
0.00213909
0.00213346
0.00221369
0.00234234
0.00246573
0.00256155
0.00262068
0.00263598
0.00259804
0.00243773
0.00215502
0.00176101
0.00136771
0.00107528
0.000840264
0.000844373
0.00124617
0.000759606
0.00293601
0.00975393
0.00716064
0.00418922
0.0031438
0.00297507
0.00322179
0.00352922
0.00376217
0.00368834
0.0037527
0.00382159
0.00385599
0.00383338
0.00373703
0.00358151
0.00343238
0.0033275
0.00320052
0.00294708
0.00255279
0.00224808
0.00213265
0.00214253
0.00222256
0.00233797
0.00245792
0.00256572
0.00264853
0.00270684
0.00274038
0.00272102
0.00252381
0.00218466
0.00180751
0.00147024
0.00119119
0.00109836
0.00138524
0.000915115
0.00302471
0.00949948
0.00819606
0.00705239
0.0055534
0.00440136
0.00384853
0.00373256
0.00383568
0.00384873
0.00385393
0.00386519
0.00385968
0.0038058
0.00368023
0.00350064
0.00335032
0.00327636
0.00320713
0.00296367
0.00253989
0.00224728
0.0021396
0.00213641
0.00218438
0.00225714
0.00233766
0.00241806
0.00249627
0.00257846
0.00267384
0.00278364
0.00281135
0.00254129
0.00226739
0.00208176
0.00203993
0.00209916
0.00273031
0.00127886
0.00295949
0.00355698
0.00421152
0.00451473
0.00460226
0.00442297
0.00417706
0.00399536
0.00390109
0.00385896
0.00385837
0.00386087
0.0038294
0.00373232
0.00355385
0.00333374
0.00319806
0.00318636
0.00318518
0.00292737
0.00250861
0.00224178
0.00212524
0.00208709
0.00208717
0.00210482
0.00212718
0.00214695
0.00215987
0.00216208
0.0021475
0.00210758
0.00203389
0.00195002
0.0018945
0.00188649
0.00189141
0.00186097
0.00179424
0.00126293
0.00265097
0.00536031
0.00501755
0.00480873
0.00461658
0.0044583
0.00433972
0.0042311
0.00411263
0.00397372
0.00379866
0.00357031
0.00328303
0.00300978
0.00294594
0.0030554
0.00312926
0.0028557
0.00250863
0.00227764
0.00213392
0.00203915
0.00197494
0.0019301
0.0018957
0.00186551
0.00183682
0.00181051
0.00179025
0.0017813
0.00178867
0.00179532
0.00180333
0.00180429
0.00176685
0.00165996
0.00149994
0.00106846
0.00248994
0.00580992
0.00543597
0.00512868
0.00487289
0.0046603
0.00444525
0.00423026
0.00395526
0.00363906
0.00330773
0.00296589
0.00261478
0.00238142
0.0026381
0.00304329
0.00329933
0.0031558
0.00292482
0.00270913
0.00251639
0.00234391
0.00219447
0.00207078
0.00197286
0.00189926
0.00184823
0.00181783
0.00180482
0.00180259
0.00181778
0.0018535
0.00189758
0.00192829
0.00193344
0.00192084
0.00194149
0.00108573
0.00196251
0.00213896
0.0022871
0.00245125
0.00231931
0.00220532
0.00200558
0.00183951
0.00167855
0.00152068
0.0013857
0.00126744
0.00115431
0.00103819
0.000910415
0.000768934
0.000751782
0.000788446
0.000787897
0.000758305
0.000730333
0.000707808
0.000691426
0.000682511
0.000681861
0.000689116
0.000703179
0.000722863
0.000747303
0.000776159
0.000809803
0.000849661
0.000894288
0.000942373
0.000994703
0.00104981
0.00111011
0.00109863
0.00101798
0.000947966
)
;

boundaryField
{
    floor
    {
        type            nutkWallFunction;
        Cmu             0.09;
        kappa           0.41;
        E               9.8;
        value           nonuniform List<scalar> 
36
(
0.000109478
6.84721e-05
6.42417e-05
6.2018e-05
6.09346e-05
6.00228e-05
5.83764e-05
5.64909e-05
5.46621e-05
5.29485e-05
5.13253e-05
4.97718e-05
4.8264e-05
4.6768e-05
4.52301e-05
4.35718e-05
4.163e-05
3.94778e-05
3.52378e-05
3.52377e-05
4.26351e-05
4.782e-05
5.31673e-05
6.22567e-05
6.61791e-05
6.88757e-05
0.000109478
0.000112339
0.000104015
9.7649e-05
6.84721e-05
9.7649e-05
8.19892e-05
0.000115134
9.34508e-05
0.000110078
)
;
    }
    ceiling
    {
        type            nutkWallFunction;
        Cmu             0.09;
        kappa           0.41;
        E               9.8;
        value           nonuniform List<scalar> 
43
(
0.000229219
0.000248375
0.00026433
0.000282006
0.00026793
0.000255689
0.000234054
0.000215882
0.000198097
0.000180471
0.000165242
0.000151763
0.000138736
0.000125214
0.000110134
9.31402e-05
9.10417e-05
9.54913e-05
9.54284e-05
9.1841e-05
8.84338e-05
8.56787e-05
8.36686e-05
8.25725e-05
8.24929e-05
8.33858e-05
8.51128e-05
8.75232e-05
9.0505e-05
9.40108e-05
9.80787e-05
0.000102872
0.000108209
0.000113924
0.000120105
0.000126575
0.000133609
0.000132274
0.000122843
0.000114587
0.000335931
0.000397845
0.000285851
)
;
    }
    sWall
    {
        type            nutkWallFunction;
        Cmu             0.09;
        kappa           0.41;
        E               9.8;
        value           uniform 0.000229281;
    }
    nWall
    {
        type            nutkWallFunction;
        Cmu             0.09;
        kappa           0.41;
        E               9.8;
        value           nonuniform List<scalar> 6(6.88699e-05 9.20023e-05 0.000110692 0.000128763 0.000130779 0.000114591);
    }
    sideWalls
    {
        type            empty;
    }
    glass1
    {
        type            nutkWallFunction;
        Cmu             0.09;
        kappa           0.41;
        E               9.8;
        value           nonuniform List<scalar> 9(8.86989e-05 0.000134436 0.000174066 0.000213719 0.000253736 0.000294502 0.000333844 0.00034314 0.000336328);
    }
    glass2
    {
        type            nutkWallFunction;
        Cmu             0.09;
        kappa           0.41;
        E               9.8;
        value           nonuniform List<scalar> 2(0.000153124 0.0001513);
    }
    sun
    {
        type            nutkWallFunction;
        Cmu             0.09;
        kappa           0.41;
        E               9.8;
        value           nonuniform List<scalar> 
14
(
8.87218e-05
9.30549e-05
9.16388e-05
9.48449e-05
9.76299e-05
0.000100011
0.000102085
0.000103956
0.000105729
0.000107497
0.000108791
0.000109502
0.000109675
0.00010962
)
;
    }
    Table_master
    {
        type            nutkWallFunction;
        Cmu             0.09;
        kappa           0.41;
        E               9.8;
        value           nonuniform List<scalar> 9(7.09737e-05 6.39664e-05 5.813e-05 5.34471e-05 4.97359e-05 4.67813e-05 4.44267e-05 4.26192e-05 4.14729e-05);
    }
    Table_slave
    {
        type            nutkWallFunction;
        Cmu             0.09;
        kappa           0.41;
        E               9.8;
        value           nonuniform List<scalar> 9(6.92265e-05 6.70321e-05 6.68256e-05 6.7115e-05 6.71043e-05 6.62684e-05 6.44515e-05 6.24107e-05 5.97346e-05);
    }
    inlet
    {
        type            calculated;
        value           uniform 0.000100623;
    }
    outlet
    {
        type            calculated;
        value           nonuniform List<scalar> 2(0.00196251 0.00213896);
    }
}


// ************************************************************************* //
