/*--------------------------------*- C++ -*----------------------------------*\
  =========                 |
  \\      /  F ield         | OpenFOAM: The Open Source CFD Toolbox
   \\    /   O peration     | Website:  https://openfoam.org
    \\  /    A nd           | Version:  6
     \\/     M anipulation  |
\*---------------------------------------------------------------------------*/
FoamFile
{
    version     2.0;
    format      ascii;
    class       volVectorField;
    location    "1400";
    object      U;
}
// * * * * * * * * * * * * * * * * * * * * * * * * * * * * * * * * * * * * * //

dimensions      [0 1 -1 0 0 0 0];

internalField   nonuniform List<vector> 
458
(
(0.0695561 0.0734256 0)
(-0.14477 0.012079 0)
(-0.148876 0.0124754 0)
(-0.173624 0.0105167 0)
(-0.195364 0.00752489 0)
(-0.213515 0.00410887 0)
(-0.227388 0.000284493 0)
(-0.236284 -0.00406675 0)
(-0.239321 -0.00911252 0)
(-0.235263 -0.0150911 0)
(-0.222471 -0.0225274 0)
(-0.198121 -0.0318212 0)
(-0.160921 -0.0446682 0)
(-0.122156 -0.0646099 0)
(-0.121387 -0.0916564 0)
(0.0605125 -0.0295115 0)
(0.0408373 -0.0207686 0)
(0.056927 -0.0145862 0)
(0.0742488 -0.0111864 0)
(0.086529 -0.00852218 0)
(0.0941403 -0.00503539 0)
(0.0971359 -0.00302057 0)
(0.0971757 -0.00230713 0)
(0.096228 -0.00203652 0)
(0.0951422 -0.00181424 0)
(0.0938865 -0.00155226 0)
(0.0922346 -0.00117322 0)
(0.0898377 -0.000473263 0)
(0.0859122 0.0010012 0)
(0.0788897 0.00391289 0)
(0.0669428 0.0077035 0)
(0.0506659 0.0121969 0)
(0.00557166 0.0250217 0)
(0.260579 0.156531 0)
(-0.155654 0.0398421 0)
(-0.128493 0.0401966 0)
(-0.157378 0.0366764 0)
(-0.179899 0.0319514 0)
(-0.198727 0.026531 0)
(-0.21352 0.0202233 0)
(-0.223767 0.0127048 0)
(-0.228677 0.00363456 0)
(-0.227003 -0.00723427 0)
(-0.218533 -0.0192758 0)
(-0.202676 -0.0320273 0)
(-0.181366 -0.0463267 0)
(-0.163053 -0.0633728 0)
(-0.156119 -0.0728053 0)
(-0.131129 -0.0409347 0)
(-0.0788923 -0.0350007 0)
(-0.0756464 -0.0376303 0)
(0.065158 -0.0499929 0)
(0.0320814 -0.0312272 0)
(0.0448959 -0.021489 0)
(0.0603204 -0.0179061 0)
(0.0718077 -0.0145297 0)
(0.0793871 -0.00445117 0)
(0.0807559 0.00155398 0)
(0.0801263 0.00373616 0)
(0.0798718 0.00443177 0)
(0.0800239 0.00476626 0)
(0.0801482 0.00503444 0)
(0.080095 0.00547487 0)
(0.079822 0.0065681 0)
(0.0787244 0.00939043 0)
(0.0740643 0.0168563 0)
(0.0625887 0.0245869 0)
(0.0489974 0.0321833 0)
(-0.0234209 0.0522257 0)
(0.429987 0.237892 0)
(-0.193288 0.0717817 0)
(-0.0997536 0.0677574 0)
(-0.131991 0.0584227 0)
(-0.151703 0.049441 0)
(-0.168506 0.0396974 0)
(-0.18199 0.0285365 0)
(-0.191685 0.0155167 0)
(-0.196716 0.000409822 0)
(-0.195651 -0.0165386 0)
(-0.188211 -0.0347859 0)
(-0.174882 -0.0530643 0)
(-0.158031 -0.0705845 0)
(-0.141868 -0.0859398 0)
(-0.126079 -0.0918095 0)
(-0.1011 -0.0792848 0)
(-0.0691451 -0.0791739 0)
(-0.0679283 -0.0864152 0)
(0.0476582 -0.0664244 0)
(0.0189575 -0.0450888 0)
(0.0304728 -0.0343427 0)
(0.0438912 -0.0308367 0)
(0.0542107 -0.0302379 0)
(0.0652227 -0.0201884 0)
(0.061311 -0.0126261 0)
(0.0569004 -0.00891286 0)
(0.0562351 -0.00689658 0)
(0.0574201 -0.0055163 0)
(0.0589773 -0.00445087 0)
(0.0607896 -0.00343241 0)
(0.0635863 -0.00193205 0)
(0.0690542 0.00240777 0)
(0.0697629 0.0225781 0)
(0.0587095 0.0382761 0)
(0.0517877 0.0527208 0)
(-0.0475192 0.0830531 0)
(0.574583 0.305168 0)
(-0.241599 0.104868 0)
(-0.0654074 0.0918449 0)
(-0.10221 0.0774833 0)
(-0.116841 0.0661742 0)
(-0.130061 0.0542051 0)
(-0.141291 0.0403253 0)
(-0.149965 0.0237762 0)
(-0.15495 0.00402774 0)
(-0.154147 -0.0188063 0)
(-0.147245 -0.043128 0)
(-0.135644 -0.0663417 0)
(-0.12168 -0.0862504 0)
(-0.10775 -0.100584 0)
(-0.0932012 -0.105789 0)
(-0.0752141 -0.102256 0)
(-0.0574119 -0.0996349 0)
(-0.0489484 -0.088801 0)
(-0.0275759 -0.0319709 0)
(0.012504 -0.0675907 0)
(0.0125198 -0.0547484 0)
(0.0195554 -0.0441214 0)
(0.0266744 -0.0389266 0)
(0.0291807 -0.0356867 0)
(0.036495 -0.0228655 0)
(0.0536029 -0.0169891 0)
(0.0687577 -0.013752 0)
(0.080843 -0.0114345 0)
(0.090326 -0.00917329 0)
(0.0967785 -0.00653892 0)
(0.0989853 -0.00332445 0)
(0.094899 0.00095578 0)
(0.0827282 0.00693189 0)
(0.068449 0.0301424 0)
(0.0576981 0.0514781 0)
(0.0606767 0.0729902 0)
(-0.0561056 0.116269 0)
(0.692204 0.359669 0)
(-0.288473 0.136445 0)
(-0.0294199 0.106352 0)
(-0.0694154 0.0900406 0)
(-0.0781584 0.0777957 0)
(-0.0865979 0.0646376 0)
(-0.0943122 0.0489244 0)
(-0.100749 0.0296316 0)
(-0.104717 0.00593442 0)
(-0.102971 -0.0221293 0)
(-0.0957945 -0.0517814 0)
(-0.0857224 -0.0785391 0)
(-0.0748213 -0.0995764 0)
(-0.0644887 -0.1134 0)
(-0.0543478 -0.119042 0)
(-0.0435108 -0.118068 0)
(-0.0336177 -0.113699 0)
(-0.0251633 -0.102801 0)
(-0.0109682 -0.0777443 0)
(0.00455353 -0.0738492 0)
(0.00737669 -0.0607916 0)
(0.0110222 -0.0503366 0)
(0.0152108 -0.0437808 0)
(0.0191082 -0.0376518 0)
(0.0274186 -0.0266836 0)
(0.0394033 -0.0208456 0)
(0.0510037 -0.0177808 0)
(0.0613069 -0.0150304 0)
(0.0701476 -0.0113515 0)
(0.0770219 -0.00592173 0)
(0.0812695 0.00176118 0)
(0.0809332 0.011064 0)
(0.0760581 0.0222833 0)
(0.0691977 0.0403249 0)
(0.0630242 0.0609535 0)
(0.0815659 0.0842669 0)
(0.0410998 0.117448 0)
(0.0951638 0.127376 0)
(0.11973 0.133216 0)
(-0.194283 0.158799 0)
(0.769738 0.407436 0)
(-0.326506 0.161993 0)
(-0.00263817 0.103883 0)
(-0.0323082 0.096133 0)
(-0.0358034 0.0852177 0)
(-0.0398544 0.0709875 0)
(-0.0434745 0.054115 0)
(-0.0463453 0.0334408 0)
(-0.0477669 0.0071658 0)
(-0.0417331 -0.0258281 0)
(-0.0336272 -0.0599431 0)
(-0.025928 -0.0882671 0)
(-0.019529 -0.108704 0)
(-0.0148004 -0.121243 0)
(-0.0111936 -0.126406 0)
(-0.00805954 -0.125373 0)
(-0.00580441 -0.119139 0)
(-0.00409273 -0.106693 0)
(2.36213e-05 -0.0883801 0)
(0.00336539 -0.0756823 0)
(0.0025303 -0.0621546 0)
(0.00236825 -0.0527086 0)
(0.00344196 -0.046836 0)
(0.00587141 -0.0418441 0)
(0.011235 -0.0356946 0)
(0.0190572 -0.0316045 0)
(0.0274846 -0.028643 0)
(0.0357973 -0.0253422 0)
(0.0436451 -0.0206653 0)
(0.0508372 -0.0135439 0)
(0.0570534 -0.00298117 0)
(0.0614773 0.0103038 0)
(0.0625095 0.024793 0)
(0.0631249 0.0417781 0)
(0.0643881 0.0602484 0)
(0.0817632 0.0803409 0)
(0.0786505 0.0895792 0)
(0.0904282 0.0460318 0)
(0.12402 -0.00243559 0)
(-0.220208 0.0808703 0)
(0.795091 0.450448 0)
(-0.341487 0.153183 0)
(0.0152993 0.0566727 0)
(0.021688 0.0902832 0)
(0.0196083 0.0949979 0)
(0.015529 0.0777992 0)
(0.0145749 0.0565448 0)
(0.0155548 0.0335361 0)
(0.0177242 0.0034078 0)
(0.0315496 -0.0346489 0)
(0.0388061 -0.0682002 0)
(0.0416589 -0.093828 0)
(0.0412121 -0.111323 0)
(0.0381833 -0.121561 0)
(0.033522 -0.125488 0)
(0.0280182 -0.123756 0)
(0.0218383 -0.116658 0)
(0.0152658 -0.104488 0)
(0.0096285 -0.0883517 0)
(0.00371961 -0.0723071 0)
(-0.00289271 -0.0584748 0)
(-0.0074538 -0.0509322 0)
(-0.0101126 -0.046907 0)
(-0.0108643 -0.0439404 0)
(-0.00942865 -0.0408921 0)
(-0.00609814 -0.0382975 0)
(-0.00171351 -0.0358531 0)
(0.00340861 -0.0326948 0)
(0.00880924 -0.028135 0)
(0.0147617 -0.021041 0)
(0.0214925 -0.0100104 0)
(0.0319093 0.00569402 0)
(0.0386731 0.0214145 0)
(0.0454861 0.0367594 0)
(0.0533546 0.0515674 0)
(0.070046 0.0670389 0)
(0.082603 0.071993 0)
(0.094983 0.0508799 0)
(0.152396 0.051111 0)
(-0.149709 0.139977 0)
(0.891055 0.463904 0)
(-0.11204 0.13419 0)
(0.0897399 -0.0247972 0)
(0.142671 0.021414 0)
(0.125926 0.0581329 0)
(0.107965 0.0543733 0)
(0.102999 0.0355312 0)
(0.104075 0.0116629 0)
(0.111892 -0.0185389 0)
(0.12041 -0.04713 0)
(0.120594 -0.0719677 0)
(0.114135 -0.0912942 0)
(0.103402 -0.104706 0)
(0.0900927 -0.112548 0)
(0.0756033 -0.115285 0)
(0.060775 -0.112907 0)
(0.0457417 -0.105279 0)
(0.0305168 -0.0932629 0)
(0.0159623 -0.0777981 0)
(0.0016283 -0.0611283 0)
(-0.0105365 -0.0492986 0)
(-0.0193011 -0.0445896 0)
(-0.0258414 -0.0428354 0)
(-0.0304334 -0.0418548 0)
(-0.0333058 -0.0408301 0)
(-0.0347798 -0.03969 0)
(-0.0352978 -0.0382174 0)
(-0.0350877 -0.0359991 0)
(-0.0341798 -0.0325812 0)
(-0.0323229 -0.0274308 0)
(-0.0288029 -0.0199337 0)
(-0.0212121 -0.00939488 0)
(-0.00509749 0.0046095 0)
(0.00710479 0.0177908 0)
(0.0201462 0.025534 0)
(0.0387963 0.031549 0)
(0.0572136 0.0267423 0)
(0.0719726 0.00435764 0)
(0.159245 0.0538402 0)
(-0.4233 0.228115 0)
(1.02091 0.430692 0)
(0.485042 0.284358 0)
(0.499445 0.194862 0)
(0.495314 0.173421 0)
(0.415976 0.155703 0)
(0.342783 0.123789 0)
(0.299813 0.0865056 0)
(0.275244 0.0493112 0)
(0.257981 0.0134435 0)
(0.234813 -0.0205351 0)
(0.209299 -0.0485932 0)
(0.183084 -0.0693399 0)
(0.156832 -0.0833462 0)
(0.131134 -0.0917568 0)
(0.106621 -0.0953104 0)
(0.0832885 -0.0935258 0)
(0.0604766 -0.0858826 0)
(0.0375358 -0.074113 0)
(0.0153408 -0.0592611 0)
(-0.00570152 -0.0434039 0)
(-0.0209801 -0.0353303 0)
(-0.0329443 -0.0334217 0)
(-0.0429231 -0.0335898 0)
(-0.0514678 -0.0341079 0)
(-0.058909 -0.0344013 0)
(-0.0655031 -0.0343079 0)
(-0.071529 -0.0336314 0)
(-0.077235 -0.0320678 0)
(-0.0828664 -0.0292096 0)
(-0.088724 -0.0244632 0)
(-0.0951816 -0.0170297 0)
(-0.102475 -0.00615851 0)
(-0.110508 0.00821116 0)
(-0.118489 0.024439 0)
(-0.135259 0.0432078 0)
(-0.163414 0.0662087 0)
(-0.205997 0.0925084 0)
(-0.258172 0.120134 0)
(-0.329755 0.145712 0)
(-0.62585 0.16663 0)
(-0.539763 -0.0100589 0)
(0.185343 0.127895 0)
(0.255362 0.143398 0)
(0.249065 0.12658 0)
(0.249707 0.0953942 0)
(0.249875 0.0585447 0)
(0.244588 0.0240436 0)
(0.233603 -0.0043741 0)
(0.21551 -0.0266109 0)
(0.19254 -0.0435631 0)
(0.166402 -0.0561725 0)
(0.138902 -0.0651222 0)
(0.111802 -0.0705132 0)
(0.0854556 -0.0705792 0)
(0.0591853 -0.063839 0)
(0.0316494 -0.0531483 0)
(0.004443 -0.0395834 0)
(-0.0175673 -0.0271422 0)
(-0.0323411 -0.0230032 0)
(-0.0453689 -0.0227351 0)
(-0.0575822 -0.0234724 0)
(-0.0693903 -0.0240818 0)
(-0.0808596 -0.0241593 0)
(-0.0919888 -0.0234825 0)
(-0.102774 -0.0218032 0)
(-0.113178 -0.0188401 0)
(-0.123108 -0.0143307 0)
(-0.132407 -0.00808305 0)
(-0.140842 -2.22746e-05 0)
(-0.147832 0.00977022 0)
(-0.151646 0.0217549 0)
(-0.153922 0.0376998 0)
(-0.156086 0.0573992 0)
(-0.158931 0.0790614 0)
(-0.160321 0.0951081 0)
(-0.150998 0.0849482 0)
(-0.138027 0.00714595 0)
(-0.276036 -0.191564 0)
(-0.234359 0.173705 0)
(0.120149 0.11251 0)
(0.0894274 0.0958103 0)
(0.113083 0.0963109 0)
(0.144755 0.0777774 0)
(0.167865 0.0481389 0)
(0.180181 0.0208467 0)
(0.181536 -0.000174048 0)
(0.174329 -0.0154884 0)
(0.159069 -0.0267896 0)
(0.138032 -0.0353303 0)
(0.113411 -0.0417976 0)
(0.0876057 -0.0463286 0)
(0.0610761 -0.0468579 0)
(0.0363077 -0.0440395 0)
(0.0100897 -0.0396912 0)
(-0.013726 -0.0372647 0)
(-0.0265959 -0.0389612 0)
(-0.0379979 -0.0420542 0)
(-0.0495747 -0.0448188 0)
(-0.061702 -0.0468681 0)
(-0.0743033 -0.0482373 0)
(-0.0871163 -0.0490177 0)
(-0.0998623 -0.0492312 0)
(-0.112231 -0.0487626 0)
(-0.123809 -0.0473294 0)
(-0.134038 -0.0444638 0)
(-0.142191 -0.0394834 0)
(-0.147359 -0.0314164 0)
(-0.148498 -0.0188424 0)
(-0.144832 -0.0023893 0)
(-0.135264 0.0170148 0)
(-0.118821 0.0399924 0)
(-0.0959064 0.0654582 0)
(-0.0684401 0.0860757 0)
(-0.0416952 0.0877136 0)
(0.129626 0.00394145 0)
(-0.217918 -0.103893 0)
(0.0414103 -0.265554 0)
(-0.34181 -0.0944403 0)
(-0.279448 0.0844247 0)
(-0.143542 0.0280778 0)
(-0.106043 0.0403338 0)
(-0.0379559 0.0599649 0)
(0.0412708 0.0537654 0)
(0.0821119 0.0369997 0)
(0.111312 0.024506 0)
(0.124128 0.017157 0)
(0.123513 0.0130453 0)
(0.112521 0.0108066 0)
(0.0940567 0.0101558 0)
(0.0701076 0.0111658 0)
(0.0421599 0.0145806 0)
(0.0060659 0.0332746 0)
(-0.0258796 0.0816267 0)
(-0.0336985 0.0965976 0)
(-0.0422402 0.106378 0)
(-0.0475726 0.114336 0)
(-0.05224 0.119111 0)
(-0.0573619 0.121044 0)
(-0.0633734 0.120724 0)
(-0.0703847 0.118683 0)
(-0.078328 0.115431 0)
(-0.0869933 0.111466 0)
(-0.0960299 0.107184 0)
(-0.104956 0.102787 0)
(-0.113171 0.0982771 0)
(-0.119926 0.093476 0)
(-0.124152 0.0880729 0)
(-0.124144 0.0817615 0)
(-0.117031 0.0771828 0)
(-0.0997677 0.0769563 0)
(-0.0715078 0.0818653 0)
(-0.0360033 0.0920429 0)
(0.0241203 0.103861 0)
(0.0681408 0.0948875 0)
(0.155807 0.0747539 0)
(-0.231997 0.0183975 0)
)
;

boundaryField
{
    floor
    {
        type            noSlip;
    }
    ceiling
    {
        type            noSlip;
    }
    sWall
    {
        type            noSlip;
    }
    nWall
    {
        type            noSlip;
    }
    sideWalls
    {
        type            empty;
    }
    glass1
    {
        type            noSlip;
    }
    glass2
    {
        type            noSlip;
    }
    sun
    {
        type            noSlip;
    }
    Table_master
    {
        type            noSlip;
    }
    Table_slave
    {
        type            noSlip;
    }
    inlet
    {
        type            fixedValue;
        value           uniform (0.212132 -0.212132 0);
    }
    outlet
    {
        type            zeroGradient;
    }
}


// ************************************************************************* //
