/*--------------------------------*- C++ -*----------------------------------*\
  =========                 |
  \\      /  F ield         | OpenFOAM: The Open Source CFD Toolbox
   \\    /   O peration     | Website:  https://openfoam.org
    \\  /    A nd           | Version:  6
     \\/     M anipulation  |
\*---------------------------------------------------------------------------*/
FoamFile
{
    version     2.0;
    format      ascii;
    class       volScalarField;
    location    "500";
    object      nut;
}
// * * * * * * * * * * * * * * * * * * * * * * * * * * * * * * * * * * * * * //

dimensions      [0 2 -1 0 0 0 0];

internalField   nonuniform List<scalar> 
458
(
0.00111742
0.00121822
0.00124724
0.00131006
0.0013683
0.00142342
0.00147806
0.00153563
0.00158962
0.00163394
0.00166059
0.00165923
0.00161764
0.00150913
0.00111998
0.000528818
0.00062588
0.000706178
0.000720914
0.000702857
0.000657801
0.000609353
0.000565834
0.000527865
0.000494671
0.000465525
0.000439955
0.000417101
0.000396128
0.000376086
0.000355799
0.000344745
0.000317517
0.00150884
0.00341602
0.00312284
0.00356076
0.00400326
0.00447148
0.00492424
0.00528785
0.00564505
0.00601248
0.00634834
0.00660618
0.00673965
0.00664605
0.00566582
0.00146788
0.00120281
0.000976923
0.000534089
0.00123772
0.00178839
0.00219996
0.00231274
0.00171921
0.00145976
0.00128272
0.00115121
0.00104979
0.000968601
0.0008958
0.000827278
0.000759296
0.000699017
0.000645613
0.000788605
0.000425394
0.00183657
0.00462909
0.00382633
0.00468637
0.00507514
0.00535277
0.00555674
0.00572402
0.00593679
0.00621958
0.00655502
0.00692578
0.00729989
0.0075802
0.00735449
0.00593331
0.00447075
0.00113546
0.000881808
0.00148913
0.00209501
0.00265806
0.0027797
0.000890094
0.000778905
0.00068747
0.000613803
0.00055449
0.000506458
0.000467479
0.000435924
0.000411304
0.000453488
0.000522272
0.000918612
0.000504738
0.00215139
0.00594232
0.0037962
0.00499186
0.005284
0.00529625
0.00523058
0.00522276
0.00533695
0.00556608
0.00589709
0.00632767
0.00682963
0.00731009
0.00749332
0.00712509
0.00608252
0.00329296
0.00131779
0.00177703
0.00243973
0.00315384
0.00371249
0.00365502
0.000990871
0.00090421
0.000845895
0.000802975
0.000766262
0.000729981
0.000695256
0.00065849
0.000615414
0.000574591
0.000572075
0.00110624
0.000574821
0.00247273
0.00770508
0.0040991
0.00482669
0.0052762
0.00516438
0.00491785
0.00479634
0.00488367
0.00510878
0.00544296
0.00589343
0.00642289
0.00689805
0.00709326
0.00701899
0.00662332
0.00547403
0.00510827
0.00502116
0.00516759
0.00535533
0.00543104
0.00525063
0.00441339
0.00401092
0.00379342
0.00363121
0.00345915
0.0032245
0.00285847
0.00240441
0.00190313
0.00142814
0.00106032
0.0010454
0.000956659
0.000768847
0.000803932
0.000867345
0.00281762
0.00970783
0.00583452
0.00460461
0.00497464
0.00506236
0.0048821
0.00464431
0.00472853
0.00495224
0.00528217
0.0057302
0.006241
0.00663336
0.00672432
0.00660807
0.00650361
0.00639898
0.00655278
0.00673425
0.00679593
0.0066892
0.00643534
0.0060638
0.00560085
0.00524314
0.00496854
0.00472465
0.00448411
0.00423098
0.00389776
0.00344884
0.00289021
0.00227229
0.0017183
0.001233
0.00107958
0.000997861
0.00126411
0.000900763
0.00314745
0.0111952
0.008726
0.00614992
0.0051494
0.00480936
0.00483625
0.00482076
0.00487728
0.00502759
0.00531039
0.00573021
0.00622487
0.00658316
0.00657844
0.00638426
0.00647993
0.00692068
0.00733591
0.00748532
0.00734652
0.00698745
0.00649943
0.00596282
0.00546348
0.00508277
0.00479451
0.00455064
0.0043324
0.00414131
0.0039758
0.00372222
0.00331349
0.00278264
0.00225618
0.00176621
0.00149782
0.00143359
0.00139815
0.0010791
0.00321775
0.0100648
0.00912534
0.0083426
0.00726233
0.00629847
0.00582401
0.00546581
0.00521228
0.00522338
0.00545388
0.00584677
0.00633553
0.00668008
0.00660655
0.00643351
0.00679165
0.00720626
0.0073682
0.00723544
0.00684477
0.00628899
0.00568034
0.00512065
0.00468118
0.00436725
0.0041321
0.00394353
0.00379849
0.00370735
0.00368011
0.0036891
0.00352295
0.00318257
0.00288089
0.00275013
0.00291597
0.00324256
0.00405733
0.00166439
0.00314592
0.00374947
0.00425596
0.00467292
0.00496122
0.00500825
0.00494205
0.00490535
0.00500906
0.00528334
0.00560997
0.00601318
0.00651036
0.00683913
0.00669954
0.00663323
0.0067082
0.00666643
0.00645441
0.00607076
0.00556016
0.00501719
0.0045318
0.00414737
0.00385686
0.00362534
0.0034216
0.00323456
0.00306658
0.00292139
0.00279718
0.00268558
0.00259551
0.00252705
0.00249843
0.00249741
0.00245897
0.00233578
0.00217253
0.00152893
0.000748336
0.00161276
0.00260355
0.00344693
0.0041028
0.00469422
0.00530801
0.00575046
0.00591126
0.00617022
0.00660024
0.00689203
0.00677236
0.00642279
0.00597103
0.00555305
0.00516339
0.00478528
0.00443076
0.00412392
0.0038742
0.00366949
0.00348769
0.00330969
0.00312731
0.002945
0.00277654
0.00263994
0.00255234
0.00251551
0.00250756
0.00251395
0.00251742
0.0024822
0.00235935
0.00213377
0.00184115
0.00123506
0.0025877
0.00406996
0.00459504
0.00541452
0.00605278
0.00662601
0.0067603
0.0060622
0.00529132
0.00536598
0.00553034
0.00551541
0.00535761
0.00506302
0.00477384
0.00451636
0.00425807
0.0040241
0.00382121
0.00364728
0.00349601
0.00335919
0.00322992
0.00310559
0.00298853
0.0028836
0.00279434
0.00271903
0.00267608
0.00267335
0.00270337
0.00275233
0.00279924
0.00282669
0.00279752
0.00275499
0.00236192
0.00125205
0.00272181
0.00275834
0.002803
0.00299972
0.00284515
0.00272049
0.00249587
0.00213029
0.00167668
0.00145239
0.00128724
0.00120352
0.00116334
0.00112133
0.00107526
0.00103543
0.00100404
0.000978897
0.000959994
0.00094361
0.000929868
0.000918925
0.000910875
0.000905956
0.000904657
0.000907702
0.000915964
0.000930404
0.000952203
0.000983154
0.00102224
0.00106929
0.00112414
0.00118669
0.00125646
0.00134453
0.00137947
0.0013515
0.00125942
0.00116377
)
;

boundaryField
{
    floor
    {
        type            nutkWallFunction;
        Cmu             0.09;
        kappa           0.41;
        E               9.8;
        value           nonuniform List<scalar> 
36
(
0.000134726
6.33956e-05
7.5581e-05
8.54875e-05
8.72901e-05
8.50802e-05
7.9536e-05
7.3523e-05
6.80721e-05
6.32744e-05
5.90449e-05
5.53021e-05
5.19944e-05
4.90172e-05
4.62669e-05
4.36213e-05
4.09247e-05
3.94471e-05
3.57804e-05
3.57803e-05
5.00994e-05
6.03308e-05
6.92014e-05
9.31256e-05
9.73695e-05
0.000104986
0.000134726
0.000174478
0.000144302
0.000117992
6.33956e-05
0.000117992
6.4064e-05
0.000136522
0.000106712
0.000157476
)
;
    }
    ceiling
    {
        type            nutkWallFunction;
        Cmu             0.09;
        kappa           0.41;
        E               9.8;
        value           nonuniform List<scalar> 
43
(
0.000310409
0.000314253
0.000318946
0.000339597
0.000323471
0.000310396
0.000286643
0.00024747
0.000197818
0.000172737
0.000153995
0.000144392
0.000139757
0.000134891
0.00012953
0.000124874
0.000121191
0.00011823
0.000115998
0.00011406
0.000112432
0.000111133
0.000110176
0.000109591
0.000109436
0.000109799
0.000110781
0.000112495
0.000115077
0.000118732
0.000123328
0.000128834
0.000135218
0.000142456
0.000150478
0.000160535
0.000164504
0.000161328
0.000150818
0.000139809
0.000355202
0.000417334
0.000296136
)
;
    }
    sWall
    {
        type            nutkWallFunction;
        Cmu             0.09;
        kappa           0.41;
        E               9.8;
        value           uniform 0.000310488;
    }
    nWall
    {
        type            nutkWallFunction;
        Cmu             0.09;
        kappa           0.41;
        E               9.8;
        value           nonuniform List<scalar> 6(0.000104988 0.000108976 0.000129985 0.000148037 0.000149986 0.00013982);
    }
    sideWalls
    {
        type            empty;
    }
    glass1
    {
        type            nutkWallFunction;
        Cmu             0.09;
        kappa           0.41;
        E               9.8;
        value           nonuniform List<scalar> 9(0.000134562 0.000179345 0.000215833 0.000250215 0.000284756 0.000321306 0.000355825 0.000363144 0.000355697);
    }
    glass2
    {
        type            nutkWallFunction;
        Cmu             0.09;
        kappa           0.41;
        E               9.8;
        value           nonuniform List<scalar> 2(0.00019659 0.000181458);
    }
    sun
    {
        type            nutkWallFunction;
        Cmu             0.09;
        kappa           0.41;
        E               9.8;
        value           nonuniform List<scalar> 
14
(
0.000134432
0.000146075
0.000149406
0.000156591
0.000163217
0.00016946
0.000175622
0.000182086
0.000188126
0.000193066
0.000196031
0.000195879
0.000191252
0.000179115
)
;
    }
    Table_master
    {
        type            nutkWallFunction;
        Cmu             0.09;
        kappa           0.41;
        E               9.8;
        value           nonuniform List<scalar> 9(0.000107697 9.43435e-05 8.31937e-05 7.40818e-05 6.66492e-05 6.0559e-05 5.55643e-05 5.14829e-05 4.82727e-05);
    }
    Table_slave
    {
        type            nutkWallFunction;
        Cmu             0.09;
        kappa           0.41;
        E               9.8;
        value           nonuniform List<scalar> 9(0.000119634 0.000109378 0.000102414 9.72522e-05 9.28113e-05 8.83978e-05 8.41491e-05 7.9623e-05 7.42812e-05);
    }
    inlet
    {
        type            calculated;
        value           uniform 0.00033541;
    }
    outlet
    {
        type            calculated;
        value           nonuniform List<scalar> 2(0.00272181 0.00275834);
    }
}


// ************************************************************************* //
