/*--------------------------------*- C++ -*----------------------------------*\
  =========                 |
  \\      /  F ield         | OpenFOAM: The Open Source CFD Toolbox
   \\    /   O peration     | Website:  https://openfoam.org
    \\  /    A nd           | Version:  6
     \\/     M anipulation  |
\*---------------------------------------------------------------------------*/
FoamFile
{
    version     2.0;
    format      ascii;
    class       surfaceScalarField;
    location    "700";
    object      phi;
}
// * * * * * * * * * * * * * * * * * * * * * * * * * * * * * * * * * * * * * //

dimensions      [1 0 -1 0 0 0 0];

internalField   nonuniform List<scalar> 
850
(
-0.0023522
0.00240971
-0.00256632
0.000214203
-0.00283017
0.000263927
-0.00312886
0.000298765
-0.00340759
0.000278818
-0.00364188
0.000234369
-0.00381503
0.00017323
-0.003911
9.60565e-05
-0.00391271
1.78853e-06
-0.00379984
-0.000112782
-0.0035517
-0.000248055
-0.00315042
-0.00040119
-0.00255839
-0.000591937
-0.00162849
-0.00092981
-0.00162741
-0.000623303
0.000627321
-0.000614345
-8.89237e-06
-0.000442229
-0.000172045
-0.000354161
-8.79958e-05
-0.000268134
-8.59605e-05
-3.76345e-05
-0.000230431
0.000190588
-0.000228154
0.000316949
-0.000126299
0.000414071
-9.70593e-05
0.000501921
-8.77855e-05
0.000569646
-6.76589e-05
0.00059183
-2.21128e-05
0.000570703
2.11984e-05
0.000533416
3.73485e-05
0.000525314
8.13113e-06
0.000604677
-7.93675e-05
0.000633529
-2.88454e-05
0.000636561
-0.00170704
0.00426606
-0.00224525
0.000752497
-0.00264891
0.000667665
-0.00298393
0.000633863
-0.00327876
0.000573731
-0.0035282
0.000483894
-0.00372185
0.000366969
-0.00384731
0.000221603
-0.00389125
4.58154e-05
-0.00384354
-0.000160399
-0.00369692
-0.000394585
-0.00344213
-0.000655891
-0.00307298
-0.000960995
-0.00267785
-0.00132483
-0.00273654
-0.00156862
-0.0013302
-0.00140438
0.000161758
-0.00148985
0.000168858
0.00077887
-0.000142123
0.000629035
0.000141032
0.000294439
0.000162615
0.000121518
8.49737e-05
-9.525e-05
0.000130891
-9.2033e-05
-0.000233571
-6.58056e-05
-0.000254301
-5.33515e-05
-0.000138678
-6.39534e-05
-8.63812e-05
-0.000100247
-5.14148e-05
-0.000159487
-8.34344e-06
-0.000226766
4.52414e-05
-0.00029009
8.46011e-05
-0.000321255
6.85907e-05
-0.00022129
-9.17587e-05
-0.000109938
-0.000190638
-8.02844e-05
-5.84281e-05
0.000564537
-0.00126262
0.00575037
-0.00191834
0.0014083
-0.00234532
0.00109473
-0.00267075
0.000959377
-0.00295174
0.000854799
-0.00319181
0.000724048
-0.00338452
0.000559766
-0.0035203
0.00035747
-0.00358867
0.000114273
-0.00358127
-0.000167701
-0.00349628
-0.000479489
-0.00334192
-0.000810152
-0.00314967
-0.00115315
-0.00299515
-0.00147925
-0.00287426
-0.00168941
-0.00250334
-0.0017752
-0.00211419
-0.00187889
-0.00194024
-0.000684172
0.000550984
-0.000748793
0.00020577
-0.000659544
7.34711e-05
-0.000506839
-6.76277e-05
-0.000106848
-0.000269013
-0.000340181
-0.00059422
-0.00073264
-0.000818765
-0.000869923
-0.000878011
-0.000832514
-0.000747664
-0.00067884
-0.000390779
-0.000379766
-0.000552325
-2.90794e-05
-0.000738027
0.000127268
-0.000163669
-0.000945504
0.00697634
-0.00162451
0.00208738
-0.00197822
0.00144852
-0.00226157
0.00124281
-0.00250473
0.00109805
-0.00271231
0.000931711
-0.00288235
0.000729886
-0.00300818
0.000483391
-0.00308022
0.000186398
-0.00308882
-0.000159008
-0.00303753
-0.000530693
-0.00295174
-0.000895853
-0.00287517
-0.00122963
-0.00285276
-0.00150156
-0.00287056
-0.00167151
-0.00289785
-0.00174781
-0.00304031
-0.00173631
-0.00359747
-0.00138296
-0.0029229
-0.000668325
-0.0022316
-0.000140188
-0.00202625
5.49176e-07
-0.00190798
-4.46751e-05
-0.00184162
-0.000133884
-0.00190653
-0.000203988
-0.00173095
-0.000175616
-0.00155663
-0.000174361
-0.00137631
-0.000180357
-0.00119189
-0.000184446
-0.00100439
-0.000187536
-0.00081117
-0.000193252
-0.000602673
-0.000208528
-0.000360194
-0.000242512
-5.21823e-05
-0.000308048
-4.15027e-06
-0.000427699
0.00030127
-0.000334419
0.000565281
-0.000136684
0.000409746
-0.000711396
0.00801761
-0.00137554
0.0027516
-0.00157502
0.00164808
-0.00178162
0.0014495
-0.00196942
0.00128593
-0.00212193
0.0010843
-0.00224063
0.000848677
-0.00232452
0.000567365
-0.00236663
0.000228587
-0.0023554
-0.00017015
-0.00229908
-0.000586928
-0.00223408
-0.000960767
-0.0022019
-0.00126172
-0.00222671
-0.00147666
-0.00230053
-0.00159759
-0.00241776
-0.00163048
-0.00260649
-0.00154748
-0.00274737
-0.00124197
-0.00262149
-0.000794089
-0.0023321
-0.000429461
-0.00207654
-0.000254893
-0.00190261
-0.000218498
-0.00179641
-0.000239978
-0.00173453
-0.000265752
-0.00163968
-0.000270355
-0.00153721
-0.000276721
-0.00143321
-0.000284234
-0.00132737
-0.000290177
-0.00121947
-0.000295319
-0.00110697
-0.000305625
-0.000982496
-0.000332889
-0.000832279
-0.000392613
-0.000642764
-0.000497451
-0.000432516
-0.000637841
-4.63337e-06
-0.0007622
0.000694292
-0.000835515
0.00188644
-0.000782309
0.002537
-0.000644848
0.00213554
0.000407715
0.00217503
-0.000665719
0.00905588
-0.00126367
0.00334963
-0.00112942
0.00151392
-0.0011652
0.00148535
-0.00131194
0.00143275
-0.00140975
0.0011822
-0.00145478
0.000893787
-0.00146387
0.000576546
-0.00143847
0.000203264
-0.00137361
-0.000234925
-0.00129131
-0.000669147
-0.00123153
-0.00102045
-0.00122615
-0.00126702
-0.00128497
-0.00141775
-0.00140097
-0.0014815
-0.00156371
-0.00146765
-0.00175129
-0.0013598
-0.00186695
-0.00112621
-0.00184519
-0.000815756
-0.0017236
-0.000550946
-0.00158818
-0.000390205
-0.00148604
-0.000320531
-0.00142322
-0.0003027
-0.00138566
-0.0003032
-0.0013519
-0.000304018
-0.00132183
-0.000306678
-0.00129804
-0.000307915
-0.00128291
-0.000305191
-0.0012785
-0.000299618
-0.00128509
-0.000298919
-0.00129883
-0.000319038
-0.00130995
-0.000381382
-0.00130325
-0.00050405
-0.00124842
-0.000692565
-0.00106973
-0.00094079
-0.000652066
-0.00125308
0.000164407
-0.00159868
0.00113075
-0.0016111
0.00141845
0.000120123
0.00363211
-0.000852801
0.0103202
-0.000963945
0.00346086
-0.000254828
0.000804881
-7.39633e-05
0.00130457
-0.000278556
0.00163743
-0.000393572
0.0012973
-0.000384212
0.000884509
-0.000316972
0.000509388
-0.000204982
9.13545e-05
-8.18842e-05
-0.000357942
5.4914e-06
-0.000756442
3.17369e-05
-0.00104662
-1.14978e-05
-0.0012237
-0.000120489
-0.00130868
-0.000283761
-0.00131815
-0.000484925
-0.0012664
-0.000691046
-0.00115359
-0.000843546
-0.000973615
-0.000906306
-0.000752904
-0.000902104
-0.000555053
-0.000874714
-0.000417499
-0.000854477
-0.000340673
-0.000851573
-0.000305508
-0.000863135
-0.000291542
-0.000882636
-0.000284419
-0.000910933
-0.000278282
-0.000952377
-0.00026637
-0.00101455
-0.000242915
-0.001108
-0.000206062
-0.00124474
-0.000162069
-0.00143297
-0.000130706
-0.00166961
-0.000144635
-0.00193932
-0.000234236
-0.00221193
-0.000419855
-0.00244485
-0.000707766
-0.002584
-0.00111384
-0.00253564
-0.00164696
-0.00209145
-0.00205519
-0.0006868
-0.00128443
0.00299156
0.0018231
0.00895762
0.00237242
0.00291161
0.00267099
0.000506392
0.00227628
0.00169936
0.00184886
0.00206493
0.00161979
0.00152644
0.00152214
0.000982246
0.00151161
0.000519994
0.00156924
3.3807e-05
0.00162595
-0.000414574
0.00161102
-0.000741427
0.00152049
-0.000956014
0.00137231
-0.00107545
0.0011806
-0.0011169
0.000957053
-0.00109452
0.000712733
-0.001022
0.000469275
-0.000910055
0.000262288
-0.000766547
0.000117901
-0.000608433
2.82115e-05
-0.000465278
-3.17388e-05
-0.000357462
-8.31996e-05
-0.000289124
-0.000136677
-0.000251942
-0.000194247
-0.000233884
-0.000254669
-0.000223909
-0.000319179
-0.000213682
-0.000391172
-0.000194286
-0.000477519
-0.000156474
-0.000590575
-9.29107e-05
-0.000751224
-1.32113e-06
-0.000999372
0.000117543
-0.00138731
0.0002434
-0.00194355
0.000322106
-0.00264509
0.000281783
-0.0034241
7.13372e-05
-0.00426981
-0.000268038
-0.00532129
-0.000595389
-0.00644176
-0.000934633
-0.00592471
-0.00180139
-0.00273207
0.00945907
0.0123586
0.0112668
0.00159818
0.00838013
0.00458613
0.00689929
0.00354584
0.00588603
0.00253977
0.00514987
0.00171848
0.0046541
0.00101584
0.00424953
0.000438452
0.00385325
-1.82195e-05
0.00347603
-0.000364129
0.00312091
-0.00060082
0.00278451
-0.00073898
0.0024631
-0.000795405
0.00215467
-0.000786023
0.00185942
-0.000726676
0.00158302
-0.000633585
0.00133914
-0.000522593
0.00114087
-0.000410085
0.000986879
-0.000311209
0.000863691
-0.000234195
0.000757823
-0.000183178
0.000660729
-0.000154768
0.000568569
-0.000141644
0.000480417
-0.000135677
0.000396069
-0.000129254
0.000316305
-0.000114441
0.000242884
-8.29714e-05
0.000178657
-2.85998e-05
0.000121017
5.64036e-05
6.42794e-05
0.00017437
3.88302e-06
0.000303888
-6.90498e-05
0.000395132
-0.000178325
0.000391152
-0.000382669
0.000275773
-0.000704573
5.39574e-05
-0.0011279
-0.000171976
-0.00162207
-0.000440375
-0.0017241
-0.00169928
-0.00424185
0.000669501
0.00279524
0.00353252
0.00172316
0.0047574
0.00232102
0.00496676
0.00233048
0.00494281
0.0017425
0.00487182
0.0010869
0.00475058
0.000559766
0.00455813
0.000174295
0.00430314
-0.000109066
0.00400239
-0.000299999
0.00367745
-0.000413967
0.00334558
-0.000463465
0.00302025
-0.000460626
0.00271255
-0.000418899
0.00243186
-0.000352824
0.00218631
-0.000276981
0.00198092
-0.000204624
0.0018128
-0.000143016
0.00167126
-9.2583e-05
0.00154813
-5.99744e-05
0.00143719
-4.37617e-05
0.00133458
-3.89598e-05
0.0012386
-3.96259e-05
0.0011494
-3.99804e-05
0.00106951
-3.44801e-05
0.00100413
-1.75243e-05
0.000958497
1.71072e-05
0.000940631
7.43434e-05
0.000959661
0.000155416
0.00101889
0.000244742
0.001108
0.000306101
0.00120525
0.000293991
0.00130286
0.00017824
0.00139085
-3.39497e-05
0.00153816
-0.000319199
0.00181829
-0.000720424
0.00172757
-0.00160848
-0.00246675
-0.000316679
0.0031155
0.00139726
9.2745e-06
0.00247606
0.00124228
0.00320752
0.00159908
0.00379103
0.00115905
0.00416807
0.000709928
0.00435157
0.000376335
0.00438578
0.000140154
0.00429599
-1.9208e-05
0.00410923
-0.00011317
0.00386282
-0.000167494
0.00358657
-0.000187142
0.00330459
-0.000178582
0.00303502
-0.000149263
0.0027901
-0.000107838
0.00257666
-6.34692e-05
0.00239593
-2.38276e-05
0.00224642
6.56892e-06
0.00212812
2.57779e-05
0.00203438
3.38379e-05
0.00195611
3.45665e-05
0.00188603
3.1184e-05
0.00182002
2.6456e-05
0.00175741
2.26937e-05
0.00170103
2.19584e-05
0.00165721
2.63594e-05
0.00163451
3.9872e-05
0.00164287
6.60435e-05
0.00169589
0.000102463
0.00179961
0.000141088
0.00194282
0.000162958
0.00209501
0.000141879
0.00221546
5.78562e-05
0.00226569
-8.41028e-05
0.00221073
-0.000264162
0.00199159
-0.000501212
0.00129598
-0.000912807
-0.00111578
-0.00337341
-0.00470932
-0.00159287
-0.00159221
-0.000360548
0.00122581
0.00237048
0.00306456
0.00342364
0.00354517
0.00350598
0.00337159
0.00318173
0.00297116
0.00276822
0.00259386
0.00246042
0.00237112
0.00232149
0.00230251
0.00230314
0.00231227
0.0023225
0.0023297
0.0023325
0.00233187
0.00233084
0.00233459
0.00235227
0.00239661
0.00247788
0.00259832
0.0027411
0.00286314
0.00290126
0.00279737
0.00251329
0.00199188
0.00105951
)
;

boundaryField
{
    floor
    {
        type            calculated;
        value           nonuniform List<scalar> 
36
(
0
0
0
0
0
0
0
0
0
0
0
0
0
0
0
0
0
0
0
-2.99882e-06
-8.21228e-06
-9.85626e-06
-8.05659e-06
-5.6186e-06
-6.16148e-06
-6.74947e-06
-9.86649e-07
-1.85422e-06
-1.99551e-06
-2.7771e-06
-3.95941e-06
-4.24193e-06
-9.31703e-06
-4.98591e-06
-8.82917e-06
-6.12333e-06
)
;
    }
    ceiling
    {
        type            calculated;
        value           nonuniform List<scalar> 
43
(
-2.24599e-07
-9.30913e-07
-9.09638e-07
8.67044e-06
1.06783e-05
1.27798e-05
1.44434e-05
1.59144e-05
1.73176e-05
1.86945e-05
2.00464e-05
2.12865e-05
2.24397e-05
2.34964e-05
2.44224e-05
2.5165e-05
2.56688e-05
2.58999e-05
2.58687e-05
2.56147e-05
2.52047e-05
2.47812e-05
2.43944e-05
2.40452e-05
2.37164e-05
2.33882e-05
2.30438e-05
2.26696e-05
2.22487e-05
2.17692e-05
2.12427e-05
2.07074e-05
2.02307e-05
1.98978e-05
1.9797e-05
1.98492e-05
1.99799e-05
2.02624e-05
1.96193e-05
2.08437e-05
1.55408e-05
1.21881e-05
-3.56987e-06
)
;
    }
    sWall
    {
        type            calculated;
        value           uniform -0.000177276;
    }
    nWall
    {
        type            calculated;
        value           nonuniform List<scalar> 6(-3.26329e-05 -3.8512e-05 -4.61338e-05 -4.7461e-05 -5.49254e-05 -7.70441e-05);
    }
    sideWalls
    {
        type            empty;
        value           nonuniform 0();
    }
    glass1
    {
        type            calculated;
        value           nonuniform List<scalar> 9(-5.74422e-05 -0.000149234 -0.000221624 -0.000280389 -0.000329803 -0.000372481 -0.000411408 -0.000460504 -0.000516928);
    }
    glass2
    {
        type            calculated;
        value           nonuniform List<scalar> 2(-0.000200998 -0.000214261);
    }
    sun
    {
        type            calculated;
        value           uniform 0;
    }
    Table_master
    {
        type            calculated;
        value           nonuniform List<scalar> 9(-1.53483e-07 -1.53394e-07 -1.53288e-07 -1.53203e-07 -1.53131e-07 -1.53071e-07 -1.53009e-07 -1.52942e-07 -1.52838e-07);
    }
    Table_slave
    {
        type            calculated;
        value           nonuniform List<scalar> 9(1.52171e-07 1.52235e-07 1.5229e-07 1.52344e-07 1.52397e-07 1.52448e-07 1.52497e-07 1.52548e-07 1.52578e-07);
    }
    inlet
    {
        type            calculated;
        value           uniform -0.00186656;
    }
    outlet
    {
        type            calculated;
        value           nonuniform List<scalar> 2(0.00355095 0.00133687);
    }
}


// ************************************************************************* //
