/*--------------------------------*- C++ -*----------------------------------*\
  =========                 |
  \\      /  F ield         | OpenFOAM: The Open Source CFD Toolbox
   \\    /   O peration     | Website:  https://openfoam.org
    \\  /    A nd           | Version:  6
     \\/     M anipulation  |
\*---------------------------------------------------------------------------*/
FoamFile
{
    version     2.0;
    format      ascii;
    class       volScalarField;
    location    "700";
    object      T;
}
// * * * * * * * * * * * * * * * * * * * * * * * * * * * * * * * * * * * * * //

dimensions      [0 0 0 1 0 0 0];

internalField   nonuniform List<scalar> 
458
(
304.403
304.117
304.112
304.116
304.12
304.123
304.125
304.127
304.128
304.129
304.128
304.124
304.117
304.108
304.096
303.199
303.198
303.209
303.195
303.183
303.184
303.19
303.183
303.177
303.177
303.182
303.184
303.19
303.218
303.285
303.375
303.406
303.414
304.615
304.179
304.155
304.165
304.177
304.186
304.194
304.2
304.204
304.206
304.202
304.192
304.174
304.145
304.105
304.066
304.028
303.973
303.255
303.268
303.291
303.314
303.279
303.235
303.245
303.251
303.256
303.272
303.304
303.362
303.427
303.504
303.591
303.589
303.518
303.433
304.812
304.248
304.2
304.215
304.235
304.255
304.272
304.286
304.297
304.304
304.303
304.292
304.269
304.229
304.175
304.111
304.043
303.987
303.536
303.52
303.541
303.582
303.596
303.314
303.333
303.39
303.44
303.487
303.536
303.589
303.659
303.749
303.839
303.76
303.682
303.615
304.993
304.327
304.244
304.26
304.289
304.318
304.346
304.372
304.393
304.408
304.414
304.407
304.384
304.342
304.281
304.203
304.107
303.996
303.899
303.826
303.859
303.909
303.953
303.979
303.999
304.003
304.009
304.016
304.026
304.037
304.05
304.062
304.071
304.043
304.017
303.969
303.96
305.158
304.416
304.294
304.298
304.331
304.368
304.406
304.443
304.476
304.502
304.518
304.519
304.503
304.469
304.416
304.348
304.271
304.192
304.125
304.077
304.061
304.061
304.063
304.064
304.064
304.064
304.067
304.074
304.085
304.099
304.116
304.133
304.148
304.157
304.165
304.168
304.151
304.175
304.169
304.171
305.299
304.524
304.377
304.344
304.367
304.404
304.447
304.49
304.532
304.569
304.596
304.608
304.603
304.58
304.538
304.48
304.411
304.339
304.273
304.221
304.186
304.163
304.147
304.134
304.124
304.117
304.115
304.118
304.126
304.141
304.16
304.182
304.203
304.222
304.238
304.251
304.26
304.262
304.221
304.191
305.42
304.688
304.556
304.476
304.441
304.453
304.484
304.522
304.564
304.611
304.647
304.667
304.671
304.66
304.633
304.591
304.536
304.472
304.409
304.351
304.305
304.268
304.238
304.214
304.194
304.178
304.167
304.16
304.161
304.171
304.189
304.211
304.234
304.255
304.272
304.285
304.294
304.293
304.273
304.199
305.615
305.061
304.934
304.807
304.691
304.629
304.608
304.612
304.633
304.667
304.693
304.708
304.712
304.706
304.691
304.667
304.63
304.583
304.529
304.474
304.423
304.378
304.34
304.307
304.278
304.253
304.231
304.213
304.202
304.198
304.205
304.221
304.242
304.264
304.283
304.299
304.314
304.329
304.342
304.358
305.886
305.648
305.392
305.231
305.075
304.958
304.88
304.83
304.804
304.785
304.77
304.757
304.746
304.733
304.719
304.702
304.68
304.651
304.614
304.573
304.529
304.486
304.445
304.408
304.374
304.342
304.312
304.285
304.261
304.244
304.232
304.229
304.233
304.24
304.247
304.256
304.27
304.29
304.315
304.382
301.995
304.451
304.734
304.801
304.811
304.805
304.795
304.784
304.773
304.76
304.747
304.735
304.722
304.708
304.693
304.676
304.655
304.629
304.599
304.566
304.532
304.498
304.465
304.432
304.4
304.368
304.338
304.31
304.286
304.267
304.255
304.249
304.247
304.247
304.25
304.256
304.263
304.285
302.572
304.151
304.5
304.646
304.704
304.725
304.731
304.73
304.726
304.721
304.714
304.706
304.698
304.689
304.68
304.669
304.657
304.642
304.623
304.602
304.579
304.554
304.527
304.5
304.472
304.443
304.413
304.383
304.353
304.326
304.304
304.288
304.277
304.271
304.267
304.266
304.266
304.288
303.236
303.165
303.162
304.247
304.489
304.618
304.654
304.668
304.673
304.673
304.67
304.667
304.663
304.658
304.653
304.647
304.64
304.632
304.623
304.614
304.604
304.592
304.579
304.565
304.549
304.531
304.512
304.492
304.47
304.446
304.421
304.396
304.371
304.35
304.332
304.317
304.303
304.29
304.277
304.298
)
;

boundaryField
{
    floor
    {
        type            wallHeatTransfer;
        Tinf            uniform 305.2;
        alphaWall       uniform 0.24;
        value           nonuniform List<scalar> 
36
(
304.229
303.728
303.693
303.689
303.746
303.805
303.848
303.867
303.863
303.843
303.811
303.783
303.769
303.754
303.737
303.737
303.765
303.779
303.815
303.815
303.8
303.879
304.114
304.273
304.276
304.288
304.229
304.194
304.165
304.162
303.728
304.162
303.67
304.121
303.772
304.04
)
;
    }
    ceiling
    {
        type            wallHeatTransfer;
        Tinf            uniform 303.2;
        alphaWall       uniform 0.24;
        value           nonuniform List<scalar> 
43
(
303.234
303.167
303.164
304.195
304.426
304.543
304.57
304.575
304.572
304.564
304.554
304.543
304.533
304.522
304.512
304.501
304.492
304.483
304.474
304.467
304.459
304.45
304.439
304.426
304.412
304.396
304.379
304.361
304.341
304.32
304.298
304.276
304.254
304.234
304.217
304.202
304.187
304.173
304.164
304.178
305.764
305.55
302.595
)
;
    }
    sWall
    {
        type            wallHeatTransfer;
        Tinf            uniform 315.2;
        alphaWall       uniform 0.36;
        value           uniform 304.278;
    }
    nWall
    {
        type            wallHeatTransfer;
        Tinf            uniform 307.2;
        alphaWall       uniform 0.36;
        value           nonuniform List<scalar> 6(304.661 304.666 304.68 304.624 304.642 304.75);
    }
    sideWalls
    {
        type            empty;
    }
    glass1
    {
        type            wallHeatTransfer;
        Tinf            uniform 315.2;
        alphaWall       uniform 4.3;
        value           nonuniform List<scalar> 9(312.572 311.68 311.108 310.685 310.37 310.121 309.934 310.001 310.218);
    }
    glass2
    {
        type            wallHeatTransfer;
        Tinf            uniform 307.2;
        alphaWall       uniform 4.3;
        value           nonuniform List<scalar> 2(306.202 306.11);
    }
    sun
    {
        type            wallHeatTransfer;
        Tinf            uniform 305.2;
        alphaWall       uniform 0.24;
        value           nonuniform List<scalar> 
14
(
304.519
304.271
304.274
304.274
304.273
304.272
304.271
304.269
304.268
304.266
304.262
304.257
304.25
304.24
)
;
    }
    Table_master
    {
        type            zeroGradient;
    }
    Table_slave
    {
        type            zeroGradient;
    }
    inlet
    {
        type            fixedValue;
        value           uniform 296.15;
    }
    outlet
    {
        type            zeroGradient;
    }
}


// ************************************************************************* //
