/*--------------------------------*- C++ -*----------------------------------*\
  =========                 |
  \\      /  F ield         | OpenFOAM: The Open Source CFD Toolbox
   \\    /   O peration     | Website:  https://openfoam.org
    \\  /    A nd           | Version:  6
     \\/     M anipulation  |
\*---------------------------------------------------------------------------*/
FoamFile
{
    version     2.0;
    format      ascii;
    class       volScalarField;
    location    "500";
    object      nut;
}
// * * * * * * * * * * * * * * * * * * * * * * * * * * * * * * * * * * * * * //

dimensions      [0 2 -1 0 0 0 0];

internalField   nonuniform List<scalar> 
458
(
0.000713183
0.000741393
0.000710502
0.000738502
0.000765652
0.000790372
0.000813088
0.000834507
0.00085549
0.000877185
0.000897093
0.000913684
0.000927246
0.000939558
0.000950367
0.000298582
0.000325435
0.000336214
0.000273584
0.000217869
0.00019946
0.000179267
0.000173564
0.000169024
0.000171014
0.000191897
0.000225909
0.000240426
0.00025838
0.000293228
0.000359558
0.000358399
0.000321725
0.00114942
0.00198344
0.00159129
0.00194676
0.00210594
0.00227005
0.00243472
0.00258845
0.00271451
0.00278967
0.00282043
0.00277542
0.00260719
0.0022436
0.0016296
0.00102344
0.000986811
0.000656936
0.000457928
0.000899227
0.00104148
0.00103522
0.000844639
0.000387043
0.000243351
0.000222569
0.000241251
0.000293502
0.000400502
0.000648215
0.000849521
0.00102529
0.00129702
0.00121635
0.00104696
0.000380788
0.00154176
0.00313411
0.00173736
0.00284609
0.00317656
0.00338835
0.00356933
0.0037223
0.00384616
0.00393557
0.00399689
0.0040163
0.00395907
0.00377063
0.00338633
0.00278362
0.00195423
0.00106796
0.000763014
0.00212807
0.00194037
0.00159787
0.00114287
0.000409708
0.000283724
0.00024023
0.000279878
0.000322902
0.000370764
0.000425686
0.000494343
0.0006032
0.00184395
0.00205546
0.00185859
0.000654421
0.00192908
0.00470507
0.0018357
0.00313699
0.00378325
0.00400417
0.00414543
0.00424739
0.00432536
0.00438974
0.00445237
0.00453048
0.0046149
0.00466855
0.00459704
0.00423714
0.00341455
0.00213878
0.00108442
0.00274372
0.00280541
0.0022746
0.00163074
0.00106374
0.000667519
0.000664263
0.000666937
0.000673809
0.000685509
0.000703327
0.000728958
0.000764433
0.000830802
0.00220792
0.00271983
0.00258301
0.000888942
0.002306
0.00657444
0.00240639
0.00289938
0.00398029
0.00426334
0.00437136
0.00441477
0.00442536
0.00443276
0.00445897
0.00455196
0.00472695
0.00498961
0.00531577
0.00563499
0.00585327
0.00584971
0.00554946
0.00539801
0.00502091
0.00457884
0.00418088
0.00384892
0.00358488
0.00343032
0.00330357
0.00319979
0.00312542
0.00308984
0.00309803
0.00314702
0.00323807
0.00340546
0.0034928
0.00341186
0.0027327
0.00124466
0.00113261
0.00101245
0.00267545
0.00841758
0.00392372
0.00266121
0.00357935
0.00409884
0.00432574
0.00441202
0.00440046
0.00433433
0.00427521
0.00431829
0.00445371
0.0047037
0.00509476
0.00560702
0.0061463
0.00653347
0.0066156
0.0064572
0.00618594
0.00590721
0.00565143
0.00540475
0.00515181
0.00488987
0.0046173
0.00434281
0.00408715
0.00387827
0.00373466
0.00365288
0.00361372
0.00359473
0.00359861
0.00360103
0.00343585
0.00309689
0.00236024
0.00107647
0.00302526
0.00986261
0.00662513
0.00383762
0.00300397
0.0031929
0.00367109
0.00407563
0.00430595
0.00425365
0.00412566
0.00410984
0.00415166
0.00427243
0.00452639
0.00494748
0.00549555
0.0060211
0.00635594
0.00646792
0.0064416
0.00636734
0.00627819
0.00616055
0.00600108
0.0057947
0.00553573
0.00521897
0.00485749
0.00449252
0.00416899
0.00390314
0.00368559
0.00349669
0.00331641
0.00310791
0.00281712
0.00243395
0.00197224
0.00104303
0.00310755
0.00982713
0.00799497
0.00654515
0.00504711
0.00404482
0.00371261
0.0038184
0.00406204
0.00408779
0.0040009
0.00392975
0.00390134
0.00392508
0.00401891
0.00421605
0.00454766
0.00498338
0.00541233
0.00573946
0.00595678
0.00610368
0.00620972
0.00626655
0.00627803
0.00625259
0.00618446
0.00604503
0.00580053
0.0054573
0.00505989
0.00462413
0.0041541
0.00366623
0.00320186
0.00278402
0.0023938
0.00207477
0.00177871
0.00120396
0.00302496
0.00362439
0.00396104
0.00418468
0.00420037
0.00400397
0.00377699
0.00362661
0.00356058
0.00353135
0.00352275
0.00352583
0.00353671
0.00355669
0.00359412
0.0036672
0.00380412
0.00402766
0.00432738
0.00465911
0.00498016
0.00526901
0.00551645
0.00571531
0.00587498
0.00601766
0.00616596
0.00632244
0.00644836
0.00647409
0.0063444
0.00611905
0.00586513
0.00560166
0.00521844
0.00458123
0.0038957
0.00342416
0.00323328
0.00149074
0.00214048
0.00344529
0.00382415
0.00388335
0.0038115
0.0037052
0.00360461
0.00351487
0.00344057
0.00338167
0.00333565
0.00330146
0.00328212
0.00328653
0.0033297
0.00342962
0.00359829
0.00382931
0.0040932
0.00435934
0.00460444
0.00481074
0.00499361
0.00517277
0.00536959
0.00560186
0.0058746
0.00615615
0.00635946
0.00641864
0.00634161
0.00618028
0.00598706
0.0058124
0.00551172
0.00481766
0.00433399
0.00151226
0.00204843
0.00370837
0.00397794
0.00397661
0.00389524
0.00377549
0.00364817
0.00353772
0.0034414
0.00333815
0.00324994
0.00319081
0.00317268
0.00320783
0.00330723
0.0034736
0.00369346
0.00393349
0.00412554
0.00425621
0.00435084
0.0044342
0.00451921
0.00460959
0.00470603
0.00480997
0.00492526
0.00505438
0.00518685
0.00529234
0.00533835
0.00531148
0.00522126
0.00505606
0.0046421
0.00395035
0.00378468
0.00139645
0.00166596
0.00179734
0.00191013
0.00204518
0.00200697
0.00191138
0.0017896
0.00167375
0.00156198
0.00145487
0.0013565
0.00127406
0.001202
0.00113821
0.00108275
0.00103735
0.00100475
0.000987241
0.000984727
0.000993631
0.00101231
0.00103077
0.00104319
0.00105004
0.00105322
0.00105496
0.00105697
0.00106047
0.00106631
0.00107479
0.00108547
0.00109687
0.00110656
0.00111058
0.00110263
0.00107764
0.0010503
0.00101561
0.00104377
0.000996429
)
;

boundaryField
{
    floor
    {
        type            nutkWallFunction;
        Cmu             0.09;
        kappa           0.41;
        E               9.8;
        value           nonuniform List<scalar> 
36
(
0.000114874
3.3189e-05
3.68336e-05
3.82848e-05
2.97571e-05
2.19495e-05
1.9312e-05
1.63788e-05
1.55414e-05
1.4874e-05
1.51651e-05
1.82154e-05
2.30889e-05
2.51389e-05
2.76492e-05
3.24599e-05
4.14121e-05
4.12569e-05
3.63347e-05
3.63346e-05
4.42312e-05
7.91206e-05
0.000107577
0.000149165
0.000136232
0.0001222
0.000114874
0.000123488
0.000119179
7.94197e-05
3.31889e-05
7.94197e-05
5.43043e-05
0.0001287
9.24167e-05
0.00013062
)
;
    }
    ceiling
    {
        type            nutkWallFunction;
        Cmu             0.09;
        kappa           0.41;
        E               9.8;
        value           nonuniform List<scalar> 
43
(
0.000196693
0.000211233
0.000223625
0.000238389
0.000234242
0.000223806
0.000210421
0.000197595
0.000185128
0.000173088
0.000161945
0.000152536
0.000144257
0.00013688
0.000130429
0.00012512
0.00012129
0.000119228
0.00011893
0.000119979
0.000122176
0.000124344
0.000125801
0.000126603
0.000126975
0.000127179
0.000127414
0.000127823
0.000128506
0.000129497
0.000130743
0.000132072
0.0001332
0.000133668
0.000132744
0.000129832
0.000126636
0.000122568
0.000125871
0.00012031
0.0003428
0.000404795
0.000238672
)
;
    }
    sWall
    {
        type            nutkWallFunction;
        Cmu             0.09;
        kappa           0.41;
        E               9.8;
        value           uniform 0.000196743;
    }
    nWall
    {
        type            nutkWallFunction;
        Cmu             0.09;
        kappa           0.41;
        E               9.8;
        value           nonuniform List<scalar> 6(0.000122204 0.000129703 0.00012579 0.000179557 0.000166485 0.000120316);
    }
    sideWalls
    {
        type            empty;
    }
    glass1
    {
        type            nutkWallFunction;
        Cmu             0.09;
        kappa           0.41;
        E               9.8;
        value           nonuniform List<scalar> 9(8.63074e-05 0.000138298 0.000183083 0.000226055 0.000266977 0.0003064 0.000343202 0.000351802 0.000343193);
    }
    glass2
    {
        type            nutkWallFunction;
        Cmu             0.09;
        kappa           0.41;
        E               9.8;
        value           nonuniform List<scalar> 2(0.000144522 0.000177186);
    }
    sun
    {
        type            nutkWallFunction;
        Cmu             0.09;
        kappa           0.41;
        E               9.8;
        value           nonuniform List<scalar> 
14
(
8.63375e-05
8.97846e-05
8.60097e-05
8.9432e-05
9.27359e-05
9.57319e-05
9.84754e-05
0.000101054
0.000103573
0.000106169
0.000108545
0.000110521
0.000112132
0.000113593
)
;
    }
    Table_master
    {
        type            nutkWallFunction;
        Cmu             0.09;
        kappa           0.41;
        E               9.8;
        value           nonuniform List<scalar> 9(4.80369e-05 3.11667e-05 2.51232e-05 3.06323e-05 3.64959e-05 4.29024e-05 5.01259e-05 5.89941e-05 7.27527e-05);
    }
    Table_slave
    {
        type            nutkWallFunction;
        Cmu             0.09;
        kappa           0.41;
        E               9.8;
        value           nonuniform List<scalar> 9(8.07317e-05 8.03306e-05 8.06615e-05 8.15096e-05 8.29509e-05 8.51396e-05 8.82765e-05 9.25965e-05 0.000100616);
    }
    inlet
    {
        type            calculated;
        value           uniform 0.000167705;
    }
    outlet
    {
        type            calculated;
        value           nonuniform List<scalar> 2(0.00166596 0.00179734);
    }
}


// ************************************************************************* //
