/*--------------------------------*- C++ -*----------------------------------*\
  =========                 |
  \\      /  F ield         | OpenFOAM: The Open Source CFD Toolbox
   \\    /   O peration     | Website:  https://openfoam.org
    \\  /    A nd           | Version:  6
     \\/     M anipulation  |
\*---------------------------------------------------------------------------*/
FoamFile
{
    version     2.0;
    format      ascii;
    class       volVectorField;
    location    "500";
    object      U;
}
// * * * * * * * * * * * * * * * * * * * * * * * * * * * * * * * * * * * * * //

dimensions      [0 1 -1 0 0 0 0];

internalField   nonuniform List<vector> 
458
(
(0.0840523 0.066851 0)
(-0.133862 0.00564298 0)
(-0.124821 0.00819595 0)
(-0.142672 0.00813136 0)
(-0.159465 0.0065285 0)
(-0.174279 0.00427336 0)
(-0.186263 0.00151304 0)
(-0.19469 -0.00179267 0)
(-0.198794 -0.0057492 0)
(-0.197566 -0.0105196 0)
(-0.1893 -0.0165645 0)
(-0.171129 -0.0244678 0)
(-0.141361 -0.0358875 0)
(-0.109244 -0.0543308 0)
(-0.108107 -0.0806214 0)
(0.02735 0.0119844 0)
(-0.0334108 -0.00602185 0)
(-0.021582 -0.00658631 0)
(-0.0206186 -0.00342861 0)
(-0.0197924 -0.00311976 0)
(-0.014507 -0.00749873 0)
(-0.00667633 -0.00886308 0)
(0.0018023 -0.0120374 0)
(0.0102271 -0.00744047 0)
(0.0155843 -0.00585968 0)
(0.0195087 -0.0054116 0)
(0.0231474 -0.00513963 0)
(0.0267919 -0.00373063 0)
(0.0269351 -0.00156143 0)
(0.0263229 -0.000641595 0)
(0.0262048 -0.00557597 0)
(0.0359354 -0.00731134 0)
(-0.0135713 0.0123174 0)
(0.274835 0.144704 0)
(-0.152372 0.025716 0)
(-0.111749 0.027837 0)
(-0.134658 0.0275043 0)
(-0.152576 0.0252429 0)
(-0.168202 0.0218995 0)
(-0.1811 0.0175604 0)
(-0.190774 0.0120834 0)
(-0.196566 0.00525602 0)
(-0.197588 -0.00316223 0)
(-0.192961 -0.0131569 0)
(-0.181903 -0.0247666 0)
(-0.165379 -0.0391718 0)
(-0.149436 -0.0584292 0)
(-0.13827 -0.0764409 0)
(-0.107599 -0.0642964 0)
(-0.0601543 -0.0685468 0)
(8.59419e-05 0.0489733 0)
(0.103138 0.0122049 0)
(0.0412888 0.00836869 0)
(0.0177639 0.00388146 0)
(0.0105519 0.00368768 0)
(0.00481785 0.00811986 0)
(-0.0058373 -0.00604097 0)
(-0.00311018 -0.0110762 0)
(-0.0064742 -0.0152014 0)
(-0.00167969 -0.00716432 0)
(0.00266416 -0.00493898 0)
(0.00185317 -0.0052335 0)
(-0.00097169 -0.00273255 0)
(-0.00802581 0.00392371 0)
(-0.0127882 0.00638044 0)
(-0.0144932 0.00371707 0)
(-0.0120602 9.55539e-05 0)
(-0.026395 0.00856034 0)
(-0.107548 0.0258646 0)
(0.438108 0.22095 0)
(-0.193911 0.0537288 0)
(-0.0905809 0.0499431 0)
(-0.118913 0.0451746 0)
(-0.135665 0.0401942 0)
(-0.150452 0.0340217 0)
(-0.16295 0.0263409 0)
(-0.172795 0.0169078 0)
(-0.179389 0.00555898 0)
(-0.181885 -0.00765605 0)
(-0.179402 -0.0225684 0)
(-0.172421 -0.0388772 0)
(-0.162661 -0.0562747 0)
(-0.153482 -0.0737199 0)
(-0.144245 -0.0855803 0)
(-0.128147 -0.0856037 0)
(-0.114935 -0.0937737 0)
(-0.130647 -0.0930842 0)
(0.0348987 0.010293 0)
(-0.0340134 0.00751605 0)
(-0.0280221 0.00710325 0)
(-0.0205811 0.00306207 0)
(-0.0146296 -0.000732573 0)
(0.0162372 0.00160213 0)
(0.0122326 -0.00829332 0)
(-0.0154402 -0.0139687 0)
(-0.0242908 -0.00786803 0)
(-0.0295483 -0.00508207 0)
(-0.0336338 -0.00276108 0)
(-0.0355121 -0.000695944 0)
(-0.03327 0.00118716 0)
(-0.0271925 0.00132885 0)
(-0.00994576 -0.00287905 0)
(0.00324371 0.00365114 0)
(-0.00485422 0.0036711 0)
(-0.123257 -0.00108193 0)
(0.572903 0.284488 0)
(-0.240028 0.0854369 0)
(-0.0641032 0.0710291 0)
(-0.0986608 0.061779 0)
(-0.112572 0.0550482 0)
(-0.125031 0.0473017 0)
(-0.135998 0.0377558 0)
(-0.145134 0.0259333 0)
(-0.151845 0.0114826 0)
(-0.155165 -0.00563546 0)
(-0.153802 -0.0247606 0)
(-0.149253 -0.0445088 0)
(-0.143455 -0.0632977 0)
(-0.138792 -0.0790816 0)
(-0.135412 -0.0886115 0)
(-0.133047 -0.0910033 0)
(-0.138637 -0.0888075 0)
(-0.156213 -0.0669874 0)
(-0.149256 -0.00771105 0)
(-0.105819 0.00455828 0)
(-0.0942793 0.00191991 0)
(-0.0823057 -0.00273941 0)
(-0.0772654 -0.00740752 0)
(-0.076261 -0.0111213 0)
(-0.0735512 -0.00849794 0)
(-0.0649021 -0.00829306 0)
(-0.0565636 -0.00875301 0)
(-0.0479184 -0.0092239 0)
(-0.0388515 -0.00974031 0)
(-0.0292147 -0.0104251 0)
(-0.0188553 -0.0114826 0)
(-0.00786146 -0.0130369 0)
(0.00908664 -0.0150677 0)
(0.0142011 -0.014409 0)
(0.0267444 -0.00295078 0)
(0.0383417 0.00862078 0)
(-0.0146141 0.023804 0)
(0.680668 0.336742 0)
(-0.281431 0.117665 0)
(-0.0364095 0.0864642 0)
(-0.0750773 0.0743646 0)
(-0.0854217 0.0664548 0)
(-0.0941729 0.0576143 0)
(-0.102111 0.0467543 0)
(-0.108988 0.0331319 0)
(-0.114364 0.0161644 0)
(-0.117018 -0.00430311 0)
(-0.115016 -0.026927 0)
(-0.110925 -0.0487726 0)
(-0.106712 -0.0673956 0)
(-0.104163 -0.0810828 0)
(-0.103741 -0.0886499 0)
(-0.105832 -0.0907072 0)
(-0.111995 -0.0876731 0)
(-0.118917 -0.0735137 0)
(-0.117096 -0.0429777 0)
(-0.105391 -0.0211915 0)
(-0.0922773 -0.0117401 0)
(-0.0820032 -0.00984919 0)
(-0.0757796 -0.0104516 0)
(-0.0718723 -0.0113816 0)
(-0.0679523 -0.0107274 0)
(-0.0630888 -0.0111168 0)
(-0.0580239 -0.011683 0)
(-0.0527642 -0.0123269 0)
(-0.04723 -0.0130748 0)
(-0.0413029 -0.0141246 0)
(-0.0347846 -0.0158031 0)
(-0.0273842 -0.0183671 0)
(-0.0184638 -0.021283 0)
(-0.00845273 -0.024328 0)
(0.00946094 -0.0217721 0)
(0.0392527 -0.0126457 0)
(0.0674091 0.00868663 0)
(0.111557 0.0220157 0)
(0.128997 0.0529171 0)
(-0.010954 0.107931 0)
(0.751029 0.383203 0)
(-0.31494 0.145917 0)
(-0.0159154 0.0904967 0)
(-0.0470995 0.0827799 0)
(-0.0543023 0.074413 0)
(-0.059044 0.0642347 0)
(-0.0627729 0.0523113 0)
(-0.0656657 0.0376147 0)
(-0.0678256 0.0190659 0)
(-0.0673743 -0.00411386 0)
(-0.0628032 -0.0299437 0)
(-0.0584113 -0.0528785 0)
(-0.0555306 -0.0703117 0)
(-0.055112 -0.0814852 0)
(-0.057375 -0.0864266 0)
(-0.0622879 -0.0858245 0)
(-0.0695209 -0.0795864 0)
(-0.0759526 -0.0656069 0)
(-0.0771332 -0.0457702 0)
(-0.0728964 -0.0295956 0)
(-0.0666845 -0.0201744 0)
(-0.0615336 -0.0160013 0)
(-0.0583429 -0.0146264 0)
(-0.0565186 -0.0143437 0)
(-0.0551244 -0.0141318 0)
(-0.0537477 -0.0144566 0)
(-0.0525116 -0.0150344 0)
(-0.0514878 -0.0157021 0)
(-0.0507354 -0.016497 0)
(-0.0502602 -0.0176906 0)
(-0.0499489 -0.0197322 0)
(-0.0495239 -0.0230324 0)
(-0.0484116 -0.0277124 0)
(-0.0453626 -0.0335953 0)
(-0.0370131 -0.0394648 0)
(-0.020462 -0.0456141 0)
(0.00655032 -0.0535967 0)
(0.0350324 -0.0510713 0)
(0.0915036 0.0125593 0)
(-0.0538533 0.123588 0)
(0.772766 0.425445 0)
(-0.329679 0.145054 0)
(-8.39575e-05 0.0593263 0)
(-0.00162125 0.0834423 0)
(-0.00995859 0.0846818 0)
(-0.0146249 0.0696671 0)
(-0.0151475 0.0540956 0)
(-0.0135667 0.0379319 0)
(-0.0114294 0.0180838 0)
(-0.00347074 -0.00795843 0)
(0.00461401 -0.0362493 0)
(0.00796932 -0.0574404 0)
(0.0080374 -0.0718228 0)
(0.0050727 -0.0798731 0)
(-0.000756881 -0.0822131 0)
(-0.0088245 -0.0795282 0)
(-0.0181258 -0.0722619 0)
(-0.026446 -0.0600676 0)
(-0.0312575 -0.0451238 0)
(-0.0324592 -0.032002 0)
(-0.032041 -0.0229979 0)
(-0.031751 -0.0178644 0)
(-0.0322548 -0.0153685 0)
(-0.0334209 -0.0143221 0)
(-0.0349306 -0.013924 0)
(-0.0367107 -0.0139391 0)
(-0.0389757 -0.0140406 0)
(-0.0420494 -0.0140343 0)
(-0.0463716 -0.0139989 0)
(-0.0523747 -0.0143896 0)
(-0.0602877 -0.0159224 0)
(-0.0699281 -0.0192645 0)
(-0.080583 -0.0249089 0)
(-0.0910641 -0.03338 0)
(-0.0994149 -0.0451912 0)
(-0.103605 -0.0609212 0)
(-0.101708 -0.078185 0)
(-0.0865839 -0.083328 0)
(-0.00998952 -0.0334312 0)
(-0.131426 0.198522 0)
(0.869398 0.444673 0)
(-0.133775 0.125184 0)
(0.0699058 -0.0136013 0)
(0.111343 0.0196389 0)
(0.0892928 0.0495825 0)
(0.0699993 0.0470712 0)
(0.0642973 0.0334282 0)
(0.065799 0.0178189 0)
(0.0697958 -0.00239882 0)
(0.0819277 -0.0242929 0)
(0.0874833 -0.0435837 0)
(0.0862425 -0.0585262 0)
(0.0805573 -0.0684163 0)
(0.0718853 -0.0732405 0)
(0.0611949 -0.0733942 0)
(0.0493066 -0.0695055 0)
(0.0370379 -0.0621912 0)
(0.0256483 -0.0519402 0)
(0.016736 -0.0401438 0)
(0.0107539 -0.0293095 0)
(0.0065861 -0.0211041 0)
(0.002982 -0.0158089 0)
(-0.000712303 -0.0128827 0)
(-0.0044951 -0.0115371 0)
(-0.00829141 -0.0109322 0)
(-0.0121746 -0.0105224 0)
(-0.0163899 -0.00980492 0)
(-0.0213721 -0.00836294 0)
(-0.0278549 -0.00601323 0)
(-0.0368162 -0.00301902 0)
(-0.0497466 -0.00038536 0)
(-0.0686888 -0.000151707 0)
(-0.0941623 -0.00418306 0)
(-0.124808 -0.0127493 0)
(-0.15766 -0.0238908 0)
(-0.190379 -0.0347778 0)
(-0.221518 -0.0415643 0)
(-0.248759 -0.0336575 0)
(-0.307879 0.00309231 0)
(-0.494149 0.0841093 0)
(1.00056 0.421208 0)
(0.47132 0.283706 0)
(0.477988 0.229299 0)
(0.456324 0.189945 0)
(0.380727 0.159555 0)
(0.310893 0.123166 0)
(0.267153 0.0857565 0)
(0.241502 0.0521079 0)
(0.226346 0.0222753 0)
(0.20993 -0.0050795 0)
(0.192108 -0.0275134 0)
(0.173953 -0.0435849 0)
(0.155775 -0.0534157 0)
(0.137708 -0.0578228 0)
(0.119993 -0.0576741 0)
(0.102979 -0.0538003 0)
(0.0870745 -0.0470811 0)
(0.0728266 -0.0384989 0)
(0.0609166 -0.0293027 0)
(0.0516445 -0.0209367 0)
(0.0444256 -0.0143505 0)
(0.0383195 -0.00985066 0)
(0.0327026 -0.00724665 0)
(0.0273978 -0.00601601 0)
(0.0223743 -0.00548394 0)
(0.0176232 -0.00505827 0)
(0.0131363 -0.00418616 0)
(0.00893016 -0.00235194 0)
(0.00518078 0.000898465 0)
(0.00190429 0.00577673 0)
(-0.00207717 0.0118986 0)
(-0.00702982 0.0177314 0)
(-0.0137934 0.0212129 0)
(-0.0229758 0.0200414 0)
(-0.0385936 0.0113386 0)
(-0.0652377 -0.00659765 0)
(-0.0865159 -0.032734 0)
(-0.0897837 -0.0725749 0)
(-0.125012 -0.134763 0)
(-0.46661 -0.199959 0)
(-0.166548 -0.0282968 0)
(0.175544 0.117116 0)
(0.249364 0.140794 0)
(0.248178 0.124013 0)
(0.247778 0.0940888 0)
(0.24874 0.0620942 0)
(0.246755 0.0336208 0)
(0.240664 0.0109322 0)
(0.22912 -0.00706067 0)
(0.213709 -0.0207611 0)
(0.195745 -0.0302139 0)
(0.176345 -0.0355343 0)
(0.156586 -0.0369466 0)
(0.137414 -0.0348522 0)
(0.119623 -0.0298681 0)
(0.103892 -0.0228554 0)
(0.0907663 -0.0149609 0)
(0.0804993 -0.00751773 0)
(0.0727165 -0.0014317 0)
(0.0665919 0.0027534 0)
(0.0614024 0.00490288 0)
(0.05673 0.00529905 0)
(0.052283 0.00485779 0)
(0.0480352 0.00422703 0)
(0.0441224 0.00391933 0)
(0.0407934 0.00440423 0)
(0.0382943 0.00612237 0)
(0.0368057 0.00937106 0)
(0.0367706 0.0139043 0)
(0.038186 0.0185546 0)
(0.0405007 0.0217983 0)
(0.0431902 0.0225387 0)
(0.0456574 0.0201291 0)
(0.0482153 0.0144004 0)
(0.0555197 0.00657191 0)
(0.067913 -0.00551695 0)
(0.120653 -0.0602142 0)
(-0.123809 -0.154369 0)
(-0.124332 0.166575 0)
(0.0748204 0.136033 0)
(0.0992596 0.112534 0)
(0.132032 0.0959112 0)
(0.165461 0.0699478 0)
(0.191689 0.0402458 0)
(0.207567 0.0129784 0)
(0.213609 -0.00999606 0)
(0.211713 -0.0278357 0)
(0.203083 -0.039653 0)
(0.189636 -0.0471622 0)
(0.173328 -0.0515229 0)
(0.15587 -0.0536789 0)
(0.138659 -0.0545099 0)
(0.122751 -0.0548148 0)
(0.108859 -0.0551488 0)
(0.0973607 -0.0556419 0)
(0.0883392 -0.055991 0)
(0.0816654 -0.0546845 0)
(0.0771626 -0.0523486 0)
(0.0743041 -0.0500343 0)
(0.0722654 -0.0480287 0)
(0.0704725 -0.0465169 0)
(0.0686798 -0.0452344 0)
(0.0668872 -0.0437173 0)
(0.0653195 -0.0413999 0)
(0.06443 -0.0377427 0)
(0.0648331 -0.0325602 0)
(0.0671816 -0.0263792 0)
(0.071789 -0.0205047 0)
(0.0782955 -0.0165267 0)
(0.085811 -0.0159086 0)
(0.0930979 -0.0202725 0)
(0.0990839 -0.0305138 0)
(0.101156 -0.0409129 0)
(0.0958269 -0.0521587 0)
(0.132503 -0.0749581 0)
(-0.186611 -0.0973339 0)
(0.0556897 -0.243487 0)
(-0.312681 -0.0682946 0)
(-0.240026 0.134539 0)
(-0.134391 0.103509 0)
(-0.0704994 0.100215 0)
(0.0119558 0.102776 0)
(0.0731428 0.0923814 0)
(0.117726 0.0832395 0)
(0.147045 0.0793833 0)
(0.160936 0.081453 0)
(0.162655 0.0874992 0)
(0.156708 0.0937527 0)
(0.145883 0.100741 0)
(0.13247 0.109072 0)
(0.118292 0.119154 0)
(0.104902 0.13097 0)
(0.0935842 0.14384 0)
(0.0851747 0.156332 0)
(0.0798834 0.166688 0)
(0.0772992 0.173654 0)
(0.0767675 0.175021 0)
(0.0775313 0.172754 0)
(0.0789884 0.169278 0)
(0.0807152 0.165572 0)
(0.0824455 0.162135 0)
(0.0840325 0.158888 0)
(0.0855067 0.155475 0)
(0.0870884 0.151404 0)
(0.0891873 0.146189 0)
(0.0923557 0.139628 0)
(0.0971481 0.132069 0)
(0.10384 0.124399 0)
(0.112069 0.117589 0)
(0.120656 0.11237 0)
(0.127625 0.109422 0)
(0.130215 0.108922 0)
(0.124748 0.10519 0)
(0.108092 0.0985222 0)
(0.147887 0.0806626 0)
(-0.282226 0.0742426 0)
)
;

boundaryField
{
    floor
    {
        type            noSlip;
    }
    ceiling
    {
        type            noSlip;
    }
    sWall
    {
        type            noSlip;
    }
    nWall
    {
        type            noSlip;
    }
    sideWalls
    {
        type            empty;
    }
    glass1
    {
        type            noSlip;
    }
    glass2
    {
        type            noSlip;
    }
    sun
    {
        type            noSlip;
    }
    Table_master
    {
        type            noSlip;
    }
    Table_slave
    {
        type            noSlip;
    }
    inlet
    {
        type            fixedValue;
        value           uniform (0.191342 -0.46194 0);
    }
    outlet
    {
        type            zeroGradient;
    }
}


// ************************************************************************* //
