/*--------------------------------*- C++ -*----------------------------------*\
  =========                 |
  \\      /  F ield         | OpenFOAM: The Open Source CFD Toolbox
   \\    /   O peration     | Website:  https://openfoam.org
    \\  /    A nd           | Version:  6
     \\/     M anipulation  |
\*---------------------------------------------------------------------------*/
FoamFile
{
    version     2.0;
    format      ascii;
    class       volScalarField;
    location    "2900";
    object      k;
}
// * * * * * * * * * * * * * * * * * * * * * * * * * * * * * * * * * * * * * //

dimensions      [0 2 -2 0 0 0 0];

internalField   nonuniform List<scalar> 
458
(
0.00253804
0.00305553
0.00318362
0.0035088
0.00383063
0.0041531
0.00449539
0.00478567
0.00496253
0.00498759
0.00483986
0.00451479
0.00401533
0.0033319
0.0023704
0.000511644
0.000757064
0.00101732
0.00109278
0.00106365
0.000942358
0.000814586
0.000706339
0.000617679
0.000544811
0.000484457
0.000434241
0.000391692
0.000354502
0.000320492
0.000287087
0.000257613
0.000208875
0.00465652
0.00874662
0.00519611
0.00554917
0.00611825
0.00678207
0.00749333
0.00818421
0.00872471
0.00899216
0.00892489
0.00851547
0.00779796
0.00682884
0.00564357
0.00340179
0.00223848
0.00138284
0.00053413
0.00127225
0.00168668
0.00187979
0.00187532
0.00160306
0.00131586
0.00108303
0.000902726
0.00076254
0.000652274
0.000563201
0.00048899
0.000426369
0.000381088
0.000353257
0.000486039
0.000304355
0.00687907
0.0157461
0.00650382
0.00633428
0.00689161
0.00767058
0.00856863
0.00942396
0.0100616
0.0103753
0.0103372
0.00994452
0.00922366
0.00821829
0.00708061
0.00584834
0.00466827
0.00239904
0.00168635
0.00201705
0.00225031
0.00235757
0.00229135
0.00176193
0.00133552
0.0010324
0.00081814
0.000664471
0.000552061
0.000468657
0.000406662
0.000362485
0.000336766
0.000335924
0.000649223
0.000383802
0.00939197
0.025257
0.00828431
0.00674974
0.00720119
0.00813724
0.00931572
0.0102905
0.0109238
0.011205
0.0111575
0.0107596
0.0100002
0.00901235
0.00793965
0.00690791
0.00590617
0.00456614
0.00357439
0.00325112
0.00318678
0.0031588
0.00306095
0.00283549
0.00218996
0.001795
0.00154868
0.00138013
0.00124969
0.00113188
0.0010247
0.000919364
0.000805265
0.000605271
0.0004759
0.000817022
0.000480441
0.0123436
0.0376553
0.0123113
0.00770513
0.00787477
0.00917
0.0106896
0.0115804
0.0120353
0.0121899
0.0120639
0.0115953
0.0107544
0.00962361
0.00837689
0.00720663
0.00621148
0.00541029
0.00502205
0.00465635
0.00435891
0.00407012
0.00373838
0.00334916
0.00293823
0.00264547
0.00245407
0.00230448
0.00215875
0.00199273
0.00178194
0.00154152
0.00128497
0.000999243
0.0007531
0.000782592
0.000738697
0.000698827
0.000765654
0.000785024
0.0159004
0.0506896
0.0216191
0.0115695
0.0108947
0.012611
0.0134511
0.013677
0.0136792
0.0135999
0.0133456
0.0127495
0.011716
0.0103078
0.0087403
0.00729472
0.00619476
0.00555803
0.00531952
0.00516894
0.00491845
0.00454018
0.00407776
0.00359378
0.00319115
0.00294623
0.00279988
0.00268313
0.00255976
0.0024065
0.00219699
0.00193293
0.00164541
0.00134743
0.00108452
0.000923587
0.00084022
0.00102535
0.00245924
0.00139544
0.0193731
0.05866
0.0361116
0.0233802
0.0205481
0.0190588
0.0176467
0.0165929
0.01595
0.01556
0.0151097
0.0142856
0.012934
0.0111284
0.00915356
0.00741353
0.00621915
0.00566011
0.00549708
0.00534853
0.00503212
0.0045632
0.00403176
0.00353373
0.00316798
0.00297053
0.0028736
0.00281353
0.00276133
0.00269957
0.00260822
0.00243157
0.0021958
0.00193455
0.00170976
0.00156129
0.00151627
0.00175621
0.0036047
0.00217952
0.0199563
0.0553013
0.0409018
0.0334323
0.0281788
0.0239128
0.0209927
0.0193229
0.0185317
0.0180968
0.0174599
0.0162257
0.0143048
0.011878
0.00935322
0.00733453
0.00611401
0.00558624
0.00536389
0.00508708
0.00465784
0.00413725
0.00362513
0.00320595
0.00293278
0.0028003
0.00275887
0.00277133
0.00282497
0.00291872
0.00305396
0.00322529
0.00332862
0.00337573
0.00354595
0.00404075
0.00506371
0.00622463
0.0121723
0.0039559
0.0188177
0.0258651
0.0243503
0.0218192
0.020271
0.0199022
0.0203424
0.0211725
0.0218631
0.0218279
0.0206242
0.0182378
0.0150835
0.0116236
0.00837968
0.00649262
0.00553341
0.00505133
0.00471967
0.0043517
0.00390285
0.00343448
0.00302018
0.00271325
0.00253135
0.00245599
0.00245576
0.00251103
0.00261578
0.00276998
0.00297319
0.00322018
0.00350935
0.00386255
0.00433269
0.0049079
0.00548116
0.00590284
0.00619915
0.00372593
0.00638585
0.0190673
0.026539
0.0301041
0.0316227
0.0312694
0.0289654
0.0250907
0.0200539
0.0150022
0.0110381
0.00816559
0.00625391
0.00514986
0.00451781
0.00410079
0.00373618
0.0033622
0.00299063
0.00265315
0.00238481
0.00219815
0.00208366
0.00202543
0.00201265
0.00204084
0.00211127
0.00222858
0.00240014
0.00263737
0.00295161
0.00332862
0.00375549
0.0041706
0.00443547
0.00439061
0.00403077
0.00247657
0.00868896
0.026913
0.0294345
0.0277035
0.025796
0.0231408
0.0197646
0.0160196
0.0123452
0.00922741
0.00695131
0.00544676
0.00452235
0.00397885
0.00364332
0.00340298
0.00319434
0.00299636
0.00281363
0.00265393
0.00251718
0.00239684
0.00228931
0.00220097
0.00214371
0.00212215
0.00214196
0.00221003
0.00233386
0.00252901
0.00280468
0.00316142
0.00357785
0.00398349
0.00429152
0.00446232
0.00414741
0.00256304
0.00639249
0.00748028
0.00831623
0.0098034
0.00933422
0.0090137
0.00848636
0.00761786
0.00652073
0.00533681
0.00421327
0.00329206
0.00263372
0.00219996
0.00191785
0.00172435
0.0015779
0.00145457
0.00134402
0.0012458
0.00116322
0.0010986
0.00105212
0.00102388
0.00101623
0.00102963
0.00106102
0.00111176
0.00118393
0.001281
0.00140923
0.0015676
0.0017553
0.00197588
0.00223121
0.00251451
0.00277022
0.00266466
0.00226341
0.0019274
)
;

boundaryField
{
    floor
    {
        type            kqRWallFunction;
        value           nonuniform List<scalar> 
36
(
0.0023704
0.000511644
0.000757064
0.00101732
0.00109278
0.00106365
0.000942358
0.000814586
0.000706339
0.000617679
0.000544811
0.000484457
0.000434241
0.000391692
0.000354502
0.000320492
0.000287087
0.000257613
0.000208875
0.000208875
0.000304355
0.000383802
0.000480441
0.000698827
0.000765654
0.000785024
0.0023704
0.00340179
0.00223848
0.00138284
0.000511644
0.00138284
0.00053413
0.00239904
0.00168635
0.00357439
)
;
    }
    ceiling
    {
        type            kqRWallFunction;
        value           nonuniform List<scalar> 
43
(
0.00639249
0.00748028
0.00831623
0.0098034
0.00933422
0.0090137
0.00848636
0.00761786
0.00652073
0.00533681
0.00421327
0.00329206
0.00263372
0.00219996
0.00191785
0.00172435
0.0015779
0.00145457
0.00134402
0.0012458
0.00116322
0.0010986
0.00105212
0.00102388
0.00101623
0.00102963
0.00106102
0.00111176
0.00118393
0.001281
0.00140923
0.0015676
0.0017553
0.00197588
0.00223121
0.00251451
0.00277022
0.00266466
0.00226341
0.0019274
0.0188177
0.0258651
0.00868896
)
;
    }
    sWall
    {
        type            kqRWallFunction;
        value           uniform 0.00639249;
    }
    nWall
    {
        type            kqRWallFunction;
        value           nonuniform List<scalar> 6(0.000785024 0.00139544 0.00217952 0.00247657 0.00256304 0.0019274);
    }
    sideWalls
    {
        type            empty;
    }
    glass1
    {
        type            kqRWallFunction;
        value           nonuniform List<scalar> 9(0.00253804 0.00465652 0.00687907 0.00939197 0.0123436 0.0159004 0.0193731 0.0199563 0.0188177);
    }
    glass2
    {
        type            kqRWallFunction;
        value           nonuniform List<scalar> 2(0.0039559 0.00372593);
    }
    sun
    {
        type            kqRWallFunction;
        value           nonuniform List<scalar> 
14
(
0.00253804
0.00305553
0.00318362
0.0035088
0.00383063
0.0041531
0.00449539
0.00478567
0.00496253
0.00498759
0.00483986
0.00451479
0.00401533
0.0033319
)
;
    }
    Table_master
    {
        type            kqRWallFunction;
        value           nonuniform List<scalar> 9(0.00176193 0.00133552 0.0010324 0.00081814 0.000664471 0.000552061 0.000468657 0.000406662 0.000362485);
    }
    Table_slave
    {
        type            kqRWallFunction;
        value           nonuniform List<scalar> 9(0.00218996 0.001795 0.00154868 0.00138013 0.00124969 0.00113188 0.0010247 0.000919364 0.000805265);
    }
    inlet
    {
        type            turbulentIntensityKineticEnergyInlet;
        intensity       0.05;
        value           uniform 0.0003375;
    }
    outlet
    {
        type            zeroGradient;
    }
}


// ************************************************************************* //
