/*--------------------------------*- C++ -*----------------------------------*\
  =========                 |
  \\      /  F ield         | OpenFOAM: The Open Source CFD Toolbox
   \\    /   O peration     | Website:  https://openfoam.org
    \\  /    A nd           | Version:  6
     \\/     M anipulation  |
\*---------------------------------------------------------------------------*/
FoamFile
{
    version     2.0;
    format      ascii;
    class       volScalarField;
    location    "2900";
    object      T;
}
// * * * * * * * * * * * * * * * * * * * * * * * * * * * * * * * * * * * * * //

dimensions      [0 0 0 1 0 0 0];

internalField   nonuniform List<scalar> 
458
(
303.459
303.202
303.19
303.187
303.185
303.181
303.178
303.172
303.164
303.154
303.146
303.139
303.137
303.141
303.158
303.302
303.28
303.275
303.283
303.292
303.297
303.303
303.308
303.313
303.319
303.324
303.329
303.335
303.341
303.347
303.354
303.364
303.387
303.629
303.242
303.218
303.221
303.223
303.223
303.221
303.211
303.194
303.173
303.152
303.137
303.13
303.13
303.135
303.141
303.147
303.164
303.303
303.259
303.26
303.273
303.286
303.291
303.294
303.297
303.3
303.303
303.306
303.309
303.313
303.317
303.324
303.332
303.345
303.376
303.807
303.292
303.252
303.261
303.274
303.282
303.283
303.269
303.239
303.201
303.165
303.14
303.127
303.127
303.132
303.138
303.143
303.156
303.241
303.239
303.255
303.28
303.303
303.303
303.303
303.304
303.305
303.307
303.309
303.312
303.315
303.318
303.324
303.331
303.342
303.373
303.988
303.355
303.29
303.305
303.332
303.355
303.364
303.342
303.291
303.231
303.177
303.14
303.124
303.124
303.133
303.142
303.149
303.156
303.168
303.193
303.229
303.269
303.308
303.341
303.369
303.389
303.407
303.422
303.435
303.445
303.454
303.461
303.466
303.429
303.393
303.369
303.377
304.164
303.436
303.337
303.35
303.391
303.434
303.449
303.412
303.334
303.25
303.18
303.136
303.118
303.122
303.137
303.155
303.169
303.182
303.205
303.238
303.279
303.323
303.366
303.403
303.436
303.461
303.481
303.497
303.51
303.518
303.52
303.519
303.511
303.486
303.446
303.406
303.388
303.396
303.408
303.46
304.324
303.543
303.42
303.417
303.466
303.521
303.512
303.445
303.347
303.247
303.167
303.119
303.105
303.119
303.147
303.179
303.207
303.233
303.266
303.305
303.35
303.395
303.437
303.473
303.503
303.526
303.544
303.557
303.566
303.57
303.568
303.561
303.548
303.525
303.491
303.45
303.422
303.419
303.426
303.469
304.477
303.712
303.597
303.586
303.618
303.616
303.546
303.432
303.305
303.193
303.117
303.082
303.087
303.12
303.171
303.222
303.267
303.307
303.348
303.39
303.434
303.476
303.513
303.543
303.567
303.584
303.596
303.604
303.607
303.607
303.602
303.591
303.576
303.555
303.526
303.492
303.464
303.454
303.453
303.477
304.694
304.126
304.002
303.938
303.832
303.673
303.486
303.304
303.157
303.061
303.021
303.029
303.074
303.144
303.226
303.299
303.357
303.403
303.444
303.483
303.52
303.554
303.581
303.602
303.617
303.626
303.631
303.632
303.629
303.625
303.618
303.608
303.594
303.575
303.554
303.53
303.511
303.507
303.506
303.602
305.008
304.737
304.471
304.086
303.651
303.282
303.02
302.867
302.811
302.832
302.905
303.005
303.113
303.227
303.342
303.417
303.466
303.503
303.536
303.566
303.593
303.616
303.632
303.643
303.648
303.65
303.648
303.644
303.639
303.632
303.625
303.618
303.613
303.609
303.611
303.619
303.636
303.658
303.678
303.732
294.577
296.551
298.796
300.213
301.169
301.856
302.363
302.733
303.01
303.196
303.316
303.405
303.473
303.521
303.557
303.586
303.61
303.631
303.646
303.657
303.663
303.666
303.665
303.662
303.659
303.655
303.651
303.647
303.644
303.642
303.64
303.641
303.646
303.656
303.673
303.695
303.721
303.761
296.232
298.948
300.63
301.586
302.191
302.6
302.891
303.112
303.276
303.392
303.471
303.528
303.57
303.602
303.626
303.645
303.66
303.67
303.677
303.679
303.68
303.678
303.676
303.674
303.671
303.668
303.666
303.663
303.661
303.66
303.659
303.659
303.663
303.669
303.68
303.696
303.709
303.743
300.322
300.231
300.223
302.032
302.615
302.884
303.076
303.227
303.346
303.44
303.511
303.563
303.6
303.626
303.645
303.659
303.669
303.675
303.679
303.681
303.681
303.68
303.678
303.677
303.676
303.674
303.673
303.672
303.671
303.67
303.669
303.668
303.668
303.668
303.669
303.672
303.681
303.688
303.693
303.734
)
;

boundaryField
{
    floor
    {
        type            wallHeatTransfer;
        Tinf            uniform 305.2;
        alphaWall       uniform 0.24;
        value           nonuniform List<scalar> 
36
(
303.372
303.646
303.584
303.549
303.55
303.56
303.577
303.596
303.615
303.634
303.652
303.67
303.687
303.704
303.72
303.738
303.757
303.778
303.823
303.823
303.767
303.736
303.714
303.69
303.691
303.732
303.372
303.328
303.366
303.424
303.646
303.424
303.642
303.368
303.473
303.35
)
;
    }
    ceiling
    {
        type            wallHeatTransfer;
        Tinf            uniform 303.2;
        alphaWall       uniform 0.24;
        value           nonuniform List<scalar> 
43
(
300.525
300.427
300.412
302.101
302.651
302.904
303.084
303.225
303.336
303.422
303.485
303.53
303.56
303.581
303.595
303.605
303.612
303.615
303.617
303.617
303.615
303.613
303.611
303.609
303.608
303.607
303.607
303.607
303.607
303.608
303.609
303.611
303.613
303.616
303.619
303.624
303.633
303.639
303.64
303.674
304.925
304.675
296.662
)
;
    }
    sWall
    {
        type            wallHeatTransfer;
        Tinf            uniform 315.2;
        alphaWall       uniform 0.36;
        value           uniform 301.847;
    }
    nWall
    {
        type            wallHeatTransfer;
        Tinf            uniform 307.2;
        alphaWall       uniform 0.36;
        value           nonuniform List<scalar> 6(304.275 304.14 304.05 304.267 304.245 304.291);
    }
    sideWalls
    {
        type            empty;
    }
    glass1
    {
        type            wallHeatTransfer;
        Tinf            uniform 315.2;
        alphaWall       uniform 4.3;
        value           nonuniform List<scalar> 9(311.386 310.753 310.359 310.062 309.815 309.592 309.439 309.523 309.759);
    }
    glass2
    {
        type            wallHeatTransfer;
        Tinf            uniform 307.2;
        alphaWall       uniform 4.3;
        value           nonuniform List<scalar> 2(305.865 305.934);
    }
    sun
    {
        type            wallHeatTransfer;
        Tinf            uniform 305.2;
        alphaWall       uniform 0.24;
        value           nonuniform List<scalar> 
14
(
303.637
303.392
303.378
303.368
303.36
303.351
303.343
303.333
303.324
303.315
303.308
303.307
303.313
303.33
)
;
    }
    Table_master
    {
        type            zeroGradient;
    }
    Table_slave
    {
        type            zeroGradient;
    }
    inlet
    {
        type            fixedValue;
        value           uniform 292.15;
    }
    outlet
    {
        type            zeroGradient;
    }
}


// ************************************************************************* //
