/*--------------------------------*- C++ -*----------------------------------*\
  =========                 |
  \\      /  F ield         | OpenFOAM: The Open Source CFD Toolbox
   \\    /   O peration     | Website:  https://openfoam.org
    \\  /    A nd           | Version:  6
     \\/     M anipulation  |
\*---------------------------------------------------------------------------*/
FoamFile
{
    version     2.0;
    format      ascii;
    class       volScalarField;
    location    "800";
    object      T;
}
// * * * * * * * * * * * * * * * * * * * * * * * * * * * * * * * * * * * * * //

dimensions      [0 0 0 1 0 0 0];

internalField   nonuniform List<scalar> 
458
(
300.38
300.051
300.027
300.017
300.007
299.998
299.988
299.977
299.968
299.966
299.975
300.002
300.037
300.072
300.122
300.708
300.644
300.612
300.633
300.657
300.68
300.703
300.725
300.748
300.771
300.794
300.817
300.841
300.865
300.89
300.919
300.955
301.021
300.587
300.088
300.043
300.033
300.024
300.014
299.996
299.97
299.944
299.93
299.938
299.969
300.007
300.04
300.079
300.099
300.126
300.179
300.731
300.57
300.554
300.581
300.618
300.641
300.662
300.683
300.705
300.726
300.748
300.771
300.794
300.819
300.847
300.881
300.926
301.011
300.81
300.148
300.083
300.079
300.08
300.072
300.042
299.991
299.938
299.907
299.913
299.952
299.998
300.037
300.068
300.092
300.117
300.164
300.572
300.498
300.51
300.567
300.63
300.643
300.661
300.681
300.703
300.726
300.751
300.776
300.802
300.827
300.856
300.887
300.93
301.016
301.04
300.232
300.139
300.146
300.164
300.165
300.111
300.022
299.937
299.886
299.891
299.938
300.001
300.055
300.092
300.116
300.137
300.163
300.192
300.259
300.363
300.484
300.603
300.702
300.782
300.838
300.884
300.923
300.957
300.989
301.018
301.044
301.067
301.016
300.975
300.968
301.032
301.266
300.345
300.219
300.23
300.27
300.269
300.168
300.039
299.926
299.864
299.87
299.933
300.022
300.1
300.152
300.182
300.201
300.226
300.278
300.368
300.49
300.623
300.75
300.86
300.952
301.019
301.07
301.109
301.139
301.158
301.169
301.171
301.163
301.12
301.057
301.015
301.045
301.285
301.435
301.421
301.477
300.494
300.35
300.356
300.393
300.324
300.181
300.018
299.888
299.825
299.848
299.944
300.072
300.187
300.265
300.311
300.34
300.38
300.457
300.568
300.698
300.83
300.952
301.054
301.135
301.195
301.238
301.267
301.284
301.29
301.286
301.273
301.249
301.202
301.135
301.075
301.07
301.195
301.266
301.341
301.687
300.724
300.589
300.586
300.493
300.313
300.099
299.911
299.789
299.759
299.832
299.989
300.177
300.339
300.449
300.515
300.557
300.613
300.707
300.824
300.948
301.067
301.17
301.253
301.315
301.358
301.386
301.403
301.406
301.398
301.383
301.359
301.326
301.278
301.215
301.151
301.124
301.171
301.214
301.265
301.974
301.285
301.09
300.786
300.431
300.088
299.818
299.658
299.615
299.684
299.859
300.119
300.382
300.586
300.716
300.774
300.822
300.891
300.989
301.1
301.205
301.298
301.374
301.429
301.467
301.49
301.502
301.504
301.499
301.485
301.463
301.435
301.403
301.357
301.305
301.254
301.235
301.268
301.323
301.552
302.401
302.064
301.04
300.166
299.519
299.17
299.096
299.223
299.442
299.717
300.055
300.453
300.753
300.908
300.988
301.045
301.103
301.176
301.263
301.352
301.428
301.49
301.536
301.566
301.582
301.587
301.585
301.576
301.563
301.549
301.535
301.523
301.516
301.518
301.535
301.574
301.636
301.701
301.746
301.844
292.207
293.404
295.001
296.733
298.299
299.52
300.14
300.469
300.717
300.931
301.087
301.184
301.25
301.306
301.365
301.429
301.495
301.555
301.602
301.635
301.654
301.663
301.664
301.659
301.651
301.642
301.632
301.623
301.614
301.608
301.607
301.615
301.635
301.671
301.721
301.778
301.834
301.885
298.154
298.348
298.779
299.298
299.892
300.416
300.761
300.984
301.148
301.274
301.367
301.435
301.489
301.538
301.585
301.629
301.668
301.699
301.72
301.731
301.734
301.732
301.726
301.718
301.709
301.7
301.691
301.682
301.674
301.668
301.666
301.669
301.68
301.703
301.737
301.786
301.808
301.859
299.684
299.643
299.637
300.28
300.563
300.776
300.987
301.18
301.331
301.444
301.531
301.598
301.65
301.692
301.727
301.755
301.78
301.8
301.814
301.822
301.825
301.823
301.817
301.81
301.801
301.792
301.782
301.772
301.761
301.751
301.741
301.732
301.725
301.72
301.719
301.729
301.749
301.771
301.787
301.842
)
;

boundaryField
{
    floor
    {
        type            wallHeatTransfer;
        Tinf            uniform 305.2;
        alphaWall       uniform 0.24;
        value           nonuniform List<scalar> 
36
(
300.63
301.371
301.239
301.148
301.142
301.168
301.214
301.266
301.318
301.368
301.417
301.464
301.511
301.556
301.601
301.647
301.699
301.755
301.861
301.861
301.768
301.72
301.688
301.809
301.919
301.88
300.63
300.513
300.586
300.704
301.371
300.704
301.405
300.627
301.103
300.604
)
;
    }
    ceiling
    {
        type            wallHeatTransfer;
        Tinf            uniform 303.2;
        alphaWall       uniform 0.24;
        value           nonuniform List<scalar> 
43
(
299.86
299.812
299.799
300.421
300.698
300.905
301.11
301.3
301.452
301.567
301.657
301.726
301.78
301.823
301.857
301.887
301.912
301.933
301.951
301.962
301.969
301.971
301.968
301.964
301.957
301.949
301.94
301.93
301.919
301.906
301.894
301.882
301.87
301.86
301.854
301.857
301.872
301.894
301.916
301.973
302.435
302.107
298.335
)
;
    }
    sWall
    {
        type            wallHeatTransfer;
        Tinf            uniform 315.2;
        alphaWall       uniform 0.36;
        value           uniform 300.823;
    }
    nWall
    {
        type            wallHeatTransfer;
        Tinf            uniform 307.2;
        alphaWall       uniform 0.36;
        value           nonuniform List<scalar> 6(302.415 302.323 302.14 302.598 302.568 302.584);
    }
    sideWalls
    {
        type            empty;
    }
    glass1
    {
        type            wallHeatTransfer;
        Tinf            uniform 315.2;
        alphaWall       uniform 4.3;
        value           nonuniform List<scalar> 9(309.924 309.176 308.715 308.366 308.074 307.814 307.668 307.811 308.14);
    }
    glass2
    {
        type            wallHeatTransfer;
        Tinf            uniform 307.2;
        alphaWall       uniform 4.3;
        value           nonuniform List<scalar> 2(304.881 305.097);
    }
    sun
    {
        type            wallHeatTransfer;
        Tinf            uniform 305.2;
        alphaWall       uniform 0.24;
        value           nonuniform List<scalar> 
14
(
300.812
300.478
300.446
300.419
300.395
300.373
300.351
300.333
300.321
300.321
300.336
300.381
300.445
300.529
)
;
    }
    Table_master
    {
        type            zeroGradient;
    }
    Table_slave
    {
        type            zeroGradient;
    }
    inlet
    {
        type            fixedValue;
        value           uniform 291.15;
    }
    outlet
    {
        type            zeroGradient;
    }
}


// ************************************************************************* //
