/*--------------------------------*- C++ -*----------------------------------*\
  =========                 |
  \\      /  F ield         | OpenFOAM: The Open Source CFD Toolbox
   \\    /   O peration     | Website:  https://openfoam.org
    \\  /    A nd           | Version:  6
     \\/     M anipulation  |
\*---------------------------------------------------------------------------*/
FoamFile
{
    version     2.0;
    format      ascii;
    class       volScalarField;
    location    "500";
    object      k;
}
// * * * * * * * * * * * * * * * * * * * * * * * * * * * * * * * * * * * * * //

dimensions      [0 2 -2 0 0 0 0];

internalField   nonuniform List<scalar> 
458
(
0.00247597
0.00294284
0.00308469
0.00340324
0.00371255
0.00401773
0.00433209
0.00467609
0.00501073
0.00529399
0.00546813
0.00545914
0.00518892
0.00451613
0.00248734
0.000554529
0.000776777
0.000988876
0.00103057
0.000979589
0.000858023
0.000736288
0.000634875
0.000552529
0.000485223
0.000429728
0.000383817
0.000344975
0.000311153
0.000280464
0.00025102
0.000235665
0.000199909
0.00451438
0.00830424
0.0045639
0.00481937
0.00519548
0.00563973
0.00616053
0.00676117
0.00746127
0.00819019
0.00878226
0.00906022
0.00892059
0.00833614
0.00701787
0.00427258
0.00286882
0.00189248
0.000565642
0.00123448
0.00158279
0.00172739
0.0017006
0.00144739
0.00118295
0.000969586
0.000805365
0.000678309
0.000578631
0.000498081
0.000431519
0.000376288
0.000337015
0.000314312
0.000613738
0.000358832
0.00668853
0.0150685
0.00547374
0.005273
0.00549798
0.00582002
0.00623706
0.00678924
0.00749551
0.00826021
0.00890759
0.00930757
0.00939034
0.00907294
0.00795907
0.0063331
0.00493968
0.00255656
0.00154195
0.00187608
0.00203465
0.00209832
0.00202227
0.00157102
0.00120304
0.000937166
0.000747078
0.00060967
0.00050862
0.000433341
0.000376814
0.000335453
0.000309913
0.000313377
0.000972242
0.000505178
0.00917809
0.0245602
0.0067158
0.00535192
0.00537184
0.0055624
0.00586548
0.00639118
0.00716329
0.00797699
0.00864065
0.00909806
0.00930088
0.00907817
0.00817819
0.00702156
0.00590498
0.00441769
0.00344351
0.0032086
0.00300022
0.00286565
0.00271517
0.00248701
0.0019469
0.00162124
0.00141887
0.00127853
0.0011643
0.00105665
0.000958514
0.000859819
0.000751006
0.000563462
0.000457568
0.00145353
0.000655207
0.0121246
0.0374649
0.00981854
0.00559851
0.00524687
0.00530348
0.0055476
0.00619993
0.00723999
0.0081589
0.00882002
0.00927042
0.00945923
0.00909566
0.00807327
0.00685827
0.00583372
0.00505647
0.0048536
0.00435375
0.00395135
0.00361456
0.00327555
0.00291366
0.0025714
0.00235433
0.00222227
0.00211156
0.00198547
0.00182302
0.00162034
0.00139672
0.00116374
0.000905587
0.000690537
0.00111279
0.00134254
0.00117219
0.00128161
0.00149177
0.0157427
0.0514899
0.0182031
0.00765121
0.00598874
0.00560009
0.00564877
0.00661279
0.00802231
0.00893878
0.00952234
0.00989648
0.00997303
0.00940647
0.00804736
0.00644335
0.00525444
0.00471285
0.00460979
0.00452729
0.00430696
0.00395033
0.00352686
0.00311184
0.00280665
0.00265814
0.00258418
0.00251235
0.00240829
0.00225159
0.00201914
0.00174924
0.00146684
0.0011841
0.000960753
0.000997863
0.00122579
0.00127742
0.00192534
0.00160894
0.019644
0.0605604
0.0332555
0.0175218
0.0116494
0.00893951
0.00805916
0.00896854
0.00986453
0.0103543
0.010679
0.0108731
0.0107968
0.00999839
0.00822916
0.00617619
0.0047925
0.00437948
0.00445826
0.00447388
0.00425643
0.00386943
0.00343666
0.00306192
0.00283054
0.00274936
0.00273558
0.00272996
0.00270796
0.00265004
0.00251495
0.00227509
0.00199446
0.00170493
0.00148744
0.00142346
0.00158451
0.00192559
0.00262023
0.00230916
0.0205313
0.0596266
0.0436668
0.035351
0.0270892
0.0202394
0.0163084
0.0142026
0.0129714
0.0124532
0.0122643
0.0121283
0.0118199
0.0107153
0.008432
0.00593764
0.0044938
0.00419342
0.00422253
0.00413481
0.00385428
0.00348119
0.00313163
0.00287917
0.0027521
0.00272847
0.0027631
0.00283239
0.00293387
0.00307012
0.00323629
0.00335498
0.00335424
0.00336505
0.00352864
0.00424654
0.00589753
0.00836007
0.0164717
0.00549333
0.0196249
0.0278774
0.0272675
0.0253342
0.0230962
0.0203756
0.0179078
0.0159848
0.0148495
0.0143471
0.0138899
0.0133895
0.0128062
0.011245
0.00817698
0.00548382
0.00436657
0.00403117
0.00388108
0.00367446
0.00339497
0.00311131
0.00288438
0.00273794
0.00266611
0.00264929
0.00267239
0.00273493
0.00284633
0.00301748
0.0032551
0.00355684
0.00393536
0.00444705
0.00512844
0.00592904
0.00664968
0.00705756
0.00720977
0.00463551
0.00593929
0.00947281
0.0126584
0.0146838
0.0157595
0.0164577
0.0169708
0.0166907
0.0153288
0.0140523
0.0130997
0.0106751
0.00744684
0.00549425
0.00461177
0.00420667
0.00395318
0.00373424
0.00352875
0.00334851
0.00320204
0.00308585
0.00299083
0.00290989
0.00284313
0.00280073
0.00280231
0.00287472
0.00305015
0.00334401
0.00375054
0.0042625
0.0048397
0.00535133
0.00557173
0.00531527
0.00456842
0.00302481
0.0132782
0.0290281
0.0253313
0.0255743
0.0252342
0.0245199
0.0221947
0.0173074
0.0124723
0.00918503
0.0075656
0.00640422
0.0057212
0.00538424
0.00518688
0.00501108
0.00479452
0.0045742
0.00436738
0.00417676
0.00399936
0.00383104
0.00367053
0.0035227
0.0033992
0.00331553
0.00328695
0.00332501
0.00345682
0.00370416
0.00407442
0.00456013
0.00512251
0.00569506
0.00607391
0.00634594
0.00479399
0.00310861
0.0146902
0.0150871
0.0155796
0.0178432
0.0160518
0.0146759
0.0123525
0.0089989
0.00557461
0.00418289
0.00328575
0.00287224
0.00268368
0.00249336
0.00229269
0.002126
0.00199906
0.00190018
0.0018275
0.00176566
0.0017146
0.00167448
0.00164528
0.00162756
0.00162289
0.00163383
0.00166371
0.00171658
0.00179796
0.00191674
0.00207219
0.00226732
0.0025059
0.00279253
0.00313053
0.00358482
0.00377354
0.00362206
0.00314531
0.00268566
)
;

boundaryField
{
    floor
    {
        type            kqRWallFunction;
        value           nonuniform List<scalar> 
36
(
0.00248734
0.000554529
0.000776777
0.000988876
0.00103057
0.000979589
0.000858023
0.000736288
0.000634875
0.000552529
0.000485223
0.000429728
0.000383817
0.000344975
0.000311153
0.000280464
0.00025102
0.000235665
0.000199909
0.000199909
0.000358832
0.000505178
0.000655207
0.00117219
0.00128161
0.00149177
0.00248734
0.00427258
0.00286882
0.00189248
0.000554529
0.00189248
0.000565642
0.00255656
0.00154195
0.00344351
)
;
    }
    ceiling
    {
        type            kqRWallFunction;
        value           nonuniform List<scalar> 
43
(
0.0146902
0.0150871
0.0155796
0.0178432
0.0160518
0.0146759
0.0123525
0.0089989
0.00557461
0.00418289
0.00328575
0.00287224
0.00268368
0.00249336
0.00229269
0.002126
0.00199906
0.00190018
0.0018275
0.00176566
0.0017146
0.00167448
0.00164528
0.00162756
0.00162289
0.00163383
0.00166371
0.00171658
0.00179796
0.00191674
0.00207219
0.00226732
0.0025059
0.00279253
0.00313053
0.00358482
0.00377354
0.00362206
0.00314531
0.00268566
0.0196249
0.0278774
0.0132782
)
;
    }
    sWall
    {
        type            kqRWallFunction;
        value           uniform 0.0146902;
    }
    nWall
    {
        type            kqRWallFunction;
        value           nonuniform List<scalar> 6(0.00149177 0.00160894 0.00230916 0.00302481 0.00310861 0.00268566);
    }
    sideWalls
    {
        type            empty;
    }
    glass1
    {
        type            kqRWallFunction;
        value           nonuniform List<scalar> 9(0.00247597 0.00451438 0.00668853 0.00917809 0.0121246 0.0157427 0.019644 0.0205313 0.0196249);
    }
    glass2
    {
        type            kqRWallFunction;
        value           nonuniform List<scalar> 2(0.00549333 0.00463551);
    }
    sun
    {
        type            kqRWallFunction;
        value           nonuniform List<scalar> 
14
(
0.00247597
0.00294284
0.00308469
0.00340324
0.00371255
0.00401773
0.00433209
0.00467609
0.00501073
0.00529399
0.00546813
0.00545914
0.00518892
0.00451613
)
;
    }
    Table_master
    {
        type            kqRWallFunction;
        value           nonuniform List<scalar> 9(0.00157102 0.00120304 0.000937166 0.000747078 0.00060967 0.00050862 0.000433341 0.000376814 0.000335453);
    }
    Table_slave
    {
        type            kqRWallFunction;
        value           nonuniform List<scalar> 9(0.0019469 0.00162124 0.00141887 0.00127853 0.0011643 0.00105665 0.000958514 0.000859819 0.000751006);
    }
    inlet
    {
        type            turbulentIntensityKineticEnergyInlet;
        intensity       0.05;
        value           uniform 0.00375;
    }
    outlet
    {
        type            zeroGradient;
    }
}


// ************************************************************************* //
