/*--------------------------------*- C++ -*----------------------------------*\
  =========                 |
  \\      /  F ield         | OpenFOAM: The Open Source CFD Toolbox
   \\    /   O peration     | Website:  https://openfoam.org
    \\  /    A nd           | Version:  6
     \\/     M anipulation  |
\*---------------------------------------------------------------------------*/
FoamFile
{
    version     2.0;
    format      ascii;
    class       volScalarField;
    location    "1600";
    object      nut;
}
// * * * * * * * * * * * * * * * * * * * * * * * * * * * * * * * * * * * * * //

dimensions      [0 2 -1 0 0 0 0];

internalField   nonuniform List<scalar> 
458
(
0.00123585
0.00136137
0.00141978
0.00149364
0.00156185
0.00162869
0.00169953
0.00176973
0.00183368
0.00188263
0.00190422
0.00185657
0.00167526
0.0014559
0.00125903
0.000541101
0.000631021
0.00073834
0.000809098
0.000820278
0.000769512
0.000710676
0.000658671
0.000614384
0.000576563
0.000544167
0.000516233
0.000491821
0.000470107
0.000449786
0.000429126
0.000407803
0.000372313
0.00155764
0.00347692
0.00324128
0.003663
0.00411636
0.00456767
0.00491967
0.00527492
0.00567127
0.00606913
0.00644494
0.00677677
0.00671063
0.00570769
0.00366457
0.00148575
0.00129683
0.00108176
0.000525213
0.00115623
0.00192683
0.00251934
0.00273424
0.00191573
0.00160213
0.00139473
0.00124578
0.00113404
0.00104658
0.000976247
0.000917683
0.000852008
0.000784315
0.000722465
0.000754687
0.000416071
0.00182013
0.00463762
0.00393375
0.00438692
0.0045973
0.00473762
0.00486183
0.00506698
0.00538307
0.00581559
0.00638461
0.00707839
0.00764117
0.00735261
0.00612747
0.00432769
0.00315449
0.00120389
0.000599196
0.0012367
0.00204323
0.00288521
0.00319168
0.00101246
0.000883771
0.000774103
0.000684475
0.000611954
0.000553136
0.000504995
0.000465637
0.000437158
0.000503666
0.000600415
0.000864341
0.00045025
0.00206419
0.0056435
0.00393499
0.00443023
0.00435658
0.00422095
0.00419354
0.00433444
0.00462111
0.0050958
0.00578484
0.00661727
0.00731945
0.00738068
0.00692153
0.00583585
0.00453502
0.00245132
0.00126665
0.00141153
0.00199354
0.00292987
0.00388637
0.00414903
0.00116709
0.00107314
0.00100247
0.000945185
0.000895299
0.000850646
0.000806867
0.000760588
0.000707888
0.000661118
0.000641129
0.000962264
0.000501326
0.00230884
0.00697814
0.00391835
0.00429633
0.00410379
0.00381271
0.00372392
0.00387398
0.00416446
0.00468277
0.00543859
0.00627826
0.00685212
0.0069695
0.00679059
0.00629694
0.00545668
0.004195
0.00369881
0.00403091
0.00466651
0.00541797
0.0060145
0.00620278
0.00547034
0.00500557
0.0047093
0.00447734
0.00422479
0.00387402
0.00342783
0.00289131
0.00229025
0.00171974
0.00128351
0.00114027
0.000814003
0.000604881
0.000628201
0.000632992
0.00257457
0.00860433
0.00478837
0.00410569
0.0040249
0.00370635
0.00354074
0.00370323
0.00399546
0.00454648
0.00532976
0.0061079
0.00655499
0.00659264
0.00648821
0.00638821
0.00616193
0.00579074
0.0059347
0.00660192
0.00724135
0.00768335
0.00784726
0.00773068
0.00737623
0.00703733
0.00674159
0.00643805
0.00607123
0.00561258
0.00505599
0.00439704
0.00364859
0.00287205
0.00219247
0.00166096
0.00123296
0.00121524
0.00165274
0.000840881
0.00285343
0.00985925
0.00678048
0.00447894
0.00381108
0.00372564
0.00367076
0.00378509
0.00404898
0.00458261
0.00535784
0.00609388
0.00644595
0.00642346
0.0065069
0.00691136
0.00720448
0.00745679
0.00801937
0.00866286
0.00899281
0.00902642
0.0088142
0.00844175
0.00801364
0.00762034
0.00725255
0.00687575
0.00646584
0.0060145
0.00552285
0.00496521
0.00434299
0.00366117
0.00300949
0.00242059
0.00193229
0.00173999
0.00197712
0.00104326
0.00293771
0.00905687
0.00768583
0.00617665
0.00494656
0.0044365
0.00418348
0.00405968
0.00424025
0.00476645
0.00553672
0.00621052
0.00644877
0.0064797
0.00715182
0.00791677
0.00834087
0.00874565
0.0092278
0.00956367
0.0095362
0.00922446
0.00872507
0.00813727
0.00755066
0.00702186
0.00654519
0.00609088
0.00564683
0.00522835
0.00486678
0.00457655
0.00427661
0.00386476
0.00350003
0.00322568
0.00309969
0.00302766
0.00356165
0.00140383
0.00290414
0.00354676
0.00426628
0.00454107
0.00445009
0.00430301
0.00414506
0.00413588
0.00444548
0.00506327
0.00584464
0.00638325
0.00642939
0.00685793
0.00776992
0.00839205
0.00872291
0.0089964
0.00917308
0.00912417
0.00879094
0.00822624
0.00753136
0.00680123
0.00611784
0.00551895
0.00499024
0.00450679
0.00406104
0.00365821
0.00330328
0.00300798
0.0027857
0.00262237
0.00250407
0.00242195
0.00233768
0.00222006
0.00209339
0.00136181
0.00110861
0.00199795
0.00265281
0.00307159
0.00347368
0.00412413
0.00482882
0.00557692
0.00626922
0.00639267
0.00638435
0.00693982
0.0075447
0.00779452
0.00791728
0.00793513
0.00777684
0.00739846
0.00682999
0.00615411
0.00545054
0.00479247
0.00422121
0.00373455
0.00331803
0.002968
0.00269058
0.00248898
0.00236032
0.00228939
0.00225459
0.00224118
0.00223126
0.00219797
0.00210309
0.00192221
0.00168048
0.00110255
0.00213735
0.00389987
0.00433903
0.00517807
0.00620022
0.00624551
0.00601233
0.00615702
0.00638949
0.00588856
0.00566811
0.00570975
0.00570004
0.00567221
0.00561978
0.00548398
0.0052209
0.00483476
0.00437784
0.00391634
0.00349673
0.00313834
0.00283934
0.00259507
0.00240186
0.00225705
0.00215697
0.00209783
0.00207517
0.00208414
0.0021195
0.00217348
0.00222884
0.00225426
0.00223353
0.00216814
0.00209216
0.00112148
0.00282685
0.00283148
0.00285496
0.00334208
0.00303034
0.0026965
0.00218042
0.00175053
0.00158118
0.00144513
0.00130004
0.00116837
0.00108638
0.00103582
0.00100862
0.000989889
0.000970709
0.00094593
0.000914173
0.000877935
0.000841872
0.000810226
0.000785399
0.000768121
0.000758214
0.000755458
0.000759677
0.00077075
0.00078857
0.000813097
0.000844331
0.000882351
0.000927347
0.00097957
0.00103869
0.00110116
0.0011649
0.00114344
0.00105081
0.000970712
)
;

boundaryField
{
    floor
    {
        type            nutkWallFunction;
        Cmu             0.09;
        kappa           0.41;
        E               9.8;
        value           nonuniform List<scalar> 
36
(
0.00015078
6.49394e-05
7.62123e-05
8.94149e-05
9.79939e-05
9.93422e-05
9.32074e-05
8.60367e-05
7.96395e-05
7.41438e-05
6.94124e-05
6.53296e-05
6.17852e-05
5.86683e-05
5.58798e-05
5.32553e-05
5.05717e-05
4.77842e-05
4.31027e-05
4.31026e-05
4.88631e-05
5.33086e-05
5.98769e-05
7.29492e-05
7.58527e-05
7.64482e-05
0.00015078
0.000176523
0.000155109
0.000130297
6.49394e-05
0.000130297
6.29239e-05
0.000144451
7.22371e-05
0.000151659
)
;
    }
    ceiling
    {
        type            nutkWallFunction;
        Cmu             0.09;
        kappa           0.41;
        E               9.8;
        value           nonuniform List<scalar> 
43
(
0.000321546
0.000322031
0.000324494
0.000375224
0.000342936
0.000307969
0.000252963
0.000206059
0.000187249
0.000171973
0.000155499
0.000140368
0.000130849
0.000124939
0.000121746
0.000119542
0.00011728
0.00011435
0.000110581
0.000106262
0.000101944
9.81359e-05
9.51363e-05
9.30419e-05
9.18384e-05
9.15027e-05
9.20147e-05
9.33581e-05
9.55157e-05
9.84761e-05
0.000102231
0.00010678
0.000112136
0.000118313
0.000125262
0.000132555
0.000139952
0.000137468
0.000126683
0.00011727
0.000330006
0.00039663
0.0002481
)
;
    }
    sWall
    {
        type            nutkWallFunction;
        Cmu             0.09;
        kappa           0.41;
        E               9.8;
        value           uniform 0.000321624;
    }
    nWall
    {
        type            nutkWallFunction;
        Cmu             0.09;
        kappa           0.41;
        E               9.8;
        value           nonuniform List<scalar> 6(7.64443e-05 0.000101811 0.000125796 0.000132733 0.000134934 0.000117275);
    }
    sideWalls
    {
        type            empty;
    }
    glass1
    {
        type            nutkWallFunction;
        Cmu             0.09;
        kappa           0.41;
        E               9.8;
        value           nonuniform List<scalar> 9(0.00014828 0.000184835 0.000214028 0.00024076 0.000267218 0.000295621 0.000325099 0.000333957 0.000330452);
    }
    glass2
    {
        type            nutkWallFunction;
        Cmu             0.09;
        kappa           0.41;
        E               9.8;
        value           nonuniform List<scalar> 2(0.000167344 0.000162578);
    }
    sun
    {
        type            nutkWallFunction;
        Cmu             0.09;
        kappa           0.41;
        E               9.8;
        value           nonuniform List<scalar> 
14
(
0.000148119
0.000162448
0.000169069
0.000177396
0.000185047
0.000192507
0.000200379
0.000208145
0.000215189
0.000220565
0.000222933
0.000217713
0.000197697
0.000173156
)
;
    }
    Table_master
    {
        type            nutkWallFunction;
        Cmu             0.09;
        kappa           0.41;
        E               9.8;
        value           nonuniform List<scalar> 9(0.000122185 0.000106951 9.37641e-05 8.28225e-05 7.38437e-05 6.64663e-05 6.03563e-05 5.53067e-05 5.16199e-05);
    }
    Table_slave
    {
        type            nutkWallFunction;
        Cmu             0.09;
        kappa           0.41;
        E               9.8;
        value           nonuniform List<scalar> 9(0.000140203 0.000129292 0.000121013 0.000114252 0.000108326 0.000102989 9.77249e-05 9.21233e-05 8.5695e-05);
    }
    inlet
    {
        type            calculated;
        value           uniform 0.00033541;
    }
    outlet
    {
        type            calculated;
        value           nonuniform List<scalar> 2(0.00282685 0.00283148);
    }
}


// ************************************************************************* //
