/*--------------------------------*- C++ -*----------------------------------*\
  =========                 |
  \\      /  F ield         | OpenFOAM: The Open Source CFD Toolbox
   \\    /   O peration     | Website:  https://openfoam.org
    \\  /    A nd           | Version:  6
     \\/     M anipulation  |
\*---------------------------------------------------------------------------*/
FoamFile
{
    version     2.0;
    format      ascii;
    class       volScalarField;
    location    "2200";
    object      alphat;
}
// * * * * * * * * * * * * * * * * * * * * * * * * * * * * * * * * * * * * * //

dimensions      [1 -1 -1 0 0 0 0];

internalField   nonuniform List<scalar> 
458
(
0.00134311
0.00147863
0.00151528
0.00159256
0.00166607
0.00173791
0.00181219
0.00186717
0.00189581
0.00189267
0.00185482
0.00177997
0.00166163
0.00144612
0.00115357
0.000591269
0.00070748
0.000823553
0.000871065
0.000859122
0.000801888
0.00073915
0.000683347
0.00063532
0.000593913
0.000558032
0.000526625
0.00049897
0.000473926
0.000450173
0.000425942
0.000403226
0.000363898
0.00179949
0.00463437
0.00455038
0.00532224
0.00609271
0.00680665
0.00731786
0.0077743
0.00814802
0.00840666
0.00852602
0.00848439
0.00825096
0.00768864
0.00606521
0.00154403
0.00127888
0.00101533
0.000586236
0.00154236
0.00236552
0.00297273
0.00310831
0.00216882
0.00179816
0.00155432
0.00137754
0.00124376
0.00113895
0.00105516
0.000976905
0.000894883
0.000816636
0.000749543
0.000825881
0.000430675
0.00217322
0.00632383
0.00570775
0.00694016
0.00757722
0.00805672
0.00840983
0.00877475
0.00914509
0.00948976
0.00977144
0.00994455
0.00993861
0.00965463
0.00889936
0.0071855
0.00533611
0.00130341
0.000960502
0.00181721
0.00279346
0.00367623
0.00380242
0.00110252
0.000951209
0.000828098
0.000729867
0.000651428
0.000588366
0.000537259
0.000496484
0.00046594
0.000521328
0.000614242
0.000951704
0.000480945
0.00252746
0.00794592
0.00583932
0.00728782
0.00771702
0.00792063
0.00812081
0.00841148
0.00877446
0.00917994
0.00957955
0.00989644
0.0100307
0.00997249
0.00968195
0.0090395
0.00765706
0.00425936
0.00153579
0.00202796
0.00299415
0.00415719
0.00510407
0.0050184
0.00125536
0.00113359
0.00104557
0.000976844
0.00091777
0.000865589
0.000815675
0.00076407
0.000706002
0.000652597
0.000645611
0.00107988
0.00053544
0.00288802
0.0100035
0.00650467
0.00725986
0.00769979
0.00772105
0.00783718
0.00806541
0.00841345
0.00885177
0.009304
0.00965948
0.00983817
0.00982566
0.00966202
0.00936464
0.00874343
0.00742444
0.00665728
0.00673816
0.0071201
0.00753018
0.00774847
0.00751305
0.00616095
0.00544101
0.0050001
0.00467186
0.00436147
0.00395899
0.00346459
0.00288934
0.00226454
0.00167502
0.00123818
0.00117735
0.000873354
0.000697097
0.000775379
0.000852135
0.00327047
0.012272
0.00885283
0.00780058
0.0081148
0.00796119
0.00792773
0.00801484
0.00830068
0.00875707
0.00925848
0.00964675
0.00981187
0.00974833
0.00955648
0.00937446
0.00926389
0.00916373
0.00933625
0.00960992
0.00978104
0.00975979
0.00952173
0.00905043
0.00831824
0.00766258
0.0071173
0.00663095
0.00615604
0.00563104
0.005028
0.00433762
0.00356592
0.00276831
0.00208747
0.00158077
0.00120997
0.000992007
0.00125852
0.000881897
0.00360181
0.013778
0.0119995
0.0100116
0.0092886
0.00858088
0.00815659
0.0081048
0.00840717
0.00894501
0.0095198
0.00992707
0.0100452
0.00990082
0.00967701
0.0096349
0.0099434
0.0104523
0.0109433
0.0111796
0.0111037
0.0107582
0.010212
0.00953028
0.00877743
0.00806465
0.00741872
0.00682503
0.00627
0.00575309
0.00527889
0.00475625
0.00415081
0.00346573
0.00281846
0.00225238
0.00183604
0.00161981
0.00151033
0.00104653
0.00365193
0.0117581
0.0108544
0.00967947
0.0087007
0.00803204
0.00782331
0.00808776
0.00871508
0.00949201
0.0101571
0.0105077
0.0104809
0.0102117
0.0100288
0.0102805
0.0108922
0.0113951
0.0116428
0.0115764
0.0111895
0.010554
0.00975328
0.0088671
0.00797812
0.00716274
0.00644434
0.00581795
0.00528591
0.00486387
0.00456842
0.0043818
0.00413706
0.00373727
0.00338795
0.00316813
0.00314921
0.00322289
0.00374261
0.00161285
0.00354378
0.00415453
0.00447761
0.00466794
0.00513701
0.00599394
0.00716753
0.00851528
0.00981295
0.0107999
0.011269
0.0111974
0.0107627
0.0104383
0.0105546
0.0108437
0.0110961
0.0111755
0.0110256
0.0106191
0.00997093
0.00912724
0.00817215
0.00719811
0.00629076
0.00550164
0.00483623
0.0042839
0.00383648
0.00348381
0.00320631
0.00298873
0.00282802
0.00270464
0.00262
0.00256689
0.00249668
0.00237521
0.00222587
0.00153821
0.00151445
0.0055066
0.00913806
0.0112648
0.0125179
0.0131259
0.0131501
0.0127263
0.0120173
0.0111032
0.0103386
0.00998815
0.00997448
0.00994526
0.00978144
0.00946447
0.00896833
0.00828813
0.00747599
0.00662174
0.00580118
0.00507071
0.00445243
0.00393656
0.00350809
0.00315986
0.00288979
0.00269879
0.0025819
0.00252384
0.00250156
0.00249987
0.00250222
0.00248047
0.00239406
0.00222959
0.00201241
0.00130489
0.0024681
0.00966488
0.0116964
0.0122196
0.012185
0.0117417
0.0109843
0.01011
0.00927766
0.00854937
0.00801546
0.00765935
0.00736875
0.00707183
0.00675468
0.00639163
0.0059601
0.00547527
0.00498615
0.00454086
0.00416138
0.00384509
0.00357701
0.00334164
0.00312951
0.00293956
0.00277705
0.0026487
0.00256097
0.00251694
0.00251446
0.00254404
0.0025842
0.00260384
0.00255926
0.00254785
0.00266129
0.00134026
0.00209172
0.00226582
0.0023914
0.00258473
0.00249559
0.00243428
0.00234886
0.0022125
0.0020381
0.00184255
0.00164811
0.00148371
0.00136223
0.00127861
0.00122117
0.00117902
0.0011439
0.00111027
0.00107562
0.0010405
0.00100704
0.000977034
0.000951221
0.000929607
0.000912232
0.000899712
0.000893251
0.000894335
0.000904339
0.00092385
0.000952944
0.000991483
0.00103937
0.0010964
0.00116128
0.00123476
0.0012684
0.00123835
0.00116458
0.00109712
)
;

boundaryField
{
    floor
    {
        type            compressible::alphatWallFunction;
        Prt             0.85;
        value           nonuniform List<scalar> 
36
(
0.000163749
8.30838e-05
0.000100316
0.000117189
0.000124013
0.000122303
0.000114065
0.000104953
9.67701e-05
8.96625e-05
8.34819e-05
7.80833e-05
7.33224e-05
6.91009e-05
6.52527e-05
6.15791e-05
5.78061e-05
5.4244e-05
4.80148e-05
4.80142e-05
5.85451e-05
6.63341e-05
7.46632e-05
9.88019e-05
0.00011024
0.000121316
0.000163747
0.000216907
0.000181004
0.000144463
8.30828e-05
0.000144461
8.23271e-05
0.000184358
0.000136731
0.000215804
)
;
    }
    ceiling
    {
        type            compressible::alphatWallFunction;
        Prt             0.85;
        value           nonuniform List<scalar> 
43
(
0.000288999
0.000311467
0.000327562
0.000352282
0.000340998
0.000333203
0.000322298
0.00030479
0.000282222
0.000256665
0.000230956
0.000208956
0.000192526
0.000181121
0.000173238
0.000167426
0.000162566
0.000157895
0.000153066
0.000148152
0.000143451
0.000139221
0.00013557
0.000132503
0.000130032
0.000128247
0.000127325
0.000127479
0.000128905
0.000131681
0.000135809
0.000141254
0.000147987
0.000155957
0.000164968
0.000175104
0.000179721
0.000175598
0.000165427
0.000156063
0.000471945
0.000546227
0.000337069
)
;
    }
    sWall
    {
        type            compressible::alphatWallFunction;
        Prt             0.85;
        value           uniform 0.000287817;
    }
    nWall
    {
        type            compressible::alphatWallFunction;
        Prt             0.85;
        value           nonuniform List<scalar> 6(0.000121123 0.000125379 0.000148657 0.000184398 0.000189221 0.000155749);
    }
    sideWalls
    {
        type            empty;
    }
    glass1
    {
        type            compressible::alphatWallFunction;
        Prt             0.85;
        value           nonuniform List<scalar> 9(0.000185261 0.000245556 0.000293798 0.000338787 0.000383957 0.000431273 0.000471853 0.000478093 0.00046515);
    }
    glass2
    {
        type            compressible::alphatWallFunction;
        Prt             0.85;
        value           nonuniform List<scalar> 2(0.000224702 0.000214824);
    }
    sun
    {
        type            compressible::alphatWallFunction;
        Prt             0.85;
        value           nonuniform List<scalar> 
14
(
0.00018979
0.000208124
0.000213054
0.000223405
0.000233199
0.000242725
0.00025253
0.000259757
0.000263513
0.000263101
0.000258133
0.000248278
0.000232605
0.000203732
)
;
    }
    Table_master
    {
        type            compressible::alphatWallFunction;
        Prt             0.85;
        value           nonuniform List<scalar> 9(0.000156776 0.000135527 0.000117945 0.000103694 9.21476e-05 8.27415e-05 7.50272e-05 6.88068e-05 6.41051e-05);
    }
    Table_slave
    {
        type            compressible::alphatWallFunction;
        Prt             0.85;
        value           nonuniform List<scalar> 9(0.000177903 0.000161099 0.000148825 0.000139156 0.000130783 0.000123333 0.000116157 0.000108683 0.0001002);
    }
    inlet
    {
        type            fixedValue;
        value           uniform 1.94e-05;
    }
    outlet
    {
        type            zeroGradient;
    }
}


// ************************************************************************* //
