/*--------------------------------*- C++ -*----------------------------------*\
  =========                 |
  \\      /  F ield         | OpenFOAM: The Open Source CFD Toolbox
   \\    /   O peration     | Website:  https://openfoam.org
    \\  /    A nd           | Version:  6
     \\/     M anipulation  |
\*---------------------------------------------------------------------------*/
FoamFile
{
    version     2.0;
    format      ascii;
    class       volScalarField;
    location    "700";
    object      epsilon;
}
// * * * * * * * * * * * * * * * * * * * * * * * * * * * * * * * * * * * * * //

dimensions      [0 2 -3 0 0 0 0];

internalField   nonuniform List<scalar> 
458
(
0.00011509
0.000125122
0.000109247
0.00012271
0.000136516
0.000149753
0.000162399
0.00017467
0.000186949
0.000199865
0.000212862
0.00022418
0.000233631
0.000242058
0.000249156
5.5017e-05
0.00013003
0.000163478
0.000167678
0.000151686
0.000122484
9.84358e-05
7.9872e-05
6.46625e-05
5.20259e-05
4.15618e-05
3.29846e-05
2.6033e-05
2.04393e-05
1.59312e-05
1.22721e-05
1.10449e-05
8.87792e-06
0.000518763
0.00125308
0.000122647
9.8574e-05
0.000101295
0.000105651
0.000110829
0.000117693
0.000127233
0.000140428
0.000157092
0.000175703
0.00019474
0.00021255
0.000236308
0.000301647
0.000278142
0.000113549
0.000101724
0.000190787
0.000143785
0.000129701
0.0001171
9.40718e-05
7.32753e-05
6.09225e-05
4.96933e-05
3.93874e-05
3.06293e-05
2.35868e-05
1.81439e-05
1.41562e-05
1.17297e-05
1.08759e-05
4.65842e-05
2.61063e-05
0.0012923
0.00417306
0.000250197
0.000107493
0.000103478
0.000107951
0.000114337
0.000123007
0.000134436
0.00014884
0.000166004
0.000183145
0.000198001
0.000209807
0.000222904
0.000246696
0.000284206
0.000354251
0.000318561
0.00024437
0.00015535
0.000120699
0.000105375
0.000118979
6.38865e-05
4.573e-05
3.63728e-05
2.97511e-05
2.46234e-05
2.06678e-05
1.77108e-05
1.57663e-05
1.54985e-05
1.58266e-05
0.000103061
4.66333e-05
0.00259528
0.00961202
0.000599964
0.000131961
0.000114497
0.000121457
0.00013122
0.000143283
0.000157998
0.000175595
0.000196176
0.000216075
0.000230655
0.000238496
0.000242578
0.000250932
0.000279169
0.000350734
0.000466296
0.000270329
0.000145275
0.000100059
8.44483e-05
0.000101606
0.000172351
0.000155748
0.000150401
0.000151358
0.000153307
0.000152262
0.000144607
0.000128389
0.000112684
8.10643e-05
5.74277e-05
0.000145777
8.04357e-05
0.00452623
0.0174217
0.00146514
0.000188214
0.000128222
0.00013518
0.000149273
0.000167683
0.00019076
0.000218749
0.000250823
0.000281362
0.000300661
0.000305993
0.000298659
0.000282192
0.000261543
0.000236956
0.000194471
0.000126165
8.68624e-05
7.24467e-05
7.0408e-05
8.01568e-05
0.00010177
0.0001076
0.000108571
0.000112634
0.000117607
0.000119391
0.00011442
0.00010139
8.86512e-05
7.67285e-05
6.42761e-05
9.23157e-05
0.000127057
0.000144178
0.000146292
0.000140836
0.00720835
0.0251712
0.00363799
0.000434801
0.000183278
0.000162139
0.000171358
0.000193026
0.000225088
0.000268823
0.000325395
0.000373824
0.000398356
0.000400814
0.000386627
0.000360194
0.00032178
0.000264639
0.000190302
0.000123375
8.66696e-05
7.44434e-05
7.17982e-05
7.7659e-05
9.35842e-05
0.000101993
0.000108321
0.000120761
0.000136018
0.000149593
0.000155348
0.000146432
0.000119732
9.55591e-05
7.74414e-05
7.67786e-05
8.89897e-05
0.000119673
0.000428605
0.00027974
0.0106644
0.0293729
0.00898095
0.00222454
0.000765669
0.000394395
0.00029497
0.000281616
0.000304993
0.000356642
0.000453277
0.000510177
0.000522636
0.00050717
0.000475805
0.000435171
0.000385408
0.000318934
0.000236407
0.000159132
0.000112016
9.27463e-05
8.14961e-05
7.9953e-05
9.53347e-05
0.000108767
0.000118514
0.000136471
0.000162684
0.000192572
0.000219945
0.000235661
0.000215661
0.000171958
0.000143591
0.000139278
0.000160288
0.000227091
0.000864835
0.000537457
0.0116214
0.0359924
0.0182557
0.011439
0.00622434
0.0030077
0.00152752
0.000961777
0.000767234
0.000728922
0.00075077
0.000728309
0.000679731
0.000620494
0.000557972
0.000494679
0.000429782
0.00035857
0.000279692
0.000203116
0.000150424
0.000126798
0.000103069
8.74132e-05
0.000103111
0.000125916
0.000142927
0.000166858
0.00020097
0.000246028
0.000301824
0.000367019
0.000437541
0.000451755
0.000495184
0.000686482
0.00111661
0.0016772
0.00557494
0.00126858
0.0108129
0.018801
0.0144895
0.0110712
0.00824853
0.00577134
0.00388454
0.00264413
0.00190459
0.00148873
0.00119716
0.000988831
0.000834453
0.000713934
0.000614155
0.000526864
0.00044687
0.000370767
0.000298256
0.000234579
0.000190044
0.000172628
0.000140869
9.96236e-05
0.000113533
0.000148956
0.000177551
0.000206575
0.000243469
0.000294958
0.000366182
0.000463379
0.00059269
0.000758238
0.0009639
0.00127101
0.00163898
0.00198512
0.00229672
0.00115198
0.00429269
0.00517495
0.00525421
0.00456979
0.00359432
0.00271906
0.00206569
0.00160815
0.00128253
0.00104654
0.000869232
0.000730257
0.000616356
0.000519179
0.000433933
0.00035839
0.000292579
0.000239675
0.000208263
0.000210393
0.000196117
0.000113487
0.00012301
0.000170541
0.000214039
0.000249541
0.000279594
0.000316655
0.000365699
0.000432544
0.000526545
0.000658628
0.000824205
0.00101106
0.00116342
0.00119842
0.00108461
0.000589431
0.003425
0.00756822
0.00609956
0.00496085
0.0037768
0.00287985
0.00219955
0.00170237
0.00133869
0.00106629
0.000859308
0.000698252
0.000569546
0.000464247
0.000376981
0.000304989
0.000247362
0.000204933
0.000180593
0.000170471
0.000146086
0.000110605
0.000128488
0.000184621
0.000210753
0.000229403
0.000255322
0.000292339
0.000345756
0.000420521
0.00052271
0.000658462
0.000824672
0.00100147
0.00115937
0.00128433
0.000748911
0.000604394
0.00357163
0.00382019
0.00408382
0.00504969
0.00470185
0.00417681
0.00304771
0.0024627
0.00201231
0.00165674
0.00136919
0.00114171
0.000959139
0.00080578
0.000673685
0.000558815
0.000459236
0.000374132
0.000303171
0.000246209
0.000203354
0.000173995
0.000152061
0.000132365
0.000129262
0.000173612
0.000198597
0.000223586
0.000252514
0.000287726
0.000331782
0.000389327
0.000466327
0.000560764
0.000672953
0.000798111
0.000932476
0.00088469
0.00068338
0.000531556
)
;

boundaryField
{
    floor
    {
        Cmu             0.09;
        kappa           0.41;
        E               9.8;
        type            epsilonWallFunction;
        value           nonuniform List<scalar> 
36
(
0.000249156
5.5017e-05
0.00013003
0.000163478
0.000167678
0.000151686
0.000122484
9.84358e-05
7.9872e-05
6.46625e-05
5.20259e-05
4.15618e-05
3.29846e-05
2.6033e-05
2.04393e-05
1.59312e-05
1.22721e-05
1.10449e-05
8.87792e-06
8.87792e-06
2.61063e-05
4.66333e-05
8.04357e-05
0.000144178
0.000146292
0.000140836
0.000249156
0.000301647
0.000278142
0.000113549
5.5017e-05
0.000113549
0.000101724
0.000354251
0.000318561
0.000466296
)
;
    }
    ceiling
    {
        Cmu             0.09;
        kappa           0.41;
        E               9.8;
        type            epsilonWallFunction;
        value           nonuniform List<scalar> 
43
(
0.00357163
0.00382019
0.00408382
0.00504969
0.00470185
0.00417681
0.00304771
0.0024627
0.00201231
0.00165674
0.00136919
0.00114171
0.000959139
0.00080578
0.000673685
0.000558815
0.000459236
0.000374132
0.000303171
0.000246209
0.000203354
0.000173995
0.000152061
0.000132365
0.000129262
0.000173612
0.000198597
0.000223586
0.000252514
0.000287726
0.000331782
0.000389327
0.000466327
0.000560764
0.000672953
0.000798111
0.000932476
0.00088469
0.00068338
0.000531556
0.0108129
0.018801
0.003425
)
;
    }
    sWall
    {
        Cmu             0.09;
        kappa           0.41;
        E               9.8;
        type            epsilonWallFunction;
        value           uniform 0.00357163;
    }
    nWall
    {
        Cmu             0.09;
        kappa           0.41;
        E               9.8;
        type            epsilonWallFunction;
        value           nonuniform List<scalar> 6(0.000140836 0.00027974 0.000537457 0.000589431 0.000604394 0.000531556);
    }
    sideWalls
    {
        type            empty;
    }
    glass1
    {
        Cmu             0.09;
        kappa           0.41;
        E               9.8;
        type            epsilonWallFunction;
        value           nonuniform List<scalar> 9(0.00011509 0.000518763 0.0012923 0.00259528 0.00452623 0.00720835 0.0106644 0.0116214 0.0108129);
    }
    glass2
    {
        Cmu             0.09;
        kappa           0.41;
        E               9.8;
        type            epsilonWallFunction;
        value           nonuniform List<scalar> 2(0.00126858 0.00115198);
    }
    sun
    {
        Cmu             0.09;
        kappa           0.41;
        E               9.8;
        type            epsilonWallFunction;
        value           nonuniform List<scalar> 
14
(
0.00011509
0.000125122
0.000109247
0.00012271
0.000136516
0.000149753
0.000162399
0.00017467
0.000186949
0.000199865
0.000212862
0.00022418
0.000233631
0.000242058
)
;
    }
    Table_master
    {
        Cmu             0.09;
        kappa           0.41;
        E               9.8;
        type            epsilonWallFunction;
        value           nonuniform List<scalar> 9(0.000118979 6.38865e-05 4.573e-05 3.63728e-05 2.97511e-05 2.46234e-05 2.06678e-05 1.77108e-05 1.57663e-05);
    }
    Table_slave
    {
        Cmu             0.09;
        kappa           0.41;
        E               9.8;
        type            epsilonWallFunction;
        value           nonuniform List<scalar> 9(0.000172351 0.000155748 0.000150401 0.000151358 0.000153307 0.000152262 0.000144607 0.000128389 0.000112684);
    }
    inlet
    {
        type            turbulentMixingLengthDissipationRateInlet;
        mixingLength    0.01;
        phi             phi;
        k               k;
        value           uniform 0.00193196;
    }
    outlet
    {
        type            zeroGradient;
    }
}


// ************************************************************************* //
