/*--------------------------------*- C++ -*----------------------------------*\
  =========                 |
  \\      /  F ield         | OpenFOAM: The Open Source CFD Toolbox
   \\    /   O peration     | Website:  https://openfoam.org
    \\  /    A nd           | Version:  6
     \\/     M anipulation  |
\*---------------------------------------------------------------------------*/
FoamFile
{
    version     2.0;
    format      ascii;
    class       volScalarField;
    location    "500";
    object      alphat;
}
// * * * * * * * * * * * * * * * * * * * * * * * * * * * * * * * * * * * * * //

dimensions      [1 -1 -1 0 0 0 0];

internalField   nonuniform List<scalar> 
458
(
0.000799958
0.00082389
0.000767744
0.00079633
0.000825675
0.000852747
0.000877808
0.00090159
0.00092508
0.000949672
0.000971043
0.000988191
0.00100155
0.0010132
0.00102277
0.000386485
0.000420003
0.000411299
0.000336387
0.000288607
0.000268809
0.000234169
0.000226854
0.000241431
0.000270563
0.000304719
0.0003289
0.000339185
0.000359637
0.000399635
0.000442433
0.000430209
0.00037312
0.00134367
0.00230037
0.00173769
0.00223966
0.00243194
0.00262711
0.00282485
0.00300875
0.00315631
0.00323805
0.00326669
0.00320239
0.00299171
0.00255267
0.00182309
0.00110432
0.00105648
0.000737197
0.000531633
0.00127101
0.00143772
0.00137922
0.000988467
0.000460841
0.000317964
0.000352222
0.000496437
0.000717564
0.000953052
0.00115325
0.00129869
0.00146256
0.00167975
0.00164595
0.00154391
0.000470611
0.00182754
0.0037733
0.00184763
0.00323891
0.00368151
0.0039277
0.0041416
0.00432652
0.00447642
0.00458066
0.00464868
0.00465774
0.00456458
0.00430344
0.00380589
0.0030754
0.00212799
0.00113787
0.000863589
0.00242138
0.00225315
0.00186532
0.00136743
0.000380156
0.000300952
0.000335305
0.000375436
0.000418355
0.000465353
0.00051981
0.000589335
0.00069127
0.00179544
0.00174222
0.00131544
0.000647027
0.00229295
0.00568748
0.00203219
0.00345904
0.00433995
0.00459744
0.00476721
0.00490705
0.00502734
0.00512999
0.005232
0.00534483
0.00544314
0.00546455
0.00528867
0.0047495
0.00370629
0.00226429
0.00117129
0.00272655
0.00304579
0.00253477
0.00186278
0.00122806
0.000765942
0.000758844
0.000758481
0.000763264
0.000774424
0.000793922
0.000823934
0.000868325
0.000938456
0.00235297
0.00300796
0.00302209
0.00103233
0.00273113
0.00782643
0.00269676
0.00313545
0.00450209
0.00481364
0.00493203
0.00500699
0.0050682
0.00513495
0.00524122
0.00543319
0.0057122
0.0060586
0.00641078
0.00667581
0.00676652
0.00660515
0.00618625
0.00593232
0.00547707
0.00500354
0.00459832
0.00427384
0.00401582
0.00386285
0.00372668
0.00360979
0.00352794
0.00349822
0.00352801
0.00361243
0.00374166
0.00392835
0.00402478
0.00395296
0.00324801
0.00144198
0.00130807
0.00116566
0.00314548
0.00979704
0.00415511
0.00281558
0.00409299
0.00462343
0.00480967
0.0048812
0.00488729
0.00486634
0.00492388
0.00509472
0.005385
0.00581007
0.00635149
0.00693604
0.0074412
0.0077046
0.00762248
0.00728822
0.0068508
0.00644272
0.00611361
0.00584649
0.00560106
0.00535054
0.00508133
0.00480073
0.00453954
0.0043401
0.00422629
0.00418743
0.0041916
0.00420206
0.00421268
0.00420265
0.00400253
0.00361015
0.00275696
0.00124185
0.00353678
0.0112617
0.00677622
0.00358678
0.00314523
0.00371546
0.00428641
0.00464607
0.00478516
0.00464362
0.00463682
0.00471696
0.00488906
0.00519069
0.0056553
0.00626649
0.00691612
0.007418
0.00762795
0.00755754
0.00733105
0.0070703
0.00683988
0.006646
0.006467
0.00627682
0.00604604
0.00574657
0.00538355
0.00501267
0.00469683
0.0044488
0.004248
0.00406354
0.00386839
0.0036244
0.00328142
0.00283895
0.00230119
0.00120273
0.00363231
0.0114988
0.00879731
0.00651653
0.00470175
0.00391838
0.00402674
0.00441149
0.00457818
0.00450659
0.00444568
0.00443882
0.0044942
0.00462682
0.00486863
0.00525875
0.00579329
0.00636232
0.00679942
0.00702108
0.00706745
0.00701799
0.00694506
0.00687955
0.00683275
0.00680763
0.0067852
0.00670617
0.00649619
0.00614419
0.00572425
0.00525744
0.00475277
0.00422972
0.00373123
0.00325566
0.00280264
0.00242784
0.00208255
0.00139966
0.00352773
0.00423443
0.0050327
0.00515265
0.00484575
0.00442007
0.00412414
0.00399053
0.00394404
0.00394879
0.00398406
0.00403361
0.00409303
0.00416915
0.00428108
0.00446094
0.0047425
0.00512333
0.00553678
0.00589495
0.00615514
0.00632741
0.00644034
0.00652096
0.00659629
0.00669927
0.00686163
0.00708579
0.00730669
0.00740025
0.00730508
0.00708347
0.00681382
0.00651962
0.00607027
0.00537143
0.00459667
0.004017
0.00379233
0.00172426
0.00483801
0.00663854
0.00566269
0.00509633
0.0047073
0.00443726
0.00424885
0.00410945
0.00400843
0.00393931
0.00389716
0.00388111
0.00389627
0.00395472
0.00407428
0.00427025
0.00453929
0.00485054
0.00515888
0.00542815
0.00564583
0.00581744
0.00596025
0.00610119
0.0062753
0.00651522
0.00681011
0.00711838
0.00735923
0.00745701
0.007402
0.00723991
0.0070387
0.00684757
0.00643399
0.00561052
0.00502042
0.00175192
0.00336398
0.00692045
0.00587381
0.00527589
0.00485705
0.00454493
0.00431641
0.0041561
0.00401155
0.00389853
0.00382735
0.00380573
0.00384042
0.00393705
0.00409771
0.0043172
0.00457989
0.00486046
0.00512735
0.00534027
0.00550197
0.00562349
0.00571639
0.00578971
0.00585045
0.00590619
0.00596853
0.00604806
0.00614159
0.00622621
0.00626713
0.00623962
0.00614401
0.00591905
0.00543991
0.00464607
0.00445289
0.00162497
0.00220295
0.00251184
0.00286944
0.00296046
0.00259216
0.00236188
0.00217265
0.00200784
0.00186154
0.00173036
0.00162126
0.00152756
0.00144612
0.00137588
0.00131718
0.00127118
0.00123919
0.00122181
0.00121806
0.0012251
0.001239
0.0012575
0.00127407
0.0012863
0.0012942
0.00129882
0.00130144
0.00130341
0.00130648
0.00131158
0.00131823
0.00132497
0.00132931
0.001327
0.00131113
0.00128119
0.00124762
0.00120457
0.00123061
0.00116255
)
;

boundaryField
{
    floor
    {
        type            compressible::alphatWallFunction;
        Prt             0.85;
        value           nonuniform List<scalar> 
36
(
0.00014556
5.15958e-05
5.68748e-05
5.55115e-05
4.35945e-05
3.58116e-05
3.25476e-05
2.67404e-05
2.54985e-05
2.79601e-05
3.28257e-05
3.84455e-05
4.23764e-05
4.40349e-05
4.73139e-05
5.36546e-05
6.03472e-05
5.84358e-05
4.94583e-05
4.94576e-05
6.47321e-05
9.13724e-05
0.000146875
0.000203228
0.000185046
0.000165473
0.000145558
0.000156964
0.000150284
0.0001047
5.15951e-05
0.000104699
7.41045e-05
0.000161623
0.000122969
0.000166256
)
;
    }
    ceiling
    {
        type            compressible::alphatWallFunction;
        Prt             0.85;
        value           nonuniform List<scalar> 
43
(
0.000303608
0.000343145
0.000388285
0.000399707
0.000353374
0.000324053
0.00029973
0.000278359
0.000259228
0.000241934
0.000227441
0.000214907
0.000203942
0.00019443
0.000186437
0.000180145
0.000175754
0.000173361
0.000172843
0.000173811
0.000175719
0.000178259
0.000180529
0.000182204
0.000183285
0.000183915
0.000184273
0.000184541
0.00018496
0.000185655
0.000186561
0.000187478
0.000188069
0.000187754
0.000185588
0.000181493
0.00017689
0.000170965
0.000174549
0.000165161
0.000470037
0.000555925
0.000449761
)
;
    }
    sWall
    {
        type            compressible::alphatWallFunction;
        Prt             0.85;
        value           uniform 0.000302535;
    }
    nWall
    {
        type            compressible::alphatWallFunction;
        Prt             0.85;
        value           nonuniform List<scalar> 6(0.000165274 0.000175784 0.000170404 0.000244427 0.000227576 0.000164852);
    }
    sideWalls
    {
        type            empty;
    }
    glass1
    {
        type            compressible::alphatWallFunction;
        Prt             0.85;
        value           nonuniform List<scalar> 9(0.000110837 0.000185786 0.000249759 0.000309679 0.000364998 0.000416512 0.00046455 0.000476311 0.000463752);
    }
    glass2
    {
        type            compressible::alphatWallFunction;
        Prt             0.85;
        value           nonuniform List<scalar> 2(0.000196352 0.000239695);
    }
    sun
    {
        type            compressible::alphatWallFunction;
        Prt             0.85;
        value           nonuniform List<scalar> 
14
(
0.000113841
0.000117279
0.000109154
0.000113299
0.000117536
0.000121429
0.000125019
0.000128415
0.000131759
0.000135249
0.000138273
0.000140694
0.000142576
0.000144215
)
;
    }
    Table_master
    {
        type            compressible::alphatWallFunction;
        Prt             0.85;
        value           nonuniform List<scalar> 9(5.07031e-05 3.79242e-05 4.35018e-05 4.99253e-05 5.6697e-05 6.40109e-05 7.23689e-05 8.2881e-05 9.8021e-05);
    }
    Table_slave
    {
        type            compressible::alphatWallFunction;
        Prt             0.85;
        value           nonuniform List<scalar> 9(0.000108961 0.000107926 0.000107871 0.000108565 0.000110185 0.00011301 0.000117343 0.000123719 0.000133709);
    }
    inlet
    {
        type            fixedValue;
        value           uniform 1.94e-05;
    }
    outlet
    {
        type            zeroGradient;
    }
}


// ************************************************************************* //
