/*--------------------------------*- C++ -*----------------------------------*\
  =========                 |
  \\      /  F ield         | OpenFOAM: The Open Source CFD Toolbox
   \\    /   O peration     | Website:  https://openfoam.org
    \\  /    A nd           | Version:  6
     \\/     M anipulation  |
\*---------------------------------------------------------------------------*/
FoamFile
{
    version     2.0;
    format      ascii;
    class       volScalarField;
    location    "500";
    object      T;
}
// * * * * * * * * * * * * * * * * * * * * * * * * * * * * * * * * * * * * * //

dimensions      [0 0 0 1 0 0 0];

internalField   nonuniform List<scalar> 
458
(
304.36
304.077
304.078
304.089
304.097
304.104
304.11
304.115
304.119
304.123
304.124
304.122
304.118
304.111
304.101
303.131
303.132
303.122
303.066
303.045
303.069
303.085
303.06
303.045
303.037
303.036
303.039
303.041
303.057
303.096
303.136
303.128
303.125
304.573
304.136
304.12
304.136
304.152
304.165
304.177
304.186
304.193
304.197
304.196
304.189
304.173
304.147
304.11
304.075
304.038
303.961
303.244
303.29
303.317
303.313
303.246
303.17
303.164
303.155
303.144
303.142
303.154
303.189
303.246
303.309
303.377
303.351
303.258
303.162
304.771
304.201
304.162
304.184
304.208
304.231
304.252
304.269
304.283
304.291
304.292
304.283
304.262
304.226
304.175
304.115
304.051
303.997
303.58
303.556
303.577
303.607
303.601
303.278
303.246
303.287
303.319
303.347
303.378
303.411
303.457
303.529
303.611
303.47
303.385
303.343
304.952
304.273
304.201
304.226
304.259
304.292
304.324
304.352
304.375
304.391
304.398
304.392
304.371
304.332
304.274
304.2
304.109
304.004
303.909
303.835
303.874
303.924
303.967
303.994
304.015
304.018
304.021
304.025
304.03
304.036
304.042
304.048
304.039
303.973
303.906
303.837
303.805
305.119
304.352
304.24
304.258
304.298
304.34
304.381
304.419
304.454
304.481
304.497
304.499
304.485
304.453
304.403
304.34
304.267
304.193
304.13
304.085
304.07
304.07
304.071
304.07
304.067
304.065
304.064
304.066
304.07
304.076
304.082
304.088
304.089
304.081
304.068
304.05
304.01
304.027
304.021
304.024
305.262
304.442
304.292
304.285
304.324
304.369
304.414
304.46
304.504
304.542
304.57
304.584
304.58
304.559
304.52
304.466
304.401
304.332
304.27
304.22
304.186
304.163
304.145
304.13
304.117
304.106
304.099
304.097
304.098
304.103
304.111
304.119
304.126
304.132
304.137
304.14
304.14
304.135
304.091
304.052
305.375
304.58
304.415
304.35
304.357
304.391
304.433
304.477
304.525
304.578
304.618
304.64
304.647
304.638
304.614
304.574
304.521
304.46
304.399
304.343
304.297
304.259
304.228
304.2
304.176
304.156
304.139
304.128
304.123
304.125
304.132
304.142
304.152
304.163
304.171
304.178
304.182
304.178
304.15
304.062
305.568
304.941
304.769
304.618
304.527
304.497
304.506
304.534
304.583
304.63
304.664
304.683
304.689
304.686
304.673
304.65
304.614
304.568
304.515
304.461
304.409
304.363
304.323
304.286
304.252
304.221
304.192
304.168
304.152
304.144
304.146
304.154
304.165
304.177
304.188
304.197
304.206
304.213
304.218
304.219
305.832
305.567
305.391
305.202
305.03
304.908
304.833
304.793
304.772
304.757
304.748
304.741
304.732
304.722
304.708
304.69
304.667
304.636
304.599
304.556
304.511
304.466
304.424
304.382
304.343
304.304
304.267
304.232
304.202
304.18
304.166
304.16
304.159
304.163
304.171
304.184
304.199
304.215
304.236
304.291
303.934
304.723
304.864
304.868
304.849
304.83
304.815
304.801
304.786
304.771
304.756
304.74
304.724
304.707
304.687
304.666
304.64
304.611
304.578
304.542
304.505
304.467
304.429
304.39
304.351
304.312
304.275
304.241
304.213
304.192
304.178
304.171
304.168
304.168
304.169
304.172
304.175
304.192
304.019
304.643
304.748
304.783
304.79
304.787
304.78
304.771
304.761
304.75
304.737
304.724
304.711
304.696
304.68
304.664
304.645
304.624
304.601
304.575
304.547
304.517
304.486
304.453
304.419
304.384
304.348
304.311
304.277
304.246
304.222
304.205
304.193
304.185
304.18
304.176
304.173
304.192
304.167
304.1
304.103
304.562
304.662
304.699
304.712
304.715
304.712
304.706
304.699
304.692
304.683
304.674
304.664
304.653
304.64
304.627
304.612
304.597
304.58
304.563
304.545
304.525
304.504
304.481
304.457
304.432
304.405
304.375
304.345
304.315
304.288
304.263
304.243
304.226
304.211
304.196
304.182
304.198
)
;

boundaryField
{
    floor
    {
        type            wallHeatTransfer;
        Tinf            uniform 305.2;
        alphaWall       uniform 0.24;
        value           nonuniform List<scalar> 
36
(
304.236
303.621
303.598
303.596
303.615
303.65
303.691
303.749
303.743
303.711
303.666
303.625
303.602
303.594
303.587
303.585
303.586
303.588
303.627
303.627
303.589
303.659
303.975
304.138
304.141
304.155
304.236
304.205
304.178
304.154
303.621
304.154
303.623
304.134
303.805
304.053
)
;
    }
    ceiling
    {
        type            wallHeatTransfer;
        Tinf            uniform 303.2;
        alphaWall       uniform 0.24;
        value           nonuniform List<scalar> 
43
(
304.101
304.045
304.053
304.489
304.575
304.602
304.608
304.604
304.594
304.582
304.569
304.556
304.543
304.529
304.515
304.501
304.487
304.473
304.46
304.447
304.433
304.42
304.404
304.388
304.369
304.35
304.328
304.306
304.281
304.256
304.229
304.202
304.178
304.156
304.137
304.12
304.104
304.088
304.077
304.087
305.71
305.473
303.979
)
;
    }
    sWall
    {
        type            wallHeatTransfer;
        Tinf            uniform 315.2;
        alphaWall       uniform 0.36;
        value           uniform 305.257;
    }
    nWall
    {
        type            wallHeatTransfer;
        Tinf            uniform 307.2;
        alphaWall       uniform 0.36;
        value           nonuniform List<scalar> 6(304.528 304.529 304.548 304.546 304.566 304.675);
    }
    sideWalls
    {
        type            empty;
    }
    glass1
    {
        type            wallHeatTransfer;
        Tinf            uniform 315.2;
        alphaWall       uniform 4.3;
        value           nonuniform List<scalar> 9(312.587 311.696 311.128 310.709 310.401 310.161 309.966 310.012 310.213);
    }
    glass2
    {
        type            wallHeatTransfer;
        Tinf            uniform 307.2;
        alphaWall       uniform 4.3;
        value           nonuniform List<scalar> 2(306.185 306.09);
    }
    sun
    {
        type            wallHeatTransfer;
        Tinf            uniform 305.2;
        alphaWall       uniform 0.24;
        value           nonuniform List<scalar> 
14
(
304.484
304.239
304.248
304.252
304.255
304.258
304.26
304.261
304.262
304.262
304.261
304.258
304.253
304.246
)
;
    }
    Table_master
    {
        type            zeroGradient;
    }
    Table_slave
    {
        type            zeroGradient;
    }
    inlet
    {
        type            fixedValue;
        value           uniform 299.15;
    }
    outlet
    {
        type            zeroGradient;
    }
}


// ************************************************************************* //
